<event>
 7    1  0.2766180E-009  0.1068805E+03  0.7561462E-02  0.1266458E+00
         -2   -1    0    0    0  501 -0.00000000000E+00  0.00000000000E+00  0.12813378408E+02  0.12813378408E+02  0.00000000000E+00 0. -1.
          2   -1    0    0  501    0  0.00000000000E+00 -0.00000000000E+00 -0.10716338494E+04  0.10716338494E+04  0.00000000000E+00 0.  1.
         25    2    1    2    0    0 -0.26825955234E+02 -0.78474055407E+01 -0.75301078421E+03  0.76384186965E+03  0.12509175448E+03 0.  0.
          5    1    3    3  502    0  0.26549143427E+02 -0.45126559335E+02 -0.49224010313E+03  0.49503439770E+03  0.41800000000E+01 0.  1.
         -5    1    3    3    0  502 -0.53375098660E+02  0.37279153794E+02 -0.26077068109E+03  0.26880747195E+03  0.41800000000E+01 0.  1.
        -11    1    1    2    0    0  0.57133465413E+02 -0.13772468317E+02 -0.19878142950E+03  0.20728716909E+03  0.00000000000E+00 0. -1.
         11    1    1    2    0    0 -0.30307510180E+02  0.21619873858E+02 -0.10702825731E+03  0.11331818910E+03  0.00000000000E+00 0.  1.
</event>
<event>
 7    1  0.2766180E-009  0.1267279E+03  0.7561462E-02  0.1232393E+00
         -2   -1    0    0    0  501 -0.00000000000E+00  0.00000000000E+00  0.52083810399E+03  0.52083810399E+03  0.00000000000E+00 0.  1.
          2   -1    0    0  501    0  0.00000000000E+00 -0.00000000000E+00 -0.45784026385E+02  0.45784026385E+02  0.00000000000E+00 0. -1.
         25    2    1    2    0    0 -0.16162204475E+01 -0.10792187794E+03  0.26380486865E+03  0.31127136841E+03  0.12508841739E+03 0.  0.
          5    1    3    3  502    0  0.88084331811E+01 -0.64946475560E+02  0.28126588678E+02  0.71443758113E+02  0.41800000000E+01 0.  1.
         -5    1    3    3    0  502 -0.10424653629E+02 -0.42975402383E+02  0.23567827997E+03  0.23982761030E+03  0.41800000000E+01 0.  1.
        -11    1    1    2    0    0  0.37398470672E+01 -0.17513975960E+02  0.29426333957E+02  0.34447567986E+02  0.00000000000E+00 0.  1.
         11    1    1    2    0    0 -0.21236266197E+01  0.12543585390E+03  0.18182287500E+03  0.22090319397E+03  0.00000000000E+00 0. -1.
</event>
<event>
 7    1  0.2766180E-009  0.1144072E+03  0.7561462E-02  0.1252619E+00
         -2   -1    0    0    0  501 -0.00000000000E+00  0.00000000000E+00  0.17843663963E+02  0.17843663963E+02  0.00000000000E+00 0.  1.
          2   -1    0    0  501    0  0.00000000000E+00 -0.00000000000E+00 -0.76962062322E+03  0.76962062322E+03  0.00000000000E+00 0. -1.
         25    2    1    2    0    0 -0.28169089837E+02  0.25542909138E+02 -0.50745215292E+03  0.52402274194E+03  0.12508480619E+03 0.  0.
          5    1    3    3  502    0 -0.25345782496E+02  0.75670177090E+02 -0.33188370134E+03  0.34136878593E+03  0.41800000000E+01 0. -1.
         -5    1    3    3    0  502 -0.28233073412E+01 -0.50127267952E+02 -0.17556845158E+03  0.18265395601E+03  0.41800000000E+01 0. -1.
        -11    1    1    2    0    0  0.52135149346E+02  0.12450935043E+02 -0.13236760715E+03  0.14280855368E+03  0.00000000000E+00 0.  1.
         11    1    1    2    0    0 -0.23966059509E+02 -0.37993844180E+02 -0.11195719919E+03  0.12063299156E+03  0.00000000000E+00 0. -1.
</event>
<event>
 6    1  0.2766180E-009  0.1553988E+03  0.7561462E-02  0.1193992E+00
          2   -1    0    0  501    0  0.00000000000E+00  0.00000000000E+00  0.55101553183E+03  0.55101553183E+03  0.00000000000E+00 0. -1.
         -2   -1    0    0    0  501 -0.00000000000E+00 -0.00000000000E+00 -0.48421000678E+02  0.48421000678E+02  0.00000000000E+00 0.  1.
          5    1    1    2  502    0  0.52228379967E+02 -0.90881752482E+02  0.10265642734E+03  0.14677571693E+03  0.41800000000E+01 0. -1.
         -5    1    1    2    0  502 -0.47765689155E+02 -0.32128866487E+02  0.15042234853E+03  0.16111542589E+03  0.41800000000E+01 0. -1.
        -11    1    1    2    0    0 -0.42388750965E+02  0.82058731402E+02  0.18073029272E+03  0.20296275597E+03  0.00000000000E+00 0. -1.
         11    1    1    2    0    0  0.37926060154E+02  0.40951887566E+02  0.68785462575E+02  0.88582633714E+02  0.00000000000E+00 0.  1.
</event>
<event>
 7    1  0.2766180E-009  0.9628783E+02  0.7561462E-02  0.1288302E+00
         -1   -1    0    0    0  501 -0.00000000000E+00  0.00000000000E+00  0.10502598045E+03  0.10502598045E+03  0.00000000000E+00 0.  1.
          1   -1    0    0  501    0  0.00000000000E+00 -0.00000000000E+00 -0.17400725297E+03  0.17400725297E+03  0.00000000000E+00 0. -1.
         25    2    1    2    0    0 -0.31914574194E+02  0.45243285522E+02  0.21261737513E+02  0.13844117611E+03  0.12509357629E+03 0.  0.
          5    1    3    3  502    0 -0.18870885239E+00 -0.16173158681E+02 -0.41652287407E+02  0.44877523539E+02  0.41800000000E+01 0. -1.
         -5    1    3    3    0  502 -0.31725865341E+02  0.61416444204E+02  0.62914024920E+02  0.93563652568E+02  0.41800000000E+01 0. -1.
        -11    1    1    2    0    0  0.58247714715E+02 -0.49177903174E+01 -0.59749896247E+02  0.83588462318E+02  0.00000000000E+00 0. -1.
         11    1    1    2    0    0 -0.26333140521E+02 -0.40325495205E+02 -0.30493113785E+02  0.57003594988E+02  0.00000000000E+00 0.  1.
</event>
<event>
 7    1  0.2766180E-009  0.9741443E+02  0.7561462E-02  0.1285829E+00
         -1   -1    0    0    0  501 -0.00000000000E+00  0.00000000000E+00  0.30888637903E+03  0.30888637903E+03  0.00000000000E+00 0.  1.
          1   -1    0    0  501    0  0.00000000000E+00 -0.00000000000E+00 -0.56979196719E+02  0.56979196719E+02  0.00000000000E+00 0. -1.
         25    2    1    2    0    0 -0.25086911452E+02 -0.42392855604E+02  0.21321631071E+03  0.25206726827E+03  0.12510078037E+03 0.  0.
          5    1    3    3  502    0  0.42687588069E+02 -0.55545307741E+01  0.28362038446E+02  0.51720021385E+02  0.41800000000E+01 0. -1.
         -5    1    3    3    0  502 -0.67774499521E+02 -0.36838324830E+02  0.18485427226E+03  0.20034724689E+03  0.41800000000E+01 0. -1.
        -11    1    1    2    0    0 -0.17513738515E+02  0.67064579371E+01 -0.23715497809E+02  0.30234623384E+02  0.00000000000E+00 0. -1.
         11    1    1    2    0    0  0.42600649967E+02  0.35686397667E+02  0.62406369413E+02  0.83563684094E+02  0.00000000000E+00 0.  1.
</event>
<event>
 7    1  0.2766180E-009  0.1061965E+03  0.7561462E-02  0.1267780E+00
         -2   -1    0    0    0  501 -0.00000000000E+00  0.00000000000E+00  0.32513237905E+03  0.32513237905E+03  0.00000000000E+00 0.  1.
          2   -1    0    0  501    0  0.00000000000E+00 -0.00000000000E+00 -0.55799700590E+02  0.55799700590E+02  0.00000000000E+00 0. -1.
         25    2    1    2    0    0  0.48116692111E+01 -0.62092014067E+02  0.10545261738E+03  0.17505762387E+03  0.12508535802E+03 0.  0.
          5    1    3    3  502    0  0.30553676114E+02 -0.13636230870E+02 -0.19198086601E+02  0.38800938720E+02  0.41800000000E+01 0. -1.
         -5    1    3    3    0  502 -0.25742006903E+02 -0.48455783197E+02  0.12465070399E+03  0.13625668515E+03  0.41800000000E+01 0. -1.
        -11    1    1    2    0    0  0.49896149093E+02  0.16880479717E+02  0.57362835735E+02  0.77878567098E+02  0.00000000000E+00 0. -1.
         11    1    1    2    0    0 -0.54707818304E+02  0.45211534350E+02  0.10651722534E+03  0.12799588867E+03  0.00000000000E+00 0.  1.
</event>
<event>
 7    1  0.2766180E-009  0.2148822E+03  0.7561462E-02  0.1137757E+00
          2   -1    0    0  501    0  0.00000000000E+00  0.00000000000E+00  0.20679447408E+03  0.20679447408E+03  0.00000000000E+00 0. -1.
         -2   -1    0    0    0  501 -0.00000000000E+00 -0.00000000000E+00 -0.25391777466E+03  0.25391777466E+03  0.00000000000E+00 0.  1.
         25    2    1    2    0    0 -0.19476592265E+03  0.22387866767E+02 -0.72991391886E+02  0.24374158405E+03  0.12508890958E+03 0.  0.
          5    1    3    3  502    0 -0.12379674105E+03 -0.42119359700E+02 -0.68404598476E+02  0.14763581899E+03  0.41800000000E+01 0.  1.
         -5    1    3    3    0  502 -0.70969181604E+02  0.64507226467E+02 -0.45867934095E+01  0.96105765060E+02  0.41800000000E+01 0.  1.
        -11    1    1    2    0    0  0.71214446878E+02  0.17078932257E+02 -0.25385970759E+02  0.77508934212E+02  0.00000000000E+00 0.  1.
         11    1    1    2    0    0  0.12355147577E+03 -0.39466799024E+02  0.51254062065E+02  0.13946173048E+03  0.00000000000E+00 0. -1.
</event>
<event>
 7    1  0.2766180E-009  0.1625747E+03  0.7561462E-02  0.1185820E+00
         -1   -1    0    0    0  501 -0.00000000000E+00  0.00000000000E+00  0.26081650289E+03  0.26081650289E+03  0.00000000000E+00 0.  1.
          1   -1    0    0  501    0  0.00000000000E+00 -0.00000000000E+00 -0.14161090916E+03  0.14161090916E+03  0.00000000000E+00 0. -1.
         25    2    1    2    0    0 -0.11104546122E+03  0.83186267069E+02  0.14239280344E+03  0.23488858327E+03  0.12508351848E+03 0.  0.
          5    1    3    3  502    0 -0.12363543305E+03  0.28804646088E+02  0.11955958117E+03  0.17443449714E+03  0.41800000000E+01 0.  1.
         -5    1    3    3    0  502  0.12589971832E+02  0.54381620981E+02  0.22833222262E+02  0.60454086133E+02  0.41800000000E+01 0.  1.
        -11    1    1    2    0    0  0.55528932842E+02 -0.22515015756E+02 -0.53067316409E+02  0.80040792025E+02  0.00000000000E+00 0.  1.
         11    1    1    2    0    0  0.55516528381E+02 -0.60671251313E+02  0.29880106704E+02  0.87498036755E+02  0.00000000000E+00 0. -1.
</event>
<event>
 7    1  0.2766180E-009  0.9817668E+02  0.7561462E-02  0.1284178E+00
         -1   -1    0    0    0  501 -0.00000000000E+00  0.00000000000E+00  0.23233369823E+02  0.23233369823E+02  0.00000000000E+00 0.  1.
          1   -1    0    0  501    0  0.00000000000E+00 -0.00000000000E+00 -0.53431322114E+03  0.53431322114E+03  0.00000000000E+00 0. -1.
         25    2    1    2    0    0 -0.66728769384E+01 -0.17249816725E+02 -0.29418263276E+03  0.32020705784E+03  0.12508818893E+03 0.  0.
          5    1    3    3  502    0 -0.28977423457E+02  0.44659853683E+02 -0.80660407100E+02  0.96735553312E+02  0.41800000000E+01 0.  1.
         -5    1    3    3    0  502  0.22304546518E+02 -0.61909670407E+02 -0.21352222566E+03  0.22347150453E+03  0.41800000000E+01 0.  1.
        -11    1    1    2    0    0  0.31405648948E+02 -0.16260568947E+02 -0.31623728562E+02  0.47442397668E+02  0.00000000000E+00 0.  1.
         11    1    1    2    0    0 -0.24732772009E+02  0.33510385672E+02 -0.18527348999E+03  0.18989713545E+03  0.00000000000E+00 0. -1.
</event>
<event>
 7    1  0.2766180E-009  0.1087817E+03  0.7561462E-02  0.1262843E+00
          2   -1    0    0  501    0  0.00000000000E+00  0.00000000000E+00  0.62515485298E+03  0.62515485298E+03  0.00000000000E+00 0. -1.
         -2   -1    0    0    0  501 -0.00000000000E+00 -0.00000000000E+00 -0.27757846150E+02  0.27757846150E+02  0.00000000000E+00 0.  1.
         25    2    1    2    0    0 -0.28296979446E+02  0.62457403586E+02  0.40704625093E+03  0.43131757692E+03  0.12508619210E+03 0.  0.
          5    1    3    3  502    0 -0.48729538826E+02  0.93283805827E+02  0.29350606074E+03  0.31183283418E+03  0.41800000000E+01 0. -1.
         -5    1    3    3    0  502  0.20432559379E+02 -0.30826402241E+02  0.11354019019E+03  0.11948474274E+03  0.41800000000E+01 0. -1.
        -11    1    1    2    0    0  0.20137810891E+02 -0.11058063430E+02 -0.12931251235E+01  0.23010527306E+02  0.00000000000E+00 0.  1.
         11    1    1    2    0    0  0.81591685554E+01 -0.51399340156E+02  0.19164388102E+03  0.19858459491E+03  0.00000000000E+00 0. -1.
</event>
<event>
 7    1  0.2766180E-009  0.2085793E+03  0.7561462E-02  0.1142696E+00
         -1   -1    0    0    0  501 -0.00000000000E+00  0.00000000000E+00  0.14979681061E+03  0.14979681061E+03  0.00000000000E+00 0.  1.
          1   -1    0    0  501    0  0.00000000000E+00 -0.00000000000E+00 -0.38135648518E+03  0.38135648518E+03  0.00000000000E+00 0. -1.
         25    2    1    2    0    0  0.17632346577E+03  0.72683083167E+02 -0.13208766606E+02  0.22846224197E+03  0.12509088428E+03 0.  0.
          5    1    3    3  502    0  0.42149069006E+02  0.59513164702E+02  0.40213308333E+02  0.83384311222E+02  0.41800000000E+01 0.  1.
         -5    1    3    3    0  502  0.13417439677E+03  0.13169918465E+02 -0.53422074939E+02  0.14507793075E+03  0.41800000000E+01 0.  1.
        -11    1    1    2    0    0 -0.82251024085E+02  0.11422003790E+02 -0.77577288716E+02  0.11363946875E+03  0.00000000000E+00 0.  1.
         11    1    1    2    0    0 -0.94072441686E+02 -0.84105086957E+02 -0.14077361925E+03  0.18905158506E+03  0.00000000000E+00 0. -1.
</event>
<event>
 7    1  0.2766180E-009  0.1005880E+03  0.7561462E-02  0.1279064E+00
          1   -1    0    0  501    0  0.00000000000E+00  0.00000000000E+00  0.58812275759E+03  0.58812275759E+03  0.00000000000E+00 0. -1.
         -1   -1    0    0    0  501 -0.00000000000E+00 -0.00000000000E+00 -0.30072584427E+02  0.30072584427E+02  0.00000000000E+00 0.  1.
         25    2    1    2    0    0 -0.29594851583E+02 -0.32612331795E+02  0.16134546707E+03  0.20885242326E+03  0.12509018958E+03 0.  0.
          5    1    3    3  502    0  0.25159026902E+02  0.15408008249E+02 -0.20959711721E+01  0.29870534779E+02  0.41800000000E+01 0.  1.
         -5    1    3    3    0  502 -0.54753878485E+02 -0.48020340043E+02  0.16344143824E+03  0.17898188848E+03  0.41800000000E+01 0.  1.
        -11    1    1    2    0    0  0.58662851988E+02  0.59096180614E+01  0.28011934501E+03  0.28625705448E+03  0.00000000000E+00 0. -1.
         11    1    1    2    0    0 -0.29068000405E+02  0.26702713733E+02  0.11658536109E+03  0.12308586429E+03  0.00000000000E+00 0.  1.
</event>
<event>
 7    1  0.2766180E-009  0.1082192E+03  0.7561462E-02  0.1263904E+00
          1   -1    0    0  501    0  0.00000000000E+00  0.00000000000E+00  0.18234059892E+03  0.18234059892E+03  0.00000000000E+00 0. -1.
         -1   -1    0    0    0  501 -0.00000000000E+00 -0.00000000000E+00 -0.70819281915E+02  0.70819281915E+02  0.00000000000E+00 0.  1.
         25    2    1    2    0    0  0.11467565284E+02  0.13951182790E+02  0.95073552706E+02  0.15815440937E+03  0.12509075195E+03 0.  0.
          5    1    3    3  502    0  0.54428013829E+02  0.45838517591E+02  0.42293656325E+02  0.82884281680E+02  0.41800000000E+01 0. -1.
         -5    1    3    3    0  502 -0.42960448545E+02 -0.31887334801E+02  0.52779896381E+02  0.75270127686E+02  0.41800000000E+01 0. -1.
        -11    1    1    2    0    0  0.36721005569E+02 -0.21746893327E+02  0.17631444141E+02  0.46176048357E+02  0.00000000000E+00 0.  1.
         11    1    1    2    0    0 -0.48188570853E+02  0.77957105365E+01 -0.11836798387E+01  0.48829423114E+02  0.00000000000E+00 0. -1.
</event>
<event>
 7    1  0.2766180E-009  0.1323625E+03  0.7561462E-02  0.1223992E+00
         -1   -1    0    0    0  501 -0.00000000000E+00  0.00000000000E+00  0.54010025895E+03  0.54010025895E+03  0.00000000000E+00 0.  1.
          1   -1    0    0  501    0  0.00000000000E+00 -0.00000000000E+00 -0.37180036567E+02  0.37180036567E+02  0.00000000000E+00 0. -1.
         25    2    1    2    0    0 -0.59820729500E+02 -0.57917132099E+02  0.34610882192E+03  0.37732270639E+03  0.12509274269E+03 0.  0.
          5    1    3    3  502    0 -0.83477062201E+02 -0.81112336454E+02  0.25689741248E+03  0.28206627586E+03  0.41800000000E+01 0.  1.
         -5    1    3    3    0  502  0.23656332700E+02  0.23195204355E+02  0.89211409442E+02  0.95256430526E+02  0.41800000000E+01 0.  1.
        -11    1    1    2    0    0  0.66645800015E+02  0.11116222905E+02  0.52977571334E+02  0.85859513950E+02  0.00000000000E+00 0. -1.
         11    1    1    2    0    0 -0.68250705144E+01  0.46800909194E+02  0.10383382912E+03  0.11409807518E+03  0.00000000000E+00 0.  1.
</event>
<event>
 7    1  0.2766180E-009  0.1434767E+03  0.7561462E-02  0.1208726E+00
         -2   -1    0    0    0  501 -0.00000000000E+00  0.00000000000E+00  0.39069929718E+02  0.39069929718E+02  0.00000000000E+00 0.  1.
          2   -1    0    0  501    0  0.00000000000E+00 -0.00000000000E+00 -0.11683562621E+04  0.11683562621E+04  0.00000000000E+00 0. -1.
         25    2    1    2    0    0  0.12766710500E+03 -0.16116938586E+02 -0.95833412871E+03  0.97499243391E+03  0.12508916233E+03 0.  0.
          5    1    3    3  502    0  0.27466603089E+02 -0.33131258088E+02 -0.62473866555E+03  0.62623315721E+03  0.41800000000E+01 0. -1.
         -5    1    3    3    0  502  0.10020050191E+03  0.17014319501E+02 -0.33359546315E+03  0.34875927671E+03  0.41800000000E+01 0. -1.
        -11    1    1    2    0    0  0.10164131713E+01  0.13239530067E+02  0.52044957257E+01  0.14262013459E+02  0.00000000000E+00 0.  1.
         11    1    1    2    0    0 -0.12868351817E+03  0.28774085191E+01 -0.17615669937E+03  0.21817174442E+03  0.00000000000E+00 0. -1.
</event>
<event>
 7    1  0.2766180E-009  0.1057673E+03  0.7561462E-02  0.1268615E+00
          2   -1    0    0  501    0  0.00000000000E+00  0.00000000000E+00  0.71358892091E+03  0.71358892091E+03  0.00000000000E+00 0. -1.
         -2   -1    0    0    0  501 -0.00000000000E+00 -0.00000000000E+00 -0.19602268040E+02  0.19602268040E+02  0.00000000000E+00 0.  1.
         25    2    1    2    0    0  0.40033867628E+02  0.15605736475E+02  0.44693611394E+03  0.46609622593E+03  0.12509017672E+03 0.  0.
          5    1    3    3  502    0 -0.30546639622E+02  0.42116364470E+02  0.12573025401E+03  0.13613395801E+03  0.41800000000E+01 0. -1.
         -5    1    3    3    0  502  0.70580507250E+02 -0.26510627995E+02  0.32120585993E+03  0.32996226792E+03  0.41800000000E+01 0. -1.
        -11    1    1    2    0    0  0.18990268294E+02 -0.15955025278E+02  0.18224098714E+02  0.30778416065E+02  0.00000000000E+00 0.  1.
         11    1    1    2    0    0 -0.59024135922E+02  0.34928880328E+00  0.22882644022E+03  0.23631654696E+03  0.00000000000E+00 0. -1.
</event>
<event>
 7    1  0.2766180E-009  0.1550758E+03  0.7561462E-02  0.1194371E+00
         -1   -1    0    0    0  501 -0.00000000000E+00  0.00000000000E+00  0.14461991358E+03  0.14461991358E+03  0.00000000000E+00 0.  1.
          1   -1    0    0  501    0  0.00000000000E+00 -0.00000000000E+00 -0.21473794137E+03  0.21473794137E+03  0.00000000000E+00 0. -1.
         25    2    1    2    0    0 -0.11361320030E+03  0.79962319563E+02 -0.42737627419E+02  0.19177411958E+03  0.12509546879E+03 0.  0.
          5    1    3    3  502    0 -0.78628835153E+02  0.81865794914E+02  0.24172477785E+02  0.11613045758E+03  0.41800000000E+01 0.  1.
         -5    1    3    3    0  502 -0.34984365150E+02 -0.19034753508E+01 -0.66910105204E+02  0.75643662006E+02  0.41800000000E+01 0.  1.
        -11    1    1    2    0    0  0.75216412570E+02 -0.30057794663E+01  0.55742070006E+01  0.75482549068E+02  0.00000000000E+00 0.  1.
         11    1    1    2    0    0  0.38396787733E+02 -0.76956540097E+02 -0.32954607365E+02  0.92101186303E+02  0.00000000000E+00 0. -1.
</event>
<event>
 7    1  0.2766180E-009  0.1147739E+03  0.7561462E-02  0.1251976E+00
          2   -1    0    0  501    0  0.00000000000E+00  0.00000000000E+00  0.66853876346E+03  0.66853876346E+03  0.00000000000E+00 0. -1.
         -2   -1    0    0    0  501 -0.00000000000E+00 -0.00000000000E+00 -0.21357475417E+02  0.21357475417E+02  0.00000000000E+00 0.  1.
         25    2    1    2    0    0 -0.11929617187E+02  0.48098398321E+02  0.33728914218E+03  0.36313551401E+03  0.12509062481E+03 0.  0.
          5    1    3    3  502    0 -0.64119064687E+02  0.10980246541E+02  0.11994973365E+03  0.13651824520E+03  0.41800000000E+01 0. -1.
         -5    1    3    3    0  502  0.52189447500E+02  0.37118151780E+02  0.21733940854E+03  0.22661726881E+03  0.41800000000E+01 0. -1.
        -11    1    1    2    0    0 -0.35321681813E+02 -0.37967245464E+02  0.20182702032E+03  0.20838253061E+03  0.00000000000E+00 0. -1.
         11    1    1    2    0    0  0.47251299000E+02 -0.10131152857E+02  0.10806512554E+03  0.11837819425E+03  0.00000000000E+00 0.  1.
</event>
<event>
 7    1  0.2766180E-009  0.1723051E+03  0.7561462E-02  0.1175465E+00
         -2   -1    0    0    0  501 -0.00000000000E+00  0.00000000000E+00  0.26962760802E+03  0.26962760802E+03  0.00000000000E+00 0. -1.
          2   -1    0    0  501    0  0.00000000000E+00 -0.00000000000E+00 -0.15045050806E+03  0.15045050806E+03  0.00000000000E+00 0.  1.
         25    2    1    2    0    0 -0.52422125513E+02 -0.13844310207E+03  0.14454591563E+03  0.24177644692E+03  0.12509099410E+03 0.  0.
          5    1    3    3  502    0 -0.28217883358E+02  0.40516019930E+01 -0.96541288728E+01  0.30386494108E+02  0.41800000000E+01 0. -1.
         -5    1    3    3    0  502 -0.24204242155E+02 -0.14249470406E+03  0.15420004451E+03  0.21138995281E+03  0.41800000000E+01 0. -1.
        -11    1    1    2    0    0  0.76504841999E+02  0.10152411627E+03 -0.37582298918E+02  0.13256155636E+03  0.00000000000E+00 0.  1.
         11    1    1    2    0    0 -0.24082716487E+02  0.36918985797E+02  0.12213483250E+02  0.45740112798E+02  0.00000000000E+00 0. -1.
</event>
<event>
 7    1  0.2766180E-009  0.3552898E+03  0.7561462E-02  0.1060465E+00
          2   -1    0    0  501    0  0.00000000000E+00  0.00000000000E+00  0.50787352960E+03  0.50787352960E+03  0.00000000000E+00 0. -1.
         -2   -1    0    0    0  501 -0.00000000000E+00 -0.00000000000E+00 -0.28970551328E+03  0.28970551328E+03  0.00000000000E+00 0.  1.
         25    2    1    2    0    0  0.85254232915E+02 -0.33351329423E+03 -0.24292632567E+02  0.36706547337E+03  0.12509007988E+03 0.  0.
          5    1    3    3  502    0  0.90810363148E+02 -0.11081383439E+03 -0.14135914483E+02  0.14402612411E+03  0.41800000000E+01 0.  1.
         -5    1    3    3    0  502 -0.55561302339E+01 -0.22269945985E+03 -0.10156718084E+02  0.22303934927E+03  0.41800000000E+01 0.  1.
        -11    1    1    2    0    0 -0.38854902155E+02  0.12868003717E+03  0.14888779882E+03  0.20058871360E+03  0.00000000000E+00 0. -1.
         11    1    1    2    0    0 -0.46399330759E+02  0.20483325706E+03  0.93572850066E+02  0.22992485591E+03  0.00000000000E+00 0.  1.
</event>
<event>
 7    1  0.2766180E-009  0.1078732E+03  0.7561462E-02  0.1264560E+00
          1   -1    0    0  501    0  0.00000000000E+00  0.00000000000E+00  0.35882914361E+03  0.35882914361E+03  0.00000000000E+00 0. -1.
         -1   -1    0    0    0  501 -0.00000000000E+00 -0.00000000000E+00 -0.56502247915E+02  0.56502247915E+02  0.00000000000E+00 0.  1.
         25    2    1    2    0    0  0.19500286418E+02 -0.83366684514E+02  0.11651736394E+03  0.19119113715E+03  0.12508992592E+03 0.  0.
          5    1    3    3  502    0 -0.10244983536E+01 -0.55704144687E+02  0.13902570232E+03  0.14983197135E+03  0.41800000000E+01 0. -1.
         -5    1    3    3    0  502  0.20524784771E+02 -0.27662539827E+02 -0.22508338375E+02  0.41359165804E+02  0.41800000000E+01 0. -1.
        -11    1    1    2    0    0 -0.50974911821E+02  0.20634739297E+02  0.75767587792E+02  0.93621372885E+02  0.00000000000E+00 0. -1.
         11    1    1    2    0    0  0.31474625404E+02  0.62731945217E+02  0.11004194396E+03  0.13051888149E+03  0.00000000000E+00 0.  1.
</event>
<event>
 7    1  0.2766180E-009  0.9262497E+02  0.7561462E-02  0.1296617E+00
          2   -1    0    0  501    0  0.00000000000E+00  0.00000000000E+00  0.12044486031E+03  0.12044486031E+03  0.00000000000E+00 0.  1.
         -2   -1    0    0    0  501 -0.00000000000E+00 -0.00000000000E+00 -0.11829356245E+03  0.11829356245E+03  0.00000000000E+00 0. -1.
         25    2    1    2    0    0 -0.16551034945E+02 -0.27042936444E+02  0.13058823744E+02  0.12969112457E+03  0.12507596789E+03 0.  0.
          5    1    3    3  502    0  0.55913410851E+01  0.41450269154E+02  0.34594298615E+02  0.54439193645E+02  0.41800000000E+01 0. -1.
         -5    1    3    3    0  502 -0.22142376030E+02 -0.68493205598E+02 -0.21535474872E+02  0.75251930921E+02  0.41800000000E+01 0. -1.
        -11    1    1    2    0    0 -0.24594405328E+02  0.11135785946E+02 -0.45555013312E+02  0.52954223060E+02  0.00000000000E+00 0. -1.
         11    1    1    2    0    0  0.41145440273E+02  0.15907150499E+02  0.34647487429E+02  0.56093075128E+02  0.00000000000E+00 0.  1.
</event>
<event>
 7    1  0.2766180E-009  0.1007622E+03  0.7561462E-02  0.1278701E+00
          2   -1    0    0  501    0  0.00000000000E+00  0.00000000000E+00  0.23631687535E+03  0.23631687535E+03  0.00000000000E+00 0. -1.
         -2   -1    0    0    0  501 -0.00000000000E+00 -0.00000000000E+00 -0.61143616380E+02  0.61143616380E+02  0.00000000000E+00 0.  1.
         25    2    1    2    0    0 -0.79872620591E+01  0.29773800485E+02  0.15291758432E+03  0.19995366836E+03  0.12508959327E+03 0.  0.
          5    1    3    3  502    0 -0.21516698722E+02  0.72755329750E+02  0.60784001270E+02  0.97306081728E+02  0.41800000000E+01 0. -1.
         -5    1    3    3    0  502  0.13529436663E+02 -0.42981529265E+02  0.92133583055E+02  0.10264758663E+03  0.41800000000E+01 0. -1.
        -11    1    1    2    0    0  0.37701213757E+02  0.71989554108E+00  0.36628557402E+02  0.52569487211E+02  0.00000000000E+00 0. -1.
         11    1    1    2    0    0 -0.29713951698E+02 -0.30493696026E+02 -0.14372882754E+02  0.44937336163E+02  0.00000000000E+00 0.  1.
</event>
<event>
 7    1  0.2766180E-009  0.9582370E+02  0.7561462E-02  0.1289332E+00
          2   -1    0    0  501    0  0.00000000000E+00  0.00000000000E+00  0.33877094613E+02  0.33877094613E+02  0.00000000000E+00 0. -1.
         -2   -1    0    0    0  501 -0.00000000000E+00 -0.00000000000E+00 -0.35769216497E+03  0.35769216497E+03  0.00000000000E+00 0.  1.
         25    2    1    2    0    0 -0.16552388529E+02 -0.25138305361E+01 -0.15626270876E+03  0.20086673885E+03  0.12509640969E+03 0.  0.
          5    1    3    3  502    0 -0.10866369146E+02 -0.63628221798E+02 -0.81120562430E+02  0.10375281508E+03  0.41800000000E+01 0. -1.
         -5    1    3    3    0  502 -0.56860193825E+01  0.61114391262E+02 -0.75142146327E+02  0.97113923772E+02  0.41800000000E+01 0. -1.
        -11    1    1    2    0    0  0.32495238028E+02  0.22759516949E+02 -0.15849954103E+03  0.16338923040E+03  0.00000000000E+00 0.  1.
         11    1    1    2    0    0 -0.15942849500E+02 -0.20245686413E+02 -0.90528205790E+01  0.27313290335E+02  0.00000000000E+00 0. -1.
</event>
<event>
 7    1  0.2766180E-009  0.7038684E+02  0.7561462E-02  0.1358783E+00
          1   -1    0    0  501    0  0.00000000000E+00  0.00000000000E+00  0.92131407892E+02  0.92131407892E+02  0.00000000000E+00 0. -1.
         -1   -1    0    0    0  501 -0.00000000000E+00 -0.00000000000E+00 -0.13704082331E+03  0.13704082331E+03  0.00000000000E+00 0.  1.
         25    2    1    2    0    0  0.13016262297E+02 -0.26023480487E+02 -0.25523296264E+02  0.13094087950E+03  0.12508969042E+03 0.  0.
          5    1    3    3  502    0 -0.32595387905E+02 -0.41050315735E+02  0.27450240316E+02  0.59317584476E+02  0.41800000000E+01 0. -1.
         -5    1    3    3    0  502  0.45611650202E+02  0.15026835247E+02 -0.52973536581E+02  0.71623295020E+02  0.41800000000E+01 0. -1.
        -11    1    1    2    0    0 -0.20723086918E+02  0.11902908678E+02 -0.54553941509E+02  0.59558862486E+02  0.00000000000E+00 0.  1.
         11    1    1    2    0    0  0.77068246215E+01  0.14120571809E+02  0.35167822351E+02  0.38672489225E+02  0.00000000000E+00 0. -1.
</event>
<event>
 7    1  0.2766180E-009  0.1074769E+03  0.7561462E-02  0.1265315E+00
         -2   -1    0    0    0  501 -0.00000000000E+00  0.00000000000E+00  0.13522315522E+03  0.13522315522E+03  0.00000000000E+00 0.  1.
          2   -1    0    0  501    0  0.00000000000E+00 -0.00000000000E+00 -0.24827522514E+03  0.24827522514E+03  0.00000000000E+00 0. -1.
         25    2    1    2    0    0  0.32774254829E+02  0.47747674355E+02  0.81834506940E+02  0.16030815865E+03  0.12509127475E+03 0.  0.
          5    1    3    3  502    0  0.76773745148E+02  0.37740745659E+02  0.76204151818E+02  0.11464343410E+03  0.41800000000E+01 0.  1.
         -5    1    3    3    0  502 -0.43999490319E+02  0.10006928697E+02  0.56303551220E+01  0.45664724559E+02  0.41800000000E+01 0.  1.
        -11    1    1    2    0    0 -0.50903770076E+02 -0.36733883649E+02 -0.19172881456E+03  0.20174367486E+03  0.00000000000E+00 0. -1.
         11    1    1    2    0    0  0.18129515247E+02 -0.11013790706E+02 -0.31577623005E+01  0.21446546845E+02  0.00000000000E+00 0.  1.
</event>
<event>
 7    1  0.2766180E-009  0.5349682E+02  0.7561462E-02  0.1427344E+00
          2   -1    0    0  501    0  0.00000000000E+00  0.00000000000E+00  0.47434516785E+03  0.47434516785E+03  0.00000000000E+00 0. -1.
         -2   -1    0    0    0  501 -0.00000000000E+00 -0.00000000000E+00 -0.31529615031E+02  0.31529615031E+02  0.00000000000E+00 0.  1.
         25    2    1    2    0    0 -0.36371918240E+02 -0.63934144261E+01  0.34063723633E+03  0.36475254713E+03  0.12508757604E+03 0.  0.
          5    1    3    3  502    0 -0.59466996231E+00 -0.90847275554E+01  0.32539190257E+03  0.32554607749E+03  0.41800000000E+01 0.  1.
         -5    1    3    3    0  502 -0.35777248278E+02  0.26913131294E+01  0.15245333759E+02  0.39206469646E+02  0.41800000000E+01 0.  1.
        -11    1    1    2    0    0  0.20242625974E+02  0.27589856734E+02 -0.13266940176E+01  0.34245061220E+02  0.00000000000E+00 0.  1.
         11    1    1    2    0    0  0.16129292267E+02 -0.21196442308E+02  0.10350501051E+03  0.10687717453E+03  0.00000000000E+00 0. -1.
</event>
<event>
 7    1  0.2766180E-009  0.1109201E+03  0.7561462E-02  0.1258875E+00
          1   -1    0    0  501    0  0.00000000000E+00  0.00000000000E+00  0.23955363968E+03  0.23955363968E+03  0.00000000000E+00 0.  1.
         -1   -1    0    0    0  501 -0.00000000000E+00 -0.00000000000E+00 -0.62004520822E+02  0.62004520822E+02  0.00000000000E+00 0. -1.
         25    2    1    2    0    0 -0.86255083875E+01  0.53602285545E+02  0.87537911077E+02  0.16204471067E+03  0.12509195806E+03 0.  0.
          5    1    3    3  502    0  0.56196417490E+02  0.97250079204E+01  0.45626144256E+02  0.73156206554E+02  0.41800000000E+01 0.  1.
         -5    1    3    3    0  502 -0.64821925877E+02  0.43877277625E+02  0.41911766821E+02  0.88888504118E+02  0.41800000000E+01 0.  1.
        -11    1    1    2    0    0  0.37706891409E+02 -0.36767460451E+02  0.11207886748E+02  0.53844893287E+02  0.00000000000E+00 0. -1.
         11    1    1    2    0    0 -0.29081383022E+02 -0.16834825095E+02  0.78803321038E+02  0.85668556548E+02  0.00000000000E+00 0.  1.
</event>
<event>
 7    1  0.2766180E-009  0.9514496E+02  0.7561462E-02  0.1290850E+00
         -1   -1    0    0    0  501 -0.00000000000E+00  0.00000000000E+00  0.27364341635E+03  0.27364341635E+03  0.00000000000E+00 0.  1.
          1   -1    0    0  501    0  0.00000000000E+00 -0.00000000000E+00 -0.65196983974E+02  0.65196983974E+02  0.00000000000E+00 0. -1.
         25    2    1    2    0    0 -0.30810273516E+02  0.68659323876E+02  0.81130698063E+02  0.16701039781E+03  0.12508759770E+03 0.  0.
          5    1    3    3  502    0  0.16163246071E+02  0.19878276106E+02  0.94375095136E+02  0.97880168402E+02  0.41800000000E+01 0.  1.
         -5    1    3    3    0  502 -0.46973519587E+02  0.48781047770E+02 -0.13244397073E+02  0.69130229406E+02  0.41800000000E+01 0.  1.
        -11    1    1    2    0    0  0.46563365697E+02 -0.31769922662E+02  0.24493473223E+02  0.61460599099E+02  0.00000000000E+00 0. -1.
         11    1    1    2    0    0 -0.15753092182E+02 -0.36889401214E+02  0.10282226109E+03  0.11036940342E+03  0.00000000000E+00 0.  1.
</event>
<event>
 7    1  0.2766180E-009  0.8081756E+02  0.7561462E-02  0.1326747E+00
          2   -1    0    0  501    0  0.00000000000E+00  0.00000000000E+00  0.48959570579E+03  0.48959570579E+03  0.00000000000E+00 0. -1.
         -2   -1    0    0    0  501 -0.00000000000E+00 -0.00000000000E+00 -0.25267988777E+02  0.25267988777E+02  0.00000000000E+00 0.  1.
         25    2    1    2    0    0  0.11518895342E+02 -0.40620235892E+02  0.28284140793E+03  0.31213664843E+03  0.12508931505E+03 0.  0.
          5    1    3    3  502    0  0.37940713846E+01  0.23541192555E+02  0.24138276877E+01  0.24328618717E+02  0.41800000000E+01 0.  1.
         -5    1    3    3    0  502  0.77248239579E+01 -0.64161428447E+02  0.28042758025E+03  0.28780802971E+03  0.41800000000E+01 0.  1.
        -11    1    1    2    0    0 -0.28984445506E+02  0.58806578084E+00  0.13829675150E+03  0.14130263755E+03  0.00000000000E+00 0.  1.
         11    1    1    2    0    0  0.17465550163E+02  0.40032170111E+02  0.43189557578E+02  0.61424408585E+02  0.00000000000E+00 0. -1.
</event>
<event>
 7    1  0.2766180E-009  0.1130584E+03  0.7561462E-02  0.1255009E+00
          3   -1    0    0  501    0  0.00000000000E+00  0.00000000000E+00  0.38875920234E+03  0.38875920234E+03  0.00000000000E+00 0. -1.
         -3   -1    0    0    0  501 -0.00000000000E+00 -0.00000000000E+00 -0.40534852674E+02  0.40534852674E+02  0.00000000000E+00 0.  1.
         25    2    1    2    0    0 -0.17911906898E+02 -0.58676334538E+02  0.20371531060E+03  0.24680056095E+03  0.12508733138E+03 0.  0.
          5    1    3    3  502    0  0.44391813295E+02 -0.19442749506E+02  0.27738205074E+02  0.55995839280E+02  0.41800000000E+01 0. -1.
         -5    1    3    3    0  502 -0.62303720193E+02 -0.39233585032E+02  0.17597710552E+03  0.19080472167E+03  0.41800000000E+01 0. -1.
        -11    1    1    2    0    0  0.42231532384E+02  0.22589465286E+01  0.93580225349E+02  0.10269305596E+03  0.00000000000E+00 0. -1.
         11    1    1    2    0    0 -0.24319625486E+02  0.56417388009E+02  0.50928813720E+02  0.79800438097E+02  0.00000000000E+00 0.  1.
</event>
<event>
 7    1  0.2766180E-009  0.9278126E+02  0.7561462E-02  0.1296253E+00
          1   -1    0    0  501    0  0.00000000000E+00  0.00000000000E+00  0.88349368878E+02  0.88349368878E+02  0.00000000000E+00 0. -1.
         -1   -1    0    0    0  501 -0.00000000000E+00 -0.00000000000E+00 -0.18309432234E+03  0.18309432234E+03  0.00000000000E+00 0.  1.
         25    2    1    2    0    0 -0.10819705853E+02 -0.58944770921E+02 -0.18887441379E+02  0.13998001340E+03  0.12508443811E+03 0.  0.
          5    1    3    3  502    0  0.26008846247E+02 -0.29603751363E+02 -0.63584552389E+02  0.74922025336E+02  0.41800000000E+01 0.  1.
         -5    1    3    3    0  502 -0.36828552100E+02 -0.29341019558E+02  0.44697111009E+02  0.65057988065E+02  0.41800000000E+01 0.  1.
        -11    1    1    2    0    0  0.26015111741E+01  0.77930818065E+02 -0.34592773093E+02  0.85303225114E+02  0.00000000000E+00 0. -1.
         11    1    1    2    0    0  0.82181946789E+01 -0.18986047144E+02 -0.41264738989E+02  0.46160452703E+02  0.00000000000E+00 0.  1.
</event>
<event>
 7    1  0.3006776E-009  0.5221383E+02  0.7561462E-02  0.1433754E+00
          2   -1    0    0  501    0  0.00000000000E+00  0.00000000000E+00  0.16518045533E+03  0.16518045533E+03  0.00000000000E+00 0. -1.
         -2   -1    0    0    0  501 -0.00000000000E+00 -0.00000000000E+00 -0.82292391184E+02  0.82292391184E+02  0.00000000000E+00 0.  1.
         25    2    1    2    0    0  0.25701366566E+02  0.19364082788E+02  0.78206027923E+02  0.15100294251E+03  0.12510067105E+03 0.  0.
          5    1    3    3  502    0  0.31206176298E+02  0.63924140222E+01  0.11073821964E+03  0.11530444088E+03  0.41800000000E+01 0.  1.
         -5    1    3    3    0  502 -0.55048097320E+01  0.12971668766E+02 -0.32532191720E+02  0.35698501633E+02  0.41800000000E+01 0.  1.
        -11    1    1    2    0    0 -0.12895370128E+02  0.15674132282E+02 -0.35966054280E+02  0.41298015134E+02  0.00000000000E+00 0.  1.
         11    1    1    2    0    0 -0.12805996438E+02 -0.35038215070E+02  0.40648090504E+02  0.55171888872E+02  0.00000000000E+00 0. -1.
</event>
<event>
 7    1  0.2766180E-009  0.1107722E+03  0.7561462E-02  0.1259147E+00
          2   -1    0    0  501    0  0.00000000000E+00  0.00000000000E+00  0.68345932841E+03  0.68345932841E+03  0.00000000000E+00 0. -1.
         -2   -1    0    0    0  501 -0.00000000000E+00 -0.00000000000E+00 -0.28156127469E+02  0.28156127469E+02  0.00000000000E+00 0.  1.
         25    2    1    2    0    0  0.80177265286E+01 -0.41833668167E+02  0.55455749884E+03  0.57008423681E+03  0.12509067833E+03 0.  0.
          5    1    3    3  502    0  0.60851801577E+02 -0.15376793251E+02  0.17563641151E+03  0.18656100604E+03  0.41800000000E+01 0. -1.
         -5    1    3    3    0  502 -0.52834075048E+02 -0.26456874915E+02  0.37892108733E+03  0.38352323077E+03  0.41800000000E+01 0. -1.
        -11    1    1    2    0    0 -0.41639803579E+02  0.49737132694E+02  0.65598898959E+02  0.92254382852E+02  0.00000000000E+00 0.  1.
         11    1    1    2    0    0  0.33622077051E+02 -0.79034645273E+01  0.35146803143E+02  0.49276836220E+02  0.00000000000E+00 0. -1.
</event>
<event>
 7    1  0.2766180E-009  0.9001876E+02  0.7561462E-02  0.1302806E+00
          3   -1    0    0  501    0  0.00000000000E+00  0.00000000000E+00  0.19756435744E+03  0.19756435744E+03  0.00000000000E+00 0. -1.
         -3   -1    0    0    0  501 -0.00000000000E+00 -0.00000000000E+00 -0.12524863063E+03  0.12524863063E+03  0.00000000000E+00 0.  1.
         25    2    1    2    0    0 -0.40857932364E+02 -0.50627772341E+02 -0.58739005015E+02  0.15274216334E+03  0.12508939117E+03 0.  0.
          5    1    3    3  502    0 -0.70195298645E+02 -0.47265490757E+02  0.23510656038E+01  0.84760878228E+02  0.41800000000E+01 0.  1.
         -5    1    3    3    0  502  0.29337366282E+02 -0.33622815841E+01 -0.61090070619E+02  0.67981285116E+02  0.41800000000E+01 0.  1.
        -11    1    1    2    0    0  0.32586113272E+02  0.44665177200E+02  0.14361656329E+03  0.15389135806E+03  0.00000000000E+00 0. -1.
         11    1    1    2    0    0  0.82718190920E+01  0.59625951412E+01 -0.12561831472E+02  0.16179466674E+02  0.00000000000E+00 0.  1.
</event>
<event>
 6    1  0.2766180E-009  0.7891553E+02  0.7561462E-02  0.1332157E+00
         -1   -1    0    0    0  501 -0.00000000000E+00  0.00000000000E+00  0.75831867199E+03  0.75831867199E+03  0.00000000000E+00 0.  1.
          1   -1    0    0  501    0  0.00000000000E+00 -0.00000000000E+00 -0.20824008420E+02  0.20824008420E+02  0.00000000000E+00 0. -1.
          5    1    1    2  502    0 -0.31600998477E+02  0.32306651496E+02  0.40503316353E+02  0.60830369646E+02  0.41800000000E+01 0.  1.
         -5    1    1    2    0  502 -0.78560638570E+01  0.11870971750E+02  0.41371656217E+03  0.41398249229E+03  0.41800000000E+01 0.  1.
        -11    1    1    2    0    0 -0.20035498971E+02  0.47397441091E+01  0.15703612507E+02  0.25893818548E+02  0.00000000000E+00 0. -1.
         11    1    1    2    0    0  0.59492561305E+02 -0.48917367356E+02  0.26757117253E+03  0.27843599992E+03  0.00000000000E+00 0.  1.
</event>
<event>
 7    1  0.2766180E-009  0.1593307E+03  0.7561462E-02  0.1189455E+00
         -3   -1    0    0    0  501 -0.00000000000E+00  0.00000000000E+00  0.10174480836E+03  0.10174480836E+03  0.00000000000E+00 0.  1.
          3   -1    0    0  501    0  0.00000000000E+00 -0.00000000000E+00 -0.33866209226E+03  0.33866209226E+03  0.00000000000E+00 0. -1.
         25    2    1    2    0    0  0.23999669537E+02 -0.14269284992E+03 -0.17040274282E+03  0.25616614052E+03  0.12508702265E+03 0.  0.
          5    1    3    3  502    0  0.24940130259E+02 -0.77681386730E+02 -0.17262072971E+03  0.19097590599E+03  0.41800000000E+01 0.  1.
         -5    1    3    3    0  502 -0.94046072168E+00 -0.65011463194E+02  0.22179868958E+01  0.65190234536E+02  0.41800000000E+01 0.  1.
        -11    1    1    2    0    0 -0.19984187238E+02 -0.76648700768E+01 -0.81908029396E+01  0.22917400063E+02  0.00000000000E+00 0.  1.
         11    1    1    2    0    0 -0.40154822991E+01  0.15035772000E+03 -0.58323738140E+02  0.16132336003E+03  0.00000000000E+00 0. -1.
</event>
<event>
 7    1  0.2766180E-009  0.1197958E+03  0.7561462E-02  0.1243434E+00
         -2   -1    0    0    0  501 -0.00000000000E+00  0.00000000000E+00  0.28919866844E+03  0.28919866844E+03  0.00000000000E+00 0.  1.
          2   -1    0    0  501    0  0.00000000000E+00 -0.00000000000E+00 -0.60369521981E+02  0.60369521981E+02  0.00000000000E+00 0. -1.
         25    2    1    2    0    0  0.61719033263E+02  0.15332239621E+02  0.17734126671E+03  0.22614576627E+03  0.12509063147E+03 0.  0.
          5    1    3    3  502    0  0.89377506756E+02  0.34242403663E+02  0.16381434171E+03  0.18977221049E+03  0.41800000000E+01 0. -1.
         -5    1    3    3    0  502 -0.27658473493E+02 -0.18910164042E+02  0.13526925002E+02  0.36373555780E+02  0.41800000000E+01 0. -1.
        -11    1    1    2    0    0 -0.34305051321E+02 -0.53183228538E+02  0.17585638992E+02  0.65685211749E+02  0.00000000000E+00 0. -1.
         11    1    1    2    0    0 -0.27413981942E+02  0.37850988917E+02  0.33902240747E+02  0.57737212399E+02  0.00000000000E+00 0.  1.
</event>
<event>
 7    1  0.2766180E-009  0.7019898E+02  0.7561462E-02  0.1359418E+00
          4   -1    0    0  501    0  0.00000000000E+00  0.00000000000E+00  0.35852502786E+02  0.35852502786E+02  0.00000000000E+00 0. -1.
         -4   -1    0    0    0  501 -0.00000000000E+00 -0.00000000000E+00 -0.34708263370E+03  0.34708263370E+03  0.00000000000E+00 0.  1.
         25    2    1    2    0    0  0.27802169265E+02  0.20815150836E+02 -0.16904664210E+03  0.21312617690E+03  0.12505906186E+03 0.  0.
          5    1    3    3  502    0 -0.38367545645E+01 -0.26128902025E+02  0.74249496050E+01  0.27749639335E+02  0.41800000000E+01 0.  1.
         -5    1    3    3    0  502  0.31638923830E+02  0.46944052861E+02 -0.17647159171E+03  0.18537653756E+03  0.41800000000E+01 0.  1.
        -11    1    1    2    0    0 -0.24860193174E+02  0.93698326598E+01 -0.22900949251E+01  0.26665849011E+02  0.00000000000E+00 0. -1.
         11    1    1    2    0    0 -0.29419760912E+01 -0.30184983496E+02 -0.13989339389E+03  0.14314311058E+03  0.00000000000E+00 0.  1.
</event>
<event>
 7    1  0.2766180E-009  0.1054688E+03  0.7561462E-02  0.1269199E+00
          1   -1    0    0  501    0  0.00000000000E+00  0.00000000000E+00  0.18693810513E+03  0.18693810513E+03  0.00000000000E+00 0. -1.
         -1   -1    0    0    0  501 -0.00000000000E+00 -0.00000000000E+00 -0.69789912270E+02  0.69789912270E+02  0.00000000000E+00 0.  1.
         25    2    1    2    0    0  0.85306078203E+01  0.34896975767E+02  0.56176229282E+02  0.14175216948E+03  0.12508932260E+03 0.  0.
          5    1    3    3  502    0  0.42660880631E+02  0.66537812287E+02  0.52290484481E+02  0.94863050590E+02  0.41800000000E+01 0.  1.
         -5    1    3    3    0  502 -0.34130272810E+02 -0.31640836520E+02  0.38857448014E+01  0.46889118892E+02  0.41800000000E+01 0.  1.
        -11    1    1    2    0    0 -0.26378865915E+02 -0.53270851162E+02  0.13385142515E+02  0.60932669321E+02  0.00000000000E+00 0.  1.
         11    1    1    2    0    0  0.17848258094E+02  0.18373875395E+02  0.47586821067E+02  0.54043178601E+02  0.00000000000E+00 0. -1.
</event>
<event>
 7    1  0.2766180E-009  0.1913415E+03  0.7561462E-02  0.1157257E+00
          1   -1    0    0  501    0  0.00000000000E+00  0.00000000000E+00  0.32471240820E+03  0.32471240820E+03  0.00000000000E+00 0. -1.
         -1   -1    0    0    0  501 -0.00000000000E+00 -0.00000000000E+00 -0.15905856511E+03  0.15905856511E+03  0.00000000000E+00 0.  1.
         25    2    1    2    0    0  0.13094113989E+03 -0.10800102617E+03 -0.17390556812E+02  0.21156566069E+03  0.12509114097E+03 0.  0.
          5    1    3    3  502    0  0.13256120232E+03 -0.80194130038E+02 -0.55107185424E+02  0.16449269023E+03  0.41800000000E+01 0. -1.
         -5    1    3    3    0  502 -0.16200624283E+01 -0.27806896130E+02  0.37716628612E+02  0.47072970467E+02  0.41800000000E+01 0. -1.
        -11    1    1    2    0    0 -0.43599808692E+02 -0.17203503770E+02  0.27889521850E+02  0.54541078912E+02  0.00000000000E+00 0.  1.
         11    1    1    2    0    0 -0.87341331201E+02  0.12520452994E+03  0.15515487805E+03  0.21766423371E+03  0.00000000000E+00 0. -1.
</event>
<event>
 7    1  0.2766180E-009  0.1071084E+03  0.7561462E-02  0.1266020E+00
          1   -1    0    0  501    0  0.00000000000E+00  0.00000000000E+00  0.12638467526E+03  0.12638467526E+03  0.00000000000E+00 0. -1.
         -1   -1    0    0    0  501 -0.00000000000E+00 -0.00000000000E+00 -0.11459416510E+03  0.11459416510E+03  0.00000000000E+00 0.  1.
         25    2    1    2    0    0 -0.24894898103E+02 -0.92975029346E+01  0.50137065653E+02  0.13735098185E+03  0.12508144286E+03 0.  0.
          5    1    3    3  502    0 -0.66388134076E+02  0.26125125182E+02  0.17274381468E+02  0.73524031221E+02  0.41800000000E+01 0. -1.
         -5    1    3    3    0  502  0.41493235973E+02 -0.35422628116E+02  0.32862684185E+02  0.63826950625E+02  0.41800000000E+01 0. -1.
        -11    1    1    2    0    0  0.34392887520E+02  0.41824155930E+02 -0.23624969871E+01  0.54200665339E+02  0.00000000000E+00 0. -1.
         11    1    1    2    0    0 -0.94979894167E+01 -0.32526652995E+02 -0.35984058508E+02  0.49427193171E+02  0.00000000000E+00 0.  1.
</event>
<event>
 7    1  0.2766180E-009  0.1162542E+03  0.7561462E-02  0.1249408E+00
          2   -1    0    0  501    0  0.00000000000E+00  0.00000000000E+00  0.16141500933E+03  0.16141500933E+03  0.00000000000E+00 0. -1.
         -2   -1    0    0    0  501 -0.00000000000E+00 -0.00000000000E+00 -0.10468095186E+03  0.10468095186E+03  0.00000000000E+00 0.  1.
         25    2    1    2    0    0  0.35251534677E+02  0.55023452598E+02  0.68080417070E+02  0.15669074834E+03  0.12508715519E+03 0.  0.
          5    1    3    3  502    0 -0.46464326471E+02  0.26079891122E+02  0.34583726692E+02  0.63660041684E+02  0.41800000000E+01 0. -1.
         -5    1    3    3    0  502  0.81715861148E+02  0.28943561476E+02  0.33496690378E+02  0.93030706653E+02  0.41800000000E+01 0. -1.
        -11    1    1    2    0    0  0.62227829466E+01  0.11962610153E+02 -0.25980629012E+02  0.29271490450E+02  0.00000000000E+00 0.  1.
         11    1    1    2    0    0 -0.41474317624E+02 -0.66986062751E+02  0.14634269417E+02  0.80133722406E+02  0.00000000000E+00 0. -1.
</event>
<event>
 7    1  0.2766180E-009  0.1080539E+03  0.7561462E-02  0.1264217E+00
          1   -1    0    0  501    0  0.00000000000E+00  0.00000000000E+00  0.22108028171E+03  0.22108028171E+03  0.00000000000E+00 0. -1.
         -1   -1    0    0    0  501 -0.00000000000E+00 -0.00000000000E+00 -0.68504698858E+02  0.68504698858E+02  0.00000000000E+00 0.  1.
         25    2    1    2    0    0  0.41176561296E+02  0.25895601757E+02  0.12183464729E+03  0.18126639650E+03  0.12509090227E+03 0.  0.
          5    1    3    3  502    0  0.28662524341E+02  0.64956543333E+02  0.12061103772E+03  0.14001924026E+03  0.41800000000E+01 0. -1.
         -5    1    3    3    0  502  0.12514036955E+02 -0.39060941576E+02  0.12236095684E+01  0.41247156242E+02  0.41800000000E+01 0. -1.
        -11    1    1    2    0    0 -0.48519247449E+02 -0.55231203344E+02  0.19520338569E+02  0.76063439402E+02  0.00000000000E+00 0. -1.
         11    1    1    2    0    0  0.73426861532E+01  0.29335601587E+02  0.11220596996E+02  0.32255144665E+02  0.00000000000E+00 0.  1.
</event>
<event>
 7    1  0.2766180E-009  0.1077155E+03  0.7561462E-02  0.1264860E+00
         -2   -1    0    0    0  501 -0.00000000000E+00  0.00000000000E+00  0.10758095464E+03  0.10758095464E+03  0.00000000000E+00 0. -1.
          2   -1    0    0  501    0  0.00000000000E+00 -0.00000000000E+00 -0.19493828472E+03  0.19493828472E+03  0.00000000000E+00 0.  1.
         25    2    1    2    0    0  0.14431626823E+02 -0.42537130019E+02 -0.13069936277E+03  0.18641735246E+03  0.12510566169E+03 0.  0.
          5    1    3    3  502    0 -0.38579377736E+02  0.23171911734E+02 -0.65890620668E+02  0.79902141223E+02  0.41800000000E+01 0. -1.
         -5    1    3    3    0  502  0.53011004559E+02 -0.65709041753E+02 -0.64808742100E+02  0.10651521124E+03  0.41800000000E+01 0. -1.
        -11    1    1    2    0    0  0.11274365232E+02  0.55696015277E+02 -0.78111918475E+01  0.57360022203E+02  0.00000000000E+00 0.  1.
         11    1    1    2    0    0 -0.25705992055E+02 -0.13158885258E+02  0.51153224531E+02  0.58741864702E+02  0.00000000000E+00 0. -1.
</event>
<event>
 7    1  0.2766180E-009  0.7894100E+02  0.7561462E-02  0.1332084E+00
          1   -1    0    0  501    0  0.00000000000E+00  0.00000000000E+00  0.18703082390E+03  0.18703082390E+03  0.00000000000E+00 0.  1.
         -1   -1    0    0    0  501 -0.00000000000E+00 -0.00000000000E+00 -0.64211071370E+02  0.64211071370E+02  0.00000000000E+00 0. -1.
         25    2    1    2    0    0  0.14186863893E+02  0.31406951285E+02  0.87717336603E+02  0.15662071399E+03  0.12509217887E+03 0.  0.
          5    1    3    3  502    0  0.52930718497E+02  0.56133905963E+02  0.77326086238E+02  0.10931364220E+03  0.41800000000E+01 0. -1.
         -5    1    3    3    0  502 -0.38743854604E+02 -0.24726954678E+02  0.10391250365E+02  0.47307071790E+02  0.41800000000E+01 0. -1.
        -11    1    1    2    0    0 -0.95985733835E+01 -0.20942092094E+02 -0.24677394859E+02  0.33759112092E+02  0.00000000000E+00 0. -1.
         11    1    1    2    0    0 -0.45882905099E+01 -0.10464859191E+02  0.59779810787E+02  0.60862069185E+02  0.00000000000E+00 0.  1.
</event>
<event>
 7    1  0.2766180E-009  0.7767804E+02  0.7561462E-02  0.1335773E+00
         -1   -1    0    0    0  501 -0.00000000000E+00  0.00000000000E+00  0.95890858066E+02  0.95890858066E+02  0.00000000000E+00 0.  1.
          1   -1    0    0  501    0  0.00000000000E+00 -0.00000000000E+00 -0.14386725735E+03  0.14386725735E+03  0.00000000000E+00 0. -1.
         25    2    1    2    0    0  0.40661457944E+02  0.32030727358E+02 -0.23805103601E+02  0.13745315061E+03  0.12508942401E+03 0.  0.
          5    1    3    3  502    0  0.37272522721E+02  0.11367608912E+02  0.48330585026E+02  0.62223639650E+02  0.41800000000E+01 0.  1.
         -5    1    3    3    0  502  0.33889352234E+01  0.20663118446E+02 -0.72135688627E+02  0.75229510961E+02  0.41800000000E+01 0.  1.
        -11    1    1    2    0    0 -0.42388194277E+01 -0.52742812817E+02  0.19161509304E+01  0.52947554508E+02  0.00000000000E+00 0.  1.
         11    1    1    2    0    0 -0.36422638516E+02  0.20712085459E+02 -0.26087446615E+02  0.49357410299E+02  0.00000000000E+00 0. -1.
</event>
<event>
 7    1  0.2766180E-009  0.1832813E+03  0.7561462E-02  0.1164665E+00
         -2   -1    0    0    0  501 -0.00000000000E+00  0.00000000000E+00  0.39098658585E+02  0.39098658585E+02  0.00000000000E+00 0.  1.
          2   -1    0    0  501    0  0.00000000000E+00 -0.00000000000E+00 -0.93783894829E+03  0.93783894829E+03  0.00000000000E+00 0. -1.
         25    2    1    2    0    0  0.45379648430E+02  0.15156667164E+03 -0.44871745566E+03  0.49196209566E+03  0.12509028780E+03 0.  0.
          5    1    3    3  502    0  0.31217448199E+02 -0.77544003824E+01 -0.31922419194E+02  0.45510142216E+02  0.41800000000E+01 0.  1.
         -5    1    3    3    0  502  0.14162200231E+02  0.15932107202E+03 -0.41679503647E+03  0.44645195344E+03  0.41800000000E+01 0.  1.
        -11    1    1    2    0    0 -0.41885047960E+02 -0.27721956809E+02 -0.19623129891E+03  0.20255761354E+03  0.00000000000E+00 0. -1.
         11    1    1    2    0    0 -0.34946004700E+01 -0.12384471483E+03 -0.25379153513E+03  0.28241789768E+03  0.00000000000E+00 0.  1.
</event>
<event>
 7    1  0.2766180E-009  0.1240128E+03  0.7561462E-02  0.1236620E+00
         -2   -1    0    0    0  501 -0.00000000000E+00  0.00000000000E+00  0.11617027204E+03  0.11617027204E+03  0.00000000000E+00 0.  1.
          2   -1    0    0  501    0  0.00000000000E+00 -0.00000000000E+00 -0.13571098633E+03  0.13571098633E+03  0.00000000000E+00 0. -1.
         25    2    1    2    0    0  0.85944327757E+01 -0.62622139007E+02 -0.13978712842E+02  0.14084745028E+03  0.12508878155E+03 0.  0.
          5    1    3    3  502    0  0.39732578507E+02  0.22943168436E+02  0.87756723602E+01  0.46899377374E+02  0.41800000000E+01 0. -1.
         -5    1    3    3    0  502 -0.31138145732E+02 -0.85565307443E+02 -0.22754385203E+02  0.93948072909E+02  0.41800000000E+01 0. -1.
        -11    1    1    2    0    0 -0.38548568774E+02  0.70037615444E+02 -0.19982213565E+01  0.79970323372E+02  0.00000000000E+00 0.  1.
         11    1    1    2    0    0  0.29954135998E+02 -0.74154764364E+01 -0.35637800973E+01  0.31063484717E+02  0.00000000000E+00 0. -1.
</event>
<event>
 6    1  0.2766180E-009  0.8483862E+02  0.7561462E-02  0.1315855E+00
          1   -1    0    0  501    0  0.00000000000E+00  0.00000000000E+00  0.12408850496E+04  0.12408850496E+04  0.00000000000E+00 0. -1.
         -1   -1    0    0    0  501 -0.00000000000E+00 -0.00000000000E+00 -0.17004234231E+02  0.17004234231E+02  0.00000000000E+00 0.  1.
          5    1    1    2  502    0  0.61291440523E+02  0.15136604533E+02  0.21717542004E+03  0.22620431681E+03  0.41800000000E+01 0. -1.
         -5    1    1    2    0  502 -0.18380833008E+02  0.20323079034E+02  0.76484318292E+03  0.76534531384E+03  0.41800000000E+01 0. -1.
        -11    1    1    2    0    0 -0.26158047880E+02  0.11688670051E+02  0.11945513611E+02  0.31041323617E+02  0.00000000000E+00 0.  1.
         11    1    1    2    0    0 -0.16752559635E+02 -0.47148353617E+02  0.22991669877E+03  0.23529832953E+03  0.00000000000E+00 0. -1.
</event>
<event>
 7    1  0.2766180E-009  0.1031692E+03  0.7561462E-02  0.1273769E+00
         -1   -1    0    0    0  501 -0.00000000000E+00  0.00000000000E+00  0.13112653294E+03  0.13112653294E+03  0.00000000000E+00 0.  1.
          1   -1    0    0  501    0  0.00000000000E+00 -0.00000000000E+00 -0.10580593510E+03  0.10580593510E+03  0.00000000000E+00 0. -1.
         25    2    1    2    0    0  0.30762744512E+02 -0.21475846174E+02  0.44969909249E+02  0.13812848880E+03  0.12509847426E+03 0.  0.
          5    1    3    3  502    0 -0.42381490510E+02  0.81082290086E+00 -0.10135546538E+02  0.43784128120E+02  0.41800000000E+01 0. -1.
         -5    1    3    3    0  502  0.73144235021E+02 -0.22286669074E+02  0.55105455787E+02  0.94344360683E+02  0.41800000000E+01 0. -1.
        -11    1    1    2    0    0  0.13317459180E+02  0.37863587016E+02  0.12265165840E+02  0.41969515530E+02  0.00000000000E+00 0.  1.
         11    1    1    2    0    0 -0.44080203692E+02 -0.16387740842E+02 -0.31914477248E+02  0.56834463712E+02  0.00000000000E+00 0. -1.
</event>
<event>
 7    1  0.2766180E-009  0.1052257E+03  0.7561462E-02  0.1269676E+00
         -1   -1    0    0    0  501 -0.00000000000E+00  0.00000000000E+00  0.94647953932E+02  0.94647953932E+02  0.00000000000E+00 0.  1.
          1   -1    0    0  501    0  0.00000000000E+00 -0.00000000000E+00 -0.30770092412E+03  0.30770092412E+03  0.00000000000E+00 0. -1.
         25    2    1    2    0    0 -0.57012277442E+02 -0.44734344748E+02  0.15208019310E+02  0.14536348247E+03  0.12509075428E+03 0.  0.
          5    1    3    3  502    0  0.42248883713E+01 -0.60642330482E+02 -0.29579759916E+02  0.67733127232E+02  0.41800000000E+01 0.  1.
         -5    1    3    3    0  502 -0.61237165814E+02  0.15907985733E+02  0.44787779226E+02  0.77630355242E+02  0.41800000000E+01 0.  1.
        -11    1    1    2    0    0 -0.19365210920E+01  0.23309009792E+02 -0.35157210689E+01  0.23652068537E+02  0.00000000000E+00 0.  1.
         11    1    1    2    0    0  0.58948798534E+02  0.21425334956E+02 -0.22474526843E+03  0.23333332704E+03  0.00000000000E+00 0. -1.
</event>
<event>
 7    1  0.2766180E-009  0.1032532E+03  0.7561462E-02  0.1273600E+00
          3   -1    0    0  501    0  0.00000000000E+00  0.00000000000E+00  0.74635650607E+02  0.74635650607E+02  0.00000000000E+00 0. -1.
         -3   -1    0    0    0  501 -0.00000000000E+00 -0.00000000000E+00 -0.26051272866E+03  0.26051272866E+03  0.00000000000E+00 0.  1.
         25    2    1    2    0    0 -0.42845833663E+01 -0.64029684294E+02 -0.16853740879E+03  0.21947652867E+03  0.12508769064E+03 0.  0.
          5    1    3    3  502    0  0.18107854928E+02  0.12671749354E+02 -0.12766074663E+03  0.12962718184E+03  0.41800000000E+01 0. -1.
         -5    1    3    3    0  502 -0.22392438294E+02 -0.76701433648E+02 -0.40876662158E+02  0.89849346829E+02  0.41800000000E+01 0. -1.
        -11    1    1    2    0    0  0.43092615942E+02  0.35549677765E+02  0.14800712408E+02  0.57791125838E+02  0.00000000000E+00 0. -1.
         11    1    1    2    0    0 -0.38808032575E+02  0.28480006529E+02 -0.32140381670E+02  0.57880724755E+02  0.00000000000E+00 0.  1.
</event>
<event>
 7    1  0.2766180E-009  0.1224833E+03  0.7561462E-02  0.1239056E+00
          1   -1    0    0  501    0  0.00000000000E+00  0.00000000000E+00  0.21409817198E+03  0.21409817198E+03  0.00000000000E+00 0.  1.
         -1   -1    0    0    0  501 -0.00000000000E+00 -0.00000000000E+00 -0.76075397527E+02  0.76075397527E+02  0.00000000000E+00 0. -1.
         25    2    1    2    0    0  0.41840706352E+02 -0.46258569111E+02  0.45823849069E+02  0.14711704485E+03  0.12511234878E+03 0.  0.
          5    1    3    3  502    0  0.85302610088E+02 -0.26685181688E+02  0.16465103193E+02  0.90979152737E+02  0.41800000000E+01 0.  1.
         -5    1    3    3    0  502 -0.43461903735E+02 -0.19573387422E+02  0.29358745876E+02  0.56137892113E+02  0.41800000000E+01 0.  1.
        -11    1    1    2    0    0 -0.32837803841E+02  0.72665800243E+02  0.78795213872E+02  0.11210408385E+03  0.00000000000E+00 0.  1.
         11    1    1    2    0    0 -0.90029025116E+01 -0.26407231133E+02  0.13403711509E+02  0.30952440808E+02  0.00000000000E+00 0. -1.
</event>
<event>
 7    1  0.2766180E-009  0.1169582E+03  0.7561462E-02  0.1248201E+00
          1   -1    0    0  501    0  0.00000000000E+00  0.00000000000E+00  0.50514399538E+03  0.50514399538E+03  0.00000000000E+00 0. -1.
         -1   -1    0    0    0  501 -0.00000000000E+00 -0.00000000000E+00 -0.58004418262E+02  0.58004418262E+02  0.00000000000E+00 0.  1.
         25    2    1    2    0    0  0.55274377984E+02  0.93977376941E+02  0.11402991244E+03  0.20133952194E+03  0.12509107851E+03 0.  0.
          5    1    3    3  502    0  0.24047502844E+02  0.31000890738E+01  0.10138570221E+03  0.10432845229E+03  0.41800000000E+01 0. -1.
         -5    1    3    3    0  502  0.31226875140E+02  0.90877287868E+02  0.12644210236E+02  0.97011069645E+02  0.41800000000E+01 0. -1.
        -11    1    1    2    0    0 -0.46869173045E+02 -0.50709164742E+02  0.83573000955E+02  0.10840934120E+03  0.00000000000E+00 0.  1.
         11    1    1    2    0    0 -0.84052049388E+01 -0.43268212200E+02  0.24953666372E+03  0.25339955050E+03  0.00000000000E+00 0. -1.
</event>
<event>
 7    1  0.2766180E-009  0.1171195E+03  0.7561462E-02  0.1247926E+00
          2   -1    0    0  501    0  0.00000000000E+00  0.00000000000E+00  0.30738459243E+03  0.30738459243E+03  0.00000000000E+00 0. -1.
         -2   -1    0    0    0  501 -0.00000000000E+00 -0.00000000000E+00 -0.10494924345E+03  0.10494924345E+03  0.00000000000E+00 0.  1.
         25    2    1    2    0    0 -0.91837808281E+02  0.31953440114E+02  0.22660280548E+03  0.27649874857E+03  0.12509005214E+03 0.  0.
          5    1    3    3  502    0 -0.34670575089E+02 -0.92109049893E+01  0.19647537432E+03  0.19976720117E+03  0.41800000000E+01 0. -1.
         -5    1    3    3    0  502 -0.57167233192E+02  0.41164345103E+02  0.30127431161E+02  0.76731547404E+02  0.41800000000E+01 0. -1.
        -11    1    1    2    0    0  0.11214301369E+02 -0.44560790669E+02  0.10562747022E+02  0.47148661114E+02  0.00000000000E+00 0. -1.
         11    1    1    2    0    0  0.80623506912E+02  0.12607350555E+02 -0.34730203516E+02  0.88686426194E+02  0.00000000000E+00 0.  1.
</event>
<event>
 7    1  0.2766180E-009  0.9478337E+02  0.7561462E-02  0.1291665E+00
         -2   -1    0    0    0  501 -0.00000000000E+00  0.00000000000E+00  0.21907211458E+02  0.21907211458E+02  0.00000000000E+00 0. -1.
          2   -1    0    0  501    0  0.00000000000E+00 -0.00000000000E+00 -0.73822988567E+03  0.73822988567E+03  0.00000000000E+00 0.  1.
         25    2    1    2    0    0  0.29069304589E+02  0.15305818955E+02 -0.57255520274E+03  0.58698054415E+03  0.12508959376E+03 0.  0.
          5    1    3    3  502    0  0.22558213984E+00  0.56255165127E+02 -0.46326203038E+03  0.46668391411E+03  0.41800000000E+01 0. -1.
         -5    1    3    3    0  502  0.28843722450E+02 -0.40949346172E+02 -0.10929317236E+03  0.12029663005E+03  0.41800000000E+01 0. -1.
        -11    1    1    2    0    0 -0.17119842284E+01  0.29956994831E+02 -0.14171290690E+02  0.33184000800E+02  0.00000000000E+00 0. -1.
         11    1    1    2    0    0 -0.27357320361E+02 -0.45262813786E+02 -0.12959618079E+03  0.13997255218E+03  0.00000000000E+00 0.  1.
</event>
<event>
 7    1  0.2766180E-009  0.1161332E+03  0.7561462E-02  0.1249616E+00
          1   -1    0    0  501    0  0.00000000000E+00  0.00000000000E+00  0.89090782551E+02  0.89090782551E+02  0.00000000000E+00 0. -1.
         -1   -1    0    0    0  501 -0.00000000000E+00 -0.00000000000E+00 -0.29727206930E+03  0.29727206930E+03  0.00000000000E+00 0.  1.
         25    2    1    2    0    0  0.22565372749E+02  0.10953368845E+03 -0.17038012080E+03  0.23913167885E+03  0.12509096414E+03 0.  0.
          5    1    3    3  502    0  0.67028813770E+01  0.64240619188E+02 -0.17886723615E+03  0.19021762889E+03  0.41800000000E+01 0.  1.
         -5    1    3    3    0  502  0.15862491372E+02  0.45293069266E+02  0.84871153496E+01  0.48914049955E+02  0.41800000000E+01 0.  1.
        -11    1    1    2    0    0 -0.32749167337E+02 -0.55973524062E+02 -0.60015458144E+02  0.88359484910E+02  0.00000000000E+00 0.  1.
         11    1    1    2    0    0  0.10183794588E+02 -0.53560164392E+02  0.22214292193E+02  0.58871688099E+02  0.00000000000E+00 0. -1.
</event>
<event>
 7    1  0.2766180E-009  0.1764199E+03  0.7561462E-02  0.1171314E+00
         -1   -1    0    0    0  501 -0.00000000000E+00  0.00000000000E+00  0.76547069351E+02  0.76547069351E+02  0.00000000000E+00 0.  1.
          1   -1    0    0  501    0  0.00000000000E+00 -0.00000000000E+00 -0.49622683031E+03  0.49622683031E+03  0.00000000000E+00 0. -1.
         25    2    1    2    0    0 -0.45707254947E+02 -0.15396569629E+03 -0.19706342272E+03  0.28332975511E+03  0.12508864364E+03 0.  0.
          5    1    3    3  502    0 -0.38613655187E+02 -0.15480810483E+03 -0.10534136409E+03  0.19123503621E+03  0.41800000000E+01 0. -1.
         -5    1    3    3    0  502 -0.70935997600E+01  0.84240853704E+00 -0.91722058623E+02  0.92094718892E+02  0.41800000000E+01 0. -1.
        -11    1    1    2    0    0 -0.14618818063E+02 -0.45824692416E+01 -0.19877103729E+02  0.25095978135E+02  0.00000000000E+00 0.  1.
         11    1    1    2    0    0  0.60326073009E+02  0.15854816553E+03 -0.20273923451E+03  0.26434816642E+03  0.00000000000E+00 0. -1.
</event>
<event>
 7    1  0.2766180E-009  0.9231229E+02  0.7561462E-02  0.1297347E+00
         -3   -1    0    0    0  501 -0.00000000000E+00  0.00000000000E+00  0.27703288371E+03  0.27703288371E+03  0.00000000000E+00 0.  1.
          3   -1    0    0  501    0  0.00000000000E+00 -0.00000000000E+00 -0.52197054009E+02  0.52197054009E+02  0.00000000000E+00 0. -1.
         25    2    1    2    0    0  0.13234421683E+02 -0.17839918256E+02  0.19811833707E+03  0.23535456833E+03  0.12508990666E+03 0.  0.
          5    1    3    3  502    0  0.62497415541E+02  0.50735480428E+01  0.60042719930E+02  0.86915294716E+02  0.41800000000E+01 0. -1.
         -5    1    3    3    0  502 -0.49262993858E+02 -0.22913466298E+02  0.13807561714E+03  0.14843927361E+03  0.41800000000E+01 0. -1.
        -11    1    1    2    0    0 -0.31118956995E+02 -0.11294238609E+02 -0.17925587545E+02  0.37646726272E+02  0.00000000000E+00 0. -1.
         11    1    1    2    0    0  0.17884535312E+02  0.29134156865E+02  0.44643080177E+02  0.56228643121E+02  0.00000000000E+00 0.  1.
</event>
<event>
 7    1  0.2766180E-009  0.1284059E+03  0.7561462E-02  0.1229840E+00
          2   -1    0    0  501    0  0.00000000000E+00  0.00000000000E+00  0.90826343067E+02  0.90826343067E+02  0.00000000000E+00 0.  1.
         -2   -1    0    0    0  501 -0.00000000000E+00 -0.00000000000E+00 -0.19025142365E+03  0.19025142365E+03  0.00000000000E+00 0. -1.
         25    2    1    2    0    0  0.42923390380E+02  0.59305815850E+02 -0.38964717170E+02  0.15008343232E+03  0.12508872945E+03 0.  0.
          5    1    3    3  502    0 -0.35228593609E+02 -0.11680935788E+02  0.33318150526E+00  0.37350789530E+02  0.41800000000E+01 0.  1.
         -5    1    3    3    0  502  0.78151983989E+02  0.70986751639E+02 -0.39297898675E+02  0.11273264279E+03  0.41800000000E+01 0.  1.
        -11    1    1    2    0    0 -0.34190566645E+01 -0.72173069293E+02 -0.25265515403E+02  0.76544027514E+02  0.00000000000E+00 0.  1.
         11    1    1    2    0    0 -0.39504333715E+02  0.12867253442E+02 -0.35194848014E+02  0.54450306888E+02  0.00000000000E+00 0. -1.
</event>
<event>
 7    1  0.2766180E-009  0.1056439E+03  0.7561462E-02  0.1268856E+00
          1   -1    0    0  501    0  0.00000000000E+00  0.00000000000E+00  0.16158448732E+03  0.16158448732E+03  0.00000000000E+00 0. -1.
         -1   -1    0    0    0  501 -0.00000000000E+00 -0.00000000000E+00 -0.10868324472E+03  0.10868324472E+03  0.00000000000E+00 0.  1.
         25    2    1    2    0    0 -0.77244177002E+02 -0.63226605203E+01  0.33342576141E+02  0.15087851136E+03  0.12508380746E+03 0.  0.
          5    1    3    3  502    0 -0.10419156288E+02  0.46225646469E+02  0.44373603551E+02  0.65052734772E+02  0.41800000000E+01 0.  1.
         -5    1    3    3    0  502 -0.66825020714E+02 -0.52548306990E+02 -0.11031027410E+02  0.85825776586E+02  0.41800000000E+01 0.  1.
        -11    1    1    2    0    0  0.57037126114E+02  0.10433420420E+02 -0.30308241926E+02  0.65426902308E+02  0.00000000000E+00 0.  1.
         11    1    1    2    0    0  0.20207050888E+02 -0.41107598994E+01  0.49866908388E+02  0.53962318378E+02  0.00000000000E+00 0. -1.
</event>
<event>
 7    1  0.2766180E-009  0.1322119E+03  0.7561462E-02  0.1224210E+00
          1   -1    0    0  501    0  0.00000000000E+00  0.00000000000E+00  0.22013284553E+04  0.22013284553E+04  0.00000000000E+00 0. -1.
         -1   -1    0    0    0  501 -0.00000000000E+00 -0.00000000000E+00 -0.13046830884E+02  0.13046830884E+02  0.00000000000E+00 0.  1.
         25    2    1    2    0    0 -0.32436009840E+02 -0.10829719034E+03  0.15807540253E+04  0.15897203828E+04  0.12508889166E+03 0.  0.
          5    1    3    3  502    0 -0.40526977271E+02 -0.85580459920E+02  0.15342000703E+04  0.15371251671E+04  0.41800000000E+01 0. -1.
         -5    1    3    3    0  502  0.80909674316E+01 -0.22716730421E+02  0.46553954938E+02  0.52595215708E+02  0.41800000000E+01 0. -1.
        -11    1    1    2    0    0 -0.68835477387E+01 -0.14595092454E+02  0.60373877856E+02  0.62493240279E+02  0.00000000000E+00 0. -1.
         11    1    1    2    0    0  0.39319557578E+02  0.12289228280E+03  0.54715372130E+03  0.56216166314E+03  0.00000000000E+00 0.  1.
</event>
<event>
 7    1  0.2766180E-009  0.1166007E+03  0.7561462E-02  0.1248813E+00
          1   -1    0    0  501    0  0.00000000000E+00  0.00000000000E+00  0.38394775462E+03  0.38394775462E+03  0.00000000000E+00 0. -1.
         -1   -1    0    0    0  501 -0.00000000000E+00 -0.00000000000E+00 -0.10511585321E+03  0.10511585321E+03  0.00000000000E+00 0.  1.
         25    2    1    2    0    0  0.50269369094E+02 -0.43407442643E+02 -0.44919140245E+02  0.14858264983E+03  0.12509140308E+03 0.  0.
          5    1    3    3  502    0 -0.19685919826E+02 -0.64912388825E+02 -0.16293490593E+02  0.69886364179E+02  0.41800000000E+01 0. -1.
         -5    1    3    3    0  502  0.69955288919E+02  0.21504946182E+02 -0.28625649652E+02  0.78696285656E+02  0.41800000000E+01 0. -1.
        -11    1    1    2    0    0 -0.16355190756E+02 -0.16412821779E+02  0.25711947678E+02  0.34611807765E+02  0.00000000000E+00 0.  1.
         11    1    1    2    0    0 -0.33914178338E+02  0.59820264422E+02  0.29803909397E+03  0.30586915023E+03  0.00000000000E+00 0. -1.
</event>
<event>
 7    1  0.2766180E-009  0.1503797E+03  0.7561462E-02  0.1200007E+00
          4   -1    0    0  501    0  0.00000000000E+00  0.00000000000E+00  0.51973883770E+03  0.51973883770E+03  0.00000000000E+00 0. -1.
         -4   -1    0    0    0  501 -0.00000000000E+00 -0.00000000000E+00 -0.45819952285E+02  0.45819952285E+02  0.00000000000E+00 0.  1.
         25    2    1    2    0    0  0.58486842127E+02 -0.92197205633E+02  0.25970211871E+03  0.30824306323E+03  0.12509020799E+03 0.  0.
          5    1    3    3  502    0  0.15235495464E+01  0.30221504966E+02  0.39953509542E+02  0.50293298663E+02  0.41800000000E+01 0.  1.
         -5    1    3    3    0  502  0.56963292580E+02 -0.12241871060E+03  0.21974860917E+03  0.25794976457E+03  0.41800000000E+01 0.  1.
        -11    1    1    2    0    0 -0.20953324860E+02 -0.12157831811E+02  0.12830157516E+02  0.27412910078E+02  0.00000000000E+00 0.  1.
         11    1    1    2    0    0 -0.37533517267E+02  0.10435503744E+03  0.20138660918E+03  0.22990281668E+03  0.00000000000E+00 0. -1.
</event>
<event>
 7    1  0.2766180E-009  0.1276490E+03  0.7561462E-02  0.1230986E+00
          4   -1    0    0  501    0  0.00000000000E+00  0.00000000000E+00  0.14125048300E+03  0.14125048300E+03  0.00000000000E+00 0.  1.
         -4   -1    0    0    0  501 -0.00000000000E+00 -0.00000000000E+00 -0.17746726985E+03  0.17746726985E+03  0.00000000000E+00 0. -1.
         25    2    1    2    0    0  0.58031912267E+02  0.97328187714E+02  0.10733834490E+02  0.16912454761E+03  0.12508964160E+03 0.  0.
          5    1    3    3  502    0  0.42822491908E+02  0.63423386794E+01 -0.43928506219E+02  0.61815670600E+02  0.41800000000E+01 0.  1.
         -5    1    3    3    0  502  0.15209420359E+02  0.90985849035E+02  0.54662340709E+02  0.10730887700E+03  0.41800000000E+01 0.  1.
        -11    1    1    2    0    0 -0.10295192376E+02 -0.54075421518E+02 -0.62541315521E+02  0.83316014941E+02  0.00000000000E+00 0. -1.
         11    1    1    2    0    0 -0.47736719891E+02 -0.43252766196E+02  0.15590694184E+02  0.66277190305E+02  0.00000000000E+00 0.  1.
</event>
<event>
 7    1  0.2766180E-009  0.7325260E+02  0.7561462E-02  0.1349369E+00
          2   -1    0    0  501    0  0.00000000000E+00  0.00000000000E+00  0.81042829229E+02  0.81042829229E+02  0.00000000000E+00 0. -1.
         -2   -1    0    0    0  501 -0.00000000000E+00 -0.00000000000E+00 -0.16820917700E+03  0.16820917700E+03  0.00000000000E+00 0.  1.
         25    2    1    2    0    0 -0.17583524870E+02  0.24667344878E+02 -0.18524075917E+02  0.13003130694E+03  0.12508933266E+03 0.  0.
          5    1    3    3  502    0  0.91315723067E+01  0.25542600900E+02  0.49624671992E+02  0.56708822451E+02  0.41800000000E+01 0. -1.
         -5    1    3    3    0  502 -0.26715097177E+02 -0.87525602240E+00 -0.68148747909E+02  0.73322484490E+02  0.41800000000E+01 0. -1.
        -11    1    1    2    0    0  0.51408624389E+02 -0.23133758950E+01 -0.57517034811E+02  0.77177766637E+02  0.00000000000E+00 0.  1.
         11    1    1    2    0    0 -0.33825099519E+02 -0.22353968983E+02 -0.11125237045E+02  0.42042932653E+02  0.00000000000E+00 0. -1.
</event>
<event>
 7    1  0.2766180E-009  0.8030263E+02  0.7561462E-02  0.1328195E+00
         -2   -1    0    0    0  501 -0.00000000000E+00  0.00000000000E+00  0.20811061998E+02  0.20811061998E+02  0.00000000000E+00 0.  1.
          2   -1    0    0  501    0  0.00000000000E+00 -0.00000000000E+00 -0.11503914564E+04  0.11503914564E+04  0.00000000000E+00 0. -1.
         25    2    1    2    0    0 -0.14298149832E+02  0.45111434012E+02 -0.98208615609E+03  0.99115118146E+03  0.12509183810E+03 0.  0.
          5    1    3    3  502    0 -0.48014657403E+02  0.54640128242E+02 -0.88242729786E+03  0.88543004204E+03  0.41800000000E+01 0. -1.
         -5    1    3    3    0  502  0.33716507571E+02 -0.95286942298E+01 -0.99658858233E+02  0.10572113942E+03  0.41800000000E+01 0. -1.
        -11    1    1    2    0    0 -0.36299573556E+01 -0.26016532361E+02  0.37686568012E+01  0.26537507807E+02  0.00000000000E+00 0.  1.
         11    1    1    2    0    0  0.17928107187E+02 -0.19094901651E+02 -0.15126289513E+03  0.15351382914E+03  0.00000000000E+00 0. -1.
</event>
<event>
 7    1  0.2766180E-009  0.9379750E+02  0.7561462E-02  0.1293908E+00
          1   -1    0    0  501    0  0.00000000000E+00  0.00000000000E+00  0.53331062371E+03  0.53331062371E+03  0.00000000000E+00 0. -1.
         -1   -1    0    0    0  501 -0.00000000000E+00 -0.00000000000E+00 -0.34126809349E+02  0.34126809349E+02  0.00000000000E+00 0.  1.
         25    2    1    2    0    0  0.90796452020E+01 -0.46942575760E+02  0.41169160633E+03  0.43292046794E+03  0.12507640650E+03 0.  0.
          5    1    3    3  502    0 -0.28799484506E+02 -0.35892042802E+02  0.37815443364E+03  0.38096705517E+03  0.41800000000E+01 0. -1.
         -5    1    3    3    0  502  0.37879129708E+02 -0.11050532958E+02  0.33537172688E+02  0.51953412765E+02  0.41800000000E+01 0. -1.
        -11    1    1    2    0    0 -0.46504620877E+02  0.70963815085E+01  0.34090461603E+02  0.58096453986E+02  0.00000000000E+00 0. -1.
         11    1    1    2    0    0  0.37424975675E+02  0.39846194252E+02  0.53401746434E+02  0.76420511140E+02  0.00000000000E+00 0.  1.
</event>
<event>
 7    1  0.3074232E-009  0.1539756E+03  0.7561462E-02  0.1195671E+00
          2   -1    0    0  501    0  0.00000000000E+00  0.00000000000E+00  0.41750470657E+03  0.41750470657E+03  0.00000000000E+00 0. -1.
         -2   -1    0    0    0  501 -0.00000000000E+00 -0.00000000000E+00 -0.89017057843E+02  0.89017057843E+02  0.00000000000E+00 0.  1.
         25    2    1    2    0    0 -0.19003885097E+02 -0.14753310974E+03  0.24666605071E+03  0.31403682412E+03  0.12509124756E+03 0.  0.
          5    1    3    3  502    0  0.13272697180E+02 -0.90299422484E+02  0.44903852372E+02  0.10180362739E+03  0.41800000000E+01 0. -1.
         -5    1    3    3    0  502 -0.32276582276E+02 -0.57233687257E+02  0.20176219833E+03  0.21223319674E+03  0.41800000000E+01 0. -1.
        -11    1    1    2    0    0  0.22338801600E+02  0.78087283435E+02  0.91433609815E+02  0.12229779595E+03  0.00000000000E+00 0. -1.
         11    1    1    2    0    0 -0.33349165033E+01  0.69445826307E+02 -0.96120117917E+01  0.70187144337E+02  0.00000000000E+00 0.  1.
</event>
<event>
 7    1  0.2766180E-009  0.1580687E+03  0.7561462E-02  0.1190895E+00
          1   -1    0    0  501    0  0.00000000000E+00  0.00000000000E+00  0.12806529918E+04  0.12806529918E+04  0.00000000000E+00 0. -1.
         -1   -1    0    0    0  501 -0.00000000000E+00 -0.00000000000E+00 -0.30593984561E+02  0.30593984561E+02  0.00000000000E+00 0.  1.
         25    2    1    2    0    0 -0.23044212435E+01 -0.11465500530E+03  0.10473947213E+04  0.10610536922E+04  0.12509258572E+03 0.  0.
          5    1    3    3  502    0 -0.38257642187E+02  0.10111652225E+02  0.24715241471E+03  0.25033513776E+03  0.41800000000E+01 0. -1.
         -5    1    3    3    0  502  0.35953220944E+02 -0.12476665753E+03  0.80024230657E+03  0.81071855447E+03  0.41800000000E+01 0. -1.
        -11    1    1    2    0    0  0.46452224834E+02  0.51185052133E+02  0.88039370081E+02  0.11193144973E+03  0.00000000000E+00 0.  1.
         11    1    1    2    0    0 -0.44147803590E+02  0.63469953169E+02  0.11462491589E+03  0.13826183443E+03  0.00000000000E+00 0. -1.
</event>
<event>
 7    1  0.2766180E-009  0.8685537E+02  0.7561462E-02  0.1310651E+00
         -1   -1    0    0    0  501 -0.00000000000E+00  0.00000000000E+00  0.15620224823E+03  0.15620224823E+03  0.00000000000E+00 0.  1.
          1   -1    0    0  501    0  0.00000000000E+00 -0.00000000000E+00 -0.10312863567E+03  0.10312863567E+03  0.00000000000E+00 0. -1.
         25    2    1    2    0    0  0.92150606750E+01  0.55724693539E+02  0.61591280224E+02  0.15043709442E+03  0.12509066618E+03 0.  0.
          5    1    3    3  502    0 -0.15629284860E+02  0.41601262926E+02 -0.30408582299E+02  0.54010127752E+02  0.41800000000E+01 0. -1.
         -5    1    3    3    0  502  0.24844345535E+02  0.14123430613E+02  0.91999862523E+02  0.96426966672E+02  0.41800000000E+01 0. -1.
        -11    1    1    2    0    0 -0.74930718367E+01 -0.77744620339E+02 -0.24242727583E+02  0.81780694286E+02  0.00000000000E+00 0.  1.
         11    1    1    2    0    0 -0.17219888383E+01  0.22019926800E+02  0.15725059918E+02  0.27113095199E+02  0.00000000000E+00 0. -1.
</event>
<event>
 7    1  0.2766180E-009  0.9297579E+02  0.7561462E-02  0.1295801E+00
         -1   -1    0    0    0  501 -0.00000000000E+00  0.00000000000E+00  0.60099078801E+02  0.60099078801E+02  0.00000000000E+00 0.  1.
          1   -1    0    0  501    0  0.00000000000E+00 -0.00000000000E+00 -0.29411318054E+03  0.29411318054E+03  0.00000000000E+00 0. -1.
         25    2    1    2    0    0  0.57387532746E+02  0.26509316795E+02 -0.71681612181E+02  0.15742380606E+03  0.12509167997E+03 0.  0.
          5    1    3    3  502    0  0.74602581757E-01 -0.14432502655E+02 -0.84401103228E+02  0.85728182790E+02  0.41800000000E+01 0.  1.
         -5    1    3    3    0  502  0.57312930164E+02  0.40941819449E+02  0.12719491047E+02  0.71695623272E+02  0.41800000000E+01 0.  1.
        -11    1    1    2    0    0 -0.47365108658E+02 -0.53572225452E+02 -0.14842593473E+03  0.16475343686E+03  0.00000000000E+00 0. -1.
         11    1    1    2    0    0 -0.10022424088E+02  0.27062908658E+02 -0.13906554831E+02  0.32035016418E+02  0.00000000000E+00 0.  1.
</event>
<event>
 7    1  0.2766180E-009  0.1180356E+03  0.7561462E-02  0.1246373E+00
         -2   -1    0    0    0  501 -0.00000000000E+00  0.00000000000E+00  0.20306690271E+02  0.20306690271E+02  0.00000000000E+00 0.  1.
          2   -1    0    0  501    0  0.00000000000E+00 -0.00000000000E+00 -0.94580299223E+03  0.94580299223E+03  0.00000000000E+00 0. -1.
         25    2    1    2    0    0 -0.77095828861E+02 -0.66865127178E+01 -0.58702339570E+03  0.60517149538E+03  0.12509034916E+03 0.  0.
          5    1    3    3  502    0  0.22481644729E+02 -0.35191993544E+02 -0.13300174319E+03  0.13946625703E+03  0.41800000000E+01 0. -1.
         -5    1    3    3    0  502 -0.99577473590E+02  0.28505480827E+02 -0.45402165250E+03  0.46570523835E+03  0.41800000000E+01 0. -1.
        -11    1    1    2    0    0  0.22539629790E+02 -0.19611489745E+02 -0.18188770502E+02  0.34978233424E+02  0.00000000000E+00 0.  1.
         11    1    1    2    0    0  0.54556199071E+02  0.26298002463E+02 -0.32028413576E+03  0.32595995369E+03  0.00000000000E+00 0. -1.
</event>
<event>
 7    1  0.2766180E-009  0.1080187E+03  0.7561462E-02  0.1264283E+00
          1   -1    0    0  501    0  0.00000000000E+00  0.00000000000E+00  0.34750687824E+02  0.34750687824E+02  0.00000000000E+00 0. -1.
         -1   -1    0    0    0  501 -0.00000000000E+00 -0.00000000000E+00 -0.40903138081E+03  0.40903138081E+03  0.00000000000E+00 0.  1.
         25    2    1    2    0    0  0.28229024559E+01 -0.26589001858E+02 -0.12493646136E+03  0.17882261779E+03  0.12511381002E+03 0.  0.
          5    1    3    3  502    0 -0.59516360301E+02  0.77115491485E+00 -0.55482805835E+02  0.81477640900E+02  0.41800000000E+01 0.  1.
         -5    1    3    3    0  502  0.62339262757E+02 -0.27360156773E+02 -0.69453655524E+02  0.97344976888E+02  0.41800000000E+01 0.  1.
        -11    1    1    2    0    0 -0.29822728616E+02 -0.18868847543E+02 -0.77309252671E+02  0.84983228335E+02  0.00000000000E+00 0. -1.
         11    1    1    2    0    0  0.26999826160E+02  0.45457849401E+02 -0.17203497896E+03  0.17997622251E+03  0.00000000000E+00 0.  1.
</event>
<event>
 7    1  0.2766180E-009  0.1508473E+03  0.7561462E-02  0.1199436E+00
         -2   -1    0    0    0  501 -0.00000000000E+00  0.00000000000E+00  0.29393218347E+03  0.29393218347E+03  0.00000000000E+00 0.  1.
          2   -1    0    0  501    0  0.00000000000E+00 -0.00000000000E+00 -0.12593899662E+03  0.12593899662E+03  0.00000000000E+00 0. -1.
         25    2    1    2    0    0  0.92541083298E+02 -0.70715649102E+02  0.20606194704E+03  0.26771997168E+03  0.12509157483E+03 0.  0.
          5    1    3    3  502    0  0.35550233689E+01  0.26577946843E+02  0.82962743087E+02  0.87288685350E+02  0.41800000000E+01 0.  1.
         -5    1    3    3    0  502  0.88986059929E+02 -0.97293595945E+02  0.12309920395E+03  0.18043128633E+03  0.41800000000E+01 0.  1.
        -11    1    1    2    0    0 -0.10595922788E+03  0.48151412748E+02 -0.15276608874E+02  0.11738522607E+03  0.00000000000E+00 0.  1.
         11    1    1    2    0    0  0.13418144578E+02  0.22564236354E+02 -0.22792151318E+02  0.34765982337E+02  0.00000000000E+00 0. -1.
</event>
<event>
 7    1  0.2766180E-009  0.8872275E+02  0.7561462E-02  0.1305975E+00
         -2   -1    0    0    0  501 -0.00000000000E+00  0.00000000000E+00  0.37378648952E+02  0.37378648952E+02  0.00000000000E+00 0.  1.
          2   -1    0    0  501    0  0.00000000000E+00 -0.00000000000E+00 -0.28665672324E+03  0.28665672324E+03  0.00000000000E+00 0. -1.
         25    2    1    2    0    0 -0.16710694756E+02 -0.12849531749E+02 -0.12043002493E+03  0.17491326070E+03  0.12508756964E+03 0.  0.
          5    1    3    3  502    0 -0.83878380576E+01  0.54309673753E+02 -0.75889634443E+02  0.93790220739E+02  0.41800000000E+01 0.  1.
         -5    1    3    3    0  502 -0.83228566983E+01 -0.67159205502E+02 -0.44540390491E+02  0.81123039960E+02  0.41800000000E+01 0.  1.
        -11    1    1    2    0    0  0.31614780595E+02  0.20598396885E+02 -0.28263707017E+02  0.47144728662E+02  0.00000000000E+00 0.  1.
         11    1    1    2    0    0 -0.14904085839E+02 -0.77488651353E+01 -0.10058434234E+03  0.10197738283E+03  0.00000000000E+00 0. -1.
</event>
<event>
 7    1  0.2766180E-009  0.9941594E+02  0.7561462E-02  0.1281529E+00
         -2   -1    0    0    0  501 -0.00000000000E+00  0.00000000000E+00  0.42903935055E+02  0.42903935055E+02  0.00000000000E+00 0.  1.
          2   -1    0    0  501    0  0.00000000000E+00 -0.00000000000E+00 -0.29416228966E+03  0.29416228966E+03  0.00000000000E+00 0. -1.
         25    2    1    2    0    0 -0.11280994721E+02  0.23606352449E+01 -0.18545120187E+03  0.22399136682E+03  0.12508857139E+03 0.  0.
          5    1    3    3  502    0 -0.32864890121E+01 -0.58722759248E+02 -0.12174815923E+03  0.13527472100E+03  0.41800000000E+01 0. -1.
         -5    1    3    3    0  502 -0.79945057092E+01  0.61083394493E+02 -0.63703042636E+02  0.88716645819E+02  0.41800000000E+01 0. -1.
        -11    1    1    2    0    0 -0.32593704471E+02 -0.88427931955E+01 -0.65738417826E-01  0.33772013327E+02  0.00000000000E+00 0.  1.
         11    1    1    2    0    0  0.43874699192E+02  0.64821579505E+01 -0.65741414312E+02  0.79302844569E+02  0.00000000000E+00 0. -1.
</event>
<event>
 7    1  0.2766180E-009  0.1056533E+03  0.7561462E-02  0.1268838E+00
          3   -1    0    0  501    0  0.00000000000E+00  0.00000000000E+00  0.56894098860E+03  0.56894098860E+03  0.00000000000E+00 0. -1.
         -3   -1    0    0    0  501 -0.00000000000E+00 -0.00000000000E+00 -0.28878758855E+02  0.28878758855E+02  0.00000000000E+00 0.  1.
         25    2    1    2    0    0 -0.25095694876E+02  0.29395934318E+01  0.15906103663E+03  0.20392732042E+03  0.12508998174E+03 0.  0.
          5    1    3    3  502    0 -0.13666530906E+02  0.55646464613E+02  0.31843766869E+02  0.65687144704E+02  0.41800000000E+01 0.  1.
         -5    1    3    3    0  502 -0.11429163970E+02 -0.52706871182E+02  0.12721726976E+03  0.13824017572E+03  0.41800000000E+01 0.  1.
        -11    1    1    2    0    0 -0.36489637625E+02  0.76197369784E+01  0.13092534794E+03  0.13612861852E+03  0.00000000000E+00 0.  1.
         11    1    1    2    0    0  0.61585332502E+02 -0.10559330410E+02  0.25007584518E+03  0.25776380851E+03  0.00000000000E+00 0. -1.
</event>
<event>
 7    1  0.2766180E-009  0.1128053E+03  0.7561462E-02  0.1255461E+00
          2   -1    0    0  501    0  0.00000000000E+00  0.00000000000E+00  0.36691448381E+03  0.36691448381E+03  0.00000000000E+00 0.  1.
         -2   -1    0    0    0  501 -0.00000000000E+00 -0.00000000000E+00 -0.45265800841E+02  0.45265800841E+02  0.00000000000E+00 0. -1.
         25    2    1    2    0    0  0.63079146228E+02 -0.30312400100E+02  0.17993275549E+03  0.23004665980E+03  0.12509136219E+03 0.  0.
          5    1    3    3  502    0  0.57214945503E+01 -0.65644101756E+02  0.13093825797E+03  0.14664304755E+03  0.41800000000E+01 0. -1.
         -5    1    3    3    0  502  0.57357651677E+02  0.35331701655E+02  0.48994497523E+02  0.83403612244E+02  0.41800000000E+01 0. -1.
        -11    1    1    2    0    0 -0.64883571838E+02  0.32480902048E+01  0.14071869952E+03  0.15499090418E+03  0.00000000000E+00 0.  1.
         11    1    1    2    0    0  0.18044256102E+01  0.27064309896E+02  0.99722795468E+00  0.27142720672E+02  0.00000000000E+00 0. -1.
</event>
<event>
 7    1  0.2766180E-009  0.1016169E+03  0.7561462E-02  0.1276932E+00
         -2   -1    0    0    0  501 -0.00000000000E+00  0.00000000000E+00  0.86937166805E+02  0.86937166805E+02  0.00000000000E+00 0. -1.
          2   -1    0    0  501    0  0.00000000000E+00 -0.00000000000E+00 -0.20377214097E+03  0.20377214097E+03  0.00000000000E+00 0.  1.
         25    2    1    2    0    0  0.12089657595E+02 -0.15763904567E+02  0.16615348145E+02  0.12772866595E+03  0.12507550441E+03 0.  0.
          5    1    3    3  502    0 -0.31959804192E+02 -0.53579869888E+02  0.27849066359E+02  0.68449064553E+02  0.41800000000E+01 0.  1.
         -5    1    3    3    0  502  0.44049461786E+02  0.37815965321E+02 -0.11233718214E+02  0.59279601397E+02  0.41800000000E+01 0.  1.
        -11    1    1    2    0    0  0.10750197444E+02 -0.29719941212E+02 -0.92202396569E+02  0.97468577417E+02  0.00000000000E+00 0.  1.
         11    1    1    2    0    0 -0.22839855038E+02  0.45483845778E+02 -0.41247925740E+02  0.65512064406E+02  0.00000000000E+00 0. -1.
</event>
<event>
 7    1  0.2766180E-009  0.8907755E+02  0.7561462E-02  0.1305101E+00
         -2   -1    0    0    0  501 -0.00000000000E+00  0.00000000000E+00  0.68809349403E+02  0.68809349403E+02  0.00000000000E+00 0.  1.
          2   -1    0    0  501    0  0.00000000000E+00 -0.00000000000E+00 -0.27108283564E+03  0.27108283564E+03  0.00000000000E+00 0. -1.
         25    2    1    2    0    0  0.63543306512E+02  0.30858753215E+02 -0.58372936125E+02  0.15506330978E+03  0.12508883209E+03 0.  0.
          5    1    3    3  502    0  0.47958734408E+02 -0.40980632980E+00  0.32184910280E+02  0.57909835063E+02  0.41800000000E+01 0. -1.
         -5    1    3    3    0  502  0.15584572104E+02  0.31268559545E+02 -0.90557846405E+02  0.97153474715E+02  0.41800000000E+01 0. -1.
        -11    1    1    2    0    0 -0.27472152587E+02  0.18916798716E+02 -0.60580743911E+01  0.33900806875E+02  0.00000000000E+00 0.  1.
         11    1    1    2    0    0 -0.36071153926E+02 -0.49775551931E+02 -0.13784247572E+03  0.15092806839E+03  0.00000000000E+00 0. -1.
</event>
<event>
 7    1  0.2766180E-009  0.1452238E+03  0.7561462E-02  0.1206468E+00
          1   -1    0    0  501    0  0.00000000000E+00  0.00000000000E+00  0.38832454957E+02  0.38832454957E+02  0.00000000000E+00 0. -1.
         -1   -1    0    0    0  501 -0.00000000000E+00 -0.00000000000E+00 -0.57771312232E+03  0.57771312232E+03  0.00000000000E+00 0.  1.
         25    2    1    2    0    0 -0.75107128709E+02 -0.68894582794E+02 -0.26431476035E+03  0.30967020563E+03  0.12508316992E+03 0.  0.
          5    1    3    3  502    0  0.34572832968E+02 -0.21923647816E+02 -0.81947100588E+02  0.91699110180E+02  0.41800000000E+01 0.  1.
         -5    1    3    3    0  502 -0.10967996168E+03 -0.46970934978E+02 -0.18236765976E+03  0.21797109545E+03  0.41800000000E+01 0.  1.
        -11    1    1    2    0    0  0.92054475409E+02  0.64496146896E+02 -0.26266787927E+03  0.28570648262E+03  0.00000000000E+00 0.  1.
         11    1    1    2    0    0 -0.16947346700E+02  0.43984358985E+01 -0.11898027743E+02  0.21168889028E+02  0.00000000000E+00 0. -1.
</event>
<event>
 7    1  0.2766180E-009  0.9494949E+02  0.7561462E-02  0.1291290E+00
         -1   -1    0    0    0  501 -0.00000000000E+00  0.00000000000E+00  0.12729463562E+03  0.12729463562E+03  0.00000000000E+00 0.  1.
          1   -1    0    0  501    0  0.00000000000E+00 -0.00000000000E+00 -0.12321241935E+03  0.12321241935E+03  0.00000000000E+00 0. -1.
         25    2    1    2    0    0  0.62553069645E+02 -0.21158035619E+01  0.49996501922E+00  0.13987624461E+03  0.12509096967E+03 0.  0.
          5    1    3    3  502    0  0.33200432971E+01  0.16997982864E+02  0.54519455100E+02  0.57356756300E+02  0.41800000000E+01 0. -1.
         -5    1    3    3    0  502  0.59233026348E+02 -0.19113786426E+02 -0.54019490080E+02  0.82519488307E+02  0.41800000000E+01 0. -1.
        -11    1    1    2    0    0 -0.42831281752E+01  0.39980883967E+02  0.80026347988E+01  0.40998273543E+02  0.00000000000E+00 0.  1.
         11    1    1    2    0    0 -0.58269941470E+02 -0.37865080405E+02 -0.44203835435E+01  0.69632536818E+02  0.00000000000E+00 0. -1.
</event>
<event>
 7    1  0.2766180E-009  0.1164043E+03  0.7561462E-02  0.1249150E+00
         -2   -1    0    0    0  501 -0.00000000000E+00  0.00000000000E+00  0.72720762539E+02  0.72720762539E+02  0.00000000000E+00 0.  1.
          2   -1    0    0  501    0  0.00000000000E+00 -0.00000000000E+00 -0.20395789479E+03  0.20395789479E+03  0.00000000000E+00 0. -1.
         25    2    1    2    0    0  0.38009915509E+02  0.21119762018E+02 -0.36610174997E+02  0.13740008204E+03  0.12509068553E+03 0.  0.
          5    1    3    3  502    0  0.74608856319E+02 -0.19135971396E+02 -0.14312161822E+02  0.78453662875E+02  0.41800000000E+01 0. -1.
         -5    1    3    3    0  502 -0.36598940810E+02  0.40255733413E+02 -0.22298013175E+02  0.58946419167E+02  0.41800000000E+01 0. -1.
        -11    1    1    2    0    0 -0.51368167924E+02 -0.48495880173E+02 -0.56382067041E+02  0.90385156709E+02  0.00000000000E+00 0.  1.
         11    1    1    2    0    0  0.13358252415E+02  0.27376118155E+02 -0.38244890214E+02  0.48893418579E+02  0.00000000000E+00 0. -1.
</event>
<event>
 7    1  0.2766180E-009  0.1357451E+03  0.7561462E-02  0.1219172E+00
          3   -1    0    0  501    0  0.00000000000E+00  0.00000000000E+00  0.82698351660E+03  0.82698351660E+03  0.00000000000E+00 0. -1.
         -3   -1    0    0    0  501 -0.00000000000E+00 -0.00000000000E+00 -0.27830341039E+02  0.27830341039E+02  0.00000000000E+00 0.  1.
         25    2    1    2    0    0  0.37977016242E+02 -0.98374584044E+02  0.40059742745E+03  0.43271831347E+03  0.12508807850E+03 0.  0.
          5    1    3    3  502    0  0.57861957769E+02 -0.97528438557E+02  0.19122643996E+03  0.22236192620E+03  0.41800000000E+01 0.  1.
         -5    1    3    3    0  502 -0.19884941527E+02 -0.84614548696E+00  0.20937098749E+03  0.21035638727E+03  0.41800000000E+01 0.  1.
        -11    1    1    2    0    0 -0.34422182599E+02 -0.45211096106E+01  0.77140047210E+02  0.84592635439E+02  0.00000000000E+00 0.  1.
         11    1    1    2    0    0 -0.35548336430E+01  0.10289569366E+03  0.32141570091E+03  0.33750290873E+03  0.00000000000E+00 0. -1.
</event>
<event>
 7    1  0.2766180E-009  0.2203423E+03  0.7561462E-02  0.1133628E+00
          2   -1    0    0  501    0  0.00000000000E+00  0.00000000000E+00  0.20995417603E+03  0.20995417603E+03  0.00000000000E+00 0. -1.
         -2   -1    0    0    0  501 -0.00000000000E+00 -0.00000000000E+00 -0.25894155597E+03  0.25894155597E+03  0.00000000000E+00 0.  1.
         25    2    1    2    0    0  0.14825543320E+03  0.14333536761E+03 -0.16638669215E+02  0.24176327677E+03  0.12509170876E+03 0.  0.
          5    1    3    3  502    0  0.20035532938E+02 -0.16373707414E+02  0.20870066768E+02  0.33504521508E+02  0.41800000000E+01 0. -1.
         -5    1    3    3    0  502  0.12821990026E+03  0.15970907502E+03 -0.37508735983E+02  0.20825875526E+03  0.41800000000E+01 0. -1.
        -11    1    1    2    0    0 -0.59212479055E+02 -0.83411979880E+02  0.25197369870E+02  0.10534981496E+03  0.00000000000E+00 0. -1.
         11    1    1    2    0    0 -0.89042954146E+02 -0.59923387727E+02 -0.57546080602E+02  0.12178264027E+03  0.00000000000E+00 0.  1.
</event>
<event>
 7    1  0.2766180E-009  0.1090070E+03  0.7561462E-02  0.1262420E+00
         -2   -1    0    0    0  501 -0.00000000000E+00  0.00000000000E+00  0.32908335363E+02  0.32908335363E+02  0.00000000000E+00 0.  1.
          2   -1    0    0  501    0  0.00000000000E+00 -0.00000000000E+00 -0.38656475069E+03  0.38656475069E+03  0.00000000000E+00 0. -1.
         25    2    1    2    0    0  0.60902283837E+01 -0.24034483375E+02 -0.24164777553E+03  0.27323298541E+03  0.12509144505E+03 0.  0.
          5    1    3    3  502    0 -0.15962929415E+02  0.47294600504E+02 -0.12513932275E+03  0.13479212459E+03  0.41800000000E+01 0.  1.
         -5    1    3    3    0  502  0.22053157799E+02 -0.71329083880E+02 -0.11650845277E+03  0.13844086082E+03  0.41800000000E+01 0.  1.
        -11    1    1    2    0    0 -0.27195934554E+02 -0.26752240106E+02 -0.36262370103E+02  0.52633266025E+02  0.00000000000E+00 0. -1.
         11    1    1    2    0    0  0.21105706170E+02  0.50786723481E+02 -0.75746269699E+02  0.93606834623E+02  0.00000000000E+00 0.  1.
</event>
<event>
 7    1  0.2766180E-009  0.1051123E+03  0.7561462E-02  0.1269899E+00
          3   -1    0    0  501    0  0.00000000000E+00  0.00000000000E+00  0.60145208488E+02  0.60145208488E+02  0.00000000000E+00 0. -1.
         -3   -1    0    0    0  501 -0.00000000000E+00 -0.00000000000E+00 -0.23038092420E+03  0.23038092420E+03  0.00000000000E+00 0.  1.
         25    2    1    2    0    0  0.46681792347E+00  0.34933575297E+02 -0.48153699133E+02  0.13850778283E+03  0.12508019252E+03 0.  0.
          5    1    3    3  502    0  0.39859666977E+02 -0.29297931060E+02 -0.12626425005E+01  0.49661136536E+02  0.41800000000E+01 0. -1.
         -5    1    3    3    0  502 -0.39392849053E+02  0.64231506357E+02 -0.46891056632E+02  0.88846646293E+02  0.41800000000E+01 0. -1.
        -11    1    1    2    0    0  0.34532257970E+02 -0.36283276976E+02 -0.96230011005E+02  0.10848579652E+03  0.00000000000E+00 0.  1.
         11    1    1    2    0    0 -0.34999075894E+02  0.13497016791E+01 -0.25852005577E+02  0.43532553341E+02  0.00000000000E+00 0. -1.
</event>
<event>
 7    1  0.2993078E-009  0.1492912E+03  0.7561462E-02  0.1201347E+00
          2   -1    0    0  501    0  0.00000000000E+00  0.00000000000E+00  0.79538849916E+03  0.79538849916E+03  0.00000000000E+00 0. -1.
         -2   -1    0    0    0  501 -0.00000000000E+00 -0.00000000000E+00 -0.31006127925E+02  0.31006127925E+02  0.00000000000E+00 0.  1.
         25    2    1    2    0    0  0.13141234136E+02 -0.10908578845E+03  0.48736089258E+03  0.51501430193E+03  0.12508673112E+03 0.  0.
          5    1    3    3  502    0 -0.19118613099E+02 -0.12039623558E+03  0.28901062359E+03  0.31369633063E+03  0.41800000000E+01 0.  1.
         -5    1    3    3    0  502  0.32259847234E+02  0.11310447124E+02  0.19835026900E+03  0.20131797130E+03  0.41800000000E+01 0.  1.
        -11    1    1    2    0    0 -0.50866960342E+02  0.45583813799E+02  0.13568274481E+03  0.15190503275E+03  0.00000000000E+00 0. -1.
         11    1    1    2    0    0  0.37725726206E+02  0.63501974653E+02  0.14133873384E+03  0.15947529240E+03  0.00000000000E+00 0.  1.
</event>
<event>
 7    1  0.2766180E-009  0.1172784E+03  0.7561462E-02  0.1247656E+00
         -2   -1    0    0    0  501 -0.00000000000E+00  0.00000000000E+00  0.10525235135E+03  0.10525235135E+03  0.00000000000E+00 0. -1.
          2   -1    0    0  501    0  0.00000000000E+00 -0.00000000000E+00 -0.15935792315E+03  0.15935792315E+03  0.00000000000E+00 0.  1.
         25    2    1    2    0    0 -0.59160420054E+02 -0.33798475320E+02 -0.46503505649E+02  0.14984413587E+03  0.12509355212E+03 0.  0.
          5    1    3    3  502    0  0.30410814414E+02 -0.35587578417E+02 -0.36688241481E+02  0.59622083441E+02  0.41800000000E+01 0.  1.
         -5    1    3    3    0  502 -0.89571234469E+02  0.17891030970E+01 -0.98152641674E+01  0.90222052431E+02  0.41800000000E+01 0.  1.
        -11    1    1    2    0    0  0.27467869410E+02 -0.20995793047E+02  0.25852190943E+02  0.43169931111E+02  0.00000000000E+00 0. -1.
         11    1    1    2    0    0  0.31692550644E+02  0.54794268366E+02 -0.33454257092E+02  0.71596207509E+02  0.00000000000E+00 0.  1.
</event>
<event>
 7    1  0.2766180E-009  0.1068565E+03  0.7561462E-02  0.1266504E+00
         -1   -1    0    0    0  501 -0.00000000000E+00  0.00000000000E+00  0.81699341340E+02  0.81699341340E+02  0.00000000000E+00 0.  1.
          1   -1    0    0  501    0  0.00000000000E+00 -0.00000000000E+00 -0.14322772937E+03  0.14322772937E+03  0.00000000000E+00 0. -1.
         25    2    1    2    0    0  0.13889405280E+02  0.56732441807E+01 -0.36327253672E+02  0.13111227016E+03  0.12508259971E+03 0.  0.
          5    1    3    3  502    0  0.29604783298E+02  0.59829332462E+02 -0.32703878328E+02  0.74451381952E+02  0.41800000000E+01 0. -1.
         -5    1    3    3    0  502 -0.15715378018E+02 -0.54156088281E+02 -0.36233753441E+01  0.56660888213E+02  0.41800000000E+01 0. -1.
        -11    1    1    2    0    0  0.36525678741E+02  0.93027848076E+01 -0.85490522567E+01  0.38649104868E+02  0.00000000000E+00 0.  1.
         11    1    1    2    0    0 -0.50415084020E+02 -0.14976028988E+02 -0.16652082100E+02  0.55165695675E+02  0.00000000000E+00 0. -1.
</event>
<event>
 7    1  0.2766180E-009  0.1166156E+03  0.7561462E-02  0.1248787E+00
          2   -1    0    0  501    0  0.00000000000E+00  0.00000000000E+00  0.37915943496E+03  0.37915943496E+03  0.00000000000E+00 0. -1.
         -2   -1    0    0    0  501 -0.00000000000E+00 -0.00000000000E+00 -0.45015735139E+02  0.45015735139E+02  0.00000000000E+00 0.  1.
         25    2    1    2    0    0 -0.42115004814E+01  0.65114952052E+02  0.23657286572E+03  0.27544301903E+03  0.12507774472E+03 0.  0.
          5    1    3    3  502    0 -0.40810931626E+02  0.82765172733E+02  0.20126279163E+03  0.22144929364E+03  0.41800000000E+01 0.  1.
         -5    1    3    3    0  502  0.36599431145E+02 -0.17650220680E+02  0.35310074081E+02  0.53993725393E+02  0.41800000000E+01 0.  1.
        -11    1    1    2    0    0  0.74443508799E+01 -0.82242625588E+02  0.10151551382E+03  0.13086125236E+03  0.00000000000E+00 0. -1.
         11    1    1    2    0    0 -0.32328503985E+01  0.17127673536E+02 -0.39446797122E+01  0.17870898704E+02  0.00000000000E+00 0.  1.
</event>
<event>
 7    1  0.2766180E-009  0.1072637E+03  0.7561462E-02  0.1265723E+00
         -4   -1    0    0    0  501 -0.00000000000E+00  0.00000000000E+00  0.94433248207E+02  0.94433248207E+02  0.00000000000E+00 0.  1.
          4   -1    0    0  501    0  0.00000000000E+00 -0.00000000000E+00 -0.22802548360E+03  0.22802548360E+03  0.00000000000E+00 0. -1.
         25    2    1    2    0    0  0.68267830617E+02 -0.26742637678E+02  0.83124872625E+00  0.14499600318E+03  0.12508990606E+03 0.  0.
          5    1    3    3  502    0  0.93943884916E+02  0.78336020750E+01  0.21898740885E+02  0.96870253881E+02  0.41800000000E+01 0. -1.
         -5    1    3    3    0  502 -0.25676054299E+02 -0.34576239753E+02 -0.21067492159E+02  0.48125749300E+02  0.41800000000E+01 0. -1.
        -11    1    1    2    0    0 -0.39742747334E+02  0.31311315048E+01 -0.13465511244E+03  0.14043250783E+03  0.00000000000E+00 0. -1.
         11    1    1    2    0    0 -0.28525083282E+02  0.23611506173E+02  0.23162832484E+00  0.37030220789E+02  0.00000000000E+00 0.  1.
</event>
<event>
 7    1  0.2766180E-009  0.1187947E+03  0.7561462E-02  0.1245099E+00
         -2   -1    0    0    0  501 -0.00000000000E+00  0.00000000000E+00  0.14228355073E+02  0.14228355073E+02  0.00000000000E+00 0.  1.
          2   -1    0    0  501    0  0.00000000000E+00 -0.00000000000E+00 -0.11317560223E+04  0.11317560223E+04  0.00000000000E+00 0. -1.
         25    2    1    2    0    0 -0.39110861061E+02  0.40376930311E+02 -0.78641717017E+03  0.79828396940E+03  0.12508147065E+03 0.  0.
          5    1    3    3  502    0 -0.78898725582E+02  0.47666061417E+02 -0.44592112251E+03  0.45536818314E+03  0.41800000000E+01 0. -1.
         -5    1    3    3    0  502  0.39787864521E+02 -0.72891311063E+01 -0.34049604766E+03  0.34291578626E+03  0.41800000000E+01 0. -1.
        -11    1    1    2    0    0  0.36708956977E+02 -0.67811623729E+02 -0.26731552989E+03  0.27821494632E+03  0.00000000000E+00 0. -1.
         11    1    1    2    0    0  0.24019040832E+01  0.27434693419E+02 -0.63794967170E+02  0.69485461663E+02  0.00000000000E+00 0.  1.
</event>
<event>
 7    1  0.2766180E-009  0.8928527E+02  0.7561462E-02  0.1304592E+00
         -1   -1    0    0    0  501 -0.00000000000E+00  0.00000000000E+00  0.40780221651E+02  0.40780221651E+02  0.00000000000E+00 0.  1.
          1   -1    0    0  501    0  0.00000000000E+00 -0.00000000000E+00 -0.35786218701E+03  0.35786218701E+03  0.00000000000E+00 0. -1.
         25    2    1    2    0    0  0.20384538902E+02  0.41577318175E+02 -0.13364456427E+03  0.18881963835E+03  0.12509110062E+03 0.  0.
          5    1    3    3  502    0  0.16259401528E+02  0.70015868106E+02 -0.14147597464E+03  0.15874354703E+03  0.41800000000E+01 0.  1.
         -5    1    3    3    0  502  0.41251373735E+01 -0.28438549931E+02  0.78314103673E+01  0.30076091316E+02  0.41800000000E+01 0.  1.
        -11    1    1    2    0    0  0.18408210866E+02  0.27656563994E+01 -0.16053652156E+01  0.18683904305E+02  0.00000000000E+00 0.  1.
         11    1    1    2    0    0 -0.38792749768E+02 -0.44342974574E+02 -0.18183203587E+03  0.19113886601E+03  0.00000000000E+00 0. -1.
</event>
<event>
 7    1  0.2766180E-009  0.1526846E+03  0.7561462E-02  0.1197212E+00
         -1   -1    0    0    0  501 -0.00000000000E+00  0.00000000000E+00  0.67013524369E+02  0.67013524369E+02  0.00000000000E+00 0.  1.
          1   -1    0    0  501    0  0.00000000000E+00 -0.00000000000E+00 -0.44797375179E+03  0.44797375179E+03  0.00000000000E+00 0. -1.
         25    2    1    2    0    0  0.84668730591E+02  0.10085231928E+03 -0.16566731494E+03  0.24584082058E+03  0.12510821547E+03 0.  0.
          5    1    3    3  502    0  0.81330113253E+02  0.10802326472E+03 -0.18226602910E+03  0.22698456072E+03  0.41800000000E+01 0. -1.
         -5    1    3    3    0  502  0.33386173382E+01 -0.71709454385E+01  0.16598714156E+02  0.18856259859E+02  0.41800000000E+01 0. -1.
        -11    1    1    2    0    0 -0.74184399368E+02 -0.16316414208E+02 -0.92312726688E+02  0.11954576526E+03  0.00000000000E+00 0.  1.
         11    1    1    2    0    0 -0.10484331223E+02 -0.84535905073E+02 -0.12298018579E+03  0.14960069032E+03  0.00000000000E+00 0. -1.
</event>
<event>
 7    1  0.2766180E-009  0.1815704E+03  0.7561462E-02  0.1166292E+00
         -1   -1    0    0    0  501 -0.00000000000E+00  0.00000000000E+00  0.23343172516E+03  0.23343172516E+03  0.00000000000E+00 0.  1.
          1   -1    0    0  501    0  0.00000000000E+00 -0.00000000000E+00 -0.17999552137E+03  0.17999552137E+03  0.00000000000E+00 0. -1.
         25    2    1    2    0    0  0.10986843836E+03  0.12846977524E+03  0.67822308951E+02  0.22095956626E+03  0.12509079675E+03 0.  0.
          5    1    3    3  502    0  0.80390280677E+01 -0.15319832279E+02 -0.17664575750E+02  0.25076540227E+02  0.41800000000E+01 0. -1.
         -5    1    3    3    0  502  0.10182941029E+03  0.14378960752E+03  0.85486884700E+02  0.19588302603E+03  0.41800000000E+01 0. -1.
        -11    1    1    2    0    0 -0.17030381249E+02 -0.17591550814E+02  0.32276705113E+02  0.40512741680E+02  0.00000000000E+00 0.  1.
         11    1    1    2    0    0 -0.92838057113E+02 -0.11087822443E+03 -0.46662810270E+02  0.15195493859E+03  0.00000000000E+00 0. -1.
</event>
<event>
 7    1  0.2766180E-009  0.1480081E+03  0.7561462E-02  0.1202942E+00
         -1   -1    0    0    0  501 -0.00000000000E+00  0.00000000000E+00  0.42712269810E+02  0.42712269810E+02  0.00000000000E+00 0.  1.
          1   -1    0    0  501    0  0.00000000000E+00 -0.00000000000E+00 -0.73166279278E+03  0.73166279278E+03  0.00000000000E+00 0. -1.
         25    2    1    2    0    0  0.98363279744E+02 -0.68870536324E+02 -0.51712250088E+03  0.54542425639E+03  0.12511376011E+03 0.  0.
          5    1    3    3  502    0  0.12075661867E+03 -0.37449268710E+02 -0.45427758339E+03  0.47156145289E+03  0.41800000000E+01 0. -1.
         -5    1    3    3    0  502 -0.22393338929E+02 -0.31421267614E+02 -0.62844917493E+02  0.73862803505E+02  0.41800000000E+01 0. -1.
        -11    1    1    2    0    0 -0.89946056395E+02  0.36179873773E+02 -0.64515136407E+02  0.11645376401E+03  0.00000000000E+00 0.  1.
         11    1    1    2    0    0 -0.84172233489E+01  0.32690662551E+02 -0.10731288568E+03  0.11249704219E+03  0.00000000000E+00 0. -1.
</event>
<event>
 7    1  0.2766180E-009  0.8268467E+02  0.7561462E-02  0.1321601E+00
          2   -1    0    0  501    0  0.00000000000E+00  0.00000000000E+00  0.54590403567E+03  0.54590403567E+03  0.00000000000E+00 0.  1.
         -2   -1    0    0    0  501 -0.00000000000E+00 -0.00000000000E+00 -0.27021860486E+02  0.27021860486E+02  0.00000000000E+00 0. -1.
         25    2    1    2    0    0  0.20938341888E+02 -0.28871387671E+02  0.19736284957E+03  0.23637074645E+03  0.12508822568E+03 0.  0.
          5    1    3    3  502    0  0.17630851992E+02  0.21177967863E+02 -0.45840295104E+01  0.28246043817E+02  0.41800000000E+01 0. -1.
         -5    1    3    3    0  502  0.33074898957E+01 -0.50049355533E+02  0.20194687908E+03  0.20812470264E+03  0.41800000000E+01 0. -1.
        -11    1    1    2    0    0 -0.48688225194E+02  0.22955831113E+01  0.25601279387E+03  0.26061151855E+03  0.00000000000E+00 0.  1.
         11    1    1    2    0    0  0.27749883306E+02  0.26575804559E+02  0.65506531744E+02  0.75943631153E+02  0.00000000000E+00 0. -1.
</event>
<event>
 7    1  0.2766180E-009  0.1743261E+03  0.7561462E-02  0.1173410E+00
          2   -1    0    0  501    0  0.00000000000E+00  0.00000000000E+00  0.16079714382E+04  0.16079714382E+04  0.00000000000E+00 0. -1.
         -2   -1    0    0    0  501 -0.00000000000E+00 -0.00000000000E+00 -0.25187954191E+02  0.25187954191E+02  0.00000000000E+00 0.  1.
         25    2    1    2    0    0  0.20298720527E+02  0.15694133307E+03  0.10715932123E+04  0.10904139764E+04  0.12509199480E+03 0.  0.
          5    1    3    3  502    0  0.53526267864E+02  0.36044632674E+02  0.55740986632E+03  0.56114838355E+03  0.41800000000E+01 0.  1.
         -5    1    3    3    0  502 -0.33227547337E+02  0.12089670040E+03  0.51418334602E+03  0.52926559287E+03  0.41800000000E+01 0.  1.
        -11    1    1    2    0    0 -0.19502378038E+02 -0.11906342330E+03  0.47594785517E+03  0.49100183540E+03  0.00000000000E+00 0. -1.
         11    1    1    2    0    0 -0.79634248920E+00 -0.37877909769E+02  0.35242416490E+02  0.51743580567E+02  0.00000000000E+00 0.  1.
</event>
<event>
 7    1  0.2766180E-009  0.7982515E+02  0.7561462E-02  0.1329548E+00
         -1   -1    0    0    0  501 -0.00000000000E+00  0.00000000000E+00  0.52357132736E+02  0.52357132736E+02  0.00000000000E+00 0.  1.
          1   -1    0    0  501    0  0.00000000000E+00 -0.00000000000E+00 -0.23888901806E+03  0.23888901806E+03  0.00000000000E+00 0. -1.
         25    2    1    2    0    0  0.43261105322E+01 -0.24235105989E+02 -0.83845390533E+02  0.15258538172E+03  0.12508474569E+03 0.  0.
          5    1    3    3  502    0 -0.17762456052E+02 -0.38769164791E+02  0.18591551389E+02  0.46708362920E+02  0.41800000000E+01 0. -1.
         -5    1    3    3    0  502  0.22088566584E+02  0.14534058802E+02 -0.10243694192E+03  0.10587701880E+03  0.41800000000E+01 0. -1.
        -11    1    1    2    0    0  0.13686129984E+02  0.53744338274E+02 -0.79875498627E+02  0.97241242955E+02  0.00000000000E+00 0. -1.
         11    1    1    2    0    0 -0.18012240516E+02 -0.29509232285E+02 -0.22810996166E+02  0.41419526126E+02  0.00000000000E+00 0.  1.
</event>
<event>
 7    1  0.2766180E-009  0.1945823E+03  0.7561462E-02  0.1154392E+00
          1   -1    0    0  501    0  0.00000000000E+00  0.00000000000E+00  0.18354173052E+03  0.18354173052E+03  0.00000000000E+00 0. -1.
         -1   -1    0    0    0  501 -0.00000000000E+00 -0.00000000000E+00 -0.25031157062E+03  0.25031157062E+03  0.00000000000E+00 0.  1.
         25    2    1    2    0    0 -0.24217359147E+02 -0.17077101816E+03 -0.10225959812E+03  0.23632632074E+03  0.12507551054E+03 0.  0.
          5    1    3    3  502    0  0.39137001189E+01  0.15096315769E+02 -0.31547324648E+02  0.35438988288E+02  0.41800000000E+01 0.  1.
         -5    1    3    3    0  502 -0.28131059266E+02 -0.18586733393E+03 -0.70712273471E+02  0.20088733245E+03  0.41800000000E+01 0.  1.
        -11    1    1    2    0    0 -0.22333979520E+02  0.35598860135E+02 -0.16859459944E+02  0.45280535263E+02  0.00000000000E+00 0.  1.
         11    1    1    2    0    0  0.46551338667E+02  0.13517215803E+03  0.52349217961E+02  0.15224644514E+03  0.00000000000E+00 0. -1.
</event>
<event>
 7    1  0.2766180E-009  0.2518163E+03  0.7561462E-02  0.1112162E+00
          2   -1    0    0  501    0  0.00000000000E+00  0.00000000000E+00  0.41112836774E+03  0.41112836774E+03  0.00000000000E+00 0. -1.
         -2   -1    0    0    0  501 -0.00000000000E+00 -0.00000000000E+00 -0.30372843436E+03  0.30372843436E+03  0.00000000000E+00 0.  1.
         25    2    1    2    0    0  0.20510246864E+03  0.97504966497E+02 -0.19571051698E+03  0.32484633253E+03  0.12509313399E+03 0.  0.
          5    1    3    3  502    0 -0.69984518665E+01 -0.15770888289E+02 -0.21524172108E+02  0.27900925269E+02  0.41800000000E+01 0.  1.
         -5    1    3    3    0  502  0.21210092050E+03  0.11327585479E+03 -0.17418634487E+03  0.29694540726E+03  0.41800000000E+01 0.  1.
        -11    1    1    2    0    0 -0.16579739713E+03 -0.31791584729E+02  0.21149873774E+03  0.27061263425E+03  0.00000000000E+00 0.  1.
         11    1    1    2    0    0 -0.39305071509E+02 -0.65713381768E+02  0.91611712622E+02  0.11939783532E+03  0.00000000000E+00 0. -1.
</event>
<event>
 7    1  0.2766180E-009  0.1896481E+03  0.7561462E-02  0.1158779E+00
          2   -1    0    0  501    0  0.00000000000E+00  0.00000000000E+00  0.72546070436E+02  0.72546070436E+02  0.00000000000E+00 0.  1.
         -2   -1    0    0    0  501 -0.00000000000E+00 -0.00000000000E+00 -0.56494906150E+03  0.56494906150E+03  0.00000000000E+00 0. -1.
         25    2    1    2    0    0 -0.10438859472E+03 -0.13477449751E+03 -0.25100653644E+03  0.32820587557E+03  0.12511463358E+03 0.  0.
          5    1    3    3  502    0  0.19397673531E+02  0.48284260445E+01 -0.83037964017E+01  0.22045608887E+02  0.41800000000E+01 0. -1.
         -5    1    3    3    0  502 -0.12378626825E+03 -0.13960292355E+03 -0.24270274004E+03  0.30616026668E+03  0.41800000000E+01 0. -1.
        -11    1    1    2    0    0  0.87775576340E+02  0.12571282342E+03 -0.24594857101E+03  0.28982574999E+03  0.00000000000E+00 0. -1.
         11    1    1    2    0    0  0.16613018379E+02  0.90616740858E+01  0.45521163881E+01  0.19463506377E+02  0.00000000000E+00 0.  1.
</event>
<event>
 7    1  0.2766180E-009  0.1947546E+03  0.7561462E-02  0.1154242E+00
          2   -1    0    0  501    0  0.00000000000E+00  0.00000000000E+00  0.94941944858E+03  0.94941944858E+03  0.00000000000E+00 0. -1.
         -2   -1    0    0    0  501 -0.00000000000E+00 -0.00000000000E+00 -0.48560676730E+02  0.48560676730E+02  0.00000000000E+00 0.  1.
         25    2    1    2    0    0 -0.66448768665E-01 -0.18398732698E+03  0.43924832007E+03  0.49237781078E+03  0.12508189703E+03 0.  0.
          5    1    3    3  502    0  0.23192513314E+02 -0.71472132464E+01  0.15380592298E+03  0.15576491798E+03  0.41800000000E+01 0.  1.
         -5    1    3    3    0  502 -0.23258962082E+02 -0.17684011373E+03  0.28544239709E+03  0.33661289280E+03  0.41800000000E+01 0.  1.
        -11    1    1    2    0    0  0.15189799830E+02  0.95514871068E+02  0.34586889436E+03  0.35913662121E+03  0.00000000000E+00 0. -1.
         11    1    1    2    0    0 -0.15123351062E+02  0.88472455912E+02  0.11574155743E+03  0.14646569331E+03  0.00000000000E+00 0.  1.
</event>
<event>
 7    1  0.3718116E-009  0.8663677E+02  0.7561462E-02  0.1311207E+00
         -1   -1    0    0    0  501 -0.00000000000E+00  0.00000000000E+00  0.72382915386E+01  0.72382915386E+01  0.00000000000E+00 0.  1.
          1   -1    0    0  501    0  0.00000000000E+00 -0.00000000000E+00 -0.21093706345E+04  0.21093706345E+04  0.00000000000E+00 0. -1.
         25    2    1    2    0    0  0.56764127008E+01 -0.25014289898E+01 -0.16803913441E+04  0.16850522661E+04  0.12509033327E+03 0.  0.
          5    1    3    3  502    0 -0.16814249338E+02 -0.37073619454E+02 -0.20321972033E+03  0.20729905782E+03  0.41800000000E+01 0. -1.
         -5    1    3    3    0  502  0.22490662039E+02  0.34572190464E+02 -0.14771716238E+04  0.14777532083E+04  0.41800000000E+01 0. -1.
        -11    1    1    2    0    0 -0.24882394410E+01  0.46607914155E+02 -0.24160688652E+03  0.24607392510E+03  0.00000000000E+00 0. -1.
         11    1    1    2    0    0 -0.31881732598E+01 -0.44106485165E+02 -0.18013411231E+03  0.18548273478E+03  0.00000000000E+00 0.  1.
</event>
<event>
 7    1  0.2766180E-009  0.7524906E+02  0.7561462E-02  0.1343101E+00
          1   -1    0    0  501    0  0.00000000000E+00  0.00000000000E+00  0.77787353017E+03  0.77787353017E+03  0.00000000000E+00 0. -1.
         -1   -1    0    0    0  501 -0.00000000000E+00 -0.00000000000E+00 -0.35863827084E+02  0.35863827084E+02  0.00000000000E+00 0.  1.
         25    2    1    2    0    0  0.57309195613E+02 -0.14767361880E+01  0.67003330853E+03  0.68401578765E+03  0.12508572483E+03 0.  0.
          5    1    3    3  502    0  0.44421029859E+02 -0.18979006151E+02  0.65604053273E+03  0.65782982872E+03  0.41800000000E+01 0.  1.
         -5    1    3    3    0  502  0.12888165755E+02  0.17502269963E+02  0.13992775803E+02  0.26185958929E+02  0.41800000000E+01 0.  1.
        -11    1    1    2    0    0  0.65784028286E+01 -0.12821055924E+02 -0.15038908823E+02  0.20828433387E+02  0.00000000000E+00 0.  1.
         11    1    1    2    0    0 -0.63887598442E+02  0.14297792112E+02  0.87015303377E+02  0.10889313622E+03  0.00000000000E+00 0. -1.
</event>
<event>
 7    1  0.2766180E-009  0.1107321E+03  0.7561462E-02  0.1259220E+00
         -2   -1    0    0    0  501 -0.00000000000E+00  0.00000000000E+00  0.63444775414E+03  0.63444775414E+03  0.00000000000E+00 0. -1.
          2   -1    0    0  501    0  0.00000000000E+00 -0.00000000000E+00 -0.36835066173E+02  0.36835066173E+02  0.00000000000E+00 0.  1.
         25    2    1    2    0    0 -0.52048555828E+01  0.67610382272E+02  0.50358802512E+03  0.52330387750E+03  0.12509114618E+03 0.  0.
          5    1    3    3  502    0 -0.17024293421E+02  0.10161346329E+03  0.32103911901E+03  0.33719239437E+03  0.41800000000E+01 0.  1.
         -5    1    3    3    0  502  0.11819437838E+02 -0.34003081023E+02  0.18254890611E+03  0.18611148313E+03  0.41800000000E+01 0.  1.
        -11    1    1    2    0    0 -0.20600076414E+02 -0.26399269572E+02 -0.84659399434E+01  0.34539205569E+02  0.00000000000E+00 0.  1.
         11    1    1    2    0    0  0.25804931997E+02 -0.41211112700E+02  0.10249060279E+03  0.11343973725E+03  0.00000000000E+00 0. -1.
</event>
<event>
 7    1  0.2766180E-009  0.1334933E+03  0.7561462E-02  0.1222362E+00
          4   -1    0    0  501    0  0.00000000000E+00  0.00000000000E+00  0.95221488517E+03  0.95221488517E+03  0.00000000000E+00 0. -1.
         -4   -1    0    0    0  501 -0.00000000000E+00 -0.00000000000E+00 -0.24124476888E+02  0.24124476888E+02  0.00000000000E+00 0.  1.
         25    2    1    2    0    0 -0.53661479390E+02  0.90752699068E+02  0.51806049135E+03  0.54327726505E+03  0.12509159551E+03 0.  0.
          5    1    3    3  502    0 -0.79344689275E+02  0.67571892414E+02  0.48189613217E+03  0.49305465718E+03  0.41800000000E+01 0.  1.
         -5    1    3    3    0  502  0.25683209885E+02  0.23180806654E+02  0.36164359178E+02  0.50222607876E+02  0.41800000000E+01 0.  1.
        -11    1    1    2    0    0  0.41661195134E+02 -0.58280261695E+01  0.64194465846E+02  0.76749921917E+02  0.00000000000E+00 0. -1.
         11    1    1    2    0    0  0.12000284257E+02 -0.84924672898E+02  0.34583545109E+03  0.35631217509E+03  0.00000000000E+00 0.  1.
</event>
<event>
 7    1  0.2766180E-009  0.1137433E+03  0.7561462E-02  0.1253791E+00
          2   -1    0    0  501    0  0.00000000000E+00  0.00000000000E+00  0.21944738398E+03  0.21944738398E+03  0.00000000000E+00 0. -1.
         -2   -1    0    0    0  501 -0.00000000000E+00 -0.00000000000E+00 -0.86870923262E+02  0.86870923262E+02  0.00000000000E+00 0.  1.
         25    2    1    2    0    0  0.79270723544E+02 -0.30879494774E+01  0.89307034161E+02  0.17296393975E+03  0.12508954816E+03 0.  0.
          5    1    3    3  502    0  0.85177056413E+02 -0.44208585618E+02  0.89383691118E+02  0.13121145765E+03  0.41800000000E+01 0. -1.
         -5    1    3    3    0  502 -0.59063328698E+01  0.41120636141E+02 -0.76656957097E-01  0.41752482093E+02  0.41800000000E+01 0. -1.
        -11    1    1    2    0    0 -0.70590951622E+02 -0.12639223800E+02  0.70609772341E+02  0.10064080872E+03  0.00000000000E+00 0. -1.
         11    1    1    2    0    0 -0.86797719215E+01  0.15727173277E+02 -0.27340345788E+02  0.32713558775E+02  0.00000000000E+00 0.  1.
</event>
<event>
 7    1  0.2766180E-009  0.1001996E+03  0.7561462E-02  0.1279877E+00
          1   -1    0    0  501    0  0.00000000000E+00  0.00000000000E+00  0.14588884570E+02  0.14588884570E+02  0.00000000000E+00 0. -1.
         -1   -1    0    0    0  501 -0.00000000000E+00 -0.00000000000E+00 -0.11112111887E+04  0.11112111887E+04  0.00000000000E+00 0.  1.
         25    2    1    2    0    0  0.48008231022E+02 -0.74760269724E+01 -0.81627303297E+03  0.82723074939E+03  0.12509343369E+03 0.  0.
          5    1    3    3  502    0 -0.22015098373E+02 -0.39946711880E+02 -0.16017913142E+03  0.16659901227E+03  0.41800000000E+01 0.  1.
         -5    1    3    3    0  502  0.70023329396E+02  0.32470684907E+02 -0.65609390154E+03  0.66063173711E+03  0.41800000000E+01 0.  1.
        -11    1    1    2    0    0 -0.60783663182E+02  0.14817178324E+02 -0.27629138432E+03  0.28328630665E+03  0.00000000000E+00 0.  1.
         11    1    1    2    0    0  0.12775432160E+02 -0.73411513516E+01 -0.40578868291E+01  0.15283017227E+02  0.00000000000E+00 0. -1.
</event>
<event>
 7    1  0.2766180E-009  0.1128816E+03  0.7561462E-02  0.1255325E+00
          2   -1    0    0  501    0  0.00000000000E+00  0.00000000000E+00  0.84846897853E+02  0.84846897853E+02  0.00000000000E+00 0. -1.
         -2   -1    0    0    0  501 -0.00000000000E+00 -0.00000000000E+00 -0.20019464128E+03  0.20019464128E+03  0.00000000000E+00 0.  1.
         25    2    1    2    0    0 -0.41156097113E+02  0.28609464093E+02 -0.11775567193E+03  0.17895811142E+03  0.12508909468E+03 0.  0.
          5    1    3    3  502    0 -0.72680751678E+02  0.54530025825E+02 -0.63473029844E+02  0.11091579373E+03  0.41800000000E+01 0.  1.
         -5    1    3    3    0  502  0.31524654565E+02 -0.25920561731E+02 -0.54282642083E+02  0.68042317696E+02  0.41800000000E+01 0.  1.
        -11    1    1    2    0    0  0.54249671900E+02  0.80563783860E+01 -0.23128942105E+02  0.59522097551E+02  0.00000000000E+00 0.  1.
         11    1    1    2    0    0 -0.13093574787E+02 -0.36665842479E+02  0.25536870607E+02  0.46561330155E+02  0.00000000000E+00 0. -1.
</event>
<event>
 7    1  0.2766180E-009  0.1111007E+03  0.7561462E-02  0.1258545E+00
         -1   -1    0    0    0  501 -0.00000000000E+00  0.00000000000E+00  0.11607744738E+03  0.11607744738E+03  0.00000000000E+00 0.  1.
          1   -1    0    0  501    0  0.00000000000E+00 -0.00000000000E+00 -0.11269806007E+03  0.11269806007E+03  0.00000000000E+00 0. -1.
         25    2    1    2    0    0  0.36770756187E+02  0.53582724352E+01 -0.19788138457E+01  0.13050705917E+03  0.12508947675E+03 0.  0.
          5    1    3    3  502    0  0.56807477114E+02 -0.43708641287E+02  0.17475568628E+02  0.73894537539E+02  0.41800000000E+01 0.  1.
         -5    1    3    3    0  502 -0.20036720926E+02  0.49066913722E+02 -0.19454382474E+02  0.56612521629E+02  0.41800000000E+01 0.  1.
        -11    1    1    2    0    0  0.29860830956E+02 -0.66571759714E+01 -0.44170017634E+01  0.30911116478E+02  0.00000000000E+00 0.  1.
         11    1    1    2    0    0 -0.66631587144E+02  0.12989035361E+01  0.97752029273E+01  0.67357331805E+02  0.00000000000E+00 0. -1.
</event>
<event>
 7    1  0.3033065E-009  0.1054437E+03  0.7561462E-02  0.1269248E+00
          2   -1    0    0  501    0  0.00000000000E+00  0.00000000000E+00  0.72138770435E+03  0.72138770435E+03  0.00000000000E+00 0. -1.
         -2   -1    0    0    0  501 -0.00000000000E+00 -0.00000000000E+00 -0.19434941316E+02  0.19434941316E+02  0.00000000000E+00 0.  1.
         25    2    1    2    0    0 -0.14825177471E+02  0.43694322944E+02  0.42701298425E+03  0.44734522671E+03  0.12509469771E+03 0.  0.
          5    1    3    3  502    0 -0.17389904861E+02 -0.40472041633E+02  0.95066418866E+02  0.10485938843E+03  0.41800000000E+01 0.  1.
         -5    1    3    3    0  502  0.25647273902E+01  0.84166364577E+02  0.33194656538E+03  0.34248583828E+03  0.41800000000E+01 0.  1.
        -11    1    1    2    0    0  0.13989142723E+02 -0.62226485543E+02  0.26472556336E+03  0.27230030392E+03  0.00000000000E+00 0. -1.
         11    1    1    2    0    0  0.83603474796E+00  0.18532162600E+02  0.10214215421E+02  0.21177115039E+02  0.00000000000E+00 0.  1.
</event>
<event>
 7    1  0.2766180E-009  0.1471235E+03  0.7561462E-02  0.1204053E+00
         -2   -1    0    0    0  501 -0.00000000000E+00  0.00000000000E+00  0.30347129799E+02  0.30347129799E+02  0.00000000000E+00 0.  1.
          2   -1    0    0  501    0  0.00000000000E+00 -0.00000000000E+00 -0.85548143246E+03  0.85548143246E+03  0.00000000000E+00 0. -1.
         25    2    1    2    0    0  0.43937044851E+02  0.10958382050E+03 -0.46534442752E+03  0.49611770754E+03  0.12509302891E+03 0.  0.
          5    1    3    3  502    0  0.67198558567E+02  0.10179858725E+03 -0.23852092176E+03  0.26793338940E+03  0.41800000000E+01 0.  1.
         -5    1    3    3    0  502 -0.23261513716E+02  0.77852332516E+01 -0.22682350576E+03  0.22818431814E+03  0.41800000000E+01 0.  1.
        -11    1    1    2    0    0  0.35241553460E+01  0.14259153108E+02 -0.18944584192E+02  0.23971658025E+02  0.00000000000E+00 0. -1.
         11    1    1    2    0    0 -0.47461200197E+02 -0.12384297361E+03 -0.34084529094E+03  0.36573919669E+03  0.00000000000E+00 0.  1.
</event>
<event>
 7    1  0.2766180E-009  0.1470953E+03  0.7561462E-02  0.1204088E+00
         -2   -1    0    0    0  501 -0.00000000000E+00  0.00000000000E+00  0.11042272331E+03  0.11042272331E+03  0.00000000000E+00 0.  1.
          2   -1    0    0  501    0  0.00000000000E+00 -0.00000000000E+00 -0.23346012042E+03  0.23346012042E+03  0.00000000000E+00 0. -1.
         25    2    1    2    0    0  0.11336554760E+03 -0.13285507960E+02 -0.93957349435E+02  0.19363266517E+03  0.12504948383E+03 0.  0.
          5    1    3    3  502    0 -0.82416665823E+01  0.31404185357E+02  0.13129860253E+01  0.32761933067E+02  0.41800000000E+01 0.  1.
         -5    1    3    3    0  502  0.12160721418E+03 -0.44689693317E+02 -0.95270335461E+02  0.16087073210E+03  0.41800000000E+01 0.  1.
        -11    1    1    2    0    0 -0.29848450213E+02  0.34539377302E+02  0.21354882443E+02  0.50397713923E+02  0.00000000000E+00 0.  1.
         11    1    1    2    0    0 -0.83517097383E+02 -0.21253869342E+02 -0.50434930113E+02  0.99852464631E+02  0.00000000000E+00 0. -1.
</event>
<event>
 7    1  0.2766180E-009  0.1426542E+03  0.7561462E-02  0.1209801E+00
          3   -1    0    0  501    0  0.00000000000E+00  0.00000000000E+00  0.79951149882E+03  0.79951149882E+03  0.00000000000E+00 0. -1.
         -3   -1    0    0    0  501 -0.00000000000E+00 -0.00000000000E+00 -0.30203143224E+02  0.30203143224E+02  0.00000000000E+00 0.  1.
         25    2    1    2    0    0 -0.96908569022E+02 -0.35078634169E+01  0.51933558553E+03  0.54291854887E+03  0.12509006534E+03 0.  0.
          5    1    3    3  502    0 -0.50786250892E+02 -0.64096539318E+02  0.25789724998E+03  0.27058468837E+03  0.41800000000E+01 0. -1.
         -5    1    3    3    0  502 -0.46122318130E+02  0.60588675901E+02  0.26143833555E+03  0.27233386050E+03  0.41800000000E+01 0. -1.
        -11    1    1    2    0    0  0.43247491333E+02  0.42652170546E+02  0.18152685017E+03  0.19141982784E+03  0.00000000000E+00 0.  1.
         11    1    1    2    0    0  0.53661077689E+02 -0.39144307129E+02  0.68445919895E+02  0.95376265337E+02  0.00000000000E+00 0. -1.
</event>
<event>
 7    1  0.2766180E-009  0.1722739E+03  0.7561462E-02  0.1175497E+00
         -1   -1    0    0    0  501 -0.00000000000E+00  0.00000000000E+00  0.15588080158E+04  0.15588080158E+04  0.00000000000E+00 0.  1.
          1   -1    0    0  501    0  0.00000000000E+00 -0.00000000000E+00 -0.19946696107E+02  0.19946696107E+02  0.00000000000E+00 0. -1.
         25    2    1    2    0    0  0.39197998175E+02  0.13242434577E+03  0.86381889779E+03  0.88368824990E+03  0.12509654039E+03 0.  0.
          5    1    3    3  502    0  0.56899690973E+02  0.14859111270E+03  0.79267990822E+03  0.80850219722E+03  0.41800000000E+01 0. -1.
         -5    1    3    3    0  502 -0.17701692798E+02 -0.16166766936E+02  0.71138989568E+02  0.75186052681E+02  0.41800000000E+01 0. -1.
        -11    1    1    2    0    0  0.81536195988E+01 -0.10697988569E+03  0.52047839347E+03  0.53142161748E+03  0.00000000000E+00 0.  1.
         11    1    1    2    0    0 -0.47351617774E+02 -0.25444460078E+02  0.15456402839E+03  0.16364484448E+03  0.00000000000E+00 0. -1.
</event>
<event>
 7    1  0.2766180E-009  0.1835168E+03  0.7561462E-02  0.1164442E+00
          2   -1    0    0  501    0  0.00000000000E+00  0.00000000000E+00  0.17973074003E+03  0.17973074003E+03  0.00000000000E+00 0. -1.
         -2   -1    0    0    0  501 -0.00000000000E+00 -0.00000000000E+00 -0.27107491321E+03  0.27107491321E+03  0.00000000000E+00 0.  1.
         25    2    1    2    0    0  0.10458471909E+02  0.16472682515E+03  0.54077626661E+02  0.21404543883E+03  0.12508698421E+03 0.  0.
          5    1    3    3  502    0  0.27227670228E+02  0.17002706594E+03  0.73714640227E+02  0.18735492991E+03  0.41800000000E+01 0. -1.
         -5    1    3    3    0  502 -0.16769198319E+02 -0.53002407873E+01 -0.19637013566E+02  0.26690508920E+02  0.41800000000E+01 0. -1.
        -11    1    1    2    0    0  0.25528644834E+02 -0.93339313327E+02 -0.11718557738E+03  0.15197499355E+03  0.00000000000E+00 0.  1.
         11    1    1    2    0    0 -0.35987116743E+02 -0.71387511824E+02 -0.28236222464E+02  0.84785220852E+02  0.00000000000E+00 0. -1.
</event>
<event>
 7    1  0.2766180E-009  0.9051966E+02  0.7561462E-02  0.1301598E+00
         -3   -1    0    0    0  501 -0.00000000000E+00  0.00000000000E+00  0.28502791170E+03  0.28502791170E+03  0.00000000000E+00 0.  1.
          3   -1    0    0  501    0  0.00000000000E+00 -0.00000000000E+00 -0.52752069789E+02  0.52752069789E+02  0.00000000000E+00 0. -1.
         25    2    1    2    0    0  0.40653402548E+02 -0.19394928180E+02  0.99302893146E+02  0.16594682373E+03  0.12509365029E+03 0.  0.
          5    1    3    3  502    0 -0.24118196439E+02  0.30260742872E+02  0.68163602183E+02  0.78492987083E+02  0.41800000000E+01 0. -1.
         -5    1    3    3    0  502  0.64771598987E+02 -0.49655671052E+02  0.31139290963E+02  0.87453836649E+02  0.41800000000E+01 0. -1.
        -11    1    1    2    0    0 -0.30108401008E+02 -0.79059891270E+01 -0.43451486884E+01  0.31430889145E+02  0.00000000000E+00 0. -1.
         11    1    1    2    0    0 -0.10545001540E+02  0.27300917307E+02  0.13731809745E+03  0.14040226861E+03  0.00000000000E+00 0.  1.
</event>
<event>
 7    1  0.2766180E-009  0.1020467E+03  0.7561462E-02  0.1276050E+00
          1   -1    0    0  501    0  0.00000000000E+00  0.00000000000E+00  0.39902803716E+03  0.39902803716E+03  0.00000000000E+00 0. -1.
         -1   -1    0    0    0  501 -0.00000000000E+00 -0.00000000000E+00 -0.38988400904E+02  0.38988400904E+02  0.00000000000E+00 0.  1.
         25    2    1    2    0    0  0.38121377809E+02  0.46275613735E+02  0.16419537185E+03  0.21494819081E+03  0.12509169725E+03 0.  0.
          5    1    3    3  502    0  0.13666321487E+02  0.70315410835E+02  0.32451469012E+02  0.78750210063E+02  0.41800000000E+01 0. -1.
         -5    1    3    3    0  502  0.24455056322E+02 -0.24039797100E+02  0.13174390284E+03  0.13619798075E+03  0.41800000000E+01 0. -1.
        -11    1    1    2    0    0  0.23826346122E+02 -0.88376620265E+01  0.18240157807E+02  0.31281022944E+02  0.00000000000E+00 0.  1.
         11    1    1    2    0    0 -0.61947723931E+02 -0.37437951709E+02  0.17760410660E+03  0.19178722432E+03  0.00000000000E+00 0. -1.
</event>
<event>
 7    1  0.2766180E-009  0.1004915E+03  0.7561462E-02  0.1279266E+00
          1   -1    0    0  501    0  0.00000000000E+00  0.00000000000E+00  0.19427034898E+03  0.19427034898E+03  0.00000000000E+00 0. -1.
         -1   -1    0    0    0  501 -0.00000000000E+00 -0.00000000000E+00 -0.78562128448E+02  0.78562128448E+02  0.00000000000E+00 0.  1.
         25    2    1    2    0    0 -0.52780591773E+02  0.11232685056E+02  0.41121771430E+02  0.14230375590E+03  0.12508954703E+03 0.  0.
          5    1    3    3  502    0 -0.81612745269E+02 -0.66614814629E+01  0.61507763390E+02  0.10249728232E+03  0.41800000000E+01 0.  1.
         -5    1    3    3    0  502  0.28832153496E+02  0.17894166519E+02 -0.20385991959E+02  0.39806473579E+02  0.41800000000E+01 0.  1.
        -11    1    1    2    0    0  0.28738216065E+02  0.27134573792E+02 -0.41091350196E+01  0.39737326887E+02  0.00000000000E+00 0.  1.
         11    1    1    2    0    0  0.24042375707E+02 -0.38367258848E+02  0.78695584124E+02  0.90791394646E+02  0.00000000000E+00 0. -1.
</event>
<event>
 7    1  0.2766180E-009  0.1426289E+03  0.7561462E-02  0.1209835E+00
          1   -1    0    0  501    0  0.00000000000E+00  0.00000000000E+00  0.28945374896E+03  0.28945374896E+03  0.00000000000E+00 0. -1.
         -1   -1    0    0    0  501 -0.00000000000E+00 -0.00000000000E+00 -0.14723812977E+03  0.14723812977E+03  0.00000000000E+00 0.  1.
         25    2    1    2    0    0 -0.51916463235E+02  0.10325147076E+03 -0.64814498214E+02  0.18222030308E+03  0.12508850589E+03 0.  0.
          5    1    3    3  502    0  0.12158032234E+02 -0.23832781782E+02 -0.17223155085E+02  0.32092502339E+02  0.41800000000E+01 0. -1.
         -5    1    3    3    0  502 -0.64074495469E+02  0.12708425254E+03 -0.47591343129E+02  0.15012780074E+03  0.41800000000E+01 0. -1.
        -11    1    1    2    0    0  0.28922640537E+02 -0.49496199407E+02  0.23680153391E+02  0.62025338016E+02  0.00000000000E+00 0.  1.
         11    1    1    2    0    0  0.22993822698E+02 -0.53755271350E+02  0.18334996401E+03  0.19244623765E+03  0.00000000000E+00 0. -1.
</event>
<event>
 7    1  0.2766180E-009  0.1268058E+03  0.7561462E-02  0.1232274E+00
         -1   -1    0    0    0  501 -0.00000000000E+00  0.00000000000E+00  0.10662792993E+03  0.10662792993E+03  0.00000000000E+00 0.  1.
          1   -1    0    0  501    0  0.00000000000E+00 -0.00000000000E+00 -0.54509729878E+03  0.54509729878E+03  0.00000000000E+00 0. -1.
         25    2    1    2    0    0  0.95262197145E+02 -0.28796090045E+02  0.33746703579E+02  0.16337259576E+03  0.12509062329E+03 0.  0.
          5    1    3    3  502    0  0.77875300753E+01 -0.54796656670E+02 -0.18039080629E+02  0.58362659611E+02  0.41800000000E+01 0.  1.
         -5    1    3    3    0  502  0.87474667069E+02  0.26000566626E+02  0.51785784208E+02  0.10500993615E+03  0.41800000000E+01 0.  1.
        -11    1    1    2    0    0 -0.18140821905E+02  0.23171165798E+02 -0.42248653930E+02  0.51487290691E+02  0.00000000000E+00 0.  1.
         11    1    1    2    0    0 -0.77121375240E+02  0.56249242462E+01 -0.42996741850E+03  0.43686534225E+03  0.00000000000E+00 0. -1.
</event>
<event>
 7    1  0.2766180E-009  0.2445158E+03  0.7561462E-02  0.1116821E+00
         -2   -1    0    0    0  501 -0.00000000000E+00  0.00000000000E+00  0.45910488310E+02  0.45910488310E+02  0.00000000000E+00 0.  1.
          2   -1    0    0  501    0  0.00000000000E+00 -0.00000000000E+00 -0.13812104393E+04  0.13812104393E+04  0.00000000000E+00 0. -1.
         25    2    1    2    0    0 -0.18469533363E+02 -0.22504751903E+03 -0.75223000013E+03  0.79528914122E+03  0.12508931037E+03 0.  0.
          5    1    3    3  502    0  0.41795950084E+02 -0.17166770095E+03 -0.48687803508E+03  0.51796176928E+03  0.41800000000E+01 0.  1.
         -5    1    3    3    0  502 -0.60265483447E+02 -0.53379818080E+02 -0.26535196505E+03  0.27732737195E+03  0.41800000000E+01 0.  1.
        -11    1    1    2    0    0  0.35805563680E+02  0.17749517558E+03 -0.35854733499E+03  0.40167495213E+03  0.00000000000E+00 0.  1.
         11    1    1    2    0    0 -0.17336030318E+02  0.47552343451E+02 -0.22452261587E+03  0.23015683425E+03  0.00000000000E+00 0. -1.
</event>
<event>
 7    1  0.2766180E-009  0.3581224E+03  0.7561462E-02  0.1059330E+00
          2   -1    0    0  501    0  0.00000000000E+00  0.00000000000E+00  0.16877133051E+04  0.16877133051E+04  0.00000000000E+00 0.  1.
         -2   -1    0    0    0  501 -0.00000000000E+00 -0.00000000000E+00 -0.77343514230E+02  0.77343514230E+02  0.00000000000E+00 0. -1.
         25    2    1    2    0    0 -0.30082534073E+03  0.16610047591E+03  0.87637352295E+03  0.94961358767E+03  0.12510060128E+03 0.  0.
          5    1    3    3  502    0 -0.13838462187E+03  0.15054040765E+02  0.41343952835E+03  0.43626441949E+03  0.41800000000E+01 0. -1.
         -5    1    3    3    0  502 -0.16244071886E+03  0.15104643515E+03  0.46293399460E+03  0.51334916818E+03  0.41800000000E+01 0. -1.
        -11    1    1    2    0    0  0.15212247445E+03 -0.13460462240E+03  0.43010158959E+03  0.47565431668E+03  0.00000000000E+00 0.  1.
         11    1    1    2    0    0  0.14870286629E+03 -0.31495853516E+02  0.30389467835E+03  0.33978891500E+03  0.00000000000E+00 0. -1.
</event>
<event>
 7    1  0.2766180E-009  0.1289510E+03  0.7561462E-02  0.1229021E+00
          1   -1    0    0  501    0  0.00000000000E+00  0.00000000000E+00  0.57603969097E+03  0.57603969097E+03  0.00000000000E+00 0. -1.
         -1   -1    0    0    0  501 -0.00000000000E+00 -0.00000000000E+00 -0.50347828030E+02  0.50347828030E+02  0.00000000000E+00 0.  1.
         25    2    1    2    0    0  0.30014615084E+02 -0.73028184976E+02  0.47211675026E+03  0.49474619931E+03  0.12508230468E+03 0.  0.
          5    1    3    3  502    0 -0.33746960191E+02  0.16557071668E+02  0.12685592722E+03  0.13237406322E+03  0.41800000000E+01 0. -1.
         -5    1    3    3    0  502  0.63761575275E+02 -0.89585256644E+02  0.34526082304E+03  0.36237213609E+03  0.41800000000E+01 0. -1.
        -11    1    1    2    0    0  0.17537417143E+02 -0.53772716911E+01  0.32858407124E+02  0.37631781377E+02  0.00000000000E+00 0. -1.
         11    1    1    2    0    0 -0.47552032228E+02  0.78405456667E+02  0.20716705564E+02  0.94009538312E+02  0.00000000000E+00 0.  1.
</event>
<event>
 7    1  0.2766180E-009  0.1204393E+03  0.7561462E-02  0.1242374E+00
         -1   -1    0    0    0  501 -0.00000000000E+00  0.00000000000E+00  0.29683074943E+02  0.29683074943E+02  0.00000000000E+00 0.  1.
          1   -1    0    0  501    0  0.00000000000E+00 -0.00000000000E+00 -0.12735013010E+04  0.12735013010E+04  0.00000000000E+00 0. -1.
         25    2    1    2    0    0 -0.97449585103E+02  0.49008566691E+02 -0.10502867598E+04  0.10633190643E+04  0.12508754296E+03 0.  0.
          5    1    3    3  502    0 -0.83119081995E+01  0.11285742877E+02 -0.82584649669E+01  0.16796739380E+02  0.41800000000E+01 0. -1.
         -5    1    3    3    0  502 -0.89137676904E+02  0.37722823814E+02 -0.10420282948E+04  0.10465223249E+04  0.41800000000E+01 0. -1.
        -11    1    1    2    0    0  0.10814976819E+03 -0.48847581390E+02 -0.19577338702E+03  0.22893160033E+03  0.00000000000E+00 0. -1.
         11    1    1    2    0    0 -0.10700183082E+02 -0.16098530077E+00  0.22419207803E+01  0.10933711311E+02  0.00000000000E+00 0.  1.
</event>
<event>
 7    1  0.2766180E-009  0.3135261E+03  0.7561462E-02  0.1078668E+00
          3   -1    0    0  501    0  0.00000000000E+00  0.00000000000E+00  0.17064083755E+04  0.17064083755E+04  0.00000000000E+00 0. -1.
         -3   -1    0    0    0  501 -0.00000000000E+00 -0.00000000000E+00 -0.67351401733E+02  0.67351401733E+02  0.00000000000E+00 0.  1.
         25    2    1    2    0    0  0.22968327355E+03 -0.21309812312E+03  0.10077532683E+04  0.10627202709E+04  0.12507001291E+03 0.  0.
          5    1    3    3  502    0  0.16059895777E+03 -0.14046456203E+03  0.47688721533E+03  0.52245689485E+03  0.41800000000E+01 0.  1.
         -5    1    3    3    0  502  0.69084315780E+02 -0.72633561087E+02  0.53086605298E+03  0.54026337604E+03  0.41800000000E+01 0.  1.
        -11    1    1    2    0    0 -0.43018172538E+02  0.38576035455E+02  0.21440534430E+03  0.22205478005E+03  0.00000000000E+00 0. -1.
         11    1    1    2    0    0 -0.18666510101E+03  0.17452208766E+03  0.41689836117E+03  0.48898472631E+03  0.00000000000E+00 0.  1.
</event>
<event>
 7    1  0.2766180E-009  0.1004162E+03  0.7561462E-02  0.1279423E+00
         -1   -1    0    0    0  501 -0.00000000000E+00  0.00000000000E+00  0.36037909804E+02  0.36037909804E+02  0.00000000000E+00 0.  1.
          1   -1    0    0  501    0  0.00000000000E+00 -0.00000000000E+00 -0.38232608126E+03  0.38232608126E+03  0.00000000000E+00 0. -1.
         25    2    1    2    0    0 -0.12052069029E+02 -0.39690583387E+02 -0.23450717445E+03  0.26900207779E+03  0.12509159928E+03 0.  0.
          5    1    3    3  502    0  0.15267037920E+01  0.32135711949E+02 -0.11724052393E+02  0.34495805708E+02  0.41800000000E+01 0.  1.
         -5    1    3    3    0  502 -0.13578772821E+02 -0.71826295336E+02 -0.22278312206E+03  0.23450627208E+03  0.41800000000E+01 0.  1.
        -11    1    1    2    0    0 -0.32440174529E+02  0.38928431590E+02 -0.79927924951E+02  0.94637523723E+02  0.00000000000E+00 0. -1.
         11    1    1    2    0    0  0.44492243559E+02  0.76215179695E+00 -0.31853072054E+02  0.54724389549E+02  0.00000000000E+00 0.  1.
</event>
<event>
 7    1  0.2766180E-009  0.1258087E+03  0.7561462E-02  0.1233811E+00
         -3   -1    0    0    0  501 -0.00000000000E+00  0.00000000000E+00  0.62618864831E+03  0.62618864831E+03  0.00000000000E+00 0.  1.
          3   -1    0    0  501    0  0.00000000000E+00 -0.00000000000E+00 -0.29547403299E+02  0.29547403299E+02  0.00000000000E+00 0. -1.
         25    2    1    2    0    0 -0.30581298829E+02 -0.76545011742E+02  0.34970675752E+03  0.38044247180E+03  0.12508918189E+03 0.  0.
          5    1    3    3  502    0  0.35312049231E+02 -0.57923859141E+02  0.96001630350E+02  0.11762610131E+03  0.41800000000E+01 0.  1.
         -5    1    3    3    0  502 -0.65893348060E+02 -0.18621152602E+02  0.25370512717E+03  0.26281637049E+03  0.41800000000E+01 0.  1.
        -11    1    1    2    0    0  0.56351745952E+02  0.35556273255E+02  0.96572636412E+02  0.11732877713E+03  0.00000000000E+00 0.  1.
         11    1    1    2    0    0 -0.25770447124E+02  0.40988738487E+02  0.15036185108E+03  0.15796480268E+03  0.00000000000E+00 0. -1.
</event>
<event>
 7    1  0.2766180E-009  0.9134734E+02  0.7561462E-02  0.1299621E+00
         -2   -1    0    0    0  501 -0.00000000000E+00  0.00000000000E+00  0.16346924505E+02  0.16346924505E+02  0.00000000000E+00 0.  1.
          2   -1    0    0  501    0  0.00000000000E+00 -0.00000000000E+00 -0.10909533814E+04  0.10909533814E+04  0.00000000000E+00 0. -1.
         25    2    1    2    0    0 -0.30079117453E+02  0.18037062736E+02 -0.87527174501E+03  0.88486076415E+03  0.12509138814E+03 0.  0.
          5    1    3    3  502    0 -0.16575785195E+01  0.64078873998E+02 -0.28748971400E+03  0.29457878015E+03  0.41800000000E+01 0. -1.
         -5    1    3    3    0  502 -0.28421538933E+02 -0.46041811262E+02 -0.58778203101E+03  0.59028198401E+03  0.41800000000E+01 0. -1.
        -11    1    1    2    0    0 -0.70422786983E+01 -0.25388480148E+02 -0.81984671846E+01  0.27593178100E+02  0.00000000000E+00 0.  1.
         11    1    1    2    0    0  0.37121396151E+02  0.73514174122E+01 -0.19113624474E+03  0.19484636369E+03  0.00000000000E+00 0. -1.
</event>
<event>
 7    1  0.2766180E-009  0.1154614E+03  0.7561462E-02  0.1250778E+00
         -1   -1    0    0    0  501 -0.00000000000E+00  0.00000000000E+00  0.17523987729E+02  0.17523987729E+02  0.00000000000E+00 0.  1.
          1   -1    0    0  501    0  0.00000000000E+00 -0.00000000000E+00 -0.88523011795E+03  0.88523011795E+03  0.00000000000E+00 0. -1.
         25    2    1    2    0    0 -0.23930410900E+02  0.48956385849E+02 -0.38218218841E+03  0.40580730587E+03  0.12508777750E+03 0.  0.
          5    1    3    3  502    0 -0.31662334941E+02  0.83928426690E+02 -0.33253448841E+03  0.34444613896E+03  0.41800000000E+01 0. -1.
         -5    1    3    3    0  502  0.77319240418E+01 -0.34972040841E+02 -0.49647700002E+02  0.61361166917E+02  0.41800000000E+01 0. -1.
        -11    1    1    2    0    0  0.50475359542E+02 -0.12753887254E+01 -0.26530385474E+03  0.27006577694E+03  0.00000000000E+00 0. -1.
         11    1    1    2    0    0 -0.26544948642E+02 -0.47680997123E+02 -0.22022008707E+03  0.22688102286E+03  0.00000000000E+00 0.  1.
</event>
<event>
 7    1  0.2766180E-009  0.1558259E+03  0.7561462E-02  0.1193492E+00
         -1   -1    0    0    0  501 -0.00000000000E+00  0.00000000000E+00  0.39466789700E+03  0.39466789700E+03  0.00000000000E+00 0.  1.
          1   -1    0    0  501    0  0.00000000000E+00 -0.00000000000E+00 -0.78207189419E+02  0.78207189419E+02  0.00000000000E+00 0. -1.
         25    2    1    2    0    0  0.41087168478E+02  0.12456931622E+03  0.22368991462E+03  0.28790631883E+03  0.12508877074E+03 0.  0.
          5    1    3    3  502    0  0.53344988044E+02  0.13086887034E+03  0.12668814905E+03  0.18984127182E+03  0.41800000000E+01 0. -1.
         -5    1    3    3    0  502 -0.12257819566E+02 -0.62995541279E+01  0.97001765572E+02  0.98065047019E+02  0.41800000000E+01 0. -1.
        -11    1    1    2    0    0 -0.22595914965E+02 -0.13345139132E+03  0.93394108152E+02  0.16444545800E+03  0.00000000000E+00 0.  1.
         11    1    1    2    0    0 -0.18491253513E+02  0.88820751034E+01 -0.62331519279E+00  0.20523309589E+02  0.00000000000E+00 0. -1.
</event>
<event>
 7    1  0.2766180E-009  0.2308542E+03  0.7561462E-02  0.1126040E+00
          2   -1    0    0  501    0  0.00000000000E+00  0.00000000000E+00  0.16333607355E+04  0.16333607355E+04  0.00000000000E+00 0. -1.
         -2   -1    0    0    0  501 -0.00000000000E+00 -0.00000000000E+00 -0.37791515261E+02  0.37791515261E+02  0.00000000000E+00 0.  1.
         25    2    1    2    0    0  0.18549283167E+03 -0.88321942383E+02  0.52802120204E+03  0.58022684933E+03  0.12509376792E+03 0.  0.
          5    1    3    3  502    0  0.86798343595E+02 -0.10778208676E+03  0.33612287134E+03  0.36352027139E+03  0.41800000000E+01 0. -1.
         -5    1    3    3    0  502  0.98694488071E+02  0.19460144376E+02  0.19189833071E+03  0.21670657794E+03  0.41800000000E+01 0. -1.
        -11    1    1    2    0    0 -0.65235748371E+02  0.78282768987E+02  0.41621482985E+03  0.42850750212E+03  0.00000000000E+00 0.  1.
         11    1    1    2    0    0 -0.12025708330E+03  0.10039173395E+02  0.65133318836E+03  0.66241789932E+03  0.00000000000E+00 0. -1.
</event>
<event>
 7    1  0.2766180E-009  0.1730299E+03  0.7561462E-02  0.1174724E+00
         -1   -1    0    0    0  501 -0.00000000000E+00  0.00000000000E+00  0.74062821966E+03  0.74062821966E+03  0.00000000000E+00 0.  1.
          1   -1    0    0  501    0  0.00000000000E+00 -0.00000000000E+00 -0.55213035834E+02  0.55213035834E+02  0.00000000000E+00 0. -1.
         25    2    1    2    0    0  0.63672218388E+02  0.15244448046E+03  0.29683138378E+03  0.36200793375E+03  0.12508957864E+03 0.  0.
          5    1    3    3  502    0  0.73558494122E+02  0.15040699963E+03  0.30527488416E+03  0.34820015062E+03  0.41800000000E+01 0.  1.
         -5    1    3    3    0  502 -0.98862757345E+01  0.20374808304E+01 -0.84435003856E+01  0.13807783124E+02  0.41800000000E+01 0.  1.
        -11    1    1    2    0    0 -0.48039106369E+02 -0.78184149409E+02  0.10124471911E+03  0.13664190465E+03  0.00000000000E+00 0. -1.
         11    1    1    2    0    0 -0.15633112019E+02 -0.74260331048E+02  0.28733908094E+03  0.29719141710E+03  0.00000000000E+00 0.  1.
</event>
<event>
 7    1  0.2766180E-009  0.9854881E+02  0.7561462E-02  0.1283378E+00
         -2   -1    0    0    0  501 -0.00000000000E+00  0.00000000000E+00  0.23439297548E+03  0.23439297548E+03  0.00000000000E+00 0.  1.
          2   -1    0    0  501    0  0.00000000000E+00 -0.00000000000E+00 -0.13710373407E+03  0.13710373407E+03  0.00000000000E+00 0. -1.
         25    2    1    2    0    0  0.39532822057E+02 -0.53978883689E+02  0.18049563308E+03  0.22957129076E+03  0.12509092724E+03 0.  0.
          5    1    3    3  502    0 -0.37290602175E+02 -0.33911260828E+02  0.11818783485E+03  0.12855504396E+03  0.41800000000E+01 0.  1.
         -5    1    3    3    0  502  0.76823424232E+02 -0.20067622861E+02  0.62307798227E+02  0.10101624680E+03  0.41800000000E+01 0.  1.
        -11    1    1    2    0    0 -0.23719920779E+02  0.35401922469E+02  0.11491212841E+02  0.44135912008E+02  0.00000000000E+00 0.  1.
         11    1    1    2    0    0 -0.15812901278E+02  0.18576961220E+02 -0.94697604512E+02  0.97789506775E+02  0.00000000000E+00 0. -1.
</event>
<event>
 7    1  0.2766180E-009  0.1107897E+03  0.7561462E-02  0.1259115E+00
          1   -1    0    0  501    0  0.00000000000E+00  0.00000000000E+00  0.74558621441E+03  0.74558621441E+03  0.00000000000E+00 0. -1.
         -1   -1    0    0    0  501 -0.00000000000E+00 -0.00000000000E+00 -0.16992351027E+02  0.16992351027E+02  0.00000000000E+00 0.  1.
         25    2    1    2    0    0 -0.14699960374E+02  0.25966935466E+02  0.42867310859E+03  0.44754755205E+03  0.12509119372E+03 0.  0.
          5    1    3    3  502    0  0.29297705306E+02 -0.39074551242E+02  0.13894572544E+03  0.14733826085E+03  0.41800000000E+01 0. -1.
         -5    1    3    3    0  502 -0.43997665681E+02  0.65041486708E+02  0.28972738315E+03  0.30020929120E+03  0.41800000000E+01 0. -1.
        -11    1    1    2    0    0 -0.36691049703E+02 -0.21049999770E+02  0.17108222822E+03  0.17623411823E+03  0.00000000000E+00 0.  1.
         11    1    1    2    0    0  0.51391010078E+02 -0.49169356956E+01  0.12883852658E+03  0.13879689515E+03  0.00000000000E+00 0. -1.
</event>
<event>
 7    1  0.2766180E-009  0.9813963E+02  0.7561462E-02  0.1284257E+00
          2   -1    0    0  501    0  0.00000000000E+00  0.00000000000E+00  0.22255521085E+03  0.22255521085E+03  0.00000000000E+00 0. -1.
         -2   -1    0    0    0  501 -0.00000000000E+00 -0.00000000000E+00 -0.66716569759E+02  0.66716569759E+02  0.00000000000E+00 0.  1.
         25    2    1    2    0    0 -0.36073483052E+02 -0.59848629806E+00  0.13752351811E+03  0.18937323582E+03  0.12509136680E+03 0.  0.
          5    1    3    3  502    0 -0.78329373912E+01  0.61222484562E+02  0.59819939052E+02  0.86054895458E+02  0.41800000000E+01 0.  1.
         -5    1    3    3    0  502 -0.28240545661E+02 -0.61820970860E+02  0.77703579057E+02  0.10331834036E+03  0.41800000000E+01 0.  1.
        -11    1    1    2    0    0  0.75647448885E+01  0.26650106521E+02  0.45079695086E+02  0.52911553104E+02  0.00000000000E+00 0. -1.
         11    1    1    2    0    0  0.28508738164E+02 -0.26051620223E+02 -0.26764572101E+02  0.46986991686E+02  0.00000000000E+00 0.  1.
</event>
<event>
 7    1  0.2766180E-009  0.1712744E+03  0.7561462E-02  0.1176525E+00
         -1   -1    0    0    0  501 -0.00000000000E+00  0.00000000000E+00  0.11589587886E+03  0.11589587886E+03  0.00000000000E+00 0.  1.
          1   -1    0    0  501    0  0.00000000000E+00 -0.00000000000E+00 -0.37630901703E+03  0.37630901703E+03  0.00000000000E+00 0. -1.
         25    2    1    2    0    0  0.13613835672E+03  0.79794545643E+02 -0.37346968509E+02  0.20479836152E+03  0.12508697431E+03 0.  0.
          5    1    3    3  502    0 -0.59541456039E+01  0.20302430273E+02  0.29732660933E+02  0.36730696304E+02  0.41800000000E+01 0. -1.
         -5    1    3    3    0  502  0.14209250232E+03  0.59492115370E+02 -0.67079629442E+02  0.16806766522E+03  0.41800000000E+01 0. -1.
        -11    1    1    2    0    0 -0.10819960843E+03 -0.34323858093E+02 -0.19848017963E+03  0.22864746708E+03  0.00000000000E+00 0. -1.
         11    1    1    2    0    0 -0.27938748288E+02 -0.45470687551E+02 -0.24585990039E+02  0.58759067287E+02  0.00000000000E+00 0.  1.
</event>
<event>
 7    1  0.2766180E-009  0.1262125E+03  0.7561462E-02  0.1233186E+00
         -4   -1    0    0    0  501 -0.00000000000E+00  0.00000000000E+00  0.70190974411E+03  0.70190974411E+03  0.00000000000E+00 0.  1.
          4   -1    0    0  501    0  0.00000000000E+00 -0.00000000000E+00 -0.37559531633E+02  0.37559531633E+02  0.00000000000E+00 0. -1.
         25    2    1    2    0    0  0.16167660715E+02 -0.11346662027E+03  0.44218432766E+03  0.47361457009E+03  0.12509082384E+03 0.  0.
          5    1    3    3  502    0  0.15001754397E+02 -0.57152777932E+02  0.39669434377E+03  0.40109271676E+03  0.41800000000E+01 0.  1.
         -5    1    3    3    0  502  0.11659063178E+01 -0.56313842337E+02  0.45489983890E+02  0.72521853331E+02  0.41800000000E+01 0.  1.
        -11    1    1    2    0    0 -0.45978018921E+02  0.61337279124E+02  0.16931168730E+03  0.18585663155E+03  0.00000000000E+00 0.  1.
         11    1    1    2    0    0  0.29810358207E+02  0.52129341145E+02  0.52854197517E+02  0.79998074101E+02  0.00000000000E+00 0. -1.
</event>
<event>
 7    1  0.2766180E-009  0.1062260E+03  0.7561462E-02  0.1267723E+00
         -1   -1    0    0    0  501 -0.00000000000E+00  0.00000000000E+00  0.49166348478E+02  0.49166348478E+02  0.00000000000E+00 0.  1.
          1   -1    0    0  501    0  0.00000000000E+00 -0.00000000000E+00 -0.66795075890E+03  0.66795075890E+03  0.00000000000E+00 0. -1.
         25    2    1    2    0    0  0.21254463808E+02 -0.81328645189E+02 -0.56098469145E+03  0.58087647133E+03  0.12509016808E+03 0.  0.
          5    1    3    3  502    0  0.26670101066E+02 -0.74096095942E+01 -0.19003460976E+02  0.33834901127E+02  0.41800000000E+01 0. -1.
         -5    1    3    3    0  502 -0.54156372581E+01 -0.73919035595E+02 -0.54198123047E+03  0.54704157021E+03  0.41800000000E+01 0. -1.
        -11    1    1    2    0    0  0.25854566732E+02  0.39583714623E+02 -0.55975429797E+02  0.73270579534E+02  0.00000000000E+00 0. -1.
         11    1    1    2    0    0 -0.47109030540E+02  0.41744930566E+02 -0.18242891797E+01  0.62970056514E+02  0.00000000000E+00 0.  1.
</event>
<event>
 7    1  0.2766180E-009  0.1234519E+03  0.7561462E-02  0.1237509E+00
          2   -1    0    0  501    0  0.00000000000E+00  0.00000000000E+00  0.54440366125E+03  0.54440366125E+03  0.00000000000E+00 0. -1.
         -2   -1    0    0    0  501 -0.00000000000E+00 -0.00000000000E+00 -0.29620593655E+02  0.29620593655E+02  0.00000000000E+00 0.  1.
         25    2    1    2    0    0  0.57024804828E+02 -0.18124751492E+02  0.22842513929E+03  0.26721907552E+03  0.12509058749E+03 0.  0.
          5    1    3    3  502    0  0.45908985188E+01 -0.66663089197E+02  0.11640849468E+03  0.13428869589E+03  0.41800000000E+01 0.  1.
         -5    1    3    3    0  502  0.52433906309E+02  0.48538337705E+02  0.11201664462E+03  0.13293037963E+03  0.41800000000E+01 0.  1.
        -11    1    1    2    0    0 -0.17556939563E+02  0.52924096152E+02  0.17443337181E+03  0.18312893622E+03  0.00000000000E+00 0. -1.
         11    1    1    2    0    0 -0.39467865265E+02 -0.34799344660E+02  0.11192455650E+03  0.12367624317E+03  0.00000000000E+00 0.  1.
</event>
<event>
 7    1  0.2766180E-009  0.1053113E+03  0.7561462E-02  0.1269507E+00
          3   -1    0    0  501    0  0.00000000000E+00  0.00000000000E+00  0.20935014760E+03  0.20935014760E+03  0.00000000000E+00 0. -1.
         -3   -1    0    0    0  501 -0.00000000000E+00 -0.00000000000E+00 -0.67878780628E+02  0.67878780628E+02  0.00000000000E+00 0.  1.
         25    2    1    2    0    0 -0.46472199888E+02 -0.21432344158E+02  0.66383477185E+02  0.15057581990E+03  0.12508917122E+03 0.  0.
          5    1    3    3  502    0 -0.59313385175E+02 -0.65326960880E+02  0.51739702475E+02  0.10237264620E+03  0.41800000000E+01 0.  1.
         -5    1    3    3    0  502  0.12841185287E+02  0.43894616721E+02  0.14643774710E+02  0.48203173697E+02  0.41800000000E+01 0.  1.
        -11    1    1    2    0    0  0.30555899738E+01  0.31619195681E+02  0.75655273303E+02  0.82053827115E+02  0.00000000000E+00 0. -1.
         11    1    1    2    0    0  0.43416609915E+02 -0.10186851523E+02 -0.56738351620E+00  0.44599281211E+02  0.00000000000E+00 0.  1.
</event>
<event>
 7    1  0.2766180E-009  0.1299279E+03  0.7561462E-02  0.1227563E+00
         -2   -1    0    0    0  501 -0.00000000000E+00  0.00000000000E+00  0.61360552872E+02  0.61360552872E+02  0.00000000000E+00 0.  1.
          2   -1    0    0  501    0  0.00000000000E+00 -0.00000000000E+00 -0.42032877645E+03  0.42032877645E+03  0.00000000000E+00 0. -1.
         25    2    1    2    0    0 -0.36365309080E+01  0.11781945919E+03 -0.19895403480E+03  0.26291471431E+03  0.12508712851E+03 0.  0.
          5    1    3    3  502    0  0.16167786874E+02  0.11222651117E+03 -0.21036699534E+03  0.23901450221E+03  0.41800000000E+01 0. -1.
         -5    1    3    3    0  502 -0.19804317782E+02  0.55929480162E+01  0.11412960533E+02  0.23900212101E+02  0.41800000000E+01 0. -1.
        -11    1    1    2    0    0 -0.19592708652E+02 -0.49656191341E+02 -0.12805916061E+02  0.54896293654E+02  0.00000000000E+00 0.  1.
         11    1    1    2    0    0  0.23229239560E+02 -0.68163267846E+02 -0.14720827272E+03  0.16387832136E+03  0.00000000000E+00 0. -1.
</event>
<event>
 7    1  0.2766180E-009  0.7893008E+02  0.7561462E-02  0.1332115E+00
         -2   -1    0    0    0  501 -0.00000000000E+00  0.00000000000E+00  0.32441009136E+02  0.32441009136E+02  0.00000000000E+00 0. -1.
          2   -1    0    0  501    0  0.00000000000E+00 -0.00000000000E+00 -0.39864522887E+03  0.39864522887E+03  0.00000000000E+00 0.  1.
         25    2    1    2    0    0 -0.11871487939E+02  0.25522418246E+01 -0.14584763924E+03  0.19252513508E+03  0.12508775960E+03 0.  0.
          5    1    3    3  502    0 -0.51363529586E+02  0.14475710453E+02 -0.15478320505E+02  0.55720814516E+02  0.41800000000E+01 0.  1.
         -5    1    3    3    0  502  0.39492041647E+02 -0.11923468628E+02 -0.13036931873E+03  0.13680432056E+03  0.41800000000E+01 0.  1.
        -11    1    1    2    0    0 -0.22785120013E+02 -0.13548611132E+02 -0.15931991093E+02  0.30928221705E+02  0.00000000000E+00 0. -1.
         11    1    1    2    0    0  0.34656607953E+02  0.10996369307E+02 -0.20442458940E+03  0.20763288123E+03  0.00000000000E+00 0.  1.
</event>
<event>
 7    1  0.2766180E-009  0.7924218E+02  0.7561462E-02  0.1331216E+00
         -3   -1    0    0    0  501 -0.00000000000E+00  0.00000000000E+00  0.19673707897E+03  0.19673707897E+03  0.00000000000E+00 0.  1.
          3   -1    0    0  501    0  0.00000000000E+00 -0.00000000000E+00 -0.65634056014E+02  0.65634056014E+02  0.00000000000E+00 0. -1.
         25    2    1    2    0    0  0.20397603979E+02  0.20699851224E+02  0.11267228184E+03  0.17083759601E+03  0.12508355218E+03 0.  0.
          5    1    3    3  502    0  0.71567294627E+02  0.27033572480E+02  0.69990644089E+02  0.10377309074E+03  0.41800000000E+01 0. -1.
         -5    1    3    3    0  502 -0.51169690649E+02 -0.63337212561E+01  0.42681637751E+02  0.67064505270E+02  0.41800000000E+01 0. -1.
        -11    1    1    2    0    0 -0.41247675518E+01 -0.95756600644E+01  0.51766456449E+02  0.52805993848E+02  0.00000000000E+00 0.  1.
         11    1    1    2    0    0 -0.16272836427E+02 -0.11124191160E+02 -0.33335715336E+02  0.38727545124E+02  0.00000000000E+00 0. -1.
</event>
<event>
 7    1  0.2766180E-009  0.1230891E+03  0.7561462E-02  0.1238086E+00
          3   -1    0    0  501    0  0.00000000000E+00  0.00000000000E+00  0.85629972608E+03  0.85629972608E+03  0.00000000000E+00 0. -1.
         -3   -1    0    0    0  501 -0.00000000000E+00 -0.00000000000E+00 -0.34107160448E+02  0.34107160448E+02  0.00000000000E+00 0.  1.
         25    2    1    2    0    0  0.92642924136E+02  0.51366802823E+02  0.64057258485E+03  0.66121196183E+03  0.12508701844E+03 0.  0.
          5    1    3    3  502    0  0.29666508600E+02  0.10492853187E+02  0.50649080291E+03  0.50748458847E+03  0.41800000000E+01 0. -1.
         -5    1    3    3    0  502  0.62976415536E+02  0.40873949635E+02  0.13408178194E+03  0.15372737336E+03  0.41800000000E+01 0. -1.
        -11    1    1    2    0    0 -0.21520616261E+02  0.26264133089E+02  0.35837618056E+02  0.49368780409E+02  0.00000000000E+00 0.  1.
         11    1    1    2    0    0 -0.71122307875E+02 -0.77630935911E+02  0.14578236273E+03  0.17982614429E+03  0.00000000000E+00 0. -1.
</event>
<event>
 7    1  0.2766180E-009  0.1627841E+03  0.7561462E-02  0.1185589E+00
         -2   -1    0    0    0  501 -0.00000000000E+00  0.00000000000E+00  0.11891407948E+03  0.11891407948E+03  0.00000000000E+00 0.  1.
          2   -1    0    0  501    0  0.00000000000E+00 -0.00000000000E+00 -0.24736129344E+03  0.24736129344E+03  0.00000000000E+00 0. -1.
         25    2    1    2    0    0  0.36069581351E+02 -0.12762165394E+03 -0.78841070419E+02  0.19862427538E+03  0.12508951648E+03 0.  0.
          5    1    3    3  502    0  0.72066469723E+02 -0.67129723450E+02 -0.83708725150E+01  0.98931894430E+02  0.41800000000E+01 0. -1.
         -5    1    3    3    0  502 -0.35996888372E+02 -0.60491930491E+02 -0.70470197904E+02  0.99692380951E+02  0.41800000000E+01 0. -1.
        -11    1    1    2    0    0 -0.29655747477E+01 -0.12319630680E+02  0.52822937450E+01  0.13728458066E+02  0.00000000000E+00 0.  1.
         11    1    1    2    0    0 -0.33104006603E+02  0.13994128462E+03 -0.54888437291E+02  0.15392263947E+03  0.00000000000E+00 0. -1.
</event>
<event>
 7    1  0.2766180E-009  0.9344416E+02  0.7561462E-02  0.1294719E+00
          2   -1    0    0  501    0  0.00000000000E+00  0.00000000000E+00  0.66970791205E+03  0.66970791205E+03  0.00000000000E+00 0. -1.
         -2   -1    0    0    0  501 -0.00000000000E+00 -0.00000000000E+00 -0.24842930527E+02  0.24842930527E+02  0.00000000000E+00 0.  1.
         25    2    1    2    0    0 -0.34586280608E+02  0.87763009460E+01  0.53285314580E+03  0.54850035433E+03  0.12508768703E+03 0.  0.
          5    1    3    3  502    0 -0.69563617871E+02  0.38771945802E+02  0.39857271651E+03  0.40647268477E+03  0.41800000000E+01 0. -1.
         -5    1    3    3    0  502  0.34977337263E+02 -0.29995644856E+02  0.13428042928E+03  0.14202766956E+03  0.41800000000E+01 0. -1.
        -11    1    1    2    0    0  0.46967704961E+02 -0.26081001104E+01  0.12081801883E+03  0.12965246303E+03  0.00000000000E+00 0. -1.
         11    1    1    2    0    0 -0.12381424353E+02 -0.61682008355E+01 -0.88061830983E+01  0.16398025226E+02  0.00000000000E+00 0.  1.
</event>
<event>
 7    1  0.3923605E-009  0.8312112E+02  0.7561462E-02  0.1320420E+00
          1   -1    0    0  501    0  0.00000000000E+00  0.00000000000E+00  0.39443724943E+03  0.39443724943E+03  0.00000000000E+00 0. -1.
         -1   -1    0    0    0  501 -0.00000000000E+00 -0.00000000000E+00 -0.36064042957E+02  0.36064042957E+02  0.00000000000E+00 0.  1.
         25    2    1    2    0    0 -0.34669654387E+02 -0.35164724817E+02  0.21465868709E+03  0.25330559000E+03  0.12508727823E+03 0.  0.
          5    1    3    3  502    0  0.35573939757E+02  0.17429101492E+01  0.15853401840E+02  0.39208999930E+02  0.41800000000E+01 0.  1.
         -5    1    3    3    0  502 -0.70243594143E+02 -0.36907634967E+02  0.19880528525E+03  0.21409659007E+03  0.41800000000E+01 0.  1.
        -11    1    1    2    0    0  0.23215556822E+02  0.14725519605E+02  0.15035124471E+03  0.15284403748E+03  0.00000000000E+00 0. -1.
         11    1    1    2    0    0  0.11454097564E+02  0.20439205212E+02 -0.66367253283E+01  0.24351664908E+02  0.00000000000E+00 0.  1.
</event>
<event>
 7    1  0.2766180E-009  0.1429162E+03  0.7561462E-02  0.1209458E+00
         -3   -1    0    0    0  501 -0.00000000000E+00  0.00000000000E+00  0.13215116494E+03  0.13215116494E+03  0.00000000000E+00 0.  1.
          3   -1    0    0  501    0  0.00000000000E+00 -0.00000000000E+00 -0.15471021570E+03  0.15471021570E+03  0.00000000000E+00 0. -1.
         25    2    1    2    0    0 -0.33905538754E+02  0.85918434055E+02 -0.97006516595E+01  0.15580094518E+03  0.12509304140E+03 0.  0.
          5    1    3    3  502    0 -0.40035889751E+02  0.11688807502E+03 -0.88947273485E+01  0.12394467768E+03  0.41800000000E+01 0.  1.
         -5    1    3    3    0  502  0.61303509974E+01 -0.30969640967E+02 -0.80592431104E+00  0.31856267499E+02  0.41800000000E+01 0.  1.
        -11    1    1    2    0    0  0.64737844048E+02 -0.43796950696E+02 -0.97650660219E+01  0.78768761935E+02  0.00000000000E+00 0.  1.
         11    1    1    2    0    0 -0.30832305295E+02 -0.42121483359E+02 -0.30933330819E+01  0.52291673522E+02  0.00000000000E+00 0. -1.
</event>
<event>
 7    1  0.2766180E-009  0.2033091E+03  0.7561462E-02  0.1146977E+00
          2   -1    0    0  501    0  0.00000000000E+00  0.00000000000E+00  0.65295273812E+03  0.65295273812E+03  0.00000000000E+00 0.  1.
         -2   -1    0    0    0  501 -0.00000000000E+00 -0.00000000000E+00 -0.15049692003E+03  0.15049692003E+03  0.00000000000E+00 0. -1.
         25    2    1    2    0    0  0.52671203407E+02 -0.17195322714E+03 -0.41746897665E+02  0.22300754277E+03  0.12508953864E+03 0.  0.
          5    1    3    3  502    0  0.83265529077E+02 -0.15871385112E+03 -0.54018058307E+02  0.18723957352E+03  0.41800000000E+01 0.  1.
         -5    1    3    3    0  502 -0.30594325670E+02 -0.13239376019E+02  0.12271160642E+02  0.35767969248E+02  0.41800000000E+01 0.  1.
        -11    1    1    2    0    0 -0.40605024983E+02  0.28089678005E+02  0.22121013035E+03  0.22665330316E+03  0.00000000000E+00 0.  1.
         11    1    1    2    0    0 -0.12066178424E+02  0.14386354913E+03  0.32299258540E+03  0.35378881222E+03  0.00000000000E+00 0. -1.
</event>
<event>
 7    1  0.2766180E-009  0.8776715E+02  0.7561462E-02  0.1308351E+00
         -1   -1    0    0    0  501 -0.00000000000E+00  0.00000000000E+00  0.16170637767E+02  0.16170637767E+02  0.00000000000E+00 0.  1.
          1   -1    0    0  501    0  0.00000000000E+00 -0.00000000000E+00 -0.10348464766E+04  0.10348464766E+04  0.00000000000E+00 0. -1.
         25    2    1    2    0    0  0.40327146644E+02  0.43086637483E+02 -0.41239415310E+03  0.43497009558E+03  0.12508920598E+03 0.  0.
          5    1    3    3  502    0  0.29128032729E+02  0.94855961743E+01 -0.39330563293E+03  0.39451896294E+03  0.41800000000E+01 0.  1.
         -5    1    3    3    0  502  0.11199113915E+02  0.33601041309E+02 -0.19088520167E+02  0.40451132638E+02  0.41800000000E+01 0.  1.
        -11    1    1    2    0    0  0.29725979249E+02 -0.90802175551E+01 -0.15301994223E+03  0.15614476268E+03  0.00000000000E+00 0.  1.
         11    1    1    2    0    0 -0.70053125894E+02 -0.34006419928E+02 -0.45326174349E+03  0.45990225608E+03  0.00000000000E+00 0. -1.
</event>
<event>
 7    1  0.2766180E-009  0.1003054E+03  0.7561462E-02  0.1279655E+00
         -2   -1    0    0    0  501 -0.00000000000E+00  0.00000000000E+00  0.34457046925E+02  0.34457046925E+02  0.00000000000E+00 0.  1.
          2   -1    0    0  501    0  0.00000000000E+00 -0.00000000000E+00 -0.52770322759E+03  0.52770322759E+03  0.00000000000E+00 0. -1.
         25    2    1    2    0    0  0.80364078957E+01  0.92006737005E+00 -0.35560607738E+03  0.37705310723E+03  0.12509169847E+03 0.  0.
          5    1    3    3  502    0  0.70086736565E+01  0.61342928893E+02 -0.13934327095E+03  0.15246670453E+03  0.41800000000E+01 0.  1.
         -5    1    3    3    0  502  0.10277342392E+01 -0.60422861523E+02 -0.21626280643E+03  0.22458640270E+03  0.41800000000E+01 0.  1.
        -11    1    1    2    0    0 -0.18831209009E+01  0.38353069109E+02  0.34214148732E+01  0.38551396007E+02  0.00000000000E+00 0.  1.
         11    1    1    2    0    0 -0.61532869948E+01 -0.39273136479E+02 -0.14106151816E+03  0.14655577128E+03  0.00000000000E+00 0. -1.
</event>
<event>
 7    1  0.2766180E-009  0.9360250E+02  0.7561462E-02  0.1294355E+00
         -1   -1    0    0    0  501 -0.00000000000E+00  0.00000000000E+00  0.17664298417E+03  0.17664298417E+03  0.00000000000E+00 0.  1.
          1   -1    0    0  501    0  0.00000000000E+00 -0.00000000000E+00 -0.11870217072E+03  0.11870217072E+03  0.00000000000E+00 0. -1.
         25    2    1    2    0    0  0.46880541010E+02 -0.58728958192E+02 -0.27798509435E+02  0.14854698233E+03  0.12508626295E+03 0.  0.
          5    1    3    3  502    0  0.43491969807E+02 -0.13572653923E+02 -0.71884719504E+02  0.85209469371E+02  0.41800000000E+01 0.  1.
         -5    1    3    3    0  502  0.33885712028E+01 -0.45156304269E+02  0.44086210069E+02  0.63337512963E+02  0.41800000000E+01 0.  1.
        -11    1    1    2    0    0 -0.54058881438E+01  0.53959115188E+02  0.89746560640E+02  0.10485826093E+03  0.00000000000E+00 0.  1.
         11    1    1    2    0    0 -0.41474652866E+02  0.47698430041E+01 -0.40072377578E+01  0.41939911625E+02  0.00000000000E+00 0. -1.
</event>
<event>
 7    1  0.2766180E-009  0.1592885E+03  0.7561462E-02  0.1189502E+00
         -1   -1    0    0    0  501 -0.00000000000E+00  0.00000000000E+00  0.48190540127E+03  0.48190540127E+03  0.00000000000E+00 0.  1.
          1   -1    0    0  501    0  0.00000000000E+00 -0.00000000000E+00 -0.12662124127E+03  0.12662124127E+03  0.00000000000E+00 0. -1.
         25    2    1    2    0    0  0.85086205148E+02  0.10164900216E+03  0.40184639952E+03  0.44125112147E+03  0.12509932629E+03 0.  0.
          5    1    3    3  502    0  0.37989517667E+02  0.10545551162E+03  0.36301454969E+03  0.37994881770E+03  0.41800000000E+01 0. -1.
         -5    1    3    3    0  502  0.47096687481E+02 -0.38065094572E+01  0.38831849836E+02  0.61302303771E+02  0.41800000000E+01 0. -1.
        -11    1    1    2    0    0  0.94302573803E+01 -0.50761195104E+02 -0.39449452956E+01  0.51780220896E+02  0.00000000000E+00 0.  1.
         11    1    1    2    0    0 -0.94516462528E+02 -0.50887807059E+02 -0.42617294230E+02  0.11549530018E+03  0.00000000000E+00 0. -1.
</event>
<event>
 7    1  0.2766180E-009  0.9939863E+02  0.7561462E-02  0.1281566E+00
         -1   -1    0    0    0  501 -0.00000000000E+00  0.00000000000E+00  0.92946413829E+02  0.92946413829E+02  0.00000000000E+00 0.  1.
          1   -1    0    0  501    0  0.00000000000E+00 -0.00000000000E+00 -0.14537303043E+03  0.14537303043E+03  0.00000000000E+00 0. -1.
         25    2    1    2    0    0 -0.14400776002E+02  0.27685444786E+02 -0.32467099039E+01  0.12896544981E+03  0.12509068678E+03 0.  0.
          5    1    3    3  502    0 -0.47080844963E+02 -0.13129856954E+02 -0.41329659103E+02  0.64145243219E+02  0.41800000000E+01 0.  1.
         -5    1    3    3    0  502  0.32680068961E+02  0.40815301740E+02  0.38082949199E+02  0.64820206596E+02  0.41800000000E+01 0.  1.
        -11    1    1    2    0    0  0.12449055751E+02 -0.61838618943E+02 -0.36450468183E+02  0.72853485933E+02  0.00000000000E+00 0. -1.
         11    1    1    2    0    0  0.19517202508E+01  0.34153174157E+02 -0.12729438517E+02  0.36500508515E+02  0.00000000000E+00 0.  1.
</event>
<event>
 7    1  0.2766180E-009  0.1463692E+03  0.7561462E-02  0.1205007E+00
          1   -1    0    0  501    0  0.00000000000E+00  0.00000000000E+00  0.88074714655E+03  0.88074714655E+03  0.00000000000E+00 0. -1.
         -1   -1    0    0    0  501 -0.00000000000E+00 -0.00000000000E+00 -0.35494662887E+02  0.35494662887E+02  0.00000000000E+00 0.  1.
         25    2    1    2    0    0 -0.75995391825E+02 -0.10939410541E+03  0.35930030735E+03  0.40309529663E+03  0.12508691949E+03 0.  0.
          5    1    3    3  502    0 -0.91096921821E+01 -0.73783397975E+01 -0.88282331631E+01  0.15258980654E+02  0.41800000000E+01 0. -1.
         -5    1    3    3    0  502 -0.66885699643E+02 -0.10201576561E+03  0.36812854051E+03  0.38783631598E+03  0.41800000000E+01 0. -1.
        -11    1    1    2    0    0  0.64628962786E+02  0.19333666040E+02  0.13883411962E+03  0.15435545421E+03  0.00000000000E+00 0.  1.
         11    1    1    2    0    0  0.11366429039E+02  0.90060439366E+02  0.34711805669E+03  0.35879105860E+03  0.00000000000E+00 0. -1.
</event>
<event>
 7    1  0.2766180E-009  0.1330255E+03  0.7561462E-02  0.1223034E+00
         -2   -1    0    0    0  501 -0.00000000000E+00  0.00000000000E+00  0.16311360832E+02  0.16311360832E+02  0.00000000000E+00 0.  1.
          2   -1    0    0  501    0  0.00000000000E+00 -0.00000000000E+00 -0.16742887051E+04  0.16742887051E+04  0.00000000000E+00 0. -1.
         25    2    1    2    0    0 -0.35704344994E+02  0.10004212725E+03 -0.12101006350E+04  0.12211773502E+04  0.12508935410E+03 0.  0.
          5    1    3    3  502    0 -0.12214470786E+02  0.11118695820E+03 -0.59037849987E+03  0.60089597975E+03  0.41800000000E+01 0. -1.
         -5    1    3    3    0  502 -0.23489874208E+02 -0.11144830942E+02 -0.61972213510E+03  0.62028137049E+03  0.41800000000E+01 0. -1.
        -11    1    1    2    0    0  0.52082546850E+02 -0.98386800627E+02 -0.43350486091E+03  0.44757012708E+03  0.00000000000E+00 0. -1.
         11    1    1    2    0    0 -0.16378201856E+02 -0.16553266268E+01 -0.14371848354E+02  0.21852588574E+02  0.00000000000E+00 0.  1.
</event>
<event>
 7    1  0.2766180E-009  0.1136785E+03  0.7561462E-02  0.1253906E+00
          2   -1    0    0  501    0  0.00000000000E+00  0.00000000000E+00  0.14784934355E+04  0.14784934355E+04  0.00000000000E+00 0. -1.
         -2   -1    0    0    0  501 -0.00000000000E+00 -0.00000000000E+00 -0.13432869557E+02  0.13432869557E+02  0.00000000000E+00 0.  1.
         25    2    1    2    0    0 -0.71311108935E+02  0.60020275769E+01  0.10940942406E+04  0.11035446088E+04  0.12508875943E+03 0.  0.
          5    1    3    3  502    0 -0.53925806465E+02 -0.57013237544E+02  0.58701705826E+03  0.59225416921E+03  0.41800000000E+01 0.  1.
         -5    1    3    3    0  502 -0.17385302470E+02  0.63015265121E+02  0.50707718229E+03  0.51129043956E+03  0.41800000000E+01 0.  1.
        -11    1    1    2    0    0  0.60053302362E+02  0.12752730057E+02  0.35741664058E+03  0.36265091508E+03  0.00000000000E+00 0. -1.
         11    1    1    2    0    0  0.11257806573E+02 -0.18754757634E+02  0.13549684798E+02  0.25730781194E+02  0.00000000000E+00 0.  1.
</event>
<event>
 7    1  0.2766180E-009  0.6870331E+02  0.7561462E-02  0.1364559E+00
         -1   -1    0    0    0  501 -0.00000000000E+00  0.00000000000E+00  0.48246542406E+02  0.48246542406E+02  0.00000000000E+00 0.  1.
          1   -1    0    0  501    0  0.00000000000E+00 -0.00000000000E+00 -0.25599181805E+03  0.25599181805E+03  0.00000000000E+00 0. -1.
         25    2    1    2    0    0  0.11107177831E+02  0.14877236553E+02 -0.11031808664E+03  0.16780681040E+03  0.12507735130E+03 0.  0.
          5    1    3    3  502    0 -0.21950614209E+02  0.10161629205E+02  0.20963514380E+02  0.32280481834E+02  0.41800000000E+01 0.  1.
         -5    1    3    3    0  502  0.33057792040E+02  0.47156073483E+01 -0.13128160102E+03  0.13552632856E+03  0.41800000000E+01 0.  1.
        -11    1    1    2    0    0  0.33237887952E+02 -0.34756013399E+01 -0.81277020821E+02  0.87879412343E+02  0.00000000000E+00 0. -1.
         11    1    1    2    0    0 -0.44345065783E+02 -0.11401635213E+02 -0.16150168187E+02  0.48552137721E+02  0.00000000000E+00 0.  1.
</event>
<event>
 7    1  0.2766180E-009  0.9788869E+02  0.7561462E-02  0.1284799E+00
          2   -1    0    0  501    0  0.00000000000E+00  0.00000000000E+00  0.12194720190E+03  0.12194720190E+03  0.00000000000E+00 0. -1.
         -2   -1    0    0    0  501 -0.00000000000E+00 -0.00000000000E+00 -0.10272992209E+03  0.10272992209E+03  0.00000000000E+00 0.  1.
         25    2    1    2    0    0 -0.11398003759E+02 -0.26461120642E+02  0.11501543362E+02  0.12888001237E+03  0.12509063391E+03 0.  0.
          5    1    3    3  502    0  0.56439191504E+02 -0.62209880752E+01 -0.60820414121E+00  0.56937907781E+02  0.41800000000E+01 0.  1.
         -5    1    3    3    0  502 -0.67837195263E+02 -0.20240132567E+02  0.12109747503E+02  0.71942104584E+02  0.41800000000E+01 0.  1.
        -11    1    1    2    0    0  0.61231016805E+01  0.46655303705E+02 -0.27762477122E+02  0.54634832057E+02  0.00000000000E+00 0.  1.
         11    1    1    2    0    0  0.52749020786E+01 -0.20194183063E+02  0.35478213567E+02  0.41162279571E+02  0.00000000000E+00 0. -1.
</event>
<event>
 7    1  0.2766180E-009  0.1153761E+03  0.7561462E-02  0.1250926E+00
          2   -1    0    0  501    0  0.00000000000E+00  0.00000000000E+00  0.67853962621E+03  0.67853962621E+03  0.00000000000E+00 0. -1.
         -2   -1    0    0    0  501 -0.00000000000E+00 -0.00000000000E+00 -0.25551872934E+02  0.25551872934E+02  0.00000000000E+00 0.  1.
         25    2    1    2    0    0  0.64555794632E+02 -0.37922167973E+02  0.37403744012E+03  0.40144334650E+03  0.12508881801E+03 0.  0.
          5    1    3    3  502    0  0.16986034604E+02 -0.78825246260E+02  0.24379630922E+03  0.25681911457E+03  0.41800000000E+01 0.  1.
         -5    1    3    3    0  502  0.47569760028E+02  0.40903078287E+02  0.13024113089E+03  0.14462423192E+03  0.41800000000E+01 0.  1.
        -11    1    1    2    0    0 -0.36433760348E+02  0.45228141149E+02  0.26333297268E+03  0.26966137681E+03  0.00000000000E+00 0. -1.
         11    1    1    2    0    0 -0.28122034284E+02 -0.73059731755E+01  0.15617340478E+02  0.32986775834E+02  0.00000000000E+00 0.  1.
</event>
<event>
 7    1  0.2766180E-009  0.2070347E+03  0.7561462E-02  0.1143936E+00
         -1   -1    0    0    0  501 -0.00000000000E+00  0.00000000000E+00  0.15330386937E+03  0.15330386937E+03  0.00000000000E+00 0.  1.
          1   -1    0    0  501    0  0.00000000000E+00 -0.00000000000E+00 -0.28493607065E+03  0.28493607065E+03  0.00000000000E+00 0. -1.
         25    2    1    2    0    0  0.13293230993E+02 -0.17778656471E+03 -0.60864601803E+02  0.22613712064E+03  0.12509486399E+03 0.  0.
          5    1    3    3  502    0  0.65478432106E+02 -0.75237728154E+02 -0.46428713138E+02  0.11009649682E+03  0.41800000000E+01 0.  1.
         -5    1    3    3    0  502 -0.52185201113E+02 -0.10254883655E+03 -0.14435888666E+02  0.11604062381E+03  0.41800000000E+01 0.  1.
        -11    1    1    2    0    0  0.37216893492E+02  0.55807627831E+02 -0.33160271150E+02  0.74827749319E+02  0.00000000000E+00 0.  1.
         11    1    1    2    0    0 -0.50510124485E+02  0.12197893688E+03 -0.37607328330E+02  0.13727507006E+03  0.00000000000E+00 0. -1.
</event>
<event>
 7    1  0.2766180E-009  0.9836179E+02  0.7561462E-02  0.1283779E+00
         -1   -1    0    0    0  501 -0.00000000000E+00  0.00000000000E+00  0.75507462332E+03  0.75507462332E+03  0.00000000000E+00 0.  1.
          1   -1    0    0  501    0  0.00000000000E+00 -0.00000000000E+00 -0.17965231193E+02  0.17965231193E+02  0.00000000000E+00 0. -1.
         25    2    1    2    0    0  0.99440878067E+01 -0.27099656323E+02  0.32474341116E+03  0.34920335287E+03  0.12510564462E+03 0.  0.
          5    1    3    3  502    0 -0.32652958945E+02  0.18773567954E+02  0.24412190053E+03  0.24704582025E+03  0.41800000000E+01 0.  1.
         -5    1    3    3    0  502  0.42597046752E+02 -0.45873224277E+02  0.80621510620E+02  0.10215753263E+03  0.41800000000E+01 0.  1.
        -11    1    1    2    0    0 -0.42863130687E+02 -0.12445439972E+02  0.15119880100E+03  0.15764902274E+03  0.00000000000E+00 0.  1.
         11    1    1    2    0    0  0.32919042880E+02  0.39545096294E+02  0.26116717998E+03  0.26618747890E+03  0.00000000000E+00 0. -1.
</event>
<event>
 7    1  0.2766180E-009  0.1656714E+03  0.7561462E-02  0.1182439E+00
         -1   -1    0    0    0  501 -0.00000000000E+00  0.00000000000E+00  0.27793398146E+03  0.27793398146E+03  0.00000000000E+00 0.  1.
          1   -1    0    0  501    0  0.00000000000E+00 -0.00000000000E+00 -0.19669178666E+03  0.19669178666E+03  0.00000000000E+00 0. -1.
         25    2    1    2    0    0 -0.10479327025E+03 -0.71272037461E+02 -0.12378397108E+03  0.21686556005E+03  0.12508743673E+03 0.  0.
          5    1    3    3  502    0 -0.18904322660E+01  0.30572457639E+02 -0.94209058934E+01  0.32318334860E+02  0.41800000000E+01 0.  1.
         -5    1    3    3    0  502 -0.10290283799E+03 -0.10184449510E+03 -0.11436306518E+03  0.18454722519E+03  0.41800000000E+01 0.  1.
        -11    1    1    2    0    0  0.65365679171E+02  0.90567126667E+02  0.13638718728E+03  0.17628539730E+03  0.00000000000E+00 0.  1.
         11    1    1    2    0    0  0.39427591084E+02 -0.19295089206E+02  0.68638978591E+02  0.81474810758E+02  0.00000000000E+00 0. -1.
</event>
<event>
 7    1  0.2766180E-009  0.3521990E+03  0.7561462E-02  0.1061716E+00
         -1   -1    0    0    0  501 -0.00000000000E+00  0.00000000000E+00  0.40947010992E+03  0.40947010992E+03  0.00000000000E+00 0.  1.
          1   -1    0    0  501    0  0.00000000000E+00 -0.00000000000E+00 -0.39725714426E+03  0.39725714426E+03  0.00000000000E+00 0. -1.
         25    2    1    2    0    0  0.33700604305E+03  0.67786211403E+02  0.18598323277E+03  0.41037183620E+03  0.12508891865E+03 0.  0.
          5    1    3    3  502    0  0.45916403712E+02  0.38462603891E+02  0.78124202052E+02  0.98531981479E+02  0.41800000000E+01 0. -1.
         -5    1    3    3    0  502  0.29108963934E+03  0.29323607512E+02  0.10785903072E+03  0.31183985472E+03  0.41800000000E+01 0. -1.
        -11    1    1    2    0    0 -0.19335371640E+03 -0.76286259542E+02 -0.71500241069E+02  0.21981250536E+03  0.00000000000E+00 0.  1.
         11    1    1    2    0    0 -0.14365232665E+03  0.85000481397E+01 -0.10227002603E+03  0.17654291262E+03  0.00000000000E+00 0. -1.
</event>
<event>
 7    1  0.2766180E-009  0.1013096E+03  0.7561462E-02  0.1277566E+00
          2   -1    0    0  501    0  0.00000000000E+00  0.00000000000E+00  0.52570912662E+03  0.52570912662E+03  0.00000000000E+00 0. -1.
         -2   -1    0    0    0  501 -0.00000000000E+00 -0.00000000000E+00 -0.30439960684E+02  0.30439960684E+02  0.00000000000E+00 0.  1.
         25    2    1    2    0    0  0.14882882810E+02  0.31926719573E+02  0.41951516282E+03  0.43918271163E+03  0.12509063409E+03 0.  0.
          5    1    3    3  502    0  0.38338564561E+02 -0.31600273821E+02  0.27563144680E+03  0.28010460493E+03  0.41800000000E+01 0. -1.
         -5    1    3    3    0  502 -0.23455681752E+02  0.63526993394E+02  0.14388371602E+03  0.15907810670E+03  0.41800000000E+01 0. -1.
        -11    1    1    2    0    0 -0.68636978602E+01  0.25766400676E+02  0.41693411806E+02  0.49490992515E+02  0.00000000000E+00 0.  1.
         11    1    1    2    0    0 -0.80191849494E+01 -0.57693120249E+02  0.34060591304E+02  0.67475383151E+02  0.00000000000E+00 0. -1.
</event>
<event>
 7    1  0.2766180E-009  0.8725710E+02  0.7561462E-02  0.1309633E+00
          2   -1    0    0  501    0  0.00000000000E+00  0.00000000000E+00  0.38245559186E+02  0.38245559186E+02  0.00000000000E+00 0. -1.
         -2   -1    0    0    0  501 -0.00000000000E+00 -0.00000000000E+00 -0.36739967908E+03  0.36739967908E+03  0.00000000000E+00 0.  1.
         25    2    1    2    0    0 -0.25861501368E+02 -0.37987178493E+02 -0.14748463713E+03  0.19877416941E+03  0.12509040431E+03 0.  0.
          5    1    3    3  502    0  0.31875250651E+02  0.10101272615E+02 -0.10931603692E+03  0.11439202612E+03  0.41800000000E+01 0.  1.
         -5    1    3    3    0  502 -0.57736752019E+02 -0.48088451108E+02 -0.38168600217E+02  0.84382143290E+02  0.41800000000E+01 0.  1.
        -11    1    1    2    0    0  0.62688592516E+01  0.44480100725E+02 -0.18070897314E+03  0.18620824614E+03  0.00000000000E+00 0.  1.
         11    1    1    2    0    0  0.19592642117E+02 -0.64929222321E+01 -0.96050962793E+00  0.20662822725E+02  0.00000000000E+00 0. -1.
</event>
<event>
 7    1  0.2766180E-009  0.9929174E+02  0.7561462E-02  0.1281792E+00
          2   -1    0    0  501    0  0.00000000000E+00  0.00000000000E+00  0.26270729320E+03  0.26270729320E+03  0.00000000000E+00 0. -1.
         -2   -1    0    0    0  501 -0.00000000000E+00 -0.00000000000E+00 -0.58066250647E+02  0.58066250647E+02  0.00000000000E+00 0.  1.
         25    2    1    2    0    0 -0.41218750755E+02  0.21649976091E+01  0.62565759840E+02  0.14583442057E+03  0.12509808668E+03 0.  0.
          5    1    3    3  502    0 -0.44779529397E+02  0.58243902006E+02  0.23419424226E+02  0.77223702352E+02  0.41800000000E+01 0.  1.
         -5    1    3    3    0  502  0.35607786418E+01 -0.56078904397E+02  0.39146335614E+02  0.68610718222E+02  0.41800000000E+01 0.  1.
        -11    1    1    2    0    0  0.18378277002E+01 -0.23695864047E+02 -0.21762856496E+01  0.23866457693E+02  0.00000000000E+00 0.  1.
         11    1    1    2    0    0  0.39380923055E+02  0.21530866438E+02  0.14425156836E+03  0.15107266558E+03  0.00000000000E+00 0. -1.
</event>
<event>
 7    1  0.2766180E-009  0.9603378E+02  0.7561462E-02  0.1288865E+00
         -3   -1    0    0    0  501 -0.00000000000E+00  0.00000000000E+00  0.31102833462E+02  0.31102833462E+02  0.00000000000E+00 0.  1.
          3   -1    0    0  501    0  0.00000000000E+00 -0.00000000000E+00 -0.60846164614E+03  0.60846164614E+03  0.00000000000E+00 0. -1.
         25    2    1    2    0    0 -0.20460333384E+01 -0.13451592854E+02 -0.51597868454E+03  0.53110000602E+03  0.12509229350E+03 0.  0.
          5    1    3    3  502    0  0.45423946993E+02 -0.31049646081E+02 -0.40862508795E+03  0.41233402768E+03  0.41800000000E+01 0.  1.
         -5    1    3    3    0  502 -0.47469980331E+02  0.17598053227E+02 -0.10735359659E+03  0.11876597834E+03  0.41800000000E+01 0.  1.
        -11    1    1    2    0    0  0.38131279273E+02  0.27867939173E+02 -0.18840688943E+02  0.50848677983E+02  0.00000000000E+00 0. -1.
         11    1    1    2    0    0 -0.36085245935E+02 -0.14416346319E+02 -0.42539439192E+02  0.57615795596E+02  0.00000000000E+00 0.  1.
</event>
<event>
 6    1  0.2766180E-009  0.1696953E+03  0.7561462E-02  0.1178166E+00
         -1   -1    0    0    0  501 -0.00000000000E+00  0.00000000000E+00  0.60035816619E+02  0.60035816619E+02  0.00000000000E+00 0.  1.
          1   -1    0    0  501    0  0.00000000000E+00 -0.00000000000E+00 -0.69722427525E+03  0.69722427525E+03  0.00000000000E+00 0. -1.
          5    1    1    2  502    0  0.11813094031E+02  0.15775758564E+02 -0.19738348318E+03  0.19840901083E+03  0.41800000000E+01 0. -1.
         -5    1    1    2    0  502  0.57581001936E+02  0.13097137642E+03 -0.10898220724E+03  0.17989904702E+03  0.41800000000E+01 0. -1.
        -11    1    1    2    0    0 -0.46029363906E+02 -0.14561887605E+03 -0.31677157168E+03  0.35166431156E+03  0.00000000000E+00 0. -1.
         11    1    1    2    0    0 -0.23364732061E+02 -0.11282589313E+01 -0.14051196533E+02  0.27287722451E+02  0.00000000000E+00 0.  1.
</event>
<event>
 7    1  0.2766180E-009  0.1026030E+03  0.7561462E-02  0.1274916E+00
         -1   -1    0    0    0  501 -0.00000000000E+00  0.00000000000E+00  0.37179198963E+02  0.37179198963E+02  0.00000000000E+00 0.  1.
          1   -1    0    0  501    0  0.00000000000E+00 -0.00000000000E+00 -0.32655958937E+03  0.32655958937E+03  0.00000000000E+00 0. -1.
         25    2    1    2    0    0 -0.15418439075E+02 -0.46026990763E+01 -0.14473167298E+03  0.19198085176E+03  0.12510186721E+03 0.  0.
          5    1    3    3  502    0  0.41932763538E+02 -0.29475660806E+02 -0.25752051563E+02  0.57513579245E+02  0.41800000000E+01 0. -1.
         -5    1    3    3    0  502 -0.57351202613E+02  0.24872961729E+02 -0.11897962142E+03  0.13446727252E+03  0.41800000000E+01 0. -1.
        -11    1    1    2    0    0 -0.19297494119E+02  0.38211846817E+02 -0.83391667606E+02  0.93737445786E+02  0.00000000000E+00 0.  1.
         11    1    1    2    0    0  0.34715933194E+02 -0.33609147740E+02 -0.61257049826E+02  0.78020490787E+02  0.00000000000E+00 0. -1.
</event>
<event>
 7    1  0.2766180E-009  0.9251116E+02  0.7561462E-02  0.1296882E+00
         -2   -1    0    0    0  501 -0.00000000000E+00  0.00000000000E+00  0.42780764097E+02  0.42780764097E+02  0.00000000000E+00 0. -1.
          2   -1    0    0  501    0  0.00000000000E+00 -0.00000000000E+00 -0.40972379605E+03  0.40972379605E+03  0.00000000000E+00 0.  1.
         25    2    1    2    0    0 -0.52409013473E+02 -0.50753281572E+02 -0.17031390579E+03  0.22355541336E+03  0.12509035157E+03 0.  0.
          5    1    3    3  502    0 -0.33380000400E+02 -0.23433540531E+02  0.82892620452E+01  0.41827497101E+02  0.41800000000E+01 0. -1.
         -5    1    3    3    0  502 -0.19029013073E+02 -0.27319741041E+02 -0.17860316783E+03  0.18172791626E+03  0.41800000000E+01 0. -1.
        -11    1    1    2    0    0  0.32962624377E+02  0.73494121438E+02 -0.10361173051E+03  0.13123761348E+03  0.00000000000E+00 0. -1.
         11    1    1    2    0    0  0.19446389096E+02 -0.22740839867E+02 -0.93017395658E+02  0.97711533309E+02  0.00000000000E+00 0.  1.
</event>
<event>
 7    1  0.2766180E-009  0.1037420E+03  0.7561462E-02  0.1272618E+00
         -1   -1    0    0    0  501 -0.00000000000E+00  0.00000000000E+00  0.38875982956E+02  0.38875982956E+02  0.00000000000E+00 0.  1.
          1   -1    0    0  501    0  0.00000000000E+00 -0.00000000000E+00 -0.40014997543E+03  0.40014997543E+03  0.00000000000E+00 0. -1.
         25    2    1    2    0    0 -0.55346383590E+02  0.15707525122E+02 -0.25080133436E+03  0.28610693488E+03  0.12508365340E+03 0.  0.
          5    1    3    3  502    0 -0.41341170689E+00  0.49885289438E+02 -0.35805183265E+02  0.61548327030E+02  0.41800000000E+01 0.  1.
         -5    1    3    3    0  502 -0.54932971883E+02 -0.34177764316E+02 -0.21499615109E+03  0.22455860785E+03  0.41800000000E+01 0.  1.
        -11    1    1    2    0    0 -0.12021142558E+02 -0.21854570428E+02 -0.19237936124E+01  0.25016616455E+02  0.00000000000E+00 0.  1.
         11    1    1    2    0    0  0.67367526148E+02  0.61470453063E+01 -0.10854886451E+03  0.12790240706E+03  0.00000000000E+00 0. -1.
</event>
<event>
 7    1  0.2766180E-009  0.1024176E+03  0.7561462E-02  0.1275293E+00
         -2   -1    0    0    0  501 -0.00000000000E+00  0.00000000000E+00  0.32661635137E+03  0.32661635137E+03  0.00000000000E+00 0.  1.
          2   -1    0    0  501    0  0.00000000000E+00 -0.00000000000E+00 -0.43416046371E+02  0.43416046371E+02  0.00000000000E+00 0. -1.
         25    2    1    2    0    0 -0.18631887944E+02  0.13303630482E+02  0.92480756229E+02  0.15723715172E+03  0.12508676100E+03 0.  0.
          5    1    3    3  502    0 -0.64876589078E+02 -0.21951391384E+02  0.54864672639E+02  0.87854653250E+02  0.41800000000E+01 0. -1.
         -5    1    3    3    0  502  0.46244701134E+02  0.35255021865E+02  0.37616083591E+02  0.69382498473E+02  0.41800000000E+01 0. -1.
        -11    1    1    2    0    0 -0.28668689113E+02  0.40147657126E+00  0.13679597847E+03  0.13976836067E+03  0.00000000000E+00 0.  1.
         11    1    1    2    0    0  0.47300577057E+02 -0.13705107053E+02  0.53923570291E+02  0.73026885338E+02  0.00000000000E+00 0. -1.
</event>
<event>
 7    1  0.2766180E-009  0.1711541E+03  0.7561462E-02  0.1176650E+00
          1   -1    0    0  501    0  0.00000000000E+00  0.00000000000E+00  0.33188289256E+03  0.33188289256E+03  0.00000000000E+00 0.  1.
         -1   -1    0    0    0  501 -0.00000000000E+00 -0.00000000000E+00 -0.11799426020E+03  0.11799426020E+03  0.00000000000E+00 0. -1.
         25    2    1    2    0    0 -0.14808146776E+02 -0.15283080417E+03  0.42414187054E+02  0.20253986996E+03  0.12508756831E+03 0.  0.
          5    1    3    3  502    0 -0.56864051247E+00 -0.16699115911E+03  0.57947370040E+02  0.17680989980E+03  0.41800000000E+01 0.  1.
         -5    1    3    3    0  502 -0.14239506263E+02  0.14160354939E+02 -0.15533182986E+02  0.25729970157E+02  0.41800000000E+01 0.  1.
        -11    1    1    2    0    0  0.80139864685E+01  0.17471104934E+02  0.83672030686E+02  0.85851454303E+02  0.00000000000E+00 0.  1.
         11    1    1    2    0    0  0.67941603071E+01  0.13535969924E+03  0.87802414623E+02  0.16148582850E+03  0.00000000000E+00 0. -1.
</event>
<event>
 7    1  0.2766180E-009  0.7425073E+02  0.7561462E-02  0.1346207E+00
          1   -1    0    0  501    0  0.00000000000E+00  0.00000000000E+00  0.17196964378E+03  0.17196964378E+03  0.00000000000E+00 0.  1.
         -1   -1    0    0    0  501 -0.00000000000E+00 -0.00000000000E+00 -0.90822818919E+02  0.90822818919E+02  0.00000000000E+00 0. -1.
         25    2    1    2    0    0  0.17699243878E+02 -0.46300420450E+02  0.82212970726E+02  0.15768436957E+03  0.12509354773E+03 0.  0.
          5    1    3    3  502    0 -0.21651422959E+02 -0.52910119703E+00  0.93558901425E+02  0.96123901815E+02  0.41800000000E+01 0.  1.
         -5    1    3    3    0  502  0.39350666837E+02 -0.45771319253E+02 -0.11345930699E+02  0.61560467754E+02  0.41800000000E+01 0.  1.
        -11    1    1    2    0    0 -0.29024942894E+02  0.15042148945E+02  0.40393187295E+02  0.51964633499E+02  0.00000000000E+00 0.  1.
         11    1    1    2    0    0  0.11325699016E+02  0.31258271505E+02 -0.41459333160E+02  0.53143459632E+02  0.00000000000E+00 0. -1.
</event>
<event>
 7    1  0.2766180E-009  0.1177240E+03  0.7561462E-02  0.1246900E+00
          1   -1    0    0  501    0  0.00000000000E+00  0.00000000000E+00  0.89258789126E+02  0.89258789126E+02  0.00000000000E+00 0. -1.
         -1   -1    0    0    0  501 -0.00000000000E+00 -0.00000000000E+00 -0.18406329900E+03  0.18406329900E+03  0.00000000000E+00 0.  1.
         25    2    1    2    0    0 -0.59803955269E+02  0.30274999209E+02 -0.39980756696E+02  0.14744067327E+03  0.12508877881E+03 0.  0.
          5    1    3    3  502    0 -0.74338909704E+02  0.68123544248E+02 -0.24573114611E+02  0.10386722841E+03  0.41800000000E+01 0.  1.
         -5    1    3    3    0  502  0.14534954434E+02 -0.37848545039E+02 -0.15407642085E+02  0.43573444856E+02  0.41800000000E+01 0.  1.
        -11    1    1    2    0    0  0.46014756188E+02  0.13436298885E+02  0.74986269097E+01  0.48519288126E+02  0.00000000000E+00 0. -1.
         11    1    1    2    0    0  0.13789199081E+02 -0.43711298094E+02 -0.62322380091E+02  0.77362126732E+02  0.00000000000E+00 0.  1.
</event>
<event>
 7    1  0.2766180E-009  0.1231430E+03  0.7561462E-02  0.1238000E+00
         -2   -1    0    0    0  501 -0.00000000000E+00  0.00000000000E+00  0.21220855560E+02  0.21220855560E+02  0.00000000000E+00 0.  1.
          2   -1    0    0  501    0  0.00000000000E+00 -0.00000000000E+00 -0.12628874402E+04  0.12628874402E+04  0.00000000000E+00 0. -1.
         25    2    1    2    0    0 -0.46043765840E+02  0.10264755431E+03 -0.85726746168E+03  0.87361861716E+03  0.12508172774E+03 0.  0.
          5    1    3    3  502    0 -0.53570079098E+02  0.69175896909E+02 -0.81177397331E+03  0.81648607718E+03  0.41800000000E+01 0. -1.
         -5    1    3    3    0  502  0.75263132579E+01  0.33471657403E+02 -0.45493488377E+02  0.57132539986E+02  0.41800000000E+01 0. -1.
        -11    1    1    2    0    0  0.51121956567E+02 -0.50916306761E+02 -0.11237833846E+03  0.13354705423E+03  0.00000000000E+00 0.  1.
         11    1    1    2    0    0 -0.50781907266E+01 -0.51731247551E+02 -0.27202078449E+03  0.27694262436E+03  0.00000000000E+00 0. -1.
</event>
<event>
 7    1  0.2766180E-009  0.2010274E+03  0.7561462E-02  0.1148875E+00
          1   -1    0    0  501    0  0.00000000000E+00  0.00000000000E+00  0.85415499379E+03  0.85415499379E+03  0.00000000000E+00 0. -1.
         -1   -1    0    0    0  501 -0.00000000000E+00 -0.00000000000E+00 -0.62410334100E+02  0.62410334100E+02  0.00000000000E+00 0.  1.
         25    2    1    2    0    0 -0.89548333975E+02  0.17631896697E+03  0.38838314804E+03  0.45342593021E+03  0.12508526000E+03 0.  0.
          5    1    3    3  502    0 -0.20927888918E+02  0.90540236907E+02  0.69472639491E+02  0.11610095207E+03  0.41800000000E+01 0. -1.
         -5    1    3    3    0  502 -0.68620445057E+02  0.85778730064E+02  0.31891050855E+03  0.33732497814E+03  0.41800000000E+01 0. -1.
        -11    1    1    2    0    0  0.29497203321E+02 -0.83473850732E+02  0.72945339151E+02  0.11471264649E+03  0.00000000000E+00 0.  1.
         11    1    1    2    0    0  0.60051130654E+02 -0.92845116238E+02  0.33041617249E+03  0.34842675119E+03  0.00000000000E+00 0. -1.
</event>
<event>
 7    1  0.2766180E-009  0.9163510E+02  0.7561462E-02  0.1298940E+00
          1   -1    0    0  501    0  0.00000000000E+00  0.00000000000E+00  0.58777146653E+03  0.58777146653E+03  0.00000000000E+00 0. -1.
         -1   -1    0    0    0  501 -0.00000000000E+00 -0.00000000000E+00 -0.28611630378E+02  0.28611630378E+02  0.00000000000E+00 0.  1.
         25    2    1    2    0    0  0.16954056807E+02 -0.35063834014E+02  0.41985720164E+03  0.43982347117E+03  0.12509078115E+03 0.  0.
          5    1    3    3  502    0 -0.22310102532E+02 -0.25918610234E+02  0.38449172931E+03  0.38603222319E+03  0.41800000000E+01 0.  1.
         -5    1    3    3    0  502  0.39264159340E+02 -0.91452237803E+01  0.35365472325E+02  0.53791247982E+02  0.41800000000E+01 0.  1.
        -11    1    1    2    0    0  0.41046276823E+02  0.28379934142E+02  0.69482958960E+02  0.85545888789E+02  0.00000000000E+00 0. -1.
         11    1    1    2    0    0 -0.58000333630E+02  0.66838998724E+01  0.69819675557E+02  0.91013736950E+02  0.00000000000E+00 0.  1.
</event>
<event>
 7    1  0.2766180E-009  0.1933538E+03  0.7561462E-02  0.1155471E+00
          2   -1    0    0  501    0  0.00000000000E+00  0.00000000000E+00  0.32953608368E+03  0.32953608368E+03  0.00000000000E+00 0. -1.
         -2   -1    0    0    0  501 -0.00000000000E+00 -0.00000000000E+00 -0.21738865091E+03  0.21738865091E+03  0.00000000000E+00 0.  1.
         25    2    1    2    0    0 -0.16249162735E+03 -0.83088238092E+02  0.22341511185E+03  0.31443585320E+03  0.12509360218E+03 0.  0.
          5    1    3    3  502    0 -0.48401422797E+02 -0.21937773686E+02  0.16305803650E+03  0.17154987412E+03  0.41800000000E+01 0. -1.
         -5    1    3    3    0  502 -0.11409020455E+03 -0.61150464407E+02  0.60357075346E+02  0.14288597908E+03  0.41800000000E+01 0. -1.
        -11    1    1    2    0    0  0.46826660043E+02  0.74386702111E+02 -0.42363395420E+02  0.97574457791E+02  0.00000000000E+00 0. -1.
         11    1    1    2    0    0  0.11566496731E+03  0.87015359814E+01 -0.68904283659E+02  0.13491442361E+03  0.00000000000E+00 0.  1.
</event>
<event>
 7    1  0.2766180E-009  0.1283711E+03  0.7561462E-02  0.1229893E+00
         -2   -1    0    0    0  501 -0.00000000000E+00  0.00000000000E+00  0.58149626720E+02  0.58149626720E+02  0.00000000000E+00 0. -1.
          2   -1    0    0  501    0  0.00000000000E+00 -0.00000000000E+00 -0.56508315648E+03  0.56508315648E+03  0.00000000000E+00 0.  1.
         25    2    1    2    0    0  0.20391754646E+01  0.87685006824E+02 -0.46694109624E+03  0.49129826870E+03  0.12508869975E+03 0.  0.
          5    1    3    3  502    0  0.12458356448E+02  0.11322921075E+03 -0.43087957338E+03  0.44570252857E+03  0.41800000000E+01 0.  1.
         -5    1    3    3    0  502 -0.10419180983E+02 -0.25544203930E+02 -0.36061522861E+02  0.45595740128E+02  0.41800000000E+01 0.  1.
        -11    1    1    2    0    0 -0.21936101072E+02 -0.91925858997E+02 -0.90984991472E+01  0.94943871678E+02  0.00000000000E+00 0. -1.
         11    1    1    2    0    0  0.19896925607E+02  0.42408521730E+01 -0.30893934364E+02  0.36990642820E+02  0.00000000000E+00 0.  1.
</event>
<event>
 6    1  0.2766180E-009  0.9508199E+02  0.7561462E-02  0.1290992E+00
          1   -1    0    0  501    0  0.00000000000E+00  0.00000000000E+00  0.20952742074E+03  0.20952742074E+03  0.00000000000E+00 0. -1.
         -1   -1    0    0    0  501 -0.00000000000E+00 -0.00000000000E+00 -0.79106943799E+02  0.79106943799E+02  0.00000000000E+00 0.  1.
          5    1    1    2  502    0 -0.47734786647E+02  0.61538839238E+02 -0.24651113235E+02  0.81797239408E+02  0.41800000000E+01 0. -1.
         -5    1    1    2    0  502  0.99898346561E+01 -0.12063298881E+02  0.60122448385E+02  0.62269584680E+02  0.41800000000E+01 0. -1.
        -11    1    1    2    0    0  0.84110772532E+01 -0.63069680362E+02  0.26613397614E+02  0.68969585572E+02  0.00000000000E+00 0.  1.
         11    1    1    2    0    0  0.29333874738E+02  0.13594140005E+02  0.68335744180E+02  0.75597954882E+02  0.00000000000E+00 0. -1.
</event>
<event>
 7    1  0.2766180E-009  0.1728888E+03  0.7561462E-02  0.1174868E+00
         -1   -1    0    0    0  501 -0.00000000000E+00  0.00000000000E+00  0.15193951012E+04  0.15193951012E+04  0.00000000000E+00 0.  1.
          1   -1    0    0  501    0  0.00000000000E+00 -0.00000000000E+00 -0.24696132494E+02  0.24696132494E+02  0.00000000000E+00 0. -1.
         25    2    1    2    0    0 -0.12926504014E+03  0.57629035651E+02  0.10857758260E+04  0.11020848379E+04  0.12510511300E+03 0.  0.
          5    1    3    3  502    0 -0.90995680601E+02 -0.27384835557E+02  0.58618906364E+03  0.59385624004E+03  0.41800000000E+01 0.  1.
         -5    1    3    3    0  502 -0.38269359541E+02  0.85013871208E+02  0.49958676234E+03  0.50822859786E+03  0.41800000000E+01 0.  1.
        -11    1    1    2    0    0  0.12449363782E+03 -0.28364864310E+02  0.25417898889E+03  0.28444716518E+03  0.00000000000E+00 0. -1.
         11    1    1    2    0    0  0.47714023174E+01 -0.29264171341E+02  0.15474415388E+03  0.15755923065E+03  0.00000000000E+00 0.  1.
</event>
<event>
 7    1  0.2766180E-009  0.1255181E+03  0.7561462E-02  0.1234262E+00
         -1   -1    0    0    0  501 -0.00000000000E+00  0.00000000000E+00  0.11564677336E+03  0.11564677336E+03  0.00000000000E+00 0.  1.
          1   -1    0    0  501    0  0.00000000000E+00 -0.00000000000E+00 -0.19100178281E+03  0.19100178281E+03  0.00000000000E+00 0. -1.
         25    2    1    2    0    0 -0.43545246669E+02 -0.10041901836E+03 -0.35464591387E+02  0.16995613305E+03  0.12508869718E+03 0.  0.
          5    1    3    3  502    0  0.92227286727E+01 -0.33358349429E+02 -0.69688450927E+02  0.77921696551E+02  0.41800000000E+01 0.  1.
         -5    1    3    3    0  502 -0.52767975342E+02 -0.67060668930E+02  0.34223859540E+02  0.92034436494E+02  0.41800000000E+01 0.  1.
        -11    1    1    2    0    0 -0.14230673114E+02  0.56230470988E+02 -0.17318021785E+02  0.60533394117E+02  0.00000000000E+00 0. -1.
         11    1    1    2    0    0  0.57775919783E+02  0.44188547371E+02 -0.22572396280E+02  0.76159029007E+02  0.00000000000E+00 0.  1.
</event>
<event>
 7    1  0.2766180E-009  0.1027975E+03  0.7561462E-02  0.1274521E+00
          2   -1    0    0  501    0  0.00000000000E+00  0.00000000000E+00  0.13204319136E+04  0.13204319136E+04  0.00000000000E+00 0. -1.
         -2   -1    0    0    0  501 -0.00000000000E+00 -0.00000000000E+00 -0.11512578583E+02  0.11512578583E+02  0.00000000000E+00 0.  1.
         25    2    1    2    0    0  0.18051563039E+02  0.75407810193E+01  0.10580385694E+04  0.10655866260E+04  0.12508605397E+03 0.  0.
          5    1    3    3  502    0 -0.48845927544E+02  0.21891194157E+01  0.25103455494E+03  0.25578611584E+03  0.41800000000E+01 0. -1.
         -5    1    3    3    0  502  0.66897490583E+02  0.53516616036E+01  0.80700401444E+03  0.80980051016E+03  0.41800000000E+01 0. -1.
        -11    1    1    2    0    0  0.30933668876E+02  0.16118167476E+02  0.10664817967E+03  0.11220749270E+03  0.00000000000E+00 0.  1.
         11    1    1    2    0    0 -0.48985231915E+02 -0.23658948495E+02  0.14423258600E+03  0.15415037351E+03  0.00000000000E+00 0. -1.
</event>
<event>
 7    1  0.3794510E-009  0.1634741E+03  0.7561462E-02  0.1184829E+00
         -1   -1    0    0    0  501 -0.00000000000E+00  0.00000000000E+00  0.59255114751E+02  0.59255114751E+02  0.00000000000E+00 0. -1.
          1   -1    0    0  501    0  0.00000000000E+00 -0.00000000000E+00 -0.65987467640E+03  0.65987467640E+03  0.00000000000E+00 0.  1.
         25    2    1    2    0    0  0.11811034380E+03 -0.71806162663E+02 -0.15039379346E+03  0.23954029518E+03  0.12512026852E+03 0.  0.
          5    1    3    3  502    0  0.31000058532E+02 -0.75548558539E+02 -0.12365665599E+03  0.14824651529E+03  0.41800000000E+01 0. -1.
         -5    1    3    3    0  502  0.87110285267E+02  0.37423958765E+01 -0.26737137476E+02  0.91293779890E+02  0.41800000000E+01 0. -1.
        -11    1    1    2    0    0 -0.66159513846E+02 -0.36708526867E+01 -0.12222166572E+03  0.13902766632E+03  0.00000000000E+00 0.  1.
         11    1    1    2    0    0 -0.51950829952E+02  0.75477015349E+02 -0.32800410247E+03  0.34056182965E+03  0.00000000000E+00 0. -1.
</event>
<event>
 7    1  0.2766180E-009  0.8640565E+02  0.7561462E-02  0.1311797E+00
         -2   -1    0    0    0  501 -0.00000000000E+00  0.00000000000E+00  0.49112968418E+03  0.49112968418E+03  0.00000000000E+00 0.  1.
          2   -1    0    0  501    0  0.00000000000E+00 -0.00000000000E+00 -0.32517309050E+02  0.32517309050E+02  0.00000000000E+00 0. -1.
         25    2    1    2    0    0  0.17269400980E+02  0.48777473933E+02  0.33668487394E+03  0.36288025749E+03  0.12509157749E+03 0.  0.
          5    1    3    3  502    0 -0.29306167509E+02 -0.16995390076E+02  0.20942680464E+03  0.21219037122E+03  0.41800000000E+01 0. -1.
         -5    1    3    3    0  502  0.46575568489E+02  0.65772864009E+02  0.12725806930E+03  0.15068988627E+03  0.41800000000E+01 0. -1.
        -11    1    1    2    0    0 -0.24185492289E+02 -0.34789941640E+02  0.13431749453E+03  0.14084199450E+03  0.00000000000E+00 0.  1.
         11    1    1    2    0    0  0.69160913092E+01 -0.13987532293E+02 -0.12389993344E+02  0.19924741246E+02  0.00000000000E+00 0. -1.
</event>
<event>
 7    1  0.2766180E-009  0.1220021E+03  0.7561462E-02  0.1239830E+00
         -2   -1    0    0    0  501 -0.00000000000E+00  0.00000000000E+00  0.23210395293E+02  0.23210395293E+02  0.00000000000E+00 0. -1.
          2   -1    0    0  501    0  0.00000000000E+00 -0.00000000000E+00 -0.98651944144E+03  0.98651944144E+03  0.00000000000E+00 0.  1.
         25    2    1    2    0    0  0.89531881228E+02  0.22312315544E+02 -0.67795897775E+03  0.69555018212E+03  0.12509149916E+03 0.  0.
          5    1    3    3  502    0 -0.32028277596E+01  0.38271373401E+02 -0.40417042020E+03  0.40601250854E+03  0.41800000000E+01 0. -1.
         -5    1    3    3    0  502  0.92734708988E+02 -0.15959057856E+02 -0.27378855755E+03  0.28953767358E+03  0.41800000000E+01 0. -1.
        -11    1    1    2    0    0 -0.45236993161E+02 -0.42892624241E+02 -0.71668438139E+02  0.94986987476E+02  0.00000000000E+00 0. -1.
         11    1    1    2    0    0 -0.44294888067E+02  0.20580308696E+02 -0.21368163026E+03  0.21919266714E+03  0.00000000000E+00 0.  1.
</event>
<event>
 7    1  0.2766180E-009  0.9010013E+02  0.7561462E-02  0.1302609E+00
          1   -1    0    0  501    0  0.00000000000E+00  0.00000000000E+00  0.12677968065E+03  0.12677968065E+03  0.00000000000E+00 0. -1.
         -1   -1    0    0    0  501 -0.00000000000E+00 -0.00000000000E+00 -0.15142692197E+03  0.15142692197E+03  0.00000000000E+00 0.  1.
         25    2    1    2    0    0  0.64366004952E+02  0.25258899279E+02 -0.68044131508E+02  0.15829214763E+03  0.12508159570E+03 0.  0.
          5    1    3    3  502    0  0.54939316594E+02  0.21653839178E+02  0.25250230355E+02  0.64360421005E+02  0.41800000000E+01 0.  1.
         -5    1    3    3    0  502  0.94266883579E+01  0.36050601013E+01 -0.93294361863E+02  0.93931726627E+02  0.41800000000E+01 0.  1.
        -11    1    1    2    0    0 -0.85033941281E+01  0.30190961881E+02  0.31843058382E+01  0.31526840861E+02  0.00000000000E+00 0.  1.
         11    1    1    2    0    0 -0.55862610824E+02 -0.55449861160E+02  0.40212584358E+02  0.88387614129E+02  0.00000000000E+00 0. -1.
</event>
<event>
 7    1  0.2766180E-009  0.1755285E+03  0.7561462E-02  0.1172202E+00
          2   -1    0    0  501    0  0.00000000000E+00  0.00000000000E+00  0.12481635453E+03  0.12481635453E+03  0.00000000000E+00 0. -1.
         -2   -1    0    0    0  501 -0.00000000000E+00 -0.00000000000E+00 -0.27689030706E+03  0.27689030706E+03  0.00000000000E+00 0.  1.
         25    2    1    2    0    0  0.13088745676E+03  0.61890411165E+02 -0.36159285944E+02  0.19472089480E+03  0.12508710398E+03 0.  0.
          5    1    3    3  502    0  0.15259934737E+03  0.43603531760E+02 -0.15815390710E+02  0.15954757216E+03  0.41800000000E+01 0. -1.
         -5    1    3    3    0  502 -0.21711890612E+02  0.18286879405E+02 -0.20343895234E+02  0.35173322641E+02  0.41800000000E+01 0. -1.
        -11    1    1    2    0    0 -0.60968059302E+02  0.11712744040E+02 -0.75426494331E+02  0.97690576184E+02  0.00000000000E+00 0. -1.
         11    1    1    2    0    0 -0.69919397457E+02 -0.73603155205E+02 -0.40488172257E+02  0.10929519061E+03  0.00000000000E+00 0.  1.
</event>
<event>
 7    1  0.2766180E-009  0.7491933E+02  0.7561462E-02  0.1344121E+00
         -1   -1    0    0    0  501 -0.00000000000E+00  0.00000000000E+00  0.21893699983E+03  0.21893699983E+03  0.00000000000E+00 0.  1.
          1   -1    0    0  501    0  0.00000000000E+00 -0.00000000000E+00 -0.58608181478E+02  0.58608181478E+02  0.00000000000E+00 0. -1.
         25    2    1    2    0    0  0.25304803851E+02 -0.11731729075E+02  0.66839241390E+02  0.14454054645E+03  0.12508604563E+03 0.  0.
          5    1    3    3  502    0  0.42222228548E+02  0.35857539526E+02 -0.59253307650E+01  0.55866462829E+02  0.41800000000E+01 0. -1.
         -5    1    3    3    0  502 -0.16917424697E+02 -0.47589268601E+02  0.72764572155E+02  0.88674083617E+02  0.41800000000E+01 0. -1.
        -11    1    1    2    0    0 -0.65060995115E+00  0.18126198863E+02 -0.13763522010E+02  0.22768770644E+02  0.00000000000E+00 0. -1.
         11    1    1    2    0    0 -0.24654193900E+02 -0.63944697876E+01  0.10725309897E+03  0.11023586422E+03  0.00000000000E+00 0.  1.
</event>
<event>
 7    1  0.2766180E-009  0.1002567E+03  0.7561462E-02  0.1279757E+00
          3   -1    0    0  501    0  0.00000000000E+00  0.00000000000E+00  0.67424037814E+02  0.67424037814E+02  0.00000000000E+00 0. -1.
         -3   -1    0    0    0  501 -0.00000000000E+00 -0.00000000000E+00 -0.18388312473E+03  0.18388312473E+03  0.00000000000E+00 0.  1.
         25    2    1    2    0    0 -0.27823536843E+01 -0.50724548832E+01 -0.87547211226E+02  0.15278829473E+03  0.12508508113E+03 0.  0.
          5    1    3    3  502    0  0.13327293856E+02 -0.55527655475E+02 -0.81091078602E+02  0.99268185804E+02  0.41800000000E+01 0.  1.
         -5    1    3    3    0  502 -0.16109647540E+02  0.50455200592E+02 -0.64561326246E+01  0.53520108922E+02  0.41800000000E+01 0.  1.
        -11    1    1    2    0    0 -0.38136608602E+02 -0.19046740780E+02  0.53757378874E+00  0.42631774952E+02  0.00000000000E+00 0. -1.
         11    1    1    2    0    0  0.40918962286E+02  0.24119195664E+02 -0.29449449474E+02  0.55887092860E+02  0.00000000000E+00 0.  1.
</event>
<event>
 7    1  0.2766180E-009  0.1129266E+03  0.7561462E-02  0.1255244E+00
         -2   -1    0    0    0  501 -0.00000000000E+00  0.00000000000E+00  0.18228985015E+03  0.18228985015E+03  0.00000000000E+00 0.  1.
          2   -1    0    0  501    0  0.00000000000E+00 -0.00000000000E+00 -0.94994075191E+02  0.94994075191E+02  0.00000000000E+00 0. -1.
         25    2    1    2    0    0  0.54558680495E+02  0.50876435060E+02  0.70529573118E+02  0.16182609413E+03  0.12509277675E+03 0.  0.
          5    1    3    3  502    0  0.28538653486E+02  0.91608240494E+02  0.56035341355E+02  0.11119332871E+03  0.41800000000E+01 0. -1.
         -5    1    3    3    0  502  0.26020027009E+02 -0.40731805434E+02  0.14494231763E+02  0.50632765418E+02  0.41800000000E+01 0. -1.
        -11    1    1    2    0    0 -0.57522006641E+01 -0.25785678245E+02 -0.32379504431E+02  0.41790206056E+02  0.00000000000E+00 0. -1.
         11    1    1    2    0    0 -0.48806479831E+02 -0.25090756815E+02  0.49145706272E+02  0.73667625155E+02  0.00000000000E+00 0.  1.
</event>
<event>
 7    1  0.2766180E-009  0.7245785E+02  0.7561462E-02  0.1351929E+00
         -1   -1    0    0    0  501 -0.00000000000E+00  0.00000000000E+00  0.31867820617E+03  0.31867820617E+03  0.00000000000E+00 0.  1.
          1   -1    0    0  501    0  0.00000000000E+00 -0.00000000000E+00 -0.57222748973E+02  0.57222748973E+02  0.00000000000E+00 0. -1.
         25    2    1    2    0    0  0.62493504831E+02 -0.12831488360E+02  0.23218139607E+03  0.27133986348E+03  0.12508811131E+03 0.  0.
          5    1    3    3  502    0  0.79870945224E+01 -0.80235538943E+01  0.21279771750E+03  0.21313965391E+03  0.41800000000E+01 0. -1.
         -5    1    3    3    0  502  0.54506410309E+02 -0.48079344662E+01  0.19383678573E+02  0.58200209567E+02  0.41800000000E+01 0. -1.
        -11    1    1    2    0    0 -0.91565735021E+01  0.22019468378E+02  0.42601326959E+02  0.48821848436E+02  0.00000000000E+00 0.  1.
         11    1    1    2    0    0 -0.53336931329E+02 -0.91879800180E+01 -0.13327265842E+02  0.55739243224E+02  0.00000000000E+00 0. -1.
</event>
<event>
 7    1  0.2766180E-009  0.7761310E+02  0.7561462E-02  0.1335965E+00
         -3   -1    0    0    0  501 -0.00000000000E+00  0.00000000000E+00  0.38317476505E+03  0.38317476505E+03  0.00000000000E+00 0.  1.
          3   -1    0    0  501    0  0.00000000000E+00 -0.00000000000E+00 -0.39271495521E+02  0.39271495521E+02  0.00000000000E+00 0. -1.
         25    2    1    2    0    0 -0.16526083814E+02 -0.55829817485E+02  0.24226983156E+03  0.27880425618E+03  0.12508821692E+03 0.  0.
          5    1    3    3  502    0 -0.16739408204E+02  0.10047582092E+02 -0.68337837316E+01  0.21102954604E+02  0.41800000000E+01 0. -1.
         -5    1    3    3    0  502  0.21332438994E+00 -0.65877399577E+02  0.24910361529E+03  0.25770130158E+03  0.41800000000E+01 0. -1.
        -11    1    1    2    0    0  0.25130307720E+02  0.19205880912E+02 -0.36498656714E+01  0.31838965862E+02  0.00000000000E+00 0. -1.
         11    1    1    2    0    0 -0.86042239061E+01  0.36623936573E+02  0.10528330364E+03  0.11180303853E+03  0.00000000000E+00 0.  1.
</event>
<event>
 7    1  0.2766180E-009  0.1267459E+03  0.7561462E-02  0.1232366E+00
         -2   -1    0    0    0  501 -0.00000000000E+00  0.00000000000E+00  0.37811679257E+03  0.37811679257E+03  0.00000000000E+00 0.  1.
          2   -1    0    0  501    0  0.00000000000E+00 -0.00000000000E+00 -0.19641116113E+03  0.19641116113E+03  0.00000000000E+00 0. -1.
         25    2    1    2    0    0 -0.44696122359E+02  0.96331608813E+02  0.33347487844E+03  0.37165562523E+03  0.12507952271E+03 0.  0.
          5    1    3    3  502    0  0.18351374264E+02 -0.41214218222E+01  0.17551222378E+01  0.19347142148E+02  0.41800000000E+01 0. -1.
         -5    1    3    3    0  502 -0.63047496623E+02  0.10045303063E+03  0.33171975620E+03  0.35230848308E+03  0.41800000000E+01 0. -1.
        -11    1    1    2    0    0  0.26608709138E+02 -0.11802350584E+02 -0.95234464439E+02  0.99583744147E+02  0.00000000000E+00 0.  1.
         11    1    1    2    0    0  0.18087413221E+02 -0.84529258229E+02 -0.56534782557E+02  0.10328858433E+03  0.00000000000E+00 0. -1.
</event>
<event>
 7    1  0.2766180E-009  0.1670004E+03  0.7561462E-02  0.1181013E+00
         -3   -1    0    0    0  501 -0.00000000000E+00  0.00000000000E+00  0.21074378603E+03  0.21074378603E+03  0.00000000000E+00 0.  1.
          3   -1    0    0  501    0  0.00000000000E+00 -0.00000000000E+00 -0.14814358762E+03  0.14814358762E+03  0.00000000000E+00 0. -1.
         25    2    1    2    0    0  0.12284315016E+03  0.46666006771E+02  0.72193540626E+02  0.19526359161E+03  0.12509119541E+03 0.  0.
          5    1    3    3  502    0  0.13976784198E+03  0.19403509367E+02  0.34004282406E+02  0.14520781470E+03  0.41800000000E+01 0. -1.
         -5    1    3    3    0  502 -0.16924691823E+02  0.27262497403E+02  0.38189258220E+02  0.50055776903E+02  0.41800000000E+01 0. -1.
        -11    1    1    2    0    0 -0.73518031858E+02 -0.73804365634E+02  0.84242698567E+01  0.10451293565E+03  0.00000000000E+00 0.  1.
         11    1    1    2    0    0 -0.49325118304E+02  0.27138358864E+02 -0.18017612075E+02  0.59110846402E+02  0.00000000000E+00 0. -1.
</event>
<event>
 7    1  0.2766180E-009  0.1921727E+03  0.7561462E-02  0.1156516E+00
         -3   -1    0    0    0  501 -0.00000000000E+00  0.00000000000E+00  0.23514532553E+04  0.23514532553E+04  0.00000000000E+00 0.  1.
          3   -1    0    0  501    0  0.00000000000E+00 -0.00000000000E+00 -0.19080611804E+02  0.19080611804E+02  0.00000000000E+00 0. -1.
         25    2    1    2    0    0 -0.14867104123E+03  0.10311691549E+03  0.11316698392E+04  0.11528485950E+04  0.12508829409E+03 0.  0.
          5    1    3    3  502    0 -0.96517044078E+02  0.58588969786E+02  0.97818313566E+03  0.98468671489E+03  0.41800000000E+01 0. -1.
         -5    1    3    3    0  502 -0.52153997149E+02  0.44527945702E+02  0.15348670357E+03  0.16816188016E+03  0.41800000000E+01 0. -1.
        -11    1    1    2    0    0  0.67115014128E+02  0.49166586688E+01  0.40115054118E+03  0.40675589159E+03  0.00000000000E+00 0. -1.
         11    1    1    2    0    0  0.81556027098E+02 -0.10803357416E+03  0.79955226312E+03  0.81092938050E+03  0.00000000000E+00 0.  1.
</event>
<event>
 7    1  0.3500622E-009  0.9613938E+02  0.7561462E-02  0.1288630E+00
          1   -1    0    0  501    0  0.00000000000E+00  0.00000000000E+00  0.39621715840E+03  0.39621715840E+03  0.00000000000E+00 0. -1.
         -1   -1    0    0    0  501 -0.00000000000E+00 -0.00000000000E+00 -0.56792768270E+02  0.56792768270E+02  0.00000000000E+00 0.  1.
         25    2    1    2    0    0  0.76093706623E+02  0.42033243309E+02  0.26719577413E+03  0.30755301707E+03  0.12505291227E+03 0.  0.
          5    1    3    3  502    0  0.60646777077E+02  0.85860343624E+01  0.26319371319E+03  0.27025942097E+03  0.41800000000E+01 0. -1.
         -5    1    3    3    0  502  0.15446929546E+02  0.33447208947E+02  0.40020609322E+01  0.37293596105E+02  0.41800000000E+01 0. -1.
        -11    1    1    2    0    0 -0.11849466146E+02 -0.24496272457E+02 -0.18504620370E+02  0.32907418423E+02  0.00000000000E+00 0.  1.
         11    1    1    2    0    0 -0.64244240477E+02 -0.17536970852E+02  0.90733236376E+02  0.11254949118E+03  0.00000000000E+00 0. -1.
</event>
<event>
 7    1  0.2766180E-009  0.9998676E+02  0.7561462E-02  0.1280324E+00
          2   -1    0    0  501    0  0.00000000000E+00  0.00000000000E+00  0.32581761584E+03  0.32581761584E+03  0.00000000000E+00 0. -1.
         -2   -1    0    0    0  501 -0.00000000000E+00 -0.00000000000E+00 -0.47977019678E+02  0.47977019678E+02  0.00000000000E+00 0.  1.
         25    2    1    2    0    0 -0.26481318808E+02 -0.65148381425E+01  0.71190122183E+02  0.14648969957E+03  0.12508994852E+03 0.  0.
          5    1    3    3  502    0  0.35095631424E+02  0.36738121443E+02  0.17282894330E+02  0.53829023292E+02  0.41800000000E+01 0. -1.
         -5    1    3    3    0  502 -0.61576950232E+02 -0.43252959585E+02  0.53907227853E+02  0.92660676274E+02  0.41800000000E+01 0. -1.
        -11    1    1    2    0    0 -0.22966959996E+02 -0.33379784666E+01  0.11798340493E+02  0.26035056944E+02  0.00000000000E+00 0.  1.
         11    1    1    2    0    0  0.49448278803E+02  0.98528166091E+01  0.19485213348E+03  0.20126987900E+03  0.00000000000E+00 0. -1.
</event>
<event>
 7    1  0.2766180E-009  0.1658894E+03  0.7561462E-02  0.1182204E+00
          1   -1    0    0  501    0  0.00000000000E+00  0.00000000000E+00  0.89065843770E+02  0.89065843770E+02  0.00000000000E+00 0. -1.
         -1   -1    0    0    0  501 -0.00000000000E+00 -0.00000000000E+00 -0.48759534341E+03  0.48759534341E+03  0.00000000000E+00 0.  1.
         25    2    1    2    0    0 -0.48928283025E+02 -0.12306988023E+03 -0.37103034212E+03  0.41333948732E+03  0.12508335103E+03 0.  0.
          5    1    3    3  502    0 -0.81510831706E+02 -0.11036773694E+03 -0.22884311121E+03  0.26685519479E+03  0.41800000000E+01 0. -1.
         -5    1    3    3    0  502  0.32582548681E+02 -0.12702143296E+02 -0.14218723091E+03  0.14648429252E+03  0.41800000000E+01 0. -1.
        -11    1    1    2    0    0 -0.32277912268E+01  0.10355229248E+03 -0.65021121959E+01  0.10380642262E+03  0.00000000000E+00 0.  1.
         11    1    1    2    0    0  0.52156074251E+02  0.19517587755E+02 -0.20997045326E+02  0.59515277245E+02  0.00000000000E+00 0. -1.
</event>
<event>
 7    1  0.2766180E-009  0.1432231E+03  0.7561462E-02  0.1209057E+00
          2   -1    0    0  501    0  0.00000000000E+00  0.00000000000E+00  0.33310688798E+03  0.33310688798E+03  0.00000000000E+00 0.  1.
         -2   -1    0    0    0  501 -0.00000000000E+00 -0.00000000000E+00 -0.70033800877E+02  0.70033800877E+02  0.00000000000E+00 0. -1.
         25    2    1    2    0    0 -0.82577003674E+02 -0.68421796574E+02  0.13155423540E+03  0.21084237683E+03  0.12508991659E+03 0.  0.
          5    1    3    3  502    0 -0.76867223006E+02  0.39337637241E+00  0.19929735894E+02  0.79519755347E+02  0.41800000000E+01 0.  1.
         -5    1    3    3    0  502 -0.57097806678E+01 -0.68815172946E+02  0.11162449951E+03  0.13132262148E+03  0.41800000000E+01 0.  1.
        -11    1    1    2    0    0  0.30096150662E+02  0.80922019668E+02  0.81655161681E+02  0.11883483067E+03  0.00000000000E+00 0. -1.
         11    1    1    2    0    0  0.52480853012E+02 -0.12500223094E+02  0.49863690024E+02  0.73463481357E+02  0.00000000000E+00 0.  1.
</event>
<event>
 7    1  0.2766180E-009  0.2336450E+03  0.7561462E-02  0.1124100E+00
          1   -1    0    0  501    0  0.00000000000E+00  0.00000000000E+00  0.14278425823E+03  0.14278425823E+03  0.00000000000E+00 0. -1.
         -1   -1    0    0    0  501 -0.00000000000E+00 -0.00000000000E+00 -0.53398519027E+03  0.53398519027E+03  0.00000000000E+00 0.  1.
         25    2    1    2    0    0  0.12764132116E+01 -0.22722297889E+03 -0.61879004584E+02  0.26666015246E+03  0.12508682718E+03 0.  0.
          5    1    3    3  502    0  0.85269531106E+01 -0.12152870252E+03 -0.96126765735E+02  0.15524098027E+03  0.41800000000E+01 0.  1.
         -5    1    3    3    0  502 -0.72505398989E+01 -0.10569427637E+03  0.34247761151E+02  0.11141917219E+03  0.41800000000E+01 0.  1.
        -11    1    1    2    0    0 -0.38157415098E+02  0.10614402310E+03 -0.19695388505E+03  0.22696558066E+03  0.00000000000E+00 0. -1.
         11    1    1    2    0    0  0.36881001886E+02  0.12107895579E+03 -0.13236804240E+03  0.18314371538E+03  0.00000000000E+00 0.  1.
</event>
<event>
 7    1  0.2766180E-009  0.8966371E+02  0.7561462E-02  0.1303668E+00
          4   -1    0    0  501    0  0.00000000000E+00  0.00000000000E+00  0.15261029004E+03  0.15261029004E+03  0.00000000000E+00 0. -1.
         -4   -1    0    0    0  501 -0.00000000000E+00 -0.00000000000E+00 -0.98089344332E+02  0.98089344332E+02  0.00000000000E+00 0.  1.
         25    2    1    2    0    0 -0.15477938123E+02 -0.27082511054E+01  0.86345042392E+02  0.15280951006E+03  0.12509348035E+03 0.  0.
          5    1    3    3  502    0 -0.28776087445E+02 -0.47477055581E+02  0.89946402382E+02  0.10578261538E+03  0.41800000000E+01 0. -1.
         -5    1    3    3    0  502  0.13298149322E+02  0.44768804476E+02 -0.36013599902E+01  0.47026894682E+02  0.41800000000E+01 0. -1.
        -11    1    1    2    0    0 -0.25771395595E+00  0.38064158694E+02 -0.43176364367E+02  0.57559925586E+02  0.00000000000E+00 0.  1.
         11    1    1    2    0    0  0.15735652079E+02 -0.35355907589E+02  0.11352267686E+02  0.40330198727E+02  0.00000000000E+00 0. -1.
</event>
<event>
 7    1  0.2766180E-009  0.7014449E+02  0.7561462E-02  0.1359602E+00
         -1   -1    0    0    0  501 -0.00000000000E+00  0.00000000000E+00  0.64740331029E+02  0.64740331029E+02  0.00000000000E+00 0. -1.
          1   -1    0    0  501    0  0.00000000000E+00 -0.00000000000E+00 -0.24226869997E+03  0.24226869997E+03  0.00000000000E+00 0.  1.
         25    2    1    2    0    0 -0.30130770764E+01 -0.47178654777E+02 -0.83812642623E+02  0.15782260309E+03  0.12509400818E+03 0.  0.
          5    1    3    3  502    0  0.15410059298E+02 -0.54600458366E+02  0.13457558224E+02  0.58457319942E+02  0.41800000000E+01 0.  1.
         -5    1    3    3    0  502 -0.18423136375E+02  0.74218035892E+01 -0.97270200847E+02  0.99365283149E+02  0.41800000000E+01 0.  1.
        -11    1    1    2    0    0  0.22248560680E+02  0.20796046549E+02  0.16220087152E+02  0.34504568272E+02  0.00000000000E+00 0. -1.
         11    1    1    2    0    0 -0.19235483604E+02  0.26382608228E+02 -0.10993581347E+03  0.11468185964E+03  0.00000000000E+00 0.  1.
</event>
<event>
 7    1  0.2766180E-009  0.1242162E+03  0.7561462E-02  0.1236299E+00
          1   -1    0    0  501    0  0.00000000000E+00  0.00000000000E+00  0.42602619691E+03  0.42602619691E+03  0.00000000000E+00 0. -1.
         -1   -1    0    0    0  501 -0.00000000000E+00 -0.00000000000E+00 -0.45733054472E+02  0.45733054472E+02  0.00000000000E+00 0.  1.
         25    2    1    2    0    0  0.74468232794E+02 -0.47030888839E+02  0.21962977188E+03  0.26765964462E+03  0.12508807481E+03 0.  0.
          5    1    3    3  502    0  0.50861578803E+02 -0.83288135381E+02  0.97446251538E+02  0.13797484565E+03  0.41800000000E+01 0.  1.
         -5    1    3    3    0  502  0.23606653990E+02  0.36257246541E+02  0.12218352034E+03  0.12968479897E+03  0.41800000000E+01 0.  1.
        -11    1    1    2    0    0 -0.69100435116E+02  0.99429930636E+01  0.46342935400E+02  0.83793799924E+02  0.00000000000E+00 0.  1.
         11    1    1    2    0    0 -0.53677976778E+01  0.37087895776E+02  0.11432043515E+03  0.12030580684E+03  0.00000000000E+00 0. -1.
</event>
<event>
 7    1  0.2766180E-009  0.1112527E+03  0.7561462E-02  0.1258267E+00
          3   -1    0    0  501    0  0.00000000000E+00  0.00000000000E+00  0.11596146306E+04  0.11596146306E+04  0.00000000000E+00 0. -1.
         -3   -1    0    0    0  501 -0.00000000000E+00 -0.00000000000E+00 -0.15013822554E+02  0.15013822554E+02  0.00000000000E+00 0.  1.
         25    2    1    2    0    0 -0.61957096848E+02  0.98941221686E+01  0.83338230043E+03  0.84505031942E+03  0.12508960055E+03 0.  0.
          5    1    3    3  502    0 -0.29459150309E+02  0.67419792190E+02  0.42810566368E+03  0.43440211969E+03  0.41800000000E+01 0. -1.
         -5    1    3    3    0  502 -0.32497946539E+02 -0.57525670022E+02  0.40527663675E+03  0.41064819973E+03  0.41800000000E+01 0. -1.
        -11    1    1    2    0    0  0.11608263442E+02  0.20672190696E+02  0.16145772667E+02  0.28684093559E+02  0.00000000000E+00 0.  1.
         11    1    1    2    0    0  0.50348833406E+02 -0.30566312864E+02  0.29507273499E+03  0.30089404022E+03  0.00000000000E+00 0. -1.
</event>
<event>
 7    1  0.2766180E-009  0.8168296E+02  0.7561462E-02  0.1324342E+00
         -1   -1    0    0    0  501 -0.00000000000E+00  0.00000000000E+00  0.53982958460E+02  0.53982958460E+02  0.00000000000E+00 0.  1.
          1   -1    0    0  501    0  0.00000000000E+00 -0.00000000000E+00 -0.26543691328E+03  0.26543691328E+03  0.00000000000E+00 0. -1.
         25    2    1    2    0    0  0.20358058212E+02  0.41682731294E+02 -0.14399101296E+03  0.19629757569E+03  0.12508967098E+03 0.  0.
          5    1    3    3  502    0 -0.12270623306E+02  0.12109907072E+01  0.20194502233E+02  0.24027588627E+02  0.41800000000E+01 0.  1.
         -5    1    3    3    0  502  0.32628681518E+02  0.40471740586E+02 -0.16418551520E+03  0.17226998707E+03  0.41800000000E+01 0.  1.
        -11    1    1    2    0    0 -0.10272331273E+02  0.26940131743E+02 -0.38156963808E+02  0.47825154209E+02  0.00000000000E+00 0. -1.
         11    1    1    2    0    0 -0.10085726939E+02 -0.68622863037E+02 -0.29305978046E+02  0.75297141835E+02  0.00000000000E+00 0.  1.
</event>
<event>
 7    1  0.2766180E-009  0.2779817E+03  0.7561462E-02  0.1096796E+00
          2   -1    0    0  501    0  0.00000000000E+00  0.00000000000E+00  0.74559411092E+02  0.74559411092E+02  0.00000000000E+00 0. -1.
         -2   -1    0    0    0  501 -0.00000000000E+00 -0.00000000000E+00 -0.11202566666E+04  0.11202566666E+04  0.00000000000E+00 0.  1.
         25    2    1    2    0    0  0.17559833296E+03  0.19588669027E+03 -0.43358877134E+03  0.52235228938E+03  0.12508525744E+03 0.  0.
          5    1    3    3  502    0  0.13635713442E+03  0.68827978444E+02 -0.28138248964E+03  0.32019390469E+03  0.41800000000E+01 0. -1.
         -5    1    3    3    0  502  0.39241198543E+02  0.12705871183E+03 -0.15220628170E+03  0.20215838470E+03  0.41800000000E+01 0. -1.
        -11    1    1    2    0    0 -0.15152312269E+03 -0.12889441527E+03 -0.51478159752E+03  0.55188143667E+03  0.00000000000E+00 0. -1.
         11    1    1    2    0    0 -0.24075210273E+02 -0.66992275002E+02 -0.97326886605E+02  0.12058235159E+03  0.00000000000E+00 0.  1.
</event>
<event>
 7    1  0.2766180E-009  0.1027336E+03  0.7561462E-02  0.1274650E+00
          2   -1    0    0  501    0  0.00000000000E+00  0.00000000000E+00  0.77651283865E+03  0.77651283865E+03  0.00000000000E+00 0. -1.
         -2   -1    0    0    0  501 -0.00000000000E+00 -0.00000000000E+00 -0.17189530350E+02  0.17189530350E+02  0.00000000000E+00 0.  1.
         25    2    1    2    0    0  0.61082548339E+00 -0.19548076295E+02  0.56343322228E+03  0.57748337823E+03  0.12509019054E+03 0.  0.
          5    1    3    3  502    0  0.51721983201E+02  0.15113266854E+02  0.38149564881E+03  0.38530504389E+03  0.41800000000E+01 0.  1.
         -5    1    3    3    0  502 -0.51111157718E+02 -0.34661343149E+02  0.18193757346E+03  0.19217833434E+03  0.41800000000E+01 0.  1.
        -11    1    1    2    0    0 -0.40444087644E+02 -0.78216029984E+01  0.11291948645E+03  0.12019863609E+03  0.00000000000E+00 0. -1.
         11    1    1    2    0    0  0.39833262160E+02  0.27369679293E+02  0.82970599578E+02  0.96020354682E+02  0.00000000000E+00 0.  1.
</event>
<event>
 7    1  0.2766180E-009  0.2967088E+03  0.7561462E-02  0.1086898E+00
         -1   -1    0    0    0  501 -0.00000000000E+00  0.00000000000E+00  0.79844087428E+02  0.79844087428E+02  0.00000000000E+00 0.  1.
          1   -1    0    0  501    0  0.00000000000E+00 -0.00000000000E+00 -0.13742259949E+04  0.13742259949E+04  0.00000000000E+00 0. -1.
         25    2    1    2    0    0  0.28596512578E+03 -0.32333632634E+02 -0.92459161401E+03  0.97639072775E+03  0.12509070140E+03 0.  0.
          5    1    3    3  502    0  0.18621874771E+03  0.18048635252E+02 -0.71199040475E+03  0.73617320251E+03  0.41800000000E+01 0.  1.
         -5    1    3    3    0  502  0.99746378064E+02 -0.50382267886E+02 -0.21260120926E+03  0.24021752524E+03  0.41800000000E+01 0.  1.
        -11    1    1    2    0    0 -0.53813597329E+02  0.31389918233E+02 -0.38813219753E+02  0.73400928139E+02  0.00000000000E+00 0.  1.
         11    1    1    2    0    0 -0.23215152845E+03  0.94371440108E+00 -0.33097707366E+03  0.40427842640E+03  0.00000000000E+00 0. -1.
</event>
<event>
 7    1  0.2766180E-009  0.1826873E+03  0.7561462E-02  0.1165227E+00
          3   -1    0    0  501    0  0.00000000000E+00  0.00000000000E+00  0.64601360740E+02  0.64601360740E+02  0.00000000000E+00 0. -1.
         -3   -1    0    0    0  501 -0.00000000000E+00 -0.00000000000E+00 -0.57290522481E+03  0.57290522481E+03  0.00000000000E+00 0.  1.
         25    2    1    2    0    0 -0.14849900173E+03 -0.44827544052E+02 -0.32409791796E+03  0.38045151947E+03  0.12506972463E+03 0.  0.
          5    1    3    3  502    0 -0.41867510134E+02 -0.65267561288E+02 -0.71838552071E+02  0.10578748945E+03  0.41800000000E+01 0. -1.
         -5    1    3    3    0  502 -0.10663149159E+03  0.20440017236E+02 -0.25225936589E+03  0.27466403001E+03  0.41800000000E+01 0. -1.
        -11    1    1    2    0    0  0.63039068708E+02 -0.25883451699E+02 -0.76403845197E+02  0.10237882992E+03  0.00000000000E+00 0.  1.
         11    1    1    2    0    0  0.85459933018E+02  0.70710995750E+02 -0.10780210091E+03  0.15467623616E+03  0.00000000000E+00 0. -1.
</event>
<event>
 7    1  0.2766180E-009  0.1126269E+03  0.7561462E-02  0.1255781E+00
          2   -1    0    0  501    0  0.00000000000E+00  0.00000000000E+00  0.61718398986E+03  0.61718398986E+03  0.00000000000E+00 0. -1.
         -2   -1    0    0    0  501 -0.00000000000E+00 -0.00000000000E+00 -0.23177890091E+02  0.23177890091E+02  0.00000000000E+00 0.  1.
         25    2    1    2    0    0  0.29201928324E+02  0.32206289816E+02  0.26696187879E+03  0.29800496236E+03  0.12509322581E+03 0.  0.
          5    1    3    3  502    0 -0.14363112907E+02 -0.41124259815E+02  0.61293466238E+02  0.75311786336E+02  0.41800000000E+01 0.  1.
         -5    1    3    3    0  502  0.43565041231E+02  0.73330549631E+02  0.20566841255E+03  0.22269317602E+03  0.41800000000E+01 0.  1.
        -11    1    1    2    0    0 -0.17972097957E+01  0.28988857090E+02  0.55308220375E+02  0.62470657427E+02  0.00000000000E+00 0.  1.
         11    1    1    2    0    0 -0.27404718528E+02 -0.61195146905E+02  0.27173600061E+03  0.27988626017E+03  0.00000000000E+00 0. -1.
</event>
<event>
 7    1  0.2766180E-009  0.1434586E+03  0.7561462E-02  0.1208750E+00
          2   -1    0    0  501    0  0.00000000000E+00  0.00000000000E+00  0.20807701278E+03  0.20807701278E+03  0.00000000000E+00 0. -1.
         -2   -1    0    0    0  501 -0.00000000000E+00 -0.00000000000E+00 -0.14719053590E+03  0.14719053590E+03  0.00000000000E+00 0.  1.
         25    2    1    2    0    0 -0.85656234637E+02 -0.10643981811E+03  0.35519468358E+02  0.18862090101E+03  0.12509910572E+03 0.  0.
          5    1    3    3  502    0 -0.84329615078E+02 -0.99048504275E+02 -0.20665424060E+02  0.13178248112E+03  0.41800000000E+01 0.  1.
         -5    1    3    3    0  502 -0.13266195593E+01 -0.73913138394E+01  0.56184892418E+02  0.56838419891E+02  0.41800000000E+01 0.  1.
        -11    1    1    2    0    0  0.76359351109E+02  0.11329093579E+03  0.45022729189E+02  0.14384934055E+03  0.00000000000E+00 0. -1.
         11    1    1    2    0    0  0.92968835276E+01 -0.68511176711E+01 -0.19655720676E+02  0.22797307121E+02  0.00000000000E+00 0.  1.
</event>
<event>
 7    1  0.2766180E-009  0.1235934E+03  0.7561462E-02  0.1237284E+00
          2   -1    0    0  501    0  0.00000000000E+00  0.00000000000E+00  0.19619282722E+02  0.19619282722E+02  0.00000000000E+00 0. -1.
         -2   -1    0    0    0  501 -0.00000000000E+00 -0.00000000000E+00 -0.99958548825E+03  0.99958548825E+03  0.00000000000E+00 0.  1.
         25    2    1    2    0    0 -0.31110904333E+02 -0.75243685736E+02 -0.66050614707E+03  0.67715595513E+03  0.12506924738E+03 0.  0.
          5    1    3    3  502    0 -0.56775039039E+01  0.28243015461E+02 -0.29431144353E+03  0.29574752774E+03  0.41800000000E+01 0. -1.
         -5    1    3    3    0  502 -0.25433400429E+02 -0.10348670120E+03 -0.36619470354E+03  0.38140842738E+03  0.41800000000E+01 0. -1.
        -11    1    1    2    0    0 -0.24644521403E+02  0.34387598660E+02 -0.59181814506E+02  0.72748515759E+02  0.00000000000E+00 0. -1.
         11    1    1    2    0    0  0.55755425736E+02  0.40856087075E+02 -0.26027824395E+03  0.26930030008E+03  0.00000000000E+00 0.  1.
</event>
<event>
 7    1  0.2766180E-009  0.1133503E+03  0.7561462E-02  0.1254488E+00
          4   -1    0    0  501    0  0.00000000000E+00  0.00000000000E+00  0.52218234467E+03  0.52218234467E+03  0.00000000000E+00 0.  1.
         -4   -1    0    0    0  501 -0.00000000000E+00 -0.00000000000E+00 -0.35247700746E+02  0.35247700746E+02  0.00000000000E+00 0. -1.
         25    2    1    2    0    0  0.42199429357E+02  0.65985968326E+02  0.20890509951E+03  0.25578447603E+03  0.12509763276E+03 0.  0.
          5    1    3    3  502    0  0.84281818676E+02  0.62327923162E+02  0.14197890738E+03  0.17653236957E+03  0.41800000000E+01 0. -1.
         -5    1    3    3    0  502 -0.42082389319E+02  0.36580451642E+01  0.66926192134E+02  0.79252106463E+02  0.41800000000E+01 0. -1.
        -11    1    1    2    0    0 -0.13020889795E+02 -0.10786271966E+02  0.22361625350E+00  0.16909678832E+02  0.00000000000E+00 0. -1.
         11    1    1    2    0    0 -0.29178539562E+02 -0.55199696360E+02  0.27780592816E+03  0.28473589055E+03  0.00000000000E+00 0.  1.
</event>
<event>
 7    1  0.2766180E-009  0.1355534E+03  0.7561462E-02  0.1219441E+00
          2   -1    0    0  501    0  0.00000000000E+00  0.00000000000E+00  0.90929840701E+03  0.90929840701E+03  0.00000000000E+00 0. -1.
         -2   -1    0    0    0  501 -0.00000000000E+00 -0.00000000000E+00 -0.28962823797E+02  0.28962823797E+02  0.00000000000E+00 0.  1.
         25    2    1    2    0    0  0.14308278589E+02  0.11860868747E+03  0.50369291754E+03  0.53256615449E+03  0.12508959250E+03 0.  0.
          5    1    3    3  502    0  0.30285546493E+02  0.11733830204E+03  0.24520326824E+03  0.27354635184E+03  0.41800000000E+01 0. -1.
         -5    1    3    3    0  502 -0.15977267904E+02  0.12703854327E+01  0.25848964930E+03  0.25901980265E+03  0.41800000000E+01 0. -1.
        -11    1    1    2    0    0  0.22745331408E+02 -0.57324627605E+02  0.27192564969E+03  0.27883152976E+03  0.00000000000E+00 0. -1.
         11    1    1    2    0    0 -0.37053609997E+02 -0.61284059864E+02  0.10471701599E+03  0.12686354655E+03  0.00000000000E+00 0.  1.
</event>
<event>
 7    1  0.2766180E-009  0.1422738E+03  0.7561462E-02  0.1210302E+00
          1   -1    0    0  501    0  0.00000000000E+00  0.00000000000E+00  0.57529155735E+03  0.57529155735E+03  0.00000000000E+00 0. -1.
         -1   -1    0    0    0  501 -0.00000000000E+00 -0.00000000000E+00 -0.50282445341E+02  0.50282445341E+02  0.00000000000E+00 0.  1.
         25    2    1    2    0    0  0.11827099765E+03 -0.11349210567E+02  0.18242178481E+03  0.25108159966E+03  0.12508968242E+03 0.  0.
          5    1    3    3  502    0  0.13897598693E+03 -0.20726711022E+02  0.17918249208E+03  0.22774494366E+03  0.41800000000E+01 0. -1.
         -5    1    3    3    0  502 -0.20704989280E+02  0.93775004554E+01  0.32392927279E+01  0.23336655999E+02  0.41800000000E+01 0. -1.
        -11    1    1    2    0    0 -0.59511232098E+02  0.16834279565E+02  0.61291261292E+02  0.87072374638E+02  0.00000000000E+00 0.  1.
         11    1    1    2    0    0 -0.58759765549E+02 -0.54850689981E+01  0.28129606591E+03  0.28742002840E+03  0.00000000000E+00 0. -1.
</event>
<event>
 7    1  0.2766180E-009  0.9156652E+02  0.7561462E-02  0.1299102E+00
         -1   -1    0    0    0  501 -0.00000000000E+00  0.00000000000E+00  0.62274544579E+02  0.62274544579E+02  0.00000000000E+00 0.  1.
          1   -1    0    0  501    0  0.00000000000E+00 -0.00000000000E+00 -0.24373230832E+03  0.24373230832E+03  0.00000000000E+00 0. -1.
         25    2    1    2    0    0  0.35667555056E+02 -0.23589491191E+02 -0.15341688686E+03  0.20251820840E+03  0.12509294537E+03 0.  0.
          5    1    3    3  502    0  0.74200875769E+02 -0.37335345039E+02 -0.13234689618E+03  0.15631017651E+03  0.41800000000E+01 0.  1.
         -5    1    3    3    0  502 -0.38533320713E+02  0.13745853848E+02 -0.21069990677E+02  0.46208031881E+02  0.41800000000E+01 0.  1.
        -11    1    1    2    0    0 -0.27245614640E+02 -0.61489495410E+01  0.27962376389E+02  0.39522494745E+02  0.00000000000E+00 0.  1.
         11    1    1    2    0    0 -0.84219404160E+01  0.29738440732E+02 -0.56003253274E+02  0.63966149757E+02  0.00000000000E+00 0. -1.
</event>
<event>
 7    1  0.2766180E-009  0.1298820E+03  0.7561462E-02  0.1227631E+00
         -2   -1    0    0    0  501 -0.00000000000E+00  0.00000000000E+00  0.98262205867E+01  0.98262205867E+01  0.00000000000E+00 0.  1.
          2   -1    0    0  501    0  0.00000000000E+00 -0.00000000000E+00 -0.21624810206E+04  0.21624810206E+04  0.00000000000E+00 0. -1.
         25    2    1    2    0    0  0.74041583207E+02 -0.27619948869E+02 -0.16085456185E+04  0.16153364681E+04  0.12509148974E+03 0.  0.
          5    1    3    3  502    0  0.84915916969E+02 -0.61683374154E+02 -0.13779439391E+04  0.13819415774E+04  0.41800000000E+01 0. -1.
         -5    1    3    3    0  502 -0.10874333762E+02  0.34063425285E+02 -0.23060167945E+03  0.23339489078E+03  0.41800000000E+01 0. -1.
        -11    1    1    2    0    0 -0.94754175603E+02  0.22466229925E+02 -0.43086012183E+03  0.44172789120E+03  0.00000000000E+00 0.  1.
         11    1    1    2    0    0  0.20712592395E+02  0.51537189448E+01 -0.11324905962E+03  0.11524288181E+03  0.00000000000E+00 0. -1.
</event>
<event>
 7    1  0.2766180E-009  0.1867005E+03  0.7561462E-02  0.1161471E+00
         -2   -1    0    0    0  501 -0.00000000000E+00  0.00000000000E+00  0.20768450827E+03  0.20768450827E+03  0.00000000000E+00 0.  1.
          2   -1    0    0  501    0  0.00000000000E+00 -0.00000000000E+00 -0.20365315909E+03  0.20365315909E+03  0.00000000000E+00 0. -1.
         25    2    1    2    0    0  0.33207097724E+02 -0.16933670310E+03 -0.32823396439E+02  0.21564470976E+03  0.12509050780E+03 0.  0.
          5    1    3    3  502    0  0.69227003212E+02 -0.10049046945E+03  0.16957924769E+02  0.12327106731E+03  0.41800000000E+01 0. -1.
         -5    1    3    3    0  502 -0.36019905488E+02 -0.68846233648E+02 -0.49781321207E+02  0.92373642453E+02  0.41800000000E+01 0. -1.
        -11    1    1    2    0    0 -0.35037648334E+02  0.14869583440E+03 -0.73509917628E+00  0.15276985416E+03  0.00000000000E+00 0. -1.
         11    1    1    2    0    0  0.18305506097E+01  0.20640868693E+02  0.37589844798E+02  0.42923103427E+02  0.00000000000E+00 0.  1.
</event>
<event>
 7    1  0.2766180E-009  0.1099524E+03  0.7561462E-02  0.1260658E+00
         -2   -1    0    0    0  501 -0.00000000000E+00  0.00000000000E+00  0.12438419290E+03  0.12438419290E+03  0.00000000000E+00 0.  1.
          2   -1    0    0  501    0  0.00000000000E+00 -0.00000000000E+00 -0.13710686789E+03  0.13710686789E+03  0.00000000000E+00 0. -1.
         25    2    1    2    0    0  0.21555526282E+02 -0.87434494619E+01  0.61781596558E+02  0.14144154464E+03  0.12509059219E+03 0.  0.
          5    1    3    3  502    0  0.62485950149E+02 -0.39881697806E+02  0.26068665054E+02  0.78689843586E+02  0.41800000000E+01 0.  1.
         -5    1    3    3    0  502 -0.40930423868E+02  0.31138248344E+02  0.35712931505E+02  0.62751701049E+02  0.41800000000E+01 0.  1.
        -11    1    1    2    0    0  0.42511524468E+01  0.47395021636E+02 -0.40047279306E+02  0.62194412553E+02  0.00000000000E+00 0. -1.
         11    1    1    2    0    0 -0.25806678729E+02 -0.38651572174E+02 -0.34456992242E+02  0.57855103603E+02  0.00000000000E+00 0.  1.
</event>
<event>
 7    1  0.2766180E-009  0.1049072E+03  0.7561462E-02  0.1270303E+00
          1   -1    0    0  501    0  0.00000000000E+00  0.00000000000E+00  0.18911763536E+02  0.18911763536E+02  0.00000000000E+00 0. -1.
         -1   -1    0    0    0  501 -0.00000000000E+00 -0.00000000000E+00 -0.67046051464E+03  0.67046051464E+03  0.00000000000E+00 0.  1.
         25    2    1    2    0    0 -0.14288330651E+02 -0.24331958203E+02 -0.41024646524E+03  0.42982061458E+03  0.12508955949E+03 0.  0.
          5    1    3    3  502    0 -0.58978307219E+02 -0.44717233070E+02 -0.30052708242E+03  0.30953525053E+03  0.41800000000E+01 0. -1.
         -5    1    3    3    0  502  0.44689976567E+02  0.20385274867E+02 -0.10971938283E+03  0.12028536405E+03  0.41800000000E+01 0. -1.
        -11    1    1    2    0    0 -0.30599228804E+02  0.27829148799E+02 -0.17203723278E+03  0.17693949188E+03  0.00000000000E+00 0.  1.
         11    1    1    2    0    0  0.44887559455E+02 -0.34971905962E+01 -0.69265053082E+02  0.82612171708E+02  0.00000000000E+00 0. -1.
</event>
<event>
 7    1  0.2766180E-009  0.1123225E+03  0.7561462E-02  0.1256328E+00
         -4   -1    0    0    0  501 -0.00000000000E+00  0.00000000000E+00  0.34716106573E+02  0.34716106573E+02  0.00000000000E+00 0.  1.
          4   -1    0    0  501    0  0.00000000000E+00 -0.00000000000E+00 -0.40118241783E+03  0.40118241783E+03  0.00000000000E+00 0. -1.
         25    2    1    2    0    0  0.73633118615E+01 -0.22938417723E+02 -0.14076645057E+03  0.18984985206E+03  0.12508950137E+03 0.  0.
          5    1    3    3  502    0  0.16851799162E+02  0.50078917939E+02 -0.49637011447E+02  0.72616709250E+02  0.41800000000E+01 0.  1.
         -5    1    3    3    0  502 -0.94884873008E+01 -0.73017335662E+02 -0.91129439120E+02  0.11723314281E+03  0.41800000000E+01 0.  1.
        -11    1    1    2    0    0  0.41322424654E+02  0.26477699316E+02 -0.11828641156E+03  0.12806360334E+03  0.00000000000E+00 0. -1.
         11    1    1    2    0    0 -0.48685736516E+02 -0.35392815933E+01 -0.10741344912E+03  0.11798506900E+03  0.00000000000E+00 0.  1.
</event>
<event>
 7    1  0.2766180E-009  0.1020075E+03  0.7561462E-02  0.1276130E+00
         -1   -1    0    0    0  501 -0.00000000000E+00  0.00000000000E+00  0.32175324759E+02  0.32175324759E+02  0.00000000000E+00 0.  1.
          1   -1    0    0  501    0  0.00000000000E+00 -0.00000000000E+00 -0.69250401469E+03  0.69250401469E+03  0.00000000000E+00 0. -1.
         25    2    1    2    0    0 -0.32192378084E+02 -0.87514119020E+02 -0.46693781607E+03  0.49231826265E+03  0.12510506558E+03 0.  0.
          5    1    3    3  502    0 -0.40383998099E+02 -0.80603857358E+02 -0.47141342178E+03  0.47997493242E+03  0.41800000000E+01 0.  1.
         -5    1    3    3    0  502  0.81916200145E+01 -0.69102616625E+01  0.44756057089E+01  0.12343330230E+02  0.41800000000E+01 0.  1.
        -11    1    1    2    0    0 -0.58959265206E+01  0.44158335586E+02 -0.18577819194E+02  0.48268581057E+02  0.00000000000E+00 0.  1.
         11    1    1    2    0    0  0.38088304605E+02  0.43355783434E+02 -0.17481305467E+03  0.18409249574E+03  0.00000000000E+00 0. -1.
</event>
<event>
 7    1  0.2766180E-009  0.1843762E+03  0.7561462E-02  0.1163634E+00
          2   -1    0    0  501    0  0.00000000000E+00  0.00000000000E+00  0.12213543051E+04  0.12213543051E+04  0.00000000000E+00 0. -1.
         -2   -1    0    0    0  501 -0.00000000000E+00 -0.00000000000E+00 -0.44558646912E+02  0.44558646912E+02  0.00000000000E+00 0.  1.
         25    2    1    2    0    0  0.16491272257E+03 -0.70519998313E+01  0.93853463716E+03  0.96111479256E+03  0.12509373508E+03 0.  0.
          5    1    3    3  502    0  0.77558573174E+02  0.56011165473E+02  0.53059267356E+03  0.53916476199E+03  0.41800000000E+01 0. -1.
         -5    1    3    3    0  502  0.87354149398E+02 -0.63063165304E+02  0.40794196360E+03  0.42195003058E+03  0.41800000000E+01 0. -1.
        -11    1    1    2    0    0 -0.13054851371E+03  0.80123399694E+01  0.10662839481E+03  0.16875048624E+03  0.00000000000E+00 0.  1.
         11    1    1    2    0    0 -0.34364208860E+02 -0.96034013814E+00  0.13163262621E+03  0.13604767322E+03  0.00000000000E+00 0. -1.
</event>
<event>
 7    1  0.2766180E-009  0.1071865E+03  0.7561462E-02  0.1265871E+00
         -1   -1    0    0    0  501 -0.00000000000E+00  0.00000000000E+00  0.67666940825E+02  0.67666940825E+02  0.00000000000E+00 0.  1.
          1   -1    0    0  501    0  0.00000000000E+00 -0.00000000000E+00 -0.27529848001E+03  0.27529848001E+03  0.00000000000E+00 0. -1.
         25    2    1    2    0    0 -0.40013871510E+02 -0.64474394760E+02 -0.15487433742E+03  0.21305301882E+03  0.12508985149E+03 0.  0.
          5    1    3    3  502    0 -0.18043719875E+02  0.12039074215E+02  0.14108725536E+02  0.26211517910E+02  0.41800000000E+01 0. -1.
         -5    1    3    3    0  502 -0.21970151634E+02 -0.76513468975E+02 -0.16898306296E+03  0.18684150091E+03  0.41800000000E+01 0. -1.
        -11    1    1    2    0    0  0.67845101837E+01  0.76819988496E+02 -0.54480796253E+02  0.94421911500E+02  0.00000000000E+00 0. -1.
         11    1    1    2    0    0  0.33229361326E+02 -0.12345593736E+02  0.17235944882E+01  0.35490490512E+02  0.00000000000E+00 0.  1.
</event>
<event>
 7    1  0.2766180E-009  0.1486478E+03  0.7561462E-02  0.1202145E+00
         -2   -1    0    0    0  501 -0.00000000000E+00  0.00000000000E+00  0.17896837130E+02  0.17896837130E+02  0.00000000000E+00 0.  1.
          2   -1    0    0  501    0  0.00000000000E+00 -0.00000000000E+00 -0.13259672188E+04  0.13259672188E+04  0.00000000000E+00 0. -1.
         25    2    1    2    0    0  0.79438013875E+02  0.72998318454E+02 -0.80564409203E+03  0.82240339015E+03  0.12508309464E+03 0.  0.
          5    1    3    3  502    0  0.56435737817E+02 -0.21355867505E+02 -0.43667211889E+03  0.44084132905E+03  0.41800000000E+01 0.  1.
         -5    1    3    3    0  502  0.23002276058E+02  0.94354185958E+02 -0.36897197314E+03  0.38156206111E+03  0.41800000000E+01 0.  1.
        -11    1    1    2    0    0 -0.97494855869E+02 -0.72572797006E+02 -0.43676493254E+03  0.45336041300E+03  0.00000000000E+00 0. -1.
         11    1    1    2    0    0  0.18056841994E+02 -0.42552144752E+00 -0.65661357115E+02  0.68100252786E+02  0.00000000000E+00 0.  1.
</event>
<event>
 7    1  0.2766180E-009  0.9937345E+02  0.7561462E-02  0.1281619E+00
         -2   -1    0    0    0  501 -0.00000000000E+00  0.00000000000E+00  0.94373709307E+01  0.94373709307E+01  0.00000000000E+00 0.  1.
          2   -1    0    0  501    0  0.00000000000E+00 -0.00000000000E+00 -0.15325114311E+04  0.15325114311E+04  0.00000000000E+00 0. -1.
         25    2    1    2    0    0  0.59386746228E+02  0.16972287621E+02 -0.13567632650E+04  0.13639171079E+04  0.12509386723E+03 0.  0.
          5    1    3    3  502    0 -0.35754736885E+02 -0.10777520112E+02 -0.26398178500E+03  0.26664285357E+03  0.41800000000E+01 0. -1.
         -5    1    3    3    0  502  0.95141483113E+02  0.27749807733E+02 -0.10927814800E+04  0.10972742543E+04  0.41800000000E+01 0. -1.
        -11    1    1    2    0    0 -0.12723419550E+02 -0.58589543685E+01 -0.23255345248E+02  0.27148182885E+02  0.00000000000E+00 0. -1.
         11    1    1    2    0    0 -0.46663326677E+02 -0.11113333252E+02 -0.14305544989E+03  0.15088351127E+03  0.00000000000E+00 0.  1.
</event>
<event>
 7    1  0.2766180E-009  0.1613912E+03  0.7561462E-02  0.1187135E+00
          2   -1    0    0  501    0  0.00000000000E+00  0.00000000000E+00  0.78266526010E+02  0.78266526010E+02  0.00000000000E+00 0. -1.
         -2   -1    0    0    0  501 -0.00000000000E+00 -0.00000000000E+00 -0.55329422895E+03  0.55329422895E+03  0.00000000000E+00 0.  1.
         25    2    1    2    0    0 -0.57346132772E+02  0.12390286707E+03 -0.75426161152E+02  0.19994189932E+03  0.12508860021E+03 0.  0.
          5    1    3    3  502    0  0.37997683926E+02  0.42309959816E+02 -0.39421625118E+02  0.69321667683E+02  0.41800000000E+01 0. -1.
         -5    1    3    3    0  502 -0.95343816698E+02  0.81592907259E+02 -0.36004536033E+02  0.13062023164E+03  0.41800000000E+01 0. -1.
        -11    1    1    2    0    0  0.17076809668E+02 -0.74664877860E+02 -0.10347751993E+03  0.12874027553E+03  0.00000000000E+00 0. -1.
         11    1    1    2    0    0  0.40269323104E+02 -0.49237989214E+02 -0.29612402186E+03  0.30287858010E+03  0.00000000000E+00 0.  1.
</event>
<event>
 7    1  0.2766180E-009  0.1058051E+03  0.7561462E-02  0.1268541E+00
         -1   -1    0    0    0  501 -0.00000000000E+00  0.00000000000E+00  0.71039478317E+02  0.71039478317E+02  0.00000000000E+00 0.  1.
          1   -1    0    0  501    0  0.00000000000E+00 -0.00000000000E+00 -0.28291877969E+03  0.28291877969E+03  0.00000000000E+00 0. -1.
         25    2    1    2    0    0  0.68078361475E+01  0.73447165505E+02 -0.18530029251E+03  0.23542610171E+03  0.12509363777E+03 0.  0.
          5    1    3    3  502    0 -0.10165048423E+02 -0.24452199913E+02 -0.19962017500E+01  0.26882996697E+02  0.41800000000E+01 0.  1.
         -5    1    3    3    0  502  0.16972884570E+02  0.97899365417E+02 -0.18330409076E+03  0.20854310502E+03  0.41800000000E+01 0.  1.
        -11    1    1    2    0    0 -0.20163150860E+02 -0.14304294945E+02  0.27718493079E+02  0.37141356532E+02  0.00000000000E+00 0.  1.
         11    1    1    2    0    0  0.13355314713E+02 -0.59142870560E+02 -0.54297501942E+02  0.81390799764E+02  0.00000000000E+00 0. -1.
</event>
<event>
 7    1  0.2766180E-009  0.1046301E+03  0.7561462E-02  0.1270850E+00
          2   -1    0    0  501    0  0.00000000000E+00  0.00000000000E+00  0.83590304576E+02  0.83590304576E+02  0.00000000000E+00 0. -1.
         -2   -1    0    0    0  501 -0.00000000000E+00 -0.00000000000E+00 -0.20444785744E+03  0.20444785744E+03  0.00000000000E+00 0.  1.
         25    2    1    2    0    0  0.53476990399E+02  0.11729899106E+02 -0.14834734355E+02  0.13734869233E+03  0.12508882806E+03 0.  0.
          5    1    3    3  502    0 -0.16934660664E+02 -0.24802672473E+02  0.32846072645E+02  0.44702261484E+02  0.41800000000E+01 0.  1.
         -5    1    3    3    0  502  0.70411651063E+02  0.36532571578E+02 -0.47680807000E+02  0.92646430842E+02  0.41800000000E+01 0.  1.
        -11    1    1    2    0    0 -0.26156893001E+02 -0.47660126194E+02 -0.29520138038E+02  0.61863634148E+02  0.00000000000E+00 0. -1.
         11    1    1    2    0    0 -0.27320097399E+02  0.35930227088E+02 -0.76502680471E+02  0.88825835542E+02  0.00000000000E+00 0.  1.
</event>
<event>
 7    1  0.3039535E-009  0.9721424E+02  0.7561462E-02  0.1286266E+00
         -2   -1    0    0    0  501 -0.00000000000E+00  0.00000000000E+00  0.60722358016E+02  0.60722358016E+02  0.00000000000E+00 0.  1.
          2   -1    0    0  501    0  0.00000000000E+00 -0.00000000000E+00 -0.40584413847E+03  0.40584413847E+03  0.00000000000E+00 0. -1.
         25    2    1    2    0    0 -0.61809535006E+02 -0.31968510126E+02 -0.31734208762E+03  0.34813422532E+03  0.12509609909E+03 0.  0.
          5    1    3    3  502    0  0.25676581029E+02 -0.56176451141E+01 -0.18710588186E+03  0.18898922767E+03  0.41800000000E+01 0.  1.
         -5    1    3    3    0  502 -0.87486116035E+02 -0.26350865012E+02 -0.13023620577E+03  0.15914499765E+03  0.41800000000E+01 0.  1.
        -11    1    1    2    0    0  0.17382397372E+02 -0.55009016220E+01  0.30877669833E+02  0.35858585463E+02  0.00000000000E+00 0.  1.
         11    1    1    2    0    0  0.44427137634E+02  0.37469411748E+02 -0.58657362661E+02  0.82573685696E+02  0.00000000000E+00 0. -1.
</event>
<event>
 7    1  0.2766180E-009  0.8520901E+02  0.7561462E-02  0.1314887E+00
         -2   -1    0    0    0  501 -0.00000000000E+00  0.00000000000E+00  0.19167531319E+03  0.19167531319E+03  0.00000000000E+00 0.  1.
          2   -1    0    0  501    0  0.00000000000E+00 -0.00000000000E+00 -0.68935849522E+02  0.68935849522E+02  0.00000000000E+00 0. -1.
         25    2    1    2    0    0 -0.10152446077E+02 -0.21644756491E+02  0.40940350355E+02  0.13377298003E+03  0.12509008855E+03 0.  0.
          5    1    3    3  502    0 -0.49241119425E+02 -0.27612795227E+02 -0.20822733389E+02  0.60317600485E+02  0.41800000000E+01 0.  1.
         -5    1    3    3    0  502  0.39088673348E+02  0.59680387354E+01  0.61763083744E+02  0.73455379545E+02  0.41800000000E+01 0.  1.
        -11    1    1    2    0    0 -0.30097817472E+02  0.13470451912E+02  0.79076313366E+02  0.85676105344E+02  0.00000000000E+00 0.  1.
         11    1    1    2    0    0  0.40250263549E+02  0.81743045793E+01  0.27227999463E+01  0.41162077337E+02  0.00000000000E+00 0. -1.
</event>
<event>
 7    1  0.2766180E-009  0.9921495E+02  0.7561462E-02  0.1281956E+00
         -1   -1    0    0    0  501 -0.00000000000E+00  0.00000000000E+00  0.31070345573E+03  0.31070345573E+03  0.00000000000E+00 0.  1.
          1   -1    0    0  501    0  0.00000000000E+00 -0.00000000000E+00 -0.53465047197E+02  0.53465047197E+02  0.00000000000E+00 0. -1.
         25    2    1    2    0    0 -0.15745745353E+02  0.53955278348E+02  0.84130983694E+02  0.16088932276E+03  0.12509297024E+03 0.  0.
          5    1    3    3  502    0 -0.67896455311E+02  0.26506330555E+02  0.24658505332E+02  0.77058604247E+02  0.41800000000E+01 0. -1.
         -5    1    3    3    0  502  0.52150709958E+02  0.27448947793E+02  0.59472478363E+02  0.83830718514E+02  0.41800000000E+01 0. -1.
        -11    1    1    2    0    0 -0.10637452355E+02 -0.25001365055E+02  0.14498228552E+01  0.27208925623E+02  0.00000000000E+00 0. -1.
         11    1    1    2    0    0  0.26383197708E+02 -0.28953913293E+02  0.17165760198E+03  0.17607025454E+03  0.00000000000E+00 0.  1.
</event>
<event>
 7    1  0.2766180E-009  0.1235945E+03  0.7561462E-02  0.1237282E+00
          2   -1    0    0  501    0  0.00000000000E+00  0.00000000000E+00  0.54469756637E+03  0.54469756637E+03  0.00000000000E+00 0.  1.
         -2   -1    0    0    0  501 -0.00000000000E+00 -0.00000000000E+00 -0.31021889553E+02  0.31021889553E+02  0.00000000000E+00 0. -1.
         25    2    1    2    0    0 -0.50095445434E+02  0.46465487023E+02  0.34032845400E+03  0.36897037521E+03  0.12508831297E+03 0.  0.
          5    1    3    3  502    0 -0.55845374330E+01  0.81076930862E+02  0.15299004947E+03  0.17328613162E+03  0.41800000000E+01 0. -1.
         -5    1    3    3    0  502 -0.44510908001E+02 -0.34611443839E+02  0.18733840453E+03  0.19568424359E+03  0.41800000000E+01 0. -1.
        -11    1    1    2    0    0 -0.24151892479E+02 -0.67784723109E+01  0.21117408147E+02  0.32790341932E+02  0.00000000000E+00 0. -1.
         11    1    1    2    0    0  0.74247337913E+02 -0.39687014712E+02  0.15222981467E+03  0.17395873878E+03  0.00000000000E+00 0.  1.
</event>
<event>
 7    1  0.2766180E-009  0.8884355E+02  0.7561462E-02  0.1305677E+00
          2   -1    0    0  501    0  0.00000000000E+00  0.00000000000E+00  0.43719709961E+03  0.43719709961E+03  0.00000000000E+00 0. -1.
         -2   -1    0    0    0  501 -0.00000000000E+00 -0.00000000000E+00 -0.31326942622E+02  0.31326942622E+02  0.00000000000E+00 0.  1.
         25    2    1    2    0    0 -0.43984889858E+02 -0.26338066172E+01  0.24038361298E+03  0.27454097712E+03  0.12508740646E+03 0.  0.
          5    1    3    3  502    0  0.19987306880E+02  0.27794758864E+02  0.17394201650E+03  0.17732833547E+03  0.41800000000E+01 0.  1.
         -5    1    3    3    0  502 -0.63972196739E+02 -0.30428565481E+02  0.66441596475E+02  0.97212641642E+02  0.41800000000E+01 0.  1.
        -11    1    1    2    0    0  0.56586353649E+02 -0.60821597373E+01  0.16894680677E+03  0.17827515700E+03  0.00000000000E+00 0. -1.
         11    1    1    2    0    0 -0.12601463791E+02  0.87159663545E+01 -0.34602627554E+01  0.15707908120E+02  0.00000000000E+00 0.  1.
</event>
<event>
 7    1  0.2766180E-009  0.1289289E+03  0.7561462E-02  0.1229054E+00
          1   -1    0    0  501    0  0.00000000000E+00  0.00000000000E+00  0.74543431507E+03  0.74543431507E+03  0.00000000000E+00 0.  1.
         -1   -1    0    0    0  501 -0.00000000000E+00 -0.00000000000E+00 -0.28014639369E+02  0.28014639369E+02  0.00000000000E+00 0. -1.
         25    2    1    2    0    0  0.33872538133E+01 -0.91080591325E+02  0.46887438047E+03  0.49376058468E+03  0.12509669345E+03 0.  0.
          5    1    3    3  502    0  0.37741401394E+02 -0.31862482359E+01  0.42646145074E+02  0.57190310776E+02  0.41800000000E+01 0. -1.
         -5    1    3    3    0  502 -0.34354147581E+02 -0.87894343090E+02  0.42622823540E+03  0.43657027390E+03  0.41800000000E+01 0. -1.
        -11    1    1    2    0    0  0.30656020736E+02  0.85452052567E+02  0.15064987068E+03  0.17588981901E+03  0.00000000000E+00 0.  1.
         11    1    1    2    0    0 -0.34043274549E+02  0.56285387586E+01  0.97895424551E+02  0.10379855075E+03  0.00000000000E+00 0. -1.
</event>
<event>
 7    1  0.2766180E-009  0.2719667E+03  0.7561462E-02  0.1100159E+00
         -2   -1    0    0    0  501 -0.00000000000E+00  0.00000000000E+00  0.31232445070E+02  0.31232445070E+02  0.00000000000E+00 0.  1.
          2   -1    0    0  501    0  0.00000000000E+00 -0.00000000000E+00 -0.23980408349E+04  0.23980408349E+04  0.00000000000E+00 0. -1.
         25    2    1    2    0    0 -0.73647337023E+02 -0.23844099451E+03 -0.11012877869E+04  0.11361162930E+04  0.12508958134E+03 0.  0.
          5    1    3    3  502    0 -0.71809368085E+02 -0.43471334688E+02 -0.34440628094E+03  0.35451304776E+03  0.41800000000E+01 0.  1.
         -5    1    3    3    0  502 -0.18379689387E+01 -0.19496965982E+03 -0.75688150601E+03  0.78160324521E+03  0.41800000000E+01 0.  1.
        -11    1    1    2    0    0  0.16162091891E+02  0.18707767818E+03 -0.84278521497E+03  0.86345016617E+03  0.00000000000E+00 0.  1.
         11    1    1    2    0    0  0.57485245132E+02  0.51363316326E+02 -0.42273538789E+03  0.42970682080E+03  0.00000000000E+00 0. -1.
</event>
<event>
 7    1  0.2766180E-009  0.1214519E+03  0.7561462E-02  0.1240721E+00
          4   -1    0    0  501    0  0.00000000000E+00  0.00000000000E+00  0.34319997629E+03  0.34319997629E+03  0.00000000000E+00 0. -1.
         -4   -1    0    0    0  501 -0.00000000000E+00 -0.00000000000E+00 -0.49209280449E+02  0.49209280449E+02  0.00000000000E+00 0.  1.
         25    2    1    2    0    0  0.18542598267E+02 -0.63107821748E+02  0.21425488995E+03  0.25666712957E+03  0.12508570030E+03 0.  0.
          5    1    3    3  502    0 -0.35282665679E+02 -0.77654867043E+02  0.12760495809E+03  0.15354361791E+03  0.41800000000E+01 0.  1.
         -5    1    3    3    0  502  0.53825263946E+02  0.14547045295E+02  0.86649931862E+02  0.10312351166E+03  0.41800000000E+01 0.  1.
        -11    1    1    2    0    0 -0.48824231533E+02  0.44440634746E+02  0.25276995547E+02  0.70694427682E+02  0.00000000000E+00 0.  1.
         11    1    1    2    0    0  0.30281633266E+02  0.18667187002E+02  0.54458810342E+02  0.65047699480E+02  0.00000000000E+00 0. -1.
</event>
<event>
 7    1  0.3107830E-009  0.1084747E+03  0.7561462E-02  0.1263421E+00
          2   -1    0    0  501    0  0.00000000000E+00  0.00000000000E+00  0.47174368529E+03  0.47174368529E+03  0.00000000000E+00 0. -1.
         -2   -1    0    0    0  501 -0.00000000000E+00 -0.00000000000E+00 -0.47255447598E+02  0.47255447598E+02  0.00000000000E+00 0.  1.
         25    2    1    2    0    0 -0.94240182423E+02 -0.46515245876E+01  0.16247086127E+03  0.22571596289E+03  0.12509223187E+03 0.  0.
          5    1    3    3  502    0 -0.23064693758E+02 -0.32658575437E+02 -0.60023649606E+01  0.40645583190E+02  0.41800000000E+01 0. -1.
         -5    1    3    3    0  502 -0.71175488665E+02  0.28007050849E+02  0.16847322623E+03  0.18507037970E+03  0.41800000000E+01 0. -1.
        -11    1    1    2    0    0  0.57217639757E+02  0.19223739397E+02  0.24068409368E+03  0.24813754937E+03  0.00000000000E+00 0. -1.
         11    1    1    2    0    0  0.37022542665E+02 -0.14572214810E+02  0.21333282739E+02  0.45145620633E+02  0.00000000000E+00 0.  1.
</event>
<event>
 7    1  0.2766180E-009  0.1193166E+03  0.7561462E-02  0.1244229E+00
          1   -1    0    0  501    0  0.00000000000E+00  0.00000000000E+00  0.11915171031E+03  0.11915171031E+03  0.00000000000E+00 0. -1.
         -1   -1    0    0    0  501 -0.00000000000E+00 -0.00000000000E+00 -0.16560093487E+03  0.16560093487E+03  0.00000000000E+00 0.  1.
         25    2    1    2    0    0  0.86953746027E+02  0.14847692648E+02 -0.87610970676E+01  0.15331502337E+03  0.12508929468E+03 0.  0.
          5    1    3    3  502    0  0.10320538834E+03  0.95325398759E+01  0.32298780200E+02  0.10864117590E+03  0.41800000000E+01 0. -1.
         -5    1    3    3    0  502 -0.16251642310E+02  0.53151527721E+01 -0.41059877268E+02  0.44673847473E+02  0.41800000000E+01 0. -1.
        -11    1    1    2    0    0 -0.20620044379E+02  0.30595453372E+02 -0.35198796021E+02  0.50992384124E+02  0.00000000000E+00 0.  1.
         11    1    1    2    0    0 -0.66333701648E+02 -0.45443146020E+02 -0.24893314665E+01  0.80445237682E+02  0.00000000000E+00 0. -1.
</event>
<event>
 6    1  0.2766180E-009  0.1907871E+03  0.7561462E-02  0.1157753E+00
         -2   -1    0    0    0  501 -0.00000000000E+00  0.00000000000E+00  0.18035032610E+03  0.18035032610E+03  0.00000000000E+00 0. -1.
          2   -1    0    0  501    0  0.00000000000E+00 -0.00000000000E+00 -0.23530201769E+03  0.23530201769E+03  0.00000000000E+00 0.  1.
          5    1    1    2  502    0 -0.58538601602E+02  0.12939774820E+02  0.89046199791E+01  0.60753356343E+02  0.41800000000E+01 0.  1.
         -5    1    1    2    0  502 -0.69704514828E+01  0.14698934195E+03 -0.57308180423E+02  0.15797516825E+03  0.41800000000E+01 0.  1.
        -11    1    1    2    0    0  0.52477660085E+02 -0.99996722345E+02  0.40130315357E+02  0.11984861909E+03  0.00000000000E+00 0. -1.
         11    1    1    2    0    0  0.13031393000E+02 -0.59932394421E+02 -0.46678446502E+02  0.77075200112E+02  0.00000000000E+00 0.  1.
</event>
<event>
 7    1  0.2808407E-009  0.1286009E+03  0.7561462E-02  0.1229547E+00
          1   -1    0    0  501    0  0.00000000000E+00  0.00000000000E+00  0.48738566481E+03  0.48738566481E+03  0.00000000000E+00 0. -1.
         -1   -1    0    0    0  501 -0.00000000000E+00 -0.00000000000E+00 -0.45502098855E+02  0.45502098855E+02  0.00000000000E+00 0.  1.
         25    2    1    2    0    0  0.97809286749E+02 -0.19424756258E+02  0.20068779284E+03  0.25667073308E+03  0.12514110955E+03 0.  0.
          5    1    3    3  502    0 -0.26013499158E+02  0.12119278073E+02  0.19606977484E+02  0.35006927965E+02  0.41800000000E+01 0. -1.
         -5    1    3    3    0  502  0.12382278591E+03 -0.31544034332E+02  0.18108081535E+03  0.22166380512E+03  0.41800000000E+01 0. -1.
        -11    1    1    2    0    0 -0.66581940960E+02  0.78135756537E+01  0.54008146344E+02  0.86087668676E+02  0.00000000000E+00 0.  1.
         11    1    1    2    0    0 -0.31227345789E+02  0.11611180605E+02  0.18718762678E+03  0.19012936191E+03  0.00000000000E+00 0. -1.
</event>
<event>
 7    1  0.2766180E-009  0.1214148E+03  0.7561462E-02  0.1240781E+00
         -2   -1    0    0    0  501 -0.00000000000E+00  0.00000000000E+00  0.24626698135E+03  0.24626698135E+03  0.00000000000E+00 0.  1.
          2   -1    0    0  501    0  0.00000000000E+00 -0.00000000000E+00 -0.61908106455E+02  0.61908106455E+02  0.00000000000E+00 0. -1.
         25    2    1    2    0    0 -0.53159892677E+02  0.23172364834E+02  0.95791057000E+02  0.16788874976E+03  0.12509105889E+03 0.  0.
          5    1    3    3  502    0  0.36233513391E+02 -0.13207618567E+02  0.42578000070E+02  0.57599194186E+02  0.41800000000E+01 0.  1.
         -5    1    3    3    0  502 -0.89393406068E+02  0.36379983401E+02  0.53213056929E+02  0.11028955557E+03  0.41800000000E+01 0.  1.
        -11    1    1    2    0    0  0.79023671420E+02 -0.18331807241E+02  0.56770096491E+02  0.99013330703E+02  0.00000000000E+00 0.  1.
         11    1    1    2    0    0 -0.25863778743E+02 -0.48405575934E+01  0.31797721404E+02  0.41273007343E+02  0.00000000000E+00 0. -1.
</event>
<event>
 7    1  0.2766180E-009  0.3740447E+03  0.7561462E-02  0.1053157E+00
         -2   -1    0    0    0  501 -0.00000000000E+00  0.00000000000E+00  0.36149376472E+02  0.36149376472E+02  0.00000000000E+00 0.  1.
          2   -1    0    0  501    0  0.00000000000E+00 -0.00000000000E+00 -0.51550381587E+04  0.51550381587E+04  0.00000000000E+00 0. -1.
         25    2    1    2    0    0 -0.29186728531E+03  0.22858572756E+03 -0.37262504583E+04  0.37467355727E+04  0.12508807608E+03 0.  0.
          5    1    3    3  502    0 -0.13711257377E+03  0.13234716104E+03 -0.13338782164E+04  0.13474287356E+04  0.41800000000E+01 0.  1.
         -5    1    3    3    0  502 -0.15475471154E+03  0.96238566520E+02 -0.23923722419E+04  0.23993068371E+04  0.41800000000E+01 0.  1.
        -11    1    1    2    0    0  0.16534709594E+03 -0.92850565529E+02 -0.55486639318E+03  0.58637667411E+03  0.00000000000E+00 0.  1.
         11    1    1    2    0    0  0.12652018937E+03 -0.13573516203E+03 -0.83777193072E+03  0.85807528832E+03  0.00000000000E+00 0. -1.
</event>
<event>
 7    1  0.2766180E-009  0.2559697E+03  0.7561462E-02  0.1109589E+00
         -2   -1    0    0    0  501 -0.00000000000E+00  0.00000000000E+00  0.11698987225E+03  0.11698987225E+03  0.00000000000E+00 0.  1.
          2   -1    0    0  501    0  0.00000000000E+00 -0.00000000000E+00 -0.65809093571E+03  0.65809093571E+03  0.00000000000E+00 0. -1.
         25    2    1    2    0    0  0.19072886749E+02  0.24553336103E+03 -0.18410710673E+03  0.33195362121E+03  0.12508946198E+03 0.  0.
          5    1    3    3  502    0 -0.18143548228E+02  0.14755639357E+03 -0.40541822231E+02  0.15415313612E+03  0.41800000000E+01 0.  1.
         -5    1    3    3    0  502  0.37216434978E+02  0.97976967458E+02 -0.14356528450E+03  0.17780048509E+03  0.41800000000E+01 0.  1.
        -11    1    1    2    0    0  0.23518200581E+02 -0.16991281396E+03 -0.19784316674E+03  0.26184993552E+03  0.00000000000E+00 0.  1.
         11    1    1    2    0    0 -0.42591087331E+02 -0.75620547063E+02 -0.15915079000E+03  0.18127725123E+03  0.00000000000E+00 0. -1.
</event>
<event>
 7    1  0.2766180E-009  0.1327007E+03  0.7561462E-02  0.1223503E+00
          2   -1    0    0  501    0  0.00000000000E+00  0.00000000000E+00  0.78457167002E+03  0.78457167002E+03  0.00000000000E+00 0.  1.
         -2   -1    0    0    0  501 -0.00000000000E+00 -0.00000000000E+00 -0.31573013910E+02  0.31573013910E+02  0.00000000000E+00 0. -1.
         25    2    1    2    0    0  0.45435739179E+02  0.10246307518E+03  0.35606992907E+03  0.39369523285E+03  0.12508818411E+03 0.  0.
          5    1    3    3  502    0  0.66788016624E+02  0.38531320035E+02  0.28655857130E+03  0.29678037161E+03  0.41800000000E+01 0. -1.
         -5    1    3    3    0  502 -0.21352277445E+02  0.63931755149E+02  0.69511357770E+02  0.96914861231E+02  0.41800000000E+01 0. -1.
        -11    1    1    2    0    0 -0.54143527635E+02 -0.94165530776E+02  0.39572420962E+03  0.41036120534E+03  0.00000000000E+00 0.  1.
         11    1    1    2    0    0  0.87077884557E+01 -0.82975444084E+01  0.12045174208E+01  0.12088245746E+02  0.00000000000E+00 0. -1.
</event>
<event>
 7    1  0.2766180E-009  0.1212226E+03  0.7561462E-02  0.1241094E+00
         -2   -1    0    0    0  501 -0.00000000000E+00  0.00000000000E+00  0.56838352979E+02  0.56838352979E+02  0.00000000000E+00 0. -1.
          2   -1    0    0  501    0  0.00000000000E+00 -0.00000000000E+00 -0.29503720203E+03  0.29503720203E+03  0.00000000000E+00 0.  1.
         25    2    1    2    0    0  0.23799572751E+02 -0.48584746207E+02 -0.71682344186E+02  0.15399112693E+03  0.12509201204E+03 0.  0.
          5    1    3    3  502    0  0.43656414105E+02 -0.84216783222E+02 -0.45052549917E+02  0.10509782930E+03  0.41800000000E+01 0. -1.
         -5    1    3    3    0  502 -0.19856841354E+02  0.35632037015E+02 -0.26629794269E+02  0.48893297631E+02  0.41800000000E+01 0. -1.
        -11    1    1    2    0    0 -0.37658329637E+02 -0.15646339767E+02 -0.72491419805E+02  0.83174297018E+02  0.00000000000E+00 0.  1.
         11    1    1    2    0    0  0.13858756886E+02  0.64231085975E+02 -0.94025085058E+02  0.11471013106E+03  0.00000000000E+00 0. -1.
</event>
<event>
 7    1  0.2766180E-009  0.6841626E+02  0.7561462E-02  0.1365563E+00
         -2   -1    0    0    0  501 -0.00000000000E+00  0.00000000000E+00  0.10656191730E+03  0.10656191730E+03  0.00000000000E+00 0.  1.
          2   -1    0    0  501    0  0.00000000000E+00 -0.00000000000E+00 -0.14804094117E+03  0.14804094117E+03  0.00000000000E+00 0. -1.
         25    2    1    2    0    0 -0.11213037078E+01  0.42397557137E+02  0.24561785583E+02  0.13434642377E+03  0.12508744979E+03 0.  0.
          5    1    3    3  502    0 -0.35622888314E+02  0.10259576684E+02  0.63102320297E+02  0.73305008781E+02  0.41800000000E+01 0.  1.
         -5    1    3    3    0  502  0.34501584606E+02  0.32137980453E+02 -0.38540534714E+02  0.61041414990E+02  0.41800000000E+01 0.  1.
        -11    1    1    2    0    0  0.15635306112E+02 -0.18402947539E+02  0.18990145739E+02  0.30720626793E+02  0.00000000000E+00 0.  1.
         11    1    1    2    0    0 -0.14514002404E+02 -0.23994609598E+02 -0.85030955198E+02  0.89535807906E+02  0.00000000000E+00 0. -1.
</event>
<event>
 7    1  0.2766180E-009  0.1240975E+03  0.7561462E-02  0.1236487E+00
         -2   -1    0    0    0  501 -0.00000000000E+00  0.00000000000E+00  0.22323310953E+02  0.22323310953E+02  0.00000000000E+00 0.  1.
          2   -1    0    0  501    0  0.00000000000E+00 -0.00000000000E+00 -0.76066982547E+03  0.76066982547E+03  0.00000000000E+00 0. -1.
         25    2    1    2    0    0  0.35141028094E+02  0.50994906286E+02 -0.29808951980E+03  0.32915096243E+03  0.12509045500E+03 0.  0.
          5    1    3    3  502    0  0.29857968228E+02  0.92611752638E+02 -0.21100452055E+03  0.23239796704E+03  0.41800000000E+01 0. -1.
         -5    1    3    3    0  502  0.52830598668E+01 -0.41616846352E+02 -0.87084999252E+02  0.96752995388E+02  0.41800000000E+01 0. -1.
        -11    1    1    2    0    0 -0.40123899136E+02 -0.74497582783E+02 -0.30753964008E+03  0.31896778418E+03  0.00000000000E+00 0. -1.
         11    1    1    2    0    0  0.49828710415E+01  0.23502676498E+02 -0.13271735464E+03  0.13487438982E+03  0.00000000000E+00 0.  1.
</event>
<event>
 7    1  0.2766180E-009  0.1007868E+03  0.7561462E-02  0.1278650E+00
          4   -1    0    0  501    0  0.00000000000E+00  0.00000000000E+00  0.92186684811E+02  0.92186684811E+02  0.00000000000E+00 0. -1.
         -4   -1    0    0    0  501 -0.00000000000E+00 -0.00000000000E+00 -0.13239663225E+03  0.13239663225E+03  0.00000000000E+00 0.  1.
         25    2    1    2    0    0 -0.13853895794E+02 -0.10881053869E+02 -0.38171681936E+02  0.13197031356E+03  0.12509499829E+03 0.  0.
          5    1    3    3  502    0  0.38914048205E+02  0.37660180512E+02 -0.12822011401E+02  0.55807425315E+02  0.41800000000E+01 0. -1.
         -5    1    3    3    0  502 -0.52767944000E+02 -0.48541234381E+02 -0.25349670535E+02  0.76162888242E+02  0.41800000000E+01 0. -1.
        -11    1    1    2    0    0 -0.29979370467E+02 -0.10931891946E+01 -0.27353458422E+02  0.40597652689E+02  0.00000000000E+00 0.  1.
         11    1    1    2    0    0  0.43833266261E+02  0.11974243064E+02  0.25315192917E+02  0.52015350816E+02  0.00000000000E+00 0. -1.
</event>
<event>
 7    1  0.2766180E-009  0.1084113E+03  0.7561462E-02  0.1263540E+00
         -1   -1    0    0    0  501 -0.00000000000E+00  0.00000000000E+00  0.23028276882E+02  0.23028276882E+02  0.00000000000E+00 0.  1.
          1   -1    0    0  501    0  0.00000000000E+00 -0.00000000000E+00 -0.79368394523E+03  0.79368394523E+03  0.00000000000E+00 0. -1.
         25    2    1    2    0    0  0.37355064260E+02 -0.53220255744E+02 -0.27806996679E+03  0.31176718992E+03  0.12509227727E+03 0.  0.
          5    1    3    3  502    0  0.66771966731E+02 -0.12423273063E+02 -0.69841873826E+02  0.97509963564E+02  0.41800000000E+01 0.  1.
         -5    1    3    3    0  502 -0.29416902471E+02 -0.40796982681E+02 -0.20822809297E+03  0.21425722636E+03  0.41800000000E+01 0.  1.
        -11    1    1    2    0    0 -0.39948616920E+02  0.70393092631E+02 -0.46737194158E+03  0.47432858997E+03  0.00000000000E+00 0. -1.
         11    1    1    2    0    0  0.25935526598E+01 -0.17172836886E+02 -0.25213759974E+02  0.30616442219E+02  0.00000000000E+00 0.  1.
</event>
<event>
 7    1  0.2766180E-009  0.6090894E+02  0.7561462E-02  0.1394056E+00
         -1   -1    0    0    0  501 -0.00000000000E+00  0.00000000000E+00  0.10395722978E+03  0.10395722978E+03  0.00000000000E+00 0.  1.
          1   -1    0    0  501    0  0.00000000000E+00 -0.00000000000E+00 -0.12009520959E+03  0.12009520959E+03  0.00000000000E+00 0. -1.
         25    2    1    2    0    0  0.42703437528E+00 -0.10750454042E+02  0.17268551222E+02  0.12673314790E+03  0.12508930128E+03 0.  0.
          5    1    3    3  502    0  0.42479013404E+01 -0.22022313763E+02  0.69422578576E+02  0.73075261104E+02  0.41800000000E+01 0. -1.
         -5    1    3    3    0  502 -0.38208669651E+01  0.11271859721E+02 -0.52154027354E+02  0.53657886794E+02  0.41800000000E+01 0. -1.
        -11    1    1    2    0    0  0.98037891964E+01 -0.36628553326E+02  0.91233566540E+00  0.37928848621E+02  0.00000000000E+00 0.  1.
         11    1    1    2    0    0 -0.10230823572E+02  0.47379007367E+02 -0.34318866705E+02  0.59390442850E+02  0.00000000000E+00 0. -1.
</event>
<event>
 7    1  0.2766180E-009  0.9030954E+02  0.7561462E-02  0.1302104E+00
         -1   -1    0    0    0  501 -0.00000000000E+00  0.00000000000E+00  0.16894372075E+02  0.16894372075E+02  0.00000000000E+00 0. -1.
          1   -1    0    0  501    0  0.00000000000E+00 -0.00000000000E+00 -0.10899077463E+04  0.10899077463E+04  0.00000000000E+00 0.  1.
         25    2    1    2    0    0  0.25397053763E+02  0.16642745461E+02 -0.90162011182E+03  0.91076385037E+03  0.12509985530E+03 0.  0.
          5    1    3    3  502    0 -0.30763870038E+02 -0.23189303559E+02 -0.60454149923E+03  0.60578218543E+03  0.41800000000E+01 0.  1.
         -5    1    3    3    0  502  0.56160923801E+02  0.39832049020E+02 -0.29707861259E+03  0.30498166494E+03  0.41800000000E+01 0.  1.
        -11    1    1    2    0    0  0.53600640943E+00  0.24364200865E+02 -0.12999051848E+03  0.13225519453E+03  0.00000000000E+00 0.  1.
         11    1    1    2    0    0 -0.25933060172E+02 -0.41006946327E+02 -0.41402743942E+02  0.63783073483E+02  0.00000000000E+00 0. -1.
</event>
<event>
 7    1  0.2766180E-009  0.1044936E+03  0.7561462E-02  0.1271121E+00
         -4   -1    0    0    0  501 -0.00000000000E+00  0.00000000000E+00  0.40941729346E+03  0.40941729346E+03  0.00000000000E+00 0.  1.
          4   -1    0    0  501    0  0.00000000000E+00 -0.00000000000E+00 -0.53569729779E+02  0.53569729779E+02  0.00000000000E+00 0. -1.
         25    2    1    2    0    0 -0.11793014991E+02 -0.79813990183E+02  0.28474775766E+03  0.32130857684E+03  0.12509423579E+03 0.  0.
          5    1    3    3  502    0 -0.88055059325E+01  0.84849167862E+01  0.19455697005E+03  0.19498568599E+03  0.41800000000E+01 0. -1.
         -5    1    3    3    0  502 -0.29875090588E+01 -0.88298906969E+02  0.90190787607E+02  0.12632289085E+03  0.41800000000E+01 0. -1.
        -11    1    1    2    0    0  0.40422338859E+02  0.30669318996E+02  0.67830931131E+02  0.84708959529E+02  0.00000000000E+00 0.  1.
         11    1    1    2    0    0 -0.28629323868E+02  0.49144671187E+02  0.32688748939E+01  0.56969486871E+02  0.00000000000E+00 0. -1.
</event>
<event>
 7    1  0.3399936E-009  0.1656364E+03  0.7561462E-02  0.1182476E+00
          2   -1    0    0  501    0  0.00000000000E+00  0.00000000000E+00  0.25178977740E+03  0.25178977740E+03  0.00000000000E+00 0. -1.
         -2   -1    0    0    0  501 -0.00000000000E+00 -0.00000000000E+00 -0.12921076876E+03  0.12921076876E+03  0.00000000000E+00 0.  1.
         25    2    1    2    0    0 -0.12118679285E+03  0.64856808443E+02  0.10935589920E+03  0.21563803442E+03  0.12509358432E+03 0.  0.
          5    1    3    3  502    0 -0.11726533190E+03  0.16567431488E+02  0.11686332056E+03  0.16643360822E+03  0.41800000000E+01 0. -1.
         -5    1    3    3    0  502 -0.39214609457E+01  0.48289376954E+02 -0.75074213573E+01  0.49204426204E+02  0.41800000000E+01 0. -1.
        -11    1    1    2    0    0  0.76837053542E+02  0.96426351770E+01 -0.13158663990E+01  0.77450918100E+02  0.00000000000E+00 0. -1.
         11    1    1    2    0    0  0.44349739308E+02 -0.74499443620E+02  0.14538975839E+02  0.87911593631E+02  0.00000000000E+00 0.  1.
</event>
<event>
 7    1  0.2766180E-009  0.1048872E+03  0.7561462E-02  0.1270342E+00
         -2   -1    0    0    0  501 -0.00000000000E+00  0.00000000000E+00  0.45135666937E+02  0.45135666937E+02  0.00000000000E+00 0.  1.
          2   -1    0    0  501    0  0.00000000000E+00 -0.00000000000E+00 -0.28171082288E+03  0.28171082288E+03  0.00000000000E+00 0. -1.
         25    2    1    2    0    0  0.96545049610E+01  0.52537818191E+01 -0.90221750518E+02  0.15462653833E+03  0.12509432601E+03 0.  0.
          5    1    3    3  502    0  0.43680937866E+02  0.51289959916E+02 -0.40720504578E+02  0.78830934374E+02  0.41800000000E+01 0.  1.
         -5    1    3    3    0  502 -0.34026432905E+02 -0.46036178097E+02 -0.49501245939E+02  0.75795603960E+02  0.41800000000E+01 0.  1.
        -11    1    1    2    0    0 -0.28628819586E+02  0.32080461350E+02 -0.43483949895E+02  0.61152426034E+02  0.00000000000E+00 0.  1.
         11    1    1    2    0    0  0.18974314625E+02 -0.37334243169E+02 -0.10286945553E+03  0.11106752545E+03  0.00000000000E+00 0. -1.
</event>
<event>
 7    1  0.2766180E-009  0.8398223E+02  0.7561462E-02  0.1318116E+00
         -1   -1    0    0    0  501 -0.00000000000E+00  0.00000000000E+00  0.75782085267E+02  0.75782085267E+02  0.00000000000E+00 0.  1.
          1   -1    0    0  501    0  0.00000000000E+00 -0.00000000000E+00 -0.16730749037E+03  0.16730749037E+03  0.00000000000E+00 0. -1.
         25    2    1    2    0    0  0.31480885821E+02 -0.40278062216E+01 -0.44523198093E+02  0.13651555471E+03  0.12508761775E+03 0.  0.
          5    1    3    3  502    0  0.13524784674E+02  0.31068263788E+02 -0.77668514301E+02  0.84841188871E+02  0.41800000000E+01 0.  1.
         -5    1    3    3    0  502  0.17956101147E+02 -0.35096070009E+02  0.33145316209E+02  0.51674365841E+02  0.41800000000E+01 0.  1.
        -11    1    1    2    0    0  0.85794771158E+01 -0.36321357828E+02 -0.96641728568E+01  0.38551844302E+02  0.00000000000E+00 0.  1.
         11    1    1    2    0    0 -0.40060362937E+02  0.40349164050E+02 -0.37338034157E+02  0.68022176626E+02  0.00000000000E+00 0. -1.
</event>
<event>
 7    1  0.2766180E-009  0.1195368E+03  0.7561462E-02  0.1243863E+00
         -2   -1    0    0    0  501 -0.00000000000E+00  0.00000000000E+00  0.83966948980E+01  0.83966948980E+01  0.00000000000E+00 0.  1.
          2   -1    0    0  501    0  0.00000000000E+00 -0.00000000000E+00 -0.25126307330E+04  0.25126307330E+04  0.00000000000E+00 0. -1.
         25    2    1    2    0    0 -0.56535963096E+02 -0.62849714172E+01 -0.20069042910E+04  0.20116035951E+04  0.12509346388E+03 0.  0.
          5    1    3    3  502    0 -0.41171025106E+02 -0.59922904279E+02 -0.77045693694E+03  0.77389093020E+03  0.41800000000E+01 0. -1.
         -5    1    3    3    0  502 -0.15364937989E+02  0.53637932862E+02 -0.12364473540E+04  0.12377126649E+04  0.41800000000E+01 0. -1.
        -11    1    1    2    0    0  0.14876328483E+02  0.48654986759E+02 -0.23670563405E+03  0.24211189577E+03  0.00000000000E+00 0. -1.
         11    1    1    2    0    0  0.41659634613E+02 -0.42370015342E+02 -0.26062411311E+03  0.26731193705E+03  0.00000000000E+00 0.  1.
</event>
<event>
 7    1  0.2766180E-009  0.9042848E+02  0.7561462E-02  0.1301817E+00
         -2   -1    0    0    0  501 -0.00000000000E+00  0.00000000000E+00  0.32761904027E+02  0.32761904027E+02  0.00000000000E+00 0.  1.
          2   -1    0    0  501    0  0.00000000000E+00 -0.00000000000E+00 -0.94251018779E+03  0.94251018779E+03  0.00000000000E+00 0. -1.
         25    2    1    2    0    0  0.56087442082E+01 -0.46459846209E+02 -0.84195938301E+03  0.85248633967E+03  0.12508949342E+03 0.  0.
          5    1    3    3  502    0 -0.72230937729E+01 -0.88755063531E+02 -0.55622368150E+03  0.56332219080E+03  0.41800000000E+01 0. -1.
         -5    1    3    3    0  502  0.12831837981E+02  0.42295217322E+02 -0.28573570152E+03  0.28916414888E+03  0.41800000000E+01 0. -1.
        -11    1    1    2    0    0 -0.70285838227E+01  0.30874490077E+02 -0.90117636477E+02  0.95518707761E+02  0.00000000000E+00 0. -1.
         11    1    1    2    0    0  0.14198396144E+01  0.15585356132E+02  0.22328735726E+02  0.27267044384E+02  0.00000000000E+00 0.  1.
</event>
<event>
 7    1  0.2766180E-009  0.1260815E+03  0.7561462E-02  0.1233389E+00
         -1   -1    0    0    0  501 -0.00000000000E+00  0.00000000000E+00  0.22143151624E+02  0.22143151624E+02  0.00000000000E+00 0.  1.
          1   -1    0    0  501    0  0.00000000000E+00 -0.00000000000E+00 -0.98294351227E+03  0.98294351227E+03  0.00000000000E+00 0. -1.
         25    2    1    2    0    0 -0.97849908887E+02 -0.16251356582E+02 -0.54563582698E+03  0.56851054424E+03  0.12508825673E+03 0.  0.
          5    1    3    3  502    0  0.18061279644E+02 -0.30473931456E+02 -0.21253010886E+03  0.21550264475E+03  0.41800000000E+01 0.  1.
         -5    1    3    3    0  502 -0.11591118853E+03  0.14222574874E+02 -0.33310571812E+03  0.35300789949E+03  0.41800000000E+01 0.  1.
        -11    1    1    2    0    0  0.72193098429E+02  0.16165913301E+02 -0.39997633455E+03  0.40676067708E+03  0.00000000000E+00 0. -1.
         11    1    1    2    0    0  0.25656810458E+02  0.85443281273E-01 -0.15188199109E+02  0.29815442570E+02  0.00000000000E+00 0.  1.
</event>
<event>
 7    1  0.2766180E-009  0.2414403E+03  0.7561462E-02  0.1118837E+00
         -2   -1    0    0    0  501 -0.00000000000E+00  0.00000000000E+00  0.50500752310E+02  0.50500752310E+02  0.00000000000E+00 0.  1.
          2   -1    0    0  501    0  0.00000000000E+00 -0.00000000000E+00 -0.13405969063E+04  0.13405969063E+04  0.00000000000E+00 0. -1.
         25    2    1    2    0    0 -0.17111095493E+03  0.14056783795E+03 -0.44371521015E+03  0.51143851860E+03  0.12509154499E+03 0.  0.
          5    1    3    3  502    0 -0.53489617926E+02  0.11226769203E+03 -0.15781815741E+03  0.20097068718E+03  0.41800000000E+01 0.  1.
         -5    1    3    3    0  502 -0.11762133700E+03  0.28300145920E+02 -0.28589705275E+03  0.31046783142E+03  0.41800000000E+01 0.  1.
        -11    1    1    2    0    0  0.13062872225E+03 -0.14673006688E+03 -0.64928112309E+03  0.67835061170E+03  0.00000000000E+00 0.  1.
         11    1    1    2    0    0  0.40482232676E+02  0.61622289332E+01 -0.19709982080E+03  0.20130852835E+03  0.00000000000E+00 0. -1.
</event>
<event>
 7    1  0.2766180E-009  0.1719413E+03  0.7561462E-02  0.1175838E+00
         -1   -1    0    0    0  501 -0.00000000000E+00  0.00000000000E+00  0.51105050802E+02  0.51105050802E+02  0.00000000000E+00 0.  1.
          1   -1    0    0  501    0  0.00000000000E+00 -0.00000000000E+00 -0.73454372570E+03  0.73454372570E+03  0.00000000000E+00 0. -1.
         25    2    1    2    0    0  0.93846624365E+02 -0.10527720677E+03 -0.20398974928E+03  0.27775803043E+03  0.12508887435E+03 0.  0.
          5    1    3    3  502    0  0.10536450016E+03 -0.12576127285E+03 -0.17073417331E+03  0.23682315338E+03  0.41800000000E+01 0. -1.
         -5    1    3    3    0  502 -0.11517875794E+02  0.20484066076E+02 -0.33255575968E+02  0.40934877046E+02  0.41800000000E+01 0. -1.
        -11    1    1    2    0    0 -0.95462522621E+02  0.64784474750E+02 -0.25598327153E+03  0.28078026408E+03  0.00000000000E+00 0.  1.
         11    1    1    2    0    0  0.16158982560E+01  0.40492732021E+02 -0.22346565408E+03  0.22711048199E+03  0.00000000000E+00 0. -1.
</event>
<event>
 7    1  0.2766180E-009  0.2382520E+03  0.7561462E-02  0.1120963E+00
         -3   -1    0    0    0  501 -0.00000000000E+00  0.00000000000E+00  0.81754648407E+02  0.81754648407E+02  0.00000000000E+00 0.  1.
          3   -1    0    0  501    0  0.00000000000E+00 -0.00000000000E+00 -0.87008259139E+03  0.87008259139E+03  0.00000000000E+00 0. -1.
         25    2    1    2    0    0 -0.47532502640E+02 -0.22858034112E+03 -0.52638136342E+03  0.58926471951E+03  0.12508900332E+03 0.  0.
          5    1    3    3  502    0 -0.15723090535E+02 -0.17076616851E+03 -0.23785291152E+03  0.29325719054E+03  0.41800000000E+01 0. -1.
         -5    1    3    3    0  502 -0.31809412105E+02 -0.57814172608E+02 -0.28852845190E+03  0.29600752897E+03  0.41800000000E+01 0. -1.
        -11    1    1    2    0    0  0.18973132518E+02  0.17404731931E+02 -0.74292245581E+02  0.78627235769E+02  0.00000000000E+00 0. -1.
         11    1    1    2    0    0  0.28559370122E+02  0.21117560919E+03 -0.18765433399E+03  0.28394528452E+03  0.00000000000E+00 0.  1.
</event>
<event>
 7    1  0.2766180E-009  0.2537025E+03  0.7561462E-02  0.1110987E+00
         -2   -1    0    0    0  501 -0.00000000000E+00  0.00000000000E+00  0.26052509260E+03  0.26052509260E+03  0.00000000000E+00 0.  1.
          2   -1    0    0  501    0  0.00000000000E+00 -0.00000000000E+00 -0.51243160682E+03  0.51243160682E+03  0.00000000000E+00 0. -1.
         25    2    1    2    0    0  0.74940881444E+02 -0.23147340945E+03  0.13701053795E+03  0.30596457145E+03  0.12508539675E+03 0.  0.
          5    1    3    3  502    0  0.80122425809E+02 -0.18070083375E+03  0.48284751780E+02  0.20352219557E+03  0.41800000000E+01 0. -1.
         -5    1    3    3    0  502 -0.51815443653E+01 -0.50772575701E+02  0.88725786166E+02  0.10244237588E+03  0.41800000000E+01 0. -1.
        -11    1    1    2    0    0 -0.83429504425E+02  0.11700358180E+03 -0.21337310669E+03  0.25725163366E+03  0.00000000000E+00 0. -1.
         11    1    1    2    0    0  0.84886229812E+01  0.11446982765E+03 -0.17554394546E+03  0.20974049430E+03  0.00000000000E+00 0.  1.
</event>
<event>
 7    1  0.2766180E-009  0.1176394E+03  0.7561462E-02  0.1247043E+00
          1   -1    0    0  501    0  0.00000000000E+00  0.00000000000E+00  0.23432669995E+03  0.23432669995E+03  0.00000000000E+00 0. -1.
         -1   -1    0    0    0  501 -0.00000000000E+00 -0.00000000000E+00 -0.65154250478E+02  0.65154250478E+02  0.00000000000E+00 0.  1.
         25    2    1    2    0    0  0.64339068380E+01 -0.55063370891E+02  0.11863194947E+03  0.18109304683E+03  0.12509109562E+03 0.  0.
          5    1    3    3  502    0 -0.72592390267E+01 -0.90040366860E+02  0.10986723534E+03  0.14229633171E+03  0.41800000000E+01 0. -1.
         -5    1    3    3    0  502  0.13693145865E+02  0.34976995969E+02  0.87647141289E+01  0.38796715124E+02  0.41800000000E+01 0. -1.
        -11    1    1    2    0    0  0.39218050703E+02  0.53833402944E+01  0.18351138755E+02  0.43632558340E+02  0.00000000000E+00 0.  1.
         11    1    1    2    0    0 -0.45651957541E+02  0.49680030596E+02  0.32189361247E+02  0.74755345260E+02  0.00000000000E+00 0. -1.
</event>
<event>
 7    1  0.2766180E-009  0.1162628E+03  0.7561462E-02  0.1249393E+00
         -1   -1    0    0    0  501 -0.00000000000E+00  0.00000000000E+00  0.49561015139E+02  0.49561015139E+02  0.00000000000E+00 0.  1.
          1   -1    0    0  501    0  0.00000000000E+00 -0.00000000000E+00 -0.45570592351E+03  0.45570592351E+03  0.00000000000E+00 0. -1.
         25    2    1    2    0    0  0.55321077013E+02 -0.83845300223E+02 -0.26514834631E+03  0.30991052326E+03  0.12510168243E+03 0.  0.
          5    1    3    3  502    0  0.72895625486E+02 -0.40102664914E+02 -0.24445338846E+03  0.25825748290E+03  0.41800000000E+01 0.  1.
         -5    1    3    3    0  502 -0.17574548474E+02 -0.43742635309E+02 -0.20694957855E+02  0.51653040360E+02  0.41800000000E+01 0.  1.
        -11    1    1    2    0    0 -0.22668924901E+02  0.49836367719E+02 -0.13759503458E+03  0.14808759990E+03  0.00000000000E+00 0. -1.
         11    1    1    2    0    0 -0.32652152112E+02  0.34008932504E+02 -0.34015274758E+01  0.47268815479E+02  0.00000000000E+00 0.  1.
</event>
<event>
 7    1  0.2766180E-009  0.1317072E+03  0.7561462E-02  0.1224944E+00
          2   -1    0    0  501    0  0.00000000000E+00  0.00000000000E+00  0.72312655302E+03  0.72312655302E+03  0.00000000000E+00 0.  1.
         -2   -1    0    0    0  501 -0.00000000000E+00 -0.00000000000E+00 -0.25044369880E+02  0.25044369880E+02  0.00000000000E+00 0. -1.
         25    2    1    2    0    0  0.36322407330E+02 -0.76613554910E+02  0.42903815993E+03  0.45487567183E+03  0.12509668291E+03 0.  0.
          5    1    3    3  502    0 -0.44421658026E+02 -0.47376419138E+02  0.17812283637E+03  0.18963919961E+03  0.41800000000E+01 0.  1.
         -5    1    3    3    0  502  0.80744065355E+02 -0.29237135772E+02  0.25091532357E+03  0.26523647223E+03  0.41800000000E+01 0.  1.
        -11    1    1    2    0    0 -0.58931347964E+02  0.61419522466E+02  0.16396037170E+03  0.18473836905E+03  0.00000000000E+00 0.  1.
         11    1    1    2    0    0  0.22608940634E+02  0.15194032445E+02  0.10508365151E+03  0.10855688202E+03  0.00000000000E+00 0. -1.
</event>
<event>
 7    1  0.2766180E-009  0.1268043E+03  0.7561462E-02  0.1232276E+00
          1   -1    0    0  501    0  0.00000000000E+00  0.00000000000E+00  0.11468400391E+03  0.11468400391E+03  0.00000000000E+00 0. -1.
         -1   -1    0    0    0  501 -0.00000000000E+00 -0.00000000000E+00 -0.17621112244E+03  0.17621112244E+03  0.00000000000E+00 0.  1.
         25    2    1    2    0    0 -0.70353186267E+02 -0.56893276277E+02 -0.26219286977E+02  0.15660037967E+03  0.12509920943E+03 0.  0.
          5    1    3    3  502    0 -0.66190542424E+02  0.15892043844E+02 -0.44359301082E+02  0.81357021555E+02  0.41800000000E+01 0.  1.
         -5    1    3    3    0  502 -0.41626438436E+01 -0.72785320121E+02  0.18140014105E+02  0.75243358116E+02  0.41800000000E+01 0.  1.
        -11    1    1    2    0    0  0.15665248608E+02 -0.15245875497E+02 -0.37877922771E+02  0.43732982599E+02  0.00000000000E+00 0.  1.
         11    1    1    2    0    0  0.54687937659E+02  0.72139151774E+02  0.25700912204E+01  0.90561764078E+02  0.00000000000E+00 0. -1.
</event>
<event>
 7    1  0.2766180E-009  0.1524840E+03  0.7561462E-02  0.1197453E+00
          2   -1    0    0  501    0  0.00000000000E+00  0.00000000000E+00  0.15193587718E+04  0.15193587718E+04  0.00000000000E+00 0. -1.
         -2   -1    0    0    0  501 -0.00000000000E+00 -0.00000000000E+00 -0.17495148291E+02  0.17495148291E+02  0.00000000000E+00 0.  1.
         25    2    1    2    0    0  0.28415144371E+02  0.12335580415E+03  0.86172277947E+03  0.87990771775E+03  0.12508944100E+03 0.  0.
          5    1    3    3  502    0  0.93839117586E+01  0.13814869500E+03  0.81936200276E+03  0.83099018267E+03  0.41800000000E+01 0.  1.
         -5    1    3    3    0  502  0.19031232613E+02 -0.14792890850E+02  0.42360776706E+02  0.48917535073E+02  0.41800000000E+01 0.  1.
        -11    1    1    2    0    0 -0.10546715639E+02 -0.12365400499E+03  0.60412592489E+03  0.61674117690E+03  0.00000000000E+00 0. -1.
         11    1    1    2    0    0 -0.17868428732E+02  0.29820083394E+00  0.36014919102E+02  0.40205025395E+02  0.00000000000E+00 0.  1.
</event>
<event>
 7    1  0.2766180E-009  0.1383777E+03  0.7561462E-02  0.1215529E+00
          2   -1    0    0  501    0  0.00000000000E+00  0.00000000000E+00  0.19782945280E+03  0.19782945280E+03  0.00000000000E+00 0.  1.
         -2   -1    0    0    0  501 -0.00000000000E+00 -0.00000000000E+00 -0.10970966804E+03  0.10970966804E+03  0.00000000000E+00 0. -1.
         25    2    1    2    0    0  0.97173899483E+02  0.11491140686E+02  0.37140566420E+02  0.16309843696E+03  0.12508743106E+03 0.  0.
          5    1    3    3  502    0  0.65238651863E+02 -0.47563827554E+02 -0.92703954014E+01  0.81374517015E+02  0.41800000000E+01 0.  1.
         -5    1    3    3    0  502  0.31935247619E+02  0.59054968240E+02  0.46410961821E+02  0.81723919947E+02  0.41800000000E+01 0.  1.
        -11    1    1    2    0    0 -0.62503251614E+02 -0.47615101769E+02  0.52239803560E+02  0.94354922790E+02  0.00000000000E+00 0. -1.
         11    1    1    2    0    0 -0.34670647868E+02  0.36123961082E+02 -0.12605852189E+01  0.50085761080E+02  0.00000000000E+00 0.  1.
</event>
<event>
 7    1  0.2766180E-009  0.1065404E+03  0.7561462E-02  0.1267114E+00
          2   -1    0    0  501    0  0.00000000000E+00  0.00000000000E+00  0.14148628345E+03  0.14148628345E+03  0.00000000000E+00 0. -1.
         -2   -1    0    0    0  501 -0.00000000000E+00 -0.00000000000E+00 -0.13056473217E+03  0.13056473217E+03  0.00000000000E+00 0.  1.
         25    2    1    2    0    0  0.66149069037E+02  0.39676873538E+02  0.54384651639E+02  0.15670851557E+03  0.12509961987E+03 0.  0.
          5    1    3    3  502    0  0.89524497430E+01  0.55319168261E+02 -0.21627383998E+02  0.60212730150E+02  0.41800000000E+01 0.  1.
         -5    1    3    3    0  502  0.57196619294E+02 -0.15642294723E+02  0.76012035637E+02  0.96495785424E+02  0.41800000000E+01 0.  1.
        -11    1    1    2    0    0 -0.48743398475E+01 -0.35707791718E+02  0.59492929103E+01  0.36526697969E+02  0.00000000000E+00 0. -1.
         11    1    1    2    0    0 -0.61274729189E+02 -0.39690818199E+01 -0.49412393274E+02  0.78815802075E+02  0.00000000000E+00 0.  1.
</event>
<event>
 7    1  0.2766180E-009  0.1366172E+03  0.7561462E-02  0.1217955E+00
          3   -1    0    0  501    0  0.00000000000E+00  0.00000000000E+00  0.12912306355E+04  0.12912306355E+04  0.00000000000E+00 0.  1.
         -3   -1    0    0    0  501 -0.00000000000E+00 -0.00000000000E+00 -0.17565989726E+02  0.17565989726E+02  0.00000000000E+00 0. -1.
         25    2    1    2    0    0 -0.29198766129E+02 -0.92441674056E+02  0.85942482256E+03  0.87387444590E+03  0.12508992971E+03 0.  0.
          5    1    3    3  502    0 -0.60013181684E+02 -0.91686464661E+02  0.44609790953E+03  0.45937871856E+03  0.41800000000E+01 0.  1.
         -5    1    3    3    0  502  0.30814415556E+02 -0.75520939556E+00  0.41332691303E+03  0.41449572734E+03  0.41800000000E+01 0.  1.
        -11    1    1    2    0    0  0.54499644718E+02  0.24094808042E+02  0.19266409877E+03  0.20166860441E+03  0.00000000000E+00 0. -1.
         11    1    1    2    0    0 -0.25300878589E+02  0.68346866015E+02  0.22157572448E+03  0.23325357496E+03  0.00000000000E+00 0.  1.
</event>
<event>
 7    1  0.2766180E-009  0.1123282E+03  0.7561462E-02  0.1256318E+00
          1   -1    0    0  501    0  0.00000000000E+00  0.00000000000E+00  0.24417159291E+03  0.24417159291E+03  0.00000000000E+00 0. -1.
         -1   -1    0    0    0  501 -0.00000000000E+00 -0.00000000000E+00 -0.74018009924E+02  0.74018009924E+02  0.00000000000E+00 0.  1.
         25    2    1    2    0    0 -0.11654523092E+02  0.72606735634E+02  0.56802434338E+02  0.15582313131E+03  0.12508703265E+03 0.  0.
          5    1    3    3  502    0  0.33953941757E+02  0.89536618478E+02  0.43201744277E+02  0.10513581368E+03  0.41800000000E+01 0. -1.
         -5    1    3    3    0  502 -0.45608464849E+02 -0.16929882844E+02  0.13600690061E+02  0.50687317636E+02  0.41800000000E+01 0. -1.
        -11    1    1    2    0    0 -0.76949231934E+01 -0.48306147986E+02  0.44448294878E+01  0.49116721036E+02  0.00000000000E+00 0.  1.
         11    1    1    2    0    0  0.19349446285E+02 -0.24300587648E+02  0.10890631916E+03  0.11324975049E+03  0.00000000000E+00 0. -1.
</event>
<event>
 7    1  0.2766180E-009  0.1185902E+03  0.7561462E-02  0.1245441E+00
         -1   -1    0    0    0  501 -0.00000000000E+00  0.00000000000E+00  0.17821537832E+02  0.17821537832E+02  0.00000000000E+00 0.  1.
          1   -1    0    0  501    0  0.00000000000E+00 -0.00000000000E+00 -0.94528080413E+03  0.94528080413E+03  0.00000000000E+00 0. -1.
         25    2    1    2    0    0  0.53023140463E+02 -0.87823985541E+01 -0.69343077332E+03  0.70666977567E+03  0.12508937012E+03 0.  0.
          5    1    3    3  502    0  0.92149784439E+02  0.74352997461E+01 -0.51362815144E+03  0.52189866526E+03  0.41800000000E+01 0.  1.
         -5    1    3    3    0  502 -0.39126643976E+02 -0.16217698300E+02 -0.17980262188E+03  0.18477111041E+03  0.41800000000E+01 0.  1.
        -11    1    1    2    0    0 -0.76138889013E+02  0.16114967444E+02 -0.20032238606E+03  0.21490900622E+03  0.00000000000E+00 0.  1.
         11    1    1    2    0    0  0.23115748549E+02 -0.73325688903E+01 -0.33706106922E+02  0.41523560076E+02  0.00000000000E+00 0. -1.
</event>
<event>
 7    1  0.2766180E-009  0.1106641E+03  0.7561462E-02  0.1259345E+00
         -1   -1    0    0    0  501 -0.00000000000E+00  0.00000000000E+00  0.24841136197E+02  0.24841136197E+02  0.00000000000E+00 0.  1.
          1   -1    0    0  501    0  0.00000000000E+00 -0.00000000000E+00 -0.57870197895E+03  0.57870197895E+03  0.00000000000E+00 0. -1.
         25    2    1    2    0    0  0.63428421117E+01 -0.48215513504E+02 -0.27144721047E+03  0.30280689569E+03  0.12507382065E+03 0.  0.
          5    1    3    3  502    0  0.62402904815E+02 -0.33215216224E+02 -0.18954815261E+03  0.20234462601E+03  0.41800000000E+01 0. -1.
         -5    1    3    3    0  502 -0.56060062703E+02 -0.15000297281E+02 -0.81899057862E+02  0.10046226967E+03  0.41800000000E+01 0. -1.
        -11    1    1    2    0    0 -0.21161760446E+02 -0.15934825311E+02 -0.30675139037E+02  0.40530271622E+02  0.00000000000E+00 0.  1.
         11    1    1    2    0    0  0.14818918334E+02  0.64150338815E+02 -0.25173849325E+03  0.26020594784E+03  0.00000000000E+00 0. -1.
</event>
<event>
 7    1  0.2766180E-009  0.2144947E+03  0.7561462E-02  0.1138055E+00
         -2   -1    0    0    0  501 -0.00000000000E+00  0.00000000000E+00  0.10718239376E+03  0.10718239376E+03  0.00000000000E+00 0.  1.
          2   -1    0    0  501    0  0.00000000000E+00 -0.00000000000E+00 -0.53056189526E+03  0.53056189526E+03  0.00000000000E+00 0. -1.
         25    2    1    2    0    0  0.16906176846E+03  0.12833604292E+03 -0.22760670407E+03  0.33541549143E+03  0.12508684458E+03 0.  0.
          5    1    3    3  502    0  0.94042480249E+02  0.75066309020E+02 -0.40780473558E+02  0.12711985787E+03  0.41800000000E+01 0.  1.
         -5    1    3    3    0  502  0.75019288211E+02  0.53269733902E+02 -0.18682623051E+03  0.20829563356E+03  0.41800000000E+01 0.  1.
        -11    1    1    2    0    0 -0.10539565351E+03 -0.10473395030E+03 -0.17853233229E+03  0.23227405752E+03  0.00000000000E+00 0. -1.
         11    1    1    2    0    0 -0.63666114949E+02 -0.23602092622E+02 -0.17240465144E+02  0.70054740077E+02  0.00000000000E+00 0.  1.
</event>
<event>
 7    1  0.2766180E-009  0.9257890E+02  0.7561462E-02  0.1296724E+00
         -3   -1    0    0    0  501 -0.00000000000E+00  0.00000000000E+00  0.76195802519E+02  0.76195802519E+02  0.00000000000E+00 0.  1.
          3   -1    0    0  501    0  0.00000000000E+00 -0.00000000000E+00 -0.19452649376E+03  0.19452649376E+03  0.00000000000E+00 0. -1.
         25    2    1    2    0    0  0.35131848550E+02  0.19544956506E+02 -0.28752015261E+02  0.13450110003E+03  0.12509042897E+03 0.  0.
          5    1    3    3  502    0  0.57173005850E+02  0.20126892600E+02  0.32758317875E+02  0.69024808538E+02  0.41800000000E+01 0.  1.
         -5    1    3    3    0  502 -0.22041157300E+02 -0.58193609327E+00 -0.61510333136E+02  0.65476291490E+02  0.41800000000E+01 0.  1.
        -11    1    1    2    0    0 -0.35066247444E+02 -0.55692420609E+02 -0.65062468549E+02  0.92544109681E+02  0.00000000000E+00 0. -1.
         11    1    1    2    0    0 -0.65601106736E-01  0.36147464102E+02 -0.24516207433E+02  0.43677086572E+02  0.00000000000E+00 0.  1.
</event>
<event>
 7    1  0.2766180E-009  0.1411794E+03  0.7561462E-02  0.1211751E+00
         -1   -1    0    0    0  501 -0.00000000000E+00  0.00000000000E+00  0.19761991836E+02  0.19761991836E+02  0.00000000000E+00 0.  1.
          1   -1    0    0  501    0  0.00000000000E+00 -0.00000000000E+00 -0.13156183771E+04  0.13156183771E+04  0.00000000000E+00 0. -1.
         25    2    1    2    0    0  0.41503687267E+02  0.98660932941E+02 -0.89437327809E+03  0.90939945586E+03  0.12508906431E+03 0.  0.
          5    1    3    3  502    0 -0.27490053732E+02  0.13956881605E+02 -0.47474413825E+03  0.47576251092E+03  0.41800000000E+01 0.  1.
         -5    1    3    3    0  502  0.68993740999E+02  0.84704051336E+02 -0.41962913985E+03  0.43363694494E+03  0.41800000000E+01 0.  1.
        -11    1    1    2    0    0 -0.59473879371E+02 -0.10676029835E+03 -0.33295856563E+03  0.35467775524E+03  0.00000000000E+00 0.  1.
         11    1    1    2    0    0  0.17970192104E+02  0.80993654095E+01 -0.68524541519E+02  0.71303157817E+02  0.00000000000E+00 0. -1.
</event>
<event>
 7    1  0.2766180E-009  0.1049794E+03  0.7561462E-02  0.1270160E+00
          2   -1    0    0  501    0  0.00000000000E+00  0.00000000000E+00  0.10991854659E+04  0.10991854659E+04  0.00000000000E+00 0. -1.
         -2   -1    0    0    0  501 -0.00000000000E+00 -0.00000000000E+00 -0.15726043823E+02  0.15726043823E+02  0.00000000000E+00 0.  1.
         25    2    1    2    0    0 -0.39292164926E+02  0.41944552360E+02  0.88568254751E+03  0.89631704287E+03  0.12508975442E+03 0.  0.
          5    1    3    3  502    0  0.46564493354E+01  0.75185837705E+02  0.64359993562E+03  0.64800689984E+03  0.41800000000E+01 0.  1.
         -5    1    3    3    0  502 -0.43948614262E+02 -0.33241285345E+02  0.24208261189E+03  0.24831014302E+03  0.41800000000E+01 0.  1.
        -11    1    1    2    0    0  0.48593279702E+02 -0.15169555647E+02  0.63638346192E+02  0.81493934478E+02  0.00000000000E+00 0.  1.
         11    1    1    2    0    0 -0.93011147759E+01 -0.26774996713E+02  0.13413852837E+03  0.13710053238E+03  0.00000000000E+00 0. -1.
</event>
<event>
 7    1  0.2766180E-009  0.9740561E+02  0.7561462E-02  0.1285848E+00
         -2   -1    0    0    0  501 -0.00000000000E+00  0.00000000000E+00  0.14459794243E+03  0.14459794243E+03  0.00000000000E+00 0.  1.
          2   -1    0    0  501    0  0.00000000000E+00 -0.00000000000E+00 -0.13092744369E+03  0.13092744369E+03  0.00000000000E+00 0. -1.
         25    2    1    2    0    0  0.50326066628E+02 -0.12130380477E+02 -0.59326186340E+02  0.14781178975E+03  0.12509544233E+03 0.  0.
          5    1    3    3  502    0  0.15729628459E+02 -0.41450636178E+02 -0.84689376099E+02  0.95683537116E+02  0.41800000000E+01 0.  1.
         -5    1    3    3    0  502  0.34596438170E+02  0.29320255701E+02  0.25363189759E+02  0.52128252639E+02  0.41800000000E+01 0.  1.
        -11    1    1    2    0    0 -0.47365859135E+02  0.48766105862E+02  0.49401466490E+02  0.84036674041E+02  0.00000000000E+00 0.  1.
         11    1    1    2    0    0 -0.29602074934E+01 -0.36635725385E+02  0.23595218597E+02  0.43676922323E+02  0.00000000000E+00 0. -1.
</event>
<event>
 7    1  0.2766180E-009  0.1126482E+03  0.7561462E-02  0.1255743E+00
          1   -1    0    0  501    0  0.00000000000E+00  0.00000000000E+00  0.21587585547E+03  0.21587585547E+03  0.00000000000E+00 0. -1.
         -1   -1    0    0    0  501 -0.00000000000E+00 -0.00000000000E+00 -0.73954173258E+02  0.73954173258E+02  0.00000000000E+00 0.  1.
         25    2    1    2    0    0 -0.60959524965E+02 -0.80464291299E+01  0.56847276151E+02  0.15053222274E+03  0.12509008182E+03 0.  0.
          5    1    3    3  502    0 -0.48791145935E+02  0.41366090487E+02 -0.11593738207E+02  0.65143046670E+02  0.41800000000E+01 0.  1.
         -5    1    3    3    0  502 -0.12168379030E+02 -0.49412519617E+02  0.68441014358E+02  0.85389176067E+02  0.41800000000E+01 0.  1.
        -11    1    1    2    0    0  0.57091798956E+02 -0.34965184638E+02  0.55433364930E+02  0.86918902388E+02  0.00000000000E+00 0. -1.
         11    1    1    2    0    0  0.38677260089E+01  0.43011613768E+02  0.29641041133E+02  0.52378903605E+02  0.00000000000E+00 0.  1.
</event>
<event>
 7    1  0.2766180E-009  0.1201760E+03  0.7561462E-02  0.1242807E+00
          1   -1    0    0  501    0  0.00000000000E+00  0.00000000000E+00  0.25997007204E+03  0.25997007204E+03  0.00000000000E+00 0. -1.
         -1   -1    0    0    0  501 -0.00000000000E+00 -0.00000000000E+00 -0.67298092840E+02  0.67298092840E+02  0.00000000000E+00 0.  1.
         25    2    1    2    0    0  0.60070562720E+02  0.34583586481E+02  0.66771880112E+02  0.15783140674E+03  0.12509105491E+03 0.  0.
          5    1    3    3  502    0  0.98146398325E+02  0.34998483453E+02  0.54110857386E+02  0.11748645299E+03  0.41800000000E+01 0. -1.
         -5    1    3    3    0  502 -0.38075835605E+02 -0.41489697259E+00  0.12661022725E+02  0.40344953749E+02  0.41800000000E+01 0. -1.
        -11    1    1    2    0    0 -0.67349738245E+02 -0.52677151340E+01  0.12135421026E+03  0.13889053392E+03  0.00000000000E+00 0.  1.
         11    1    1    2    0    0  0.72791755251E+01 -0.29315871347E+02  0.45458888258E+01  0.30546224224E+02  0.00000000000E+00 0. -1.
</event>
<event>
 7    1  0.2766180E-009  0.9614024E+02  0.7561462E-02  0.1288628E+00
         -1   -1    0    0    0  501 -0.00000000000E+00  0.00000000000E+00  0.64742404366E+02  0.64742404366E+02  0.00000000000E+00 0.  1.
          1   -1    0    0  501    0  0.00000000000E+00 -0.00000000000E+00 -0.25335857106E+03  0.25335857106E+03  0.00000000000E+00 0. -1.
         25    2    1    2    0    0  0.24863101006E+02 -0.28799467601E+02 -0.35643389944E+02  0.13551743351E+03  0.12508773086E+03 0.  0.
          5    1    3    3  502    0  0.74840076790E+02 -0.12953960420E+02 -0.32821472802E+02  0.82846627339E+02  0.41800000000E+01 0.  1.
         -5    1    3    3    0  502 -0.49976975784E+02 -0.15845507181E+02 -0.28219171420E+01  0.52670806171E+02  0.41800000000E+01 0.  1.
        -11    1    1    2    0    0 -0.36476488489E+02  0.34913990148E+02 -0.15994226163E+03  0.16772312892E+03  0.00000000000E+00 0. -1.
         11    1    1    2    0    0  0.11613387483E+02 -0.61145225470E+01  0.69694848804E+01  0.14860412992E+02  0.00000000000E+00 0.  1.
</event>
<event>
 7    1  0.2766180E-009  0.1730263E+03  0.7561462E-02  0.1174728E+00
         -2   -1    0    0    0  501 -0.00000000000E+00  0.00000000000E+00  0.79540365303E+02  0.79540365303E+02  0.00000000000E+00 0. -1.
          2   -1    0    0  501    0  0.00000000000E+00 -0.00000000000E+00 -0.83150219417E+03  0.83150219417E+03  0.00000000000E+00 0.  1.
         25    2    1    2    0    0 -0.36816155575E+02  0.16213968313E+03 -0.97515306877E+02  0.22976916452E+03  0.12505969668E+03 0.  0.
          5    1    3    3  502    0  0.79330542080E+00 -0.60131242887E+01  0.19898843267E+02  0.21218467441E+02  0.41800000000E+01 0.  1.
         -5    1    3    3    0  502 -0.37609460996E+02  0.16815280742E+03 -0.11741415014E+03  0.20855069708E+03  0.41800000000E+01 0.  1.
        -11    1    1    2    0    0  0.24732481768E+02 -0.11803606412E+03 -0.59031406514E+03  0.60250718136E+03  0.00000000000E+00 0.  1.
         11    1    1    2    0    0  0.12083673806E+02 -0.44103619006E+02 -0.64132456854E+02  0.78766213595E+02  0.00000000000E+00 0. -1.
</event>
<event>
 7    1  0.2766180E-009  0.1065689E+03  0.7561462E-02  0.1267059E+00
         -1   -1    0    0    0  501 -0.00000000000E+00  0.00000000000E+00  0.21138400303E+03  0.21138400303E+03  0.00000000000E+00 0.  1.
          1   -1    0    0  501    0  0.00000000000E+00 -0.00000000000E+00 -0.65115755304E+02  0.65115755304E+02  0.00000000000E+00 0. -1.
         25    2    1    2    0    0  0.31960916120E+02 -0.26209605065E+02  0.97495880930E+02  0.16390312121E+03  0.12510133008E+03 0.  0.
          5    1    3    3  502    0 -0.39135467734E+02 -0.95525717197E+01  0.78505311782E+02  0.88336814745E+02  0.41800000000E+01 0. -1.
         -5    1    3    3    0  502  0.71096383854E+02 -0.16657033345E+02  0.18990569148E+02  0.75566306470E+02  0.41800000000E+01 0. -1.
        -11    1    1    2    0    0 -0.60370248889E+02  0.34969273755E+02  0.44010798439E+02  0.82488589738E+02  0.00000000000E+00 0. -1.
         11    1    1    2    0    0  0.28409332769E+02 -0.87596686903E+01  0.47615683593E+01  0.30108047383E+02  0.00000000000E+00 0.  1.
</event>
<event>
 6    1  0.2766180E-009  0.1041673E+03  0.7561462E-02  0.1271769E+00
          4   -1    0    0  501    0  0.00000000000E+00  0.00000000000E+00  0.51089671710E+02  0.51089671710E+02  0.00000000000E+00 0. -1.
         -4   -1    0    0    0  501 -0.00000000000E+00 -0.00000000000E+00 -0.25673726992E+03  0.25673726992E+03  0.00000000000E+00 0.  1.
          5    1    1    2  502    0  0.14608412128E+02 -0.86417915283E+02 -0.43735792052E+02  0.98039551678E+02  0.41800000000E+01 0. -1.
         -5    1    1    2    0  502  0.85559578135E+01  0.40288626495E+02 -0.58284634324E+02  0.71490900380E+02  0.41800000000E+01 0. -1.
        -11    1    1    2    0    0 -0.37178680591E+02  0.72694113808E+01 -0.15430440627E+02  0.40904732369E+02  0.00000000000E+00 0. -1.
         11    1    1    2    0    0  0.14014310649E+02  0.38859877407E+02 -0.88196731203E+02  0.97391757198E+02  0.00000000000E+00 0.  1.
</event>
<event>
 7    1  0.2766180E-009  0.1114611E+03  0.7561462E-02  0.1257888E+00
          1   -1    0    0  501    0  0.00000000000E+00  0.00000000000E+00  0.11025593567E+02  0.11025593567E+02  0.00000000000E+00 0. -1.
         -1   -1    0    0    0  501 -0.00000000000E+00 -0.00000000000E+00 -0.12927301714E+04  0.12927301714E+04  0.00000000000E+00 0.  1.
         25    2    1    2    0    0 -0.44358061258E+02 -0.45275880632E+01 -0.85689908694E+03  0.86712820598E+03  0.12508854371E+03 0.  0.
          5    1    3    3  502    0  0.32865519387E+02  0.30729764941E+02 -0.38424294226E+03  0.38689090438E+03  0.41800000000E+01 0. -1.
         -5    1    3    3    0  502 -0.77223580645E+02 -0.35257353004E+02 -0.47265614468E+03  0.48023730160E+03  0.41800000000E+01 0. -1.
        -11    1    1    2    0    0  0.56430496748E+02  0.30466394948E+02 -0.36167492666E+03  0.36731642321E+03  0.00000000000E+00 0.  1.
         11    1    1    2    0    0 -0.12072435490E+02 -0.25938806885E+02 -0.63130564213E+02  0.69311135751E+02  0.00000000000E+00 0. -1.
</event>
<event>
 7    1  0.2766180E-009  0.1762696E+03  0.7561462E-02  0.1171463E+00
          4   -1    0    0  501    0  0.00000000000E+00  0.00000000000E+00  0.10939330890E+04  0.10939330890E+04  0.00000000000E+00 0. -1.
         -4   -1    0    0    0  501 -0.00000000000E+00 -0.00000000000E+00 -0.33340213754E+02  0.33340213754E+02  0.00000000000E+00 0.  1.
         25    2    1    2    0    0 -0.70826212530E+02 -0.13959645176E+03  0.57026505031E+03  0.60444867113E+03  0.12510973862E+03 0.  0.
          5    1    3    3  502    0 -0.42604471979E+02 -0.15638628289E+03  0.41195469978E+03  0.44271430695E+03  0.41800000000E+01 0. -1.
         -5    1    3    3    0  502 -0.28221740550E+02  0.16789831139E+02  0.15831035054E+03  0.16173436418E+03  0.41800000000E+01 0. -1.
        -11    1    1    2    0    0  0.25874157244E+02  0.68015909239E+02  0.10135318771E+03  0.12477221077E+03  0.00000000000E+00 0.  1.
         11    1    1    2    0    0  0.44952055285E+02  0.71580542517E+02  0.38897463723E+03  0.39805242086E+03  0.00000000000E+00 0. -1.
</event>
<event>
 7    1  0.2766180E-009  0.8807808E+02  0.7561462E-02  0.1307574E+00
         -1   -1    0    0    0  501 -0.00000000000E+00  0.00000000000E+00  0.20641872651E+02  0.20641872651E+02  0.00000000000E+00 0.  1.
          1   -1    0    0  501    0  0.00000000000E+00 -0.00000000000E+00 -0.70307091820E+03  0.70307091820E+03  0.00000000000E+00 0. -1.
         25    2    1    2    0    0  0.16776941078E+02  0.15396577187E+02 -0.24505056023E+03  0.27607116383E+03  0.12508792943E+03 0.  0.
          5    1    3    3  502    0 -0.14824623600E+02  0.38609049095E+02 -0.17453817209E+02  0.45083658593E+02  0.41800000000E+01 0.  1.
         -5    1    3    3    0  502  0.31601564678E+02 -0.23212471908E+02 -0.22759674302E+03  0.23098750523E+03  0.41800000000E+01 0.  1.
        -11    1    1    2    0    0 -0.44534531814E+02  0.21118184576E+02 -0.21398353320E+03  0.21958655407E+03  0.00000000000E+00 0. -1.
         11    1    1    2    0    0  0.27757590737E+02 -0.36514761763E+02 -0.22339495212E+03  0.22805507296E+03  0.00000000000E+00 0.  1.
</event>
<event>
 7    1  0.2766180E-009  0.2381990E+03  0.7561462E-02  0.1120998E+00
         -2   -1    0    0    0  501 -0.00000000000E+00  0.00000000000E+00  0.39368126400E+02  0.39368126400E+02  0.00000000000E+00 0.  1.
          2   -1    0    0  501    0  0.00000000000E+00 -0.00000000000E+00 -0.20020159690E+04  0.20020159690E+04  0.00000000000E+00 0. -1.
         25    2    1    2    0    0  0.12059980333E+03  0.17607630767E+03 -0.15356174721E+04  0.15554149963E+04  0.12509041362E+03 0.  0.
          5    1    3    3  502    0  0.12607665040E+03  0.19197260818E+03 -0.14051521139E+04  0.14238043193E+04  0.41800000000E+01 0. -1.
         -5    1    3    3    0  502 -0.54768470694E+01 -0.15896300511E+02 -0.13046535820E+03  0.13161067706E+03  0.41800000000E+01 0. -1.
        -11    1    1    2    0    0 -0.18624830174E+02 -0.10107695666E+03 -0.15570541736E+03  0.18656798348E+03  0.00000000000E+00 0.  1.
         11    1    1    2    0    0 -0.10197497316E+03 -0.74999351013E+02 -0.27132495315E+03  0.29940111557E+03  0.00000000000E+00 0. -1.
</event>
<event>
 7    1  0.2766180E-009  0.9556594E+02  0.7561462E-02  0.1289907E+00
          2   -1    0    0  501    0  0.00000000000E+00  0.00000000000E+00  0.46478941806E+02  0.46478941806E+02  0.00000000000E+00 0. -1.
         -2   -1    0    0    0  501 -0.00000000000E+00 -0.00000000000E+00 -0.51316439557E+03  0.51316439557E+03  0.00000000000E+00 0.  1.
         25    2    1    2    0    0 -0.14391607851E+02  0.67523300202E+02 -0.40620803228E+03  0.43060233906E+03  0.12508754721E+03 0.  0.
          5    1    3    3  502    0  0.81991073720E+01  0.49123402117E+02 -0.42214673759E+02  0.65420830611E+02  0.41800000000E+01 0. -1.
         -5    1    3    3    0  502 -0.22590715222E+02  0.18399898085E+02 -0.36399335852E+03  0.36518150845E+03  0.41800000000E+01 0. -1.
        -11    1    1    2    0    0  0.29508582302E+02 -0.84194105227E+02 -0.37189719438E+02  0.96656500125E+02  0.00000000000E+00 0. -1.
         11    1    1    2    0    0 -0.15116974452E+02  0.16670805025E+02 -0.23287702048E+02  0.32384498196E+02  0.00000000000E+00 0.  1.
</event>
<event>
 7    1  0.2766180E-009  0.9766834E+02  0.7561462E-02  0.1285277E+00
          2   -1    0    0  501    0  0.00000000000E+00  0.00000000000E+00  0.12736532643E+03  0.12736532643E+03  0.00000000000E+00 0. -1.
         -2   -1    0    0    0  501 -0.00000000000E+00 -0.00000000000E+00 -0.10404729136E+03  0.10404729136E+03  0.00000000000E+00 0.  1.
         25    2    1    2    0    0  0.13547791966E+01 -0.19879125993E+01  0.52417250073E+02  0.13565211466E+03  0.12509252929E+03 0.  0.
          5    1    3    3  502    0  0.16212985582E+02 -0.54780857156E+02  0.56550896405E+02  0.80493971802E+02  0.41800000000E+01 0.  1.
         -5    1    3    3    0  502 -0.14858206385E+02  0.52792944556E+02 -0.41336463316E+01  0.55158142861E+02  0.41800000000E+01 0.  1.
        -11    1    1    2    0    0  0.26318150270E+02  0.32525992086E+02  0.51756566945E+01  0.42158897246E+02  0.00000000000E+00 0. -1.
         11    1    1    2    0    0 -0.27672929466E+02 -0.30538079487E+02 -0.34274871694E+02  0.53601605887E+02  0.00000000000E+00 0.  1.
</event>
<event>
 7    1  0.2766180E-009  0.1229145E+03  0.7561462E-02  0.1238365E+00
          1   -1    0    0  501    0  0.00000000000E+00  0.00000000000E+00  0.56904838643E+03  0.56904838643E+03  0.00000000000E+00 0. -1.
         -1   -1    0    0    0  501 -0.00000000000E+00 -0.00000000000E+00 -0.35795081473E+02  0.35795081473E+02  0.00000000000E+00 0.  1.
         25    2    1    2    0    0 -0.18581880403E+02  0.83906588771E+02  0.21483759830E+03  0.26303566891E+03  0.12508783936E+03 0.  0.
          5    1    3    3  502    0  0.78650219134E+01 -0.16178428353E+02  0.12363664216E+03  0.12500836691E+03  0.41800000000E+01 0. -1.
         -5    1    3    3    0  502 -0.26446902316E+02  0.10008501712E+03  0.91200956145E+02  0.13802730200E+03  0.41800000000E+01 0. -1.
        -11    1    1    2    0    0  0.35777292272E+02  0.23002493085E+01  0.10694966602E+03  0.11279865624E+03  0.00000000000E+00 0.  1.
         11    1    1    2    0    0 -0.17195411869E+02 -0.86206838080E+02  0.21146604064E+03  0.22900914275E+03  0.00000000000E+00 0. -1.
</event>
<event>
 7    1  0.2766180E-009  0.1238024E+03  0.7561462E-02  0.1236953E+00
         -2   -1    0    0    0  501 -0.00000000000E+00  0.00000000000E+00  0.14266460474E+02  0.14266460474E+02  0.00000000000E+00 0.  1.
          2   -1    0    0  501    0  0.00000000000E+00 -0.00000000000E+00 -0.13637630904E+04  0.13637630904E+04  0.00000000000E+00 0. -1.
         25    2    1    2    0    0 -0.47411476903E+02 -0.44223985067E+02 -0.10561457873E+04  0.10655026650E+04  0.12509354982E+03 0.  0.
          5    1    3    3  502    0 -0.73566430272E+02  0.15154823147E+02 -0.51512694903E+03  0.52059094724E+03  0.41800000000E+01 0.  1.
         -5    1    3    3    0  502  0.26154953369E+02 -0.59378808214E+02 -0.54101883824E+03  0.54491171778E+03  0.41800000000E+01 0.  1.
        -11    1    1    2    0    0  0.68108221537E+02  0.12144676402E+02 -0.20204586917E+03  0.21356206652E+03  0.00000000000E+00 0. -1.
         11    1    1    2    0    0 -0.20696744634E+02  0.32079308665E+02 -0.91304973478E+02  0.98964819328E+02  0.00000000000E+00 0.  1.
</event>
<event>
 7    1  0.2766180E-009  0.7930186E+02  0.7561462E-02  0.1331044E+00
         -2   -1    0    0    0  501 -0.00000000000E+00  0.00000000000E+00  0.37609502656E+02  0.37609502656E+02  0.00000000000E+00 0.  1.
          2   -1    0    0  501    0  0.00000000000E+00 -0.00000000000E+00 -0.38148982628E+03  0.38148982628E+03  0.00000000000E+00 0. -1.
         25    2    1    2    0    0 -0.10696785819E+01  0.48112057272E+02 -0.18034546627E+03  0.22469517395E+03  0.12509004646E+03 0.  0.
          5    1    3    3  502    0 -0.25279904844E+02  0.39526760361E+02 -0.49333706310E+01  0.47362948803E+02  0.41800000000E+01 0.  1.
         -5    1    3    3    0  502  0.24210226263E+02  0.85852969112E+01 -0.17541209564E+03  0.17733222514E+03  0.41800000000E+01 0.  1.
        -11    1    1    2    0    0 -0.18859699596E+02 -0.59570401596E+02 -0.54316065787E+02  0.82792246121E+02  0.00000000000E+00 0.  1.
         11    1    1    2    0    0  0.19929378178E+02  0.11458344325E+02 -0.10921879157E+03  0.11161190887E+03  0.00000000000E+00 0. -1.
</event>
<event>
 7    1  0.2766180E-009  0.1015707E+03  0.7561462E-02  0.1277027E+00
          2   -1    0    0  501    0  0.00000000000E+00  0.00000000000E+00  0.15102900705E+03  0.15102900705E+03  0.00000000000E+00 0. -1.
         -2   -1    0    0    0  501 -0.00000000000E+00 -0.00000000000E+00 -0.11333524050E+03  0.11333524050E+03  0.00000000000E+00 0.  1.
         25    2    1    2    0    0 -0.60217695155E+01 -0.71857445392E+02  0.30798310954E+02  0.14762437417E+03  0.12507863817E+03 0.  0.
          5    1    3    3  502    0 -0.46647486234E+02 -0.20932710135E+02  0.57534179007E+02  0.77083204913E+02  0.41800000000E+01 0.  1.
         -5    1    3    3    0  502  0.40625716719E+02 -0.50924735256E+02 -0.26735868053E+02  0.70541169259E+02  0.41800000000E+01 0. -1.
        -11    1    1    2    0    0  0.22815973393E+02  0.64147249394E+02 -0.30824240266E+02  0.74736684664E+02  0.00000000000E+00 0.  1.
         11    1    1    2    0    0 -0.16794203877E+02  0.77101959977E+01  0.37719695862E+02  0.42003188713E+02  0.00000000000E+00 0. -1.
</event>
<event>
 7    1  0.2766180E-009  0.8739782E+02  0.7561462E-02  0.1309278E+00
         -2   -1    0    0    0  501 -0.00000000000E+00  0.00000000000E+00  0.30052529604E+02  0.30052529604E+02  0.00000000000E+00 0. -1.
          2   -1    0    0  501    0  0.00000000000E+00 -0.00000000000E+00 -0.43109383277E+03  0.43109383277E+03  0.00000000000E+00 0.  1.
         25    2    1    2    0    0  0.26972396602E+02 -0.20316875864E+02 -0.27997406439E+03  0.30850378695E+03  0.12509526053E+03 0.  0.
          5    1    3    3  502    0  0.45837886116E+02  0.24686469273E+02 -0.46443537153E+02  0.69892833052E+02  0.41800000000E+01 0.  1.
         -5    1    3    3    0  502 -0.18865489514E+02 -0.45003345137E+02 -0.23353052723E+03  0.23861095389E+03  0.41800000000E+01 0.  1.
        -11    1    1    2    0    0  0.93131587424E+01  0.33662492075E+02 -0.10520837743E+03  0.11085441345E+03  0.00000000000E+00 0.  1.
         11    1    1    2    0    0 -0.36285555345E+02 -0.13345616211E+02 -0.15858861348E+02  0.41788161984E+02  0.00000000000E+00 0. -1.
</event>
<event>
 7    1  0.2766180E-009  0.1072619E+03  0.7561462E-02  0.1265726E+00
          4   -1    0    0  501    0  0.00000000000E+00  0.00000000000E+00  0.21002968392E+02  0.21002968392E+02  0.00000000000E+00 0. -1.
         -4   -1    0    0    0  501 -0.00000000000E+00 -0.00000000000E+00 -0.59700087055E+03  0.59700087055E+03  0.00000000000E+00 0.  1.
         25    2    1    2    0    0 -0.60302537821E+01  0.27342998462E+02 -0.32418309234E+03  0.34860600385E+03  0.12508982788E+03 0.  0.
          5    1    3    3  502    0  0.11990577762E+02 -0.47793352239E+02 -0.10249164778E+03  0.11379801728E+03  0.41800000000E+01 0. -1.
         -5    1    3    3    0  502 -0.18020831544E+02  0.75136350702E+02 -0.22169144456E+03  0.23480798657E+03  0.41800000000E+01 0. -1.
        -11    1    1    2    0    0  0.36329244043E+02 -0.40720888248E+02 -0.99092127828E+02  0.11312495087E+03  0.00000000000E+00 0. -1.
         11    1    1    2    0    0 -0.30298990261E+02  0.13377889785E+02 -0.15272268200E+03  0.15627288422E+03  0.00000000000E+00 0.  1.
</event>
<event>
 7    1  0.2766180E-009  0.1149196E+03  0.7561462E-02  0.1251721E+00
          2   -1    0    0  501    0  0.00000000000E+00  0.00000000000E+00  0.49888933568E+03  0.49888933568E+03  0.00000000000E+00 0. -1.
         -2   -1    0    0    0  501 -0.00000000000E+00 -0.00000000000E+00 -0.37573357487E+02  0.37573357487E+02  0.00000000000E+00 0.  1.
         25    2    1    2    0    0  0.15295772943E+02 -0.82253889756E+02  0.23768829449E+03  0.28132384380E+03  0.12509083382E+03 0.  0.
          5    1    3    3  502    0  0.65403666767E+01  0.31273140169E+02  0.28043240357E+02  0.42716289891E+02  0.41800000000E+01 0. -1.
         -5    1    3    3    0  502  0.87554062659E+01 -0.11352702992E+03  0.20964505413E+03  0.23860755391E+03  0.41800000000E+01 0. -1.
        -11    1    1    2    0    0 -0.57686127089E+01  0.27309417284E+02  0.35864705744E+01  0.28141498470E+02  0.00000000000E+00 0.  1.
         11    1    1    2    0    0 -0.95271602338E+01  0.54944472472E+02  0.22004121313E+03  0.22699735090E+03  0.00000000000E+00 0. -1.
</event>
<event>
 6    1  0.2766180E-009  0.1128626E+03  0.7561462E-02  0.1255359E+00
         -2   -1    0    0    0  501 -0.00000000000E+00  0.00000000000E+00  0.29638635417E+02  0.29638635417E+02  0.00000000000E+00 0.  1.
          2   -1    0    0  501    0  0.00000000000E+00 -0.00000000000E+00 -0.50554600288E+03  0.50554600288E+03  0.00000000000E+00 0. -1.
          5    1    1    2  502    0 -0.47079050478E+02 -0.27433972664E+02 -0.70747788756E+02  0.89396766518E+02  0.41800000000E+01 0. -1.
         -5    1    1    2    0  502  0.37495274862E+02  0.46327398941E+02 -0.21643399438E+03  0.22452899558E+03  0.41800000000E+01 0. -1.
        -11    1    1    2    0    0 -0.28427944364E+02  0.35181620038E+02 -0.48984119439E+02  0.66673370745E+02  0.00000000000E+00 0.  1.
         11    1    1    2    0    0  0.38011719980E+02 -0.54075046316E+02 -0.13974146488E+03  0.15458550546E+03  0.00000000000E+00 0. -1.
</event>
<event>
 7    1  0.2766180E-009  0.2382411E+03  0.7561462E-02  0.1120970E+00
          2   -1    0    0  501    0  0.00000000000E+00  0.00000000000E+00  0.49912448246E+03  0.49912448246E+03  0.00000000000E+00 0.  1.
         -2   -1    0    0    0  501 -0.00000000000E+00 -0.00000000000E+00 -0.18748985351E+03  0.18748985351E+03  0.00000000000E+00 0. -1.
         25    2    1    2    0    0 -0.23346714588E+03 -0.35308396136E+02 -0.21411479411E+02  0.26806686162E+03  0.12509116597E+03 0.  0.
          5    1    3    3  502    0 -0.13611076979E+03 -0.21687304052E+02 -0.74009392319E+02  0.15649710337E+03  0.41800000000E+01 0. -1.
         -5    1    3    3    0  502 -0.97356376087E+02 -0.13621092084E+02  0.52597912908E+02  0.11156975825E+03  0.41800000000E+01 0. -1.
        -11    1    1    2    0    0  0.13618180341E+03 -0.14775198376E+01  0.12019437597E+03  0.18164348229E+03  0.00000000000E+00 0. -1.
         11    1    1    2    0    0  0.97285342474E+02  0.36785915973E+02  0.21285173238E+03  0.23690399206E+03  0.00000000000E+00 0.  1.
</event>
<event>
 7    1  0.2766180E-009  0.1095087E+03  0.7561462E-02  0.1261482E+00
          2   -1    0    0  501    0  0.00000000000E+00  0.00000000000E+00  0.69702662450E+03  0.69702662450E+03  0.00000000000E+00 0. -1.
         -2   -1    0    0    0  501 -0.00000000000E+00 -0.00000000000E+00 -0.23464951435E+02  0.23464951435E+02  0.00000000000E+00 0.  1.
         25    2    1    2    0    0  0.42447989836E+02 -0.35296483746E+02  0.48466802300E+03  0.50358744531E+03  0.12509815726E+03 0.  0.
          5    1    3    3  502    0  0.49898615426E+02  0.28500729429E+02  0.34529578349E+03  0.35006972719E+03  0.41800000000E+01 0. -1.
         -5    1    3    3    0  502 -0.74506255890E+01 -0.63797213175E+02  0.13937223951E+03  0.15351771812E+03  0.41800000000E+01 0. -1.
        -11    1    1    2    0    0 -0.64396229078E+02  0.12898492759E+02  0.79575649593E+02  0.10317717501E+03  0.00000000000E+00 0.  1.
         11    1    1    2    0    0  0.21948239242E+02  0.22397990987E+02  0.10931800046E+03  0.11372695561E+03  0.00000000000E+00 0. -1.
</event>
<event>
 7    1  0.2766180E-009  0.1459427E+03  0.7561462E-02  0.1205549E+00
         -2   -1    0    0    0  501 -0.00000000000E+00  0.00000000000E+00  0.25602306344E+02  0.25602306344E+02  0.00000000000E+00 0.  1.
          2   -1    0    0  501    0  0.00000000000E+00 -0.00000000000E+00 -0.18903784041E+04  0.18903784041E+04  0.00000000000E+00 0. -1.
         25    2    1    2    0    0 -0.69154898693E+02 -0.12831278770E+03 -0.15519516370E+04  0.15637925841E+04  0.12508713312E+03 0.  0.
          5    1    3    3  502    0 -0.49825326149E+02 -0.88955187490E+02 -0.14381253577E+04  0.14417411714E+04  0.41800000000E+01 0.  1.
         -5    1    3    3    0  502 -0.19329572544E+02 -0.39357600208E+02 -0.11382627935E+03  0.12205141269E+03  0.41800000000E+01 0.  1.
        -11    1    1    2    0    0  0.32779250071E+02  0.64041310094E+02 -0.23109756667E+03  0.24203688553E+03  0.00000000000E+00 0. -1.
         11    1    1    2    0    0  0.36375648622E+02  0.64271477604E+02 -0.81726894091E+02  0.11015124086E+03  0.00000000000E+00 0.  1.
</event>
<event>
 7    1  0.2766180E-009  0.7906599E+02  0.7561462E-02  0.1331723E+00
          1   -1    0    0  501    0  0.00000000000E+00  0.00000000000E+00  0.65283125972E+02  0.65283125972E+02  0.00000000000E+00 0. -1.
         -1   -1    0    0    0  501 -0.00000000000E+00 -0.00000000000E+00 -0.29400577130E+03  0.29400577130E+03  0.00000000000E+00 0.  1.
         25    2    1    2    0    0 -0.30029658040E+02  0.47983579085E+02 -0.21058162636E+03  0.25138438705E+03  0.12508111156E+03 0.  0.
          5    1    3    3  502    0  0.99893594276E+01  0.32296902610E+01 -0.18605241657E+03  0.18639525829E+03  0.41800000000E+01 0. -1.
         -5    1    3    3    0  502 -0.40019017467E+02  0.44753888824E+02 -0.24529209782E+02  0.64989128756E+02  0.41800000000E+01 0. -1.
        -11    1    1    2    0    0  0.48222538494E+02 -0.17791373331E+02  0.20737100638E+02  0.55425387023E+02  0.00000000000E+00 0. -1.
         11    1    1    2    0    0 -0.18192880454E+02 -0.30192205754E+02 -0.38878119613E+02  0.52479123203E+02  0.00000000000E+00 0.  1.
</event>
<event>
 7    1  0.2766180E-009  0.9778673E+02  0.7561462E-02  0.1285020E+00
         -1   -1    0    0    0  501 -0.00000000000E+00  0.00000000000E+00  0.17425733568E+03  0.17425733568E+03  0.00000000000E+00 0.  1.
          1   -1    0    0  501    0  0.00000000000E+00 -0.00000000000E+00 -0.93093537787E+02  0.93093537787E+02  0.00000000000E+00 0. -1.
         25    2    1    2    0    0 -0.30473409868E+02 -0.44385347052E+02  0.32193408373E+01  0.13622315144E+03  0.12509074742E+03 0.  0.
          5    1    3    3  502    0  0.48739417048E+02 -0.22834110985E+02  0.15764841689E+01  0.54008194758E+02  0.41800000000E+01 0.  1.
         -5    1    3    3    0  502 -0.79212826916E+02 -0.21551236067E+02  0.16428566683E+01  0.82214956681E+02  0.41800000000E+01 0.  1.
        -11    1    1    2    0    0  0.32144292392E+02  0.27156470473E+02 -0.85316449908E+01  0.42936213016E+02  0.00000000000E+00 0. -1.
         11    1    1    2    0    0 -0.16708825248E+01  0.17228876580E+02  0.86476102047E+02  0.88191509012E+02  0.00000000000E+00 0.  1.
</event>
<event>
 7    1  0.2766180E-009  0.1290099E+03  0.7561462E-02  0.1228932E+00
          2   -1    0    0  501    0  0.00000000000E+00  0.00000000000E+00  0.66513452152E+02  0.66513452152E+02  0.00000000000E+00 0.  1.
         -2   -1    0    0    0  501 -0.00000000000E+00 -0.00000000000E+00 -0.32587803340E+03  0.32587803340E+03  0.00000000000E+00 0. -1.
         25    2    1    2    0    0  0.75780593520E+02  0.59050556760E+02 -0.17168158913E+03  0.23313484776E+03  0.12509045762E+03 0.  0.
          5    1    3    3  502    0 -0.20958107084E+02 -0.79267743150E+01 -0.82066498995E+02  0.85173109964E+02  0.41800000000E+01 0. -1.
         -5    1    3    3    0  502  0.96738700603E+02  0.66977331075E+02 -0.89615090138E+02  0.14796173780E+03  0.41800000000E+01 0. -1.
        -11    1    1    2    0    0 -0.87217268823E+02 -0.41611555602E+02 -0.96543253716E+02  0.13659785276E+03  0.00000000000E+00 0. -1.
         11    1    1    2    0    0  0.11436675303E+02 -0.17439001159E+02  0.88602616001E+01  0.22658785030E+02  0.00000000000E+00 0.  1.
</event>
<event>
 7    1  0.2766180E-009  0.1224194E+03  0.7561462E-02  0.1239158E+00
          2   -1    0    0  501    0  0.00000000000E+00  0.00000000000E+00  0.19007957786E+03  0.19007957786E+03  0.00000000000E+00 0. -1.
         -2   -1    0    0    0  501 -0.00000000000E+00 -0.00000000000E+00 -0.10290023677E+03  0.10290023677E+03  0.00000000000E+00 0.  1.
         25    2    1    2    0    0 -0.90556041083E+01 -0.86421822122E+02  0.36565223413E+02  0.15663848078E+03  0.12509141774E+03 0.  0.
          5    1    3    3  502    0  0.52620873177E+02 -0.63013808076E+02  0.37911877781E+02  0.90523362614E+02  0.41800000000E+01 0.  1.
         -5    1    3    3    0  502 -0.61676477285E+02 -0.23408014046E+02 -0.13466543680E+01  0.66115118164E+02  0.41800000000E+01 0.  1.
        -11    1    1    2    0    0 -0.14123051783E+02  0.58822371358E+02 -0.14238113966E+02  0.62147050237E+02  0.00000000000E+00 0.  1.
         11    1    1    2    0    0  0.23178655892E+02  0.27599450763E+02  0.64852231645E+02  0.74194283612E+02  0.00000000000E+00 0. -1.
</event>
<event>
 7    1  0.2766180E-009  0.1481197E+03  0.7561462E-02  0.1202803E+00
         -1   -1    0    0    0  501 -0.00000000000E+00  0.00000000000E+00  0.53177037533E+02  0.53177037533E+02  0.00000000000E+00 0.  1.
          1   -1    0    0  501    0  0.00000000000E+00 -0.00000000000E+00 -0.91986076930E+03  0.91986076930E+03  0.00000000000E+00 0. -1.
         25    2    1    2    0    0  0.12477732213E+03  0.54917488105E+02 -0.74933493911E+03  0.77183910380E+03  0.12508973001E+03 0.  0.
          5    1    3    3  502    0  0.36850922518E+01  0.13882092030E+02 -0.38341932287E+01  0.15442338610E+02  0.41800000000E+01 0. -1.
         -5    1    3    3    0  502  0.12109222988E+03  0.41035396075E+02 -0.74550074589E+03  0.75639676519E+03  0.41800000000E+01 0. -1.
        -11    1    1    2    0    0 -0.60671555848E+02  0.10715413076E+02 -0.14341559439E+02  0.63257711731E+02  0.00000000000E+00 0. -1.
         11    1    1    2    0    0 -0.64105766281E+02 -0.65632901181E+02 -0.10300723322E+03  0.13794099131E+03  0.00000000000E+00 0.  1.
</event>
<event>
 7    1  0.2766180E-009  0.1075198E+03  0.7561462E-02  0.1265233E+00
          1   -1    0    0  501    0  0.00000000000E+00  0.00000000000E+00  0.63075594230E+03  0.63075594230E+03  0.00000000000E+00 0. -1.
         -1   -1    0    0    0  501 -0.00000000000E+00 -0.00000000000E+00 -0.30078631675E+02  0.30078631675E+02  0.00000000000E+00 0.  1.
         25    2    1    2    0    0 -0.53901933171E+02  0.38737652748E+02  0.20598992495E+03  0.24997038694E+03  0.12508925224E+03 0.  0.
          5    1    3    3  502    0 -0.56924968972E+01 -0.35592497400E+02  0.14760605691E+02  0.39173693628E+02  0.41800000000E+01 0.  1.
         -5    1    3    3    0  502 -0.48209436274E+02  0.74330150148E+02  0.19122931926E+03  0.21079669331E+03  0.41800000000E+01 0.  1.
        -11    1    1    2    0    0  0.59003922997E+01  0.16119818881E+02  0.11167930878E+02  0.20478912816E+02  0.00000000000E+00 0.  1.
         11    1    1    2    0    0  0.48001540871E+02 -0.54857471629E+02  0.38351945480E+03  0.39038527422E+03  0.00000000000E+00 0. -1.
</event>
<event>
 7    1  0.2766180E-009  0.9619097E+02  0.7561462E-02  0.1288516E+00
          1   -1    0    0  501    0  0.00000000000E+00  0.00000000000E+00  0.59663967768E+03  0.59663967768E+03  0.00000000000E+00 0. -1.
         -1   -1    0    0    0  501 -0.00000000000E+00 -0.00000000000E+00 -0.31142240825E+02  0.31142240825E+02  0.00000000000E+00 0.  1.
         25    2    1    2    0    0  0.66649922251E+02 -0.56584419572E+02  0.29940716870E+03  0.33606007762E+03  0.12509082470E+03 0.  0.
          5    1    3    3  502    0  0.40437870827E+02 -0.16458803129E+02  0.28123146084E+03  0.28463084963E+03  0.41800000000E+01 0.  1.
         -5    1    3    3    0  502  0.26212051424E+02 -0.40125616443E+02  0.18175707862E+02  0.51429227984E+02  0.41800000000E+01 0.  1.
        -11    1    1    2    0    0 -0.52338403220E+02  0.12149462825E+02  0.21868749659E+03  0.22519133879E+03  0.00000000000E+00 0.  1.
         11    1    1    2    0    0 -0.14311519031E+02  0.44434956746E+02  0.47402771557E+02  0.66530502097E+02  0.00000000000E+00 0. -1.
</event>
<event>
 7    1  0.2766180E-009  0.8847104E+02  0.7561462E-02  0.1306597E+00
         -2   -1    0    0    0  501 -0.00000000000E+00  0.00000000000E+00  0.29082988853E+03  0.29082988853E+03  0.00000000000E+00 0. -1.
          2   -1    0    0  501    0  0.00000000000E+00 -0.00000000000E+00 -0.48578314139E+02  0.48578314139E+02  0.00000000000E+00 0.  1.
         25    2    1    2    0    0  0.15997244835E+02 -0.41484935069E+02  0.16718420076E+03  0.21348377154E+03  0.12509137478E+03 0.  0.
          5    1    3    3  502    0  0.39555064668E+02 -0.51594179243E+02  0.26348365705E+02  0.70272834353E+02  0.41800000000E+01 0. -1.
         -5    1    3    3    0  502 -0.23557819833E+02  0.10109244174E+02  0.14083583506E+03  0.14321093718E+03  0.41800000000E+01 0. -1.
        -11    1    1    2    0    0  0.19817772627E+02 -0.10705609341E+02 -0.57719559719E+01  0.23252304380E+02  0.00000000000E+00 0.  1.
         11    1    1    2    0    0 -0.35815017462E+02  0.52190544410E+02  0.80839329606E+02  0.10267212676E+03  0.00000000000E+00 0. -1.
</event>
<event>
 7    1  0.2766180E-009  0.1032764E+03  0.7561462E-02  0.1273553E+00
         -2   -1    0    0    0  501 -0.00000000000E+00  0.00000000000E+00  0.27913251179E+02  0.27913251179E+02  0.00000000000E+00 0. -1.
          2   -1    0    0  501    0  0.00000000000E+00 -0.00000000000E+00 -0.66334809730E+03  0.66334809730E+03  0.00000000000E+00 0.  1.
         25    2    1    2    0    0  0.28343956350E+02 -0.12389894618E+02 -0.54330144578E+03  0.55837499964E+03  0.12509712184E+03 0.  0.
          5    1    3    3  502    0  0.44864671283E+02  0.39664243173E+02 -0.15480732178E+03  0.16603876112E+03  0.41800000000E+01 0.  1.
         -5    1    3    3    0  502 -0.16520714933E+02 -0.52054137791E+02 -0.38849412399E+03  0.39233623852E+03  0.41800000000E+01 0.  1.
        -11    1    1    2    0    0 -0.40839633174E+02 -0.27970618885E+02 -0.30434541283E+02  0.58107593838E+02  0.00000000000E+00 0.  1.
         11    1    1    2    0    0  0.12495676824E+02  0.40360513504E+02 -0.61698859066E+02  0.74778755001E+02  0.00000000000E+00 0. -1.
</event>
<event>
 7    1  0.2766180E-009  0.1817994E+03  0.7561462E-02  0.1166073E+00
          2   -1    0    0  501    0  0.00000000000E+00  0.00000000000E+00  0.79180195939E+02  0.79180195939E+02  0.00000000000E+00 0. -1.
         -2   -1    0    0    0  501 -0.00000000000E+00 -0.00000000000E+00 -0.51878864483E+03  0.51878864483E+03  0.00000000000E+00 0.  1.
         25    2    1    2    0    0  0.71747685101E+02  0.15464971933E+03 -0.21202473254E+03  0.29944326077E+03  0.12509002041E+03 0.  0.
          5    1    3    3  502    0  0.59424074555E+02  0.31321960439E+02 -0.14171776022E+03  0.15688748135E+03  0.41800000000E+01 0. -1.
         -5    1    3    3    0  502  0.12323610546E+02  0.12332775889E+03 -0.70306972325E+02  0.14255577943E+03  0.41800000000E+01 0. -1.
        -11    1    1    2    0    0 -0.46941016027E+02 -0.71666109338E+02 -0.45758503653E+02  0.97125335880E+02  0.00000000000E+00 0. -1.
         11    1    1    2    0    0 -0.24806669074E+02 -0.82983609992E+02 -0.18182521270E+03  0.20140024412E+03  0.00000000000E+00 0.  1.
</event>
<event>
 7    1  0.2766180E-009  0.8430120E+02  0.7561462E-02  0.1317270E+00
         -1   -1    0    0    0  501 -0.00000000000E+00  0.00000000000E+00  0.17460266806E+03  0.17460266806E+03  0.00000000000E+00 0.  1.
          1   -1    0    0  501    0  0.00000000000E+00 -0.00000000000E+00 -0.83170511699E+02  0.83170511699E+02  0.00000000000E+00 0. -1.
         25    2    1    2    0    0 -0.16826124796E+02 -0.47974211514E+02  0.35947468810E+02  0.13972832607E+03  0.12508853323E+03 0.  0.
          5    1    3    3  502    0  0.54753289043E+01 -0.46358980343E+02 -0.39270790086E+02  0.61145740973E+02  0.41800000000E+01 0. -1.
         -5    1    3    3    0  502 -0.22301453701E+02 -0.16152311708E+01  0.75218258896E+02  0.78582585095E+02  0.41800000000E+01 0. -1.
        -11    1    1    2    0    0  0.51625305958E+02  0.25686070067E+02  0.50069146189E+02  0.76366653789E+02  0.00000000000E+00 0.  1.
         11    1    1    2    0    0 -0.34799181162E+02  0.22288141447E+02  0.54155413597E+01  0.41678199901E+02  0.00000000000E+00 0. -1.
</event>
<event>
 7    1  0.2766180E-009  0.9871369E+02  0.7561462E-02  0.1283024E+00
          2   -1    0    0  501    0  0.00000000000E+00  0.00000000000E+00  0.18656139393E+04  0.18656139393E+04  0.00000000000E+00 0. -1.
         -2   -1    0    0    0  501 -0.00000000000E+00 -0.00000000000E+00 -0.80270235174E+01  0.80270235174E+01  0.00000000000E+00 0.  1.
         25    2    1    2    0    0  0.66996383343E+01  0.15232284724E+02  0.14659145213E+04  0.14713365216E+04  0.12509543655E+03 0.  0.
          5    1    3    3  502    0 -0.48600341169E+02 -0.90928218148E+01  0.10348633236E+04  0.10360522397E+04  0.41800000000E+01 0.  1.
         -5    1    3    3    0  502  0.55299979503E+02  0.24325106539E+02  0.43105119775E+03  0.43528428185E+03  0.41800000000E+01 0.  1.
        -11    1    1    2    0    0 -0.85273423543E+01  0.35487003838E+02  0.10470434889E+03  0.11088301802E+03  0.00000000000E+00 0.  1.
         11    1    1    2    0    0  0.18277040199E+01 -0.50719288562E+02  0.28696804560E+03  0.29142142325E+03  0.00000000000E+00 0. -1.
</event>
<event>
 7    1  0.2766180E-009  0.1104487E+03  0.7561462E-02  0.1259741E+00
         -2   -1    0    0    0  501 -0.00000000000E+00  0.00000000000E+00  0.59865843642E+02  0.59865843642E+02  0.00000000000E+00 0.  1.
          2   -1    0    0  501    0  0.00000000000E+00 -0.00000000000E+00 -0.27427840253E+03  0.27427840253E+03  0.00000000000E+00 0. -1.
         25    2    1    2    0    0  0.22842564435E+02 -0.27832961043E+02 -0.44735585016E+02  0.13764585391E+03  0.12509457247E+03 0.  0.
          5    1    3    3  502    0  0.48350523695E+02 -0.67209316369E+02 -0.31906475978E+02  0.88827703774E+02  0.41800000000E+01 0.  1.
         -5    1    3    3    0  502 -0.25507959260E+02  0.39376355326E+02 -0.12829109038E+02  0.48818150140E+02  0.41800000000E+01 0.  1.
        -11    1    1    2    0    0  0.18507608857E+02 -0.20279623858E+02 -0.93060718539E+02  0.97026244204E+02  0.00000000000E+00 0.  1.
         11    1    1    2    0    0 -0.41350173293E+02  0.48112584900E+02 -0.76616255330E+02  0.99472148051E+02  0.00000000000E+00 0. -1.
</event>
<event>
 7    1  0.2766180E-009  0.1569059E+03  0.7561462E-02  0.1192235E+00
         -2   -1    0    0    0  501 -0.00000000000E+00  0.00000000000E+00  0.31327878191E+02  0.31327878191E+02  0.00000000000E+00 0.  1.
          2   -1    0    0  501    0  0.00000000000E+00 -0.00000000000E+00 -0.94011750351E+03  0.94011750351E+03  0.00000000000E+00 0. -1.
         25    2    1    2    0    0  0.11942652696E+03  0.49616785942E+02 -0.56054645795E+03  0.58871409547E+03  0.12508970343E+03 0.  0.
          5    1    3    3  502    0  0.58391093753E+02  0.69570966768E+02 -0.16892097143E+03  0.19183692616E+03  0.41800000000E+01 0.  1.
         -5    1    3    3    0  502  0.61035433204E+02 -0.19954180826E+02 -0.39162548652E+03  0.39687716932E+03  0.41800000000E+01 0.  1.
        -11    1    1    2    0    0 -0.13353604779E+03 -0.34628168216E+02 -0.29557572844E+03  0.32618399308E+03  0.00000000000E+00 0.  1.
         11    1    1    2    0    0  0.14109520834E+02 -0.14988617726E+02 -0.52667438923E+02  0.56547293147E+02  0.00000000000E+00 0. -1.
</event>
<event>
 7    1  0.2766180E-009  0.2020978E+03  0.7561462E-02  0.1147981E+00
          1   -1    0    0  501    0  0.00000000000E+00  0.00000000000E+00  0.23292293410E+03  0.23292293410E+03  0.00000000000E+00 0. -1.
         -1   -1    0    0    0  501 -0.00000000000E+00 -0.00000000000E+00 -0.19988779602E+03  0.19988779602E+03  0.00000000000E+00 0.  1.
         25    2    1    2    0    0  0.36167504130E+02 -0.17016381300E+03 -0.48128630139E+02  0.21960222482E+03  0.12507981650E+03 0.  0.
          5    1    3    3  502    0  0.66355140510E+02 -0.48390779266E+02  0.69421472939E+01  0.82524772033E+02  0.41800000000E+01 0.  1.
         -5    1    3    3    0  502 -0.30187636379E+02 -0.12177303373E+03 -0.55070777433E+02  0.13707745278E+03  0.41800000000E+01 0.  1.
        -11    1    1    2    0    0  0.18726811513E+02  0.11864197788E+01  0.13383908730E+02  0.23048428888E+02  0.00000000000E+00 0.  1.
         11    1    1    2    0    0 -0.54894315644E+02  0.16897739322E+03  0.67779859486E+02  0.19016007641E+03  0.00000000000E+00 0. -1.
</event>
<event>
 7    1  0.2766180E-009  0.9694274E+02  0.7561462E-02  0.1286860E+00
         -4   -1    0    0    0  501 -0.00000000000E+00  0.00000000000E+00  0.13826735644E+03  0.13826735644E+03  0.00000000000E+00 0.  1.
          4   -1    0    0  501    0  0.00000000000E+00 -0.00000000000E+00 -0.14661317898E+03  0.14661317898E+03  0.00000000000E+00 0. -1.
         25    2    1    2    0    0  0.42127270068E+02 -0.29483088082E+02  0.68268370580E+02  0.15149099089E+03  0.12507993657E+03 0.  0.
          5    1    3    3  502    0  0.37974977898E+02  0.35263165865E+02  0.69096554717E+02  0.86471938147E+02  0.41800000000E+01 0. -1.
         -5    1    3    3    0  502  0.41522921697E+01 -0.64746253948E+02 -0.82818413647E+00  0.65019052742E+02  0.41800000000E+01 0. -1.
        -11    1    1    2    0    0 -0.19732430576E+02  0.45335058512E+02  0.26466715247E+01  0.49514050702E+02  0.00000000000E+00 0.  1.
         11    1    1    2    0    0 -0.22394839492E+02 -0.15851970430E+02 -0.79260864642E+02  0.83875493836E+02  0.00000000000E+00 0. -1.
</event>
<event>
 7    1  0.2766180E-009  0.9688764E+02  0.7561462E-02  0.1286980E+00
          1   -1    0    0  501    0  0.00000000000E+00  0.00000000000E+00  0.57975340436E+02  0.57975340436E+02  0.00000000000E+00 0. -1.
         -1   -1    0    0    0  501 -0.00000000000E+00 -0.00000000000E+00 -0.20690979777E+03  0.20690979777E+03  0.00000000000E+00 0.  1.
         25    2    1    2    0    0 -0.23462691660E+01  0.93374093707E+01 -0.10468926740E+03  0.16340198727E+03  0.12509066530E+03 0.  0.
          5    1    3    3  502    0  0.39238597374E+02 -0.31551789568E+02 -0.90828271423E+01  0.51333742292E+02  0.41800000000E+01 0. -1.
         -5    1    3    3    0  502 -0.41584866540E+02  0.40889198939E+02 -0.95606440257E+02  0.11206824498E+03  0.41800000000E+01 0. -1.
        -11    1    1    2    0    0  0.39143361666E+02  0.13579515719E+02 -0.28282218362E+01  0.41528361976E+02  0.00000000000E+00 0. -1.
         11    1    1    2    0    0 -0.36797092500E+02 -0.22916925090E+02 -0.41416968096E+02  0.59954788952E+02  0.00000000000E+00 0.  1.
</event>
<event>
 7    1  0.2766180E-009  0.2005177E+03  0.7561462E-02  0.1149303E+00
         -1   -1    0    0    0  501 -0.00000000000E+00  0.00000000000E+00  0.82534574382E+02  0.82534574382E+02  0.00000000000E+00 0.  1.
          1   -1    0    0  501    0  0.00000000000E+00 -0.00000000000E+00 -0.79253220120E+03  0.79253220120E+03  0.00000000000E+00 0. -1.
         25    2    1    2    0    0 -0.16842342231E+03  0.81521316980E+02 -0.13152301464E+03  0.26068759898E+03  0.12509015380E+03 0.  0.
          5    1    3    3  502    0 -0.14494983936E+03  0.46935731367E+02 -0.15085203373E+03  0.21444632730E+03  0.41800000000E+01 0.  1.
         -5    1    3    3    0  502 -0.23473582941E+02  0.34585585613E+02  0.19329019085E+02  0.46241271686E+02  0.41800000000E+01 0.  1.
        -11    1    1    2    0    0 -0.53068164436E+01 -0.22517281963E+02 -0.54371639771E+02  0.59088624110E+02  0.00000000000E+00 0.  1.
         11    1    1    2    0    0  0.17373023875E+03 -0.59004035017E+02 -0.52410297240E+03  0.55529055249E+03  0.00000000000E+00 0. -1.
</event>
<event>
 7    1  0.2766180E-009  0.1240256E+03  0.7561462E-02  0.1236600E+00
         -4   -1    0    0    0  501 -0.00000000000E+00  0.00000000000E+00  0.13551794071E+03  0.13551794071E+03  0.00000000000E+00 0.  1.
          4   -1    0    0  501    0  0.00000000000E+00 -0.00000000000E+00 -0.20321934695E+03  0.20321934695E+03  0.00000000000E+00 0. -1.
         25    2    1    2    0    0 -0.19534534786E+02  0.68342750861E+02 -0.14374956679E+03  0.20338167134E+03  0.12509131321E+03 0.  0.
          5    1    3    3  502    0 -0.68035929959E+02  0.47738188955E+02 -0.53943436679E+02  0.99172522459E+02  0.41800000000E+01 0. -1.
         -5    1    3    3    0  502  0.48501395173E+02  0.20604561906E+02 -0.89806130112E+02  0.10420914888E+03  0.41800000000E+01 0. -1.
        -11    1    1    2    0    0  0.63464256656E+01 -0.88038709405E+02  0.59641595092E+02  0.10652798382E+03  0.00000000000E+00 0. -1.
         11    1    1    2    0    0  0.13188109121E+02  0.19695958544E+02  0.16406565458E+02  0.28827632495E+02  0.00000000000E+00 0.  1.
</event>
<event>
 7    1  0.3571200E-009  0.8278385E+02  0.7561462E-02  0.1321332E+00
          2   -1    0    0  501    0  0.00000000000E+00  0.00000000000E+00  0.21058029644E+03  0.21058029644E+03  0.00000000000E+00 0. -1.
         -2   -1    0    0    0  501 -0.00000000000E+00 -0.00000000000E+00 -0.98364748677E+02  0.98364748677E+02  0.00000000000E+00 0.  1.
         25    2    1    2    0    0  0.27313227002E+02  0.47147192718E+01 -0.35477429864E+02  0.13293218339E+03  0.12507628234E+03 0.  0.
          5    1    3    3  502    0  0.54958730695E+01  0.54676732692E+02  0.16462371836E+02  0.57517230507E+02  0.41800000000E+01 0. -1.
         -5    1    3    3    0  502  0.21817353932E+02 -0.49962013420E+02 -0.51939801701E+02  0.75414952883E+02  0.41800000000E+01 0. -1.
        -11    1    1    2    0    0 -0.10148465047E+02  0.21883941503E+02 -0.84668558371E+00  0.24137421465E+02  0.00000000000E+00 0.  1.
         11    1    1    2    0    0 -0.17164761955E+02 -0.26598660775E+02  0.14853966321E+03  0.15187544026E+03  0.00000000000E+00 0. -1.
</event>
<event>
 7    1  0.2766180E-009  0.1938831E+03  0.7561462E-02  0.1155005E+00
          2   -1    0    0  501    0  0.00000000000E+00  0.00000000000E+00  0.95632609584E+02  0.95632609584E+02  0.00000000000E+00 0. -1.
         -2   -1    0    0    0  501 -0.00000000000E+00 -0.00000000000E+00 -0.44684686078E+03  0.44684686078E+03  0.00000000000E+00 0.  1.
         25    2    1    2    0    0  0.16041572154E+03  0.17557637704E+02 -0.27436416094E+03  0.34199965010E+03  0.12508634417E+03 0.  0.
          5    1    3    3  502    0  0.16663231535E+03 -0.16862063291E+02 -0.24077190245E+03  0.29332446046E+03  0.41800000000E+01 0. -1.
         -5    1    3    3    0  502 -0.62165938076E+01  0.34419700995E+02 -0.33592258496E+02  0.48675189635E+02  0.41800000000E+01 0. -1.
        -11    1    1    2    0    0 -0.10061233941E+03  0.33839196645E+02 -0.48206061336E+02  0.11658369706E+03  0.00000000000E+00 0.  1.
         11    1    1    2    0    0 -0.59803382134E+02 -0.51396834348E+02 -0.28644028913E+02  0.83896123200E+02  0.00000000000E+00 0. -1.
</event>
<event>
 7    1  0.2766180E-009  0.9008847E+02  0.7561462E-02  0.1302638E+00
          2   -1    0    0  501    0  0.00000000000E+00  0.00000000000E+00  0.95448498376E+02  0.95448498376E+02  0.00000000000E+00 0. -1.
         -2   -1    0    0    0  501 -0.00000000000E+00 -0.00000000000E+00 -0.33489311695E+03  0.33489311695E+03  0.00000000000E+00 0.  1.
         25    2    1    2    0    0  0.60423507879E+02  0.35452570199E+01  0.27744510001E+02  0.14170771217E+03  0.12509096171E+03 0.  0.
          5    1    3    3  502    0 -0.50077740697E+01  0.63922712326E+01 -0.43730590208E+02  0.44674107183E+02  0.41800000000E+01 0. -1.
         -5    1    3    3    0  502  0.65431281949E+02 -0.28470142127E+01  0.71475100210E+02  0.97033604990E+02  0.41800000000E+01 0. -1.
        -11    1    1    2    0    0 -0.58001326731E+01  0.36961457576E+02 -0.13349107665E+03  0.13863498271E+03  0.00000000000E+00 0.  1.
         11    1    1    2    0    0 -0.54623375206E+02 -0.40506714596E+02 -0.13369805193E+03  0.14999892045E+03  0.00000000000E+00 0. -1.
</event>
<event>
 7    1  0.2766180E-009  0.8360548E+02  0.7561462E-02  0.1319120E+00
          2   -1    0    0  501    0  0.00000000000E+00  0.00000000000E+00  0.10763162697E+03  0.10763162697E+03  0.00000000000E+00 0. -1.
         -2   -1    0    0    0  501 -0.00000000000E+00 -0.00000000000E+00 -0.12695560947E+03  0.12695560947E+03  0.00000000000E+00 0.  1.
         25    2    1    2    0    0 -0.45122698349E+01 -0.40504619548E+02 -0.19024613882E+01  0.13157841558E+03  0.12509306656E+03 0.  0.
          5    1    3    3  502    0 -0.45686356765E+02 -0.49091065294E+02  0.34738819831E+02  0.75640160559E+02  0.41800000000E+01 0. -1.
         -5    1    3    3    0  502  0.41174086930E+02  0.85864457456E+01 -0.36641281219E+02  0.55938255018E+02  0.41800000000E+01 0. -1.
        -11    1    1    2    0    0  0.20981136304E+02  0.34190809448E+02 -0.51115857379E+02  0.64977306861E+02  0.00000000000E+00 0.  1.
         11    1    1    2    0    0 -0.16468866469E+02  0.63138101001E+01  0.33694336265E+02  0.38031514000E+02  0.00000000000E+00 0. -1.
</event>
<event>
 7    1  0.2766180E-009  0.1366598E+03  0.7561462E-02  0.1217895E+00
         -2   -1    0    0    0  501 -0.00000000000E+00  0.00000000000E+00  0.91504399731E+02  0.91504399731E+02  0.00000000000E+00 0.  1.
          2   -1    0    0  501    0  0.00000000000E+00 -0.00000000000E+00 -0.29528330690E+03  0.29528330690E+03  0.00000000000E+00 0. -1.
         25    2    1    2    0    0 -0.11324512868E+03 -0.18288690241E+01 -0.77689039578E+02  0.18574931473E+03  0.12505765518E+03 0.  0.
          5    1    3    3  502    0 -0.14975294337E+02  0.12420981182E+02  0.32030667242E+02  0.37709100466E+02  0.41800000000E+01 0. -1.
         -5    1    3    3    0  502 -0.98269834347E+02 -0.14249850206E+02 -0.10971970682E+03  0.14804021426E+03  0.41800000000E+01 0. -1.
        -11    1    1    2    0    0  0.84673490008E+02  0.49775286020E+02 -0.62457670745E+02  0.11639647608E+03  0.00000000000E+00 0.  1.
         11    1    1    2    0    0  0.28571638676E+02 -0.47946416996E+02 -0.63632196845E+02  0.84641915826E+02  0.00000000000E+00 0. -1.
</event>
<event>
 7    1  0.2766180E-009  0.1480864E+03  0.7561462E-02  0.1202844E+00
         -2   -1    0    0    0  501 -0.00000000000E+00  0.00000000000E+00  0.61334884940E+02  0.61334884940E+02  0.00000000000E+00 0. -1.
          2   -1    0    0  501    0  0.00000000000E+00 -0.00000000000E+00 -0.36753087860E+03  0.36753087860E+03  0.00000000000E+00 0.  1.
         25    2    1    2    0    0 -0.92185535634E+02  0.43408531470E+02 -0.19417214518E+03  0.25245439923E+03  0.12509167894E+03 0.  0.
          5    1    3    3  502    0  0.25515928517E+02 -0.13420773788E+02 -0.23410398615E+02  0.37372435571E+02  0.41800000000E+01 0. -1.
         -5    1    3    3    0  502 -0.11770146415E+03  0.56829305259E+02 -0.17076174657E+03  0.21508196366E+03  0.41800000000E+01 0. -1.
        -11    1    1    2    0    0  0.44037450588E+02  0.26493151189E+02 -0.43056444013E+02  0.67045070551E+02  0.00000000000E+00 0.  1.
         11    1    1    2    0    0  0.48148085046E+02 -0.69901682660E+02 -0.68967404463E+02  0.10936629376E+03  0.00000000000E+00 0. -1.
</event>
<event>
 7    1  0.2766180E-009  0.8733223E+02  0.7561462E-02  0.1309444E+00
         -2   -1    0    0    0  501 -0.00000000000E+00  0.00000000000E+00  0.31102355371E+03  0.31102355371E+03  0.00000000000E+00 0.  1.
          2   -1    0    0  501    0  0.00000000000E+00 -0.00000000000E+00 -0.40901797826E+02  0.40901797826E+02  0.00000000000E+00 0. -1.
         25    2    1    2    0    0  0.12762994057E+02  0.18646745060E+02  0.23879069775E+03  0.27051716743E+03  0.12509174802E+03 0.  0.
          5    1    3    3  502    0  0.24190878742E+02  0.61552038401E+02  0.20235154701E+03  0.21292598015E+03  0.41800000000E+01 0. -1.
         -5    1    3    3    0  502 -0.11427884685E+02 -0.42905293341E+02  0.36439150738E+02  0.57591187273E+02  0.41800000000E+01 0. -1.
        -11    1    1    2    0    0  0.19813229950E+02 -0.23638095746E+02  0.36783668171E+02  0.48003769599E+02  0.00000000000E+00 0.  1.
         11    1    1    2    0    0 -0.32576224008E+02  0.49913506857E+01 -0.54526100412E+01  0.33404414507E+02  0.00000000000E+00 0. -1.
</event>
<event>
 7    1  0.2766180E-009  0.1192739E+03  0.7561462E-02  0.1244300E+00
         -1   -1    0    0    0  501 -0.00000000000E+00  0.00000000000E+00  0.10666232169E+03  0.10666232169E+03  0.00000000000E+00 0.  1.
          1   -1    0    0  501    0  0.00000000000E+00 -0.00000000000E+00 -0.29061784356E+03  0.29061784356E+03  0.00000000000E+00 0. -1.
         25    2    1    2    0    0 -0.50360876819E+02  0.70714080184E+01  0.46018857529E+02  0.14266115598E+03  0.12509295525E+03 0.  0.
          5    1    3    3  502    0 -0.19641337435E+02  0.64719575729E+02  0.11740757631E+02  0.68772984583E+02  0.41800000000E+01 0.  1.
         -5    1    3    3    0  502 -0.30719539384E+02 -0.57648167710E+02  0.34278099899E+02  0.73888171401E+02  0.41800000000E+01 0.  1.
        -11    1    1    2    0    0  0.47643023203E+02 -0.46046852240E+02 -0.17542772845E+03  0.18752348698E+03  0.00000000000E+00 0. -1.
         11    1    1    2    0    0  0.27178536161E+01  0.38975444222E+02 -0.54546650959E+02  0.67095522291E+02  0.00000000000E+00 0.  1.
</event>
<event>
 7    1  0.2766180E-009  0.2695931E+03  0.7561462E-02  0.1101513E+00
         -2   -1    0    0    0  501 -0.00000000000E+00  0.00000000000E+00  0.12752244936E+03  0.12752244936E+03  0.00000000000E+00 0.  1.
          2   -1    0    0  501    0  0.00000000000E+00 -0.00000000000E+00 -0.84978761428E+03  0.84978761428E+03  0.00000000000E+00 0. -1.
         25    2    1    2    0    0  0.22037453993E+03  0.13645715327E+03 -0.11319813812E+03  0.30927044045E+03  0.12509554082E+03 0.  0.
          5    1    3    3  502    0  0.25447968232E+02 -0.11510198568E+02 -0.48466021250E+02  0.56093773042E+02  0.41800000000E+01 0.  1.
         -5    1    3    3    0  502  0.19492657170E+03  0.14796735184E+03 -0.64732116874E+02  0.25317666741E+03  0.41800000000E+01 0.  1.
        -11    1    1    2    0    0 -0.10237828375E+03 -0.28544812102E+02 -0.16710311024E+03  0.19803931108E+03  0.00000000000E+00 0.  1.
         11    1    1    2    0    0 -0.11799625618E+03 -0.10791234117E+03 -0.44196391656E+03  0.47000031212E+03  0.00000000000E+00 0. -1.
</event>
<event>
 7    1  0.2766180E-009  0.1050953E+03  0.7561462E-02  0.1269932E+00
         -2   -1    0    0    0  501 -0.00000000000E+00  0.00000000000E+00  0.57922484897E+02  0.57922484897E+02  0.00000000000E+00 0.  1.
          2   -1    0    0  501    0  0.00000000000E+00 -0.00000000000E+00 -0.22346313080E+03  0.22346313080E+03  0.00000000000E+00 0. -1.
         25    2    1    2    0    0  0.23271103488E+02  0.11558358703E+01 -0.65678236670E+02  0.14319325730E+03  0.12509115856E+03 0.  0.
          5    1    3    3  502    0  0.53514843209E+02  0.47417678167E+02 -0.33113636708E+02  0.78906653601E+02  0.41800000000E+01 0. -1.
         -5    1    3    3    0  502 -0.30243739721E+02 -0.46261842296E+02 -0.32564599962E+02  0.64286603703E+02  0.41800000000E+01 0. -1.
        -11    1    1    2    0    0  0.15726405893E+01  0.37313083767E+02 -0.79977875747E+02  0.88267774571E+02  0.00000000000E+00 0. -1.
         11    1    1    2    0    0 -0.24843744077E+02 -0.38468919638E+02 -0.19884533484E+02  0.49924583822E+02  0.00000000000E+00 0.  1.
</event>
<event>
 7    1  0.2766180E-009  0.1313927E+03  0.7561462E-02  0.1225404E+00
          2   -1    0    0  501    0  0.00000000000E+00  0.00000000000E+00  0.25350342559E+03  0.25350342559E+03  0.00000000000E+00 0. -1.
         -2   -1    0    0    0  501 -0.00000000000E+00 -0.00000000000E+00 -0.10731350672E+03  0.10731350672E+03  0.00000000000E+00 0.  1.
         25    2    1    2    0    0  0.19768395683E+02 -0.11404866429E+03  0.12810301640E+03  0.21320590278E+03  0.12509391223E+03 0.  0.
          5    1    3    3  502    0  0.94575213156E+01 -0.36034120175E+02  0.12906182225E+03  0.13439616397E+03  0.41800000000E+01 0. -1.
         -5    1    3    3    0  502  0.10310874367E+02 -0.78014544112E+02 -0.95880585387E+00  0.78809738813E+02  0.41800000000E+01 0. -1.
        -11    1    1    2    0    0 -0.52683822795E+02  0.94546466254E+02  0.13925306997E+02  0.10912622801E+03  0.00000000000E+00 0.  1.
         11    1    1    2    0    0  0.32915427113E+02  0.19502198033E+02  0.41615954763E+01  0.38484801507E+02  0.00000000000E+00 0. -1.
</event>
<event>
 7    1  0.2766180E-009  0.1205514E+03  0.7561462E-02  0.1242190E+00
         -2   -1    0    0    0  501 -0.00000000000E+00  0.00000000000E+00  0.60145677110E+02  0.60145677110E+02  0.00000000000E+00 0. -1.
          2   -1    0    0  501    0  0.00000000000E+00 -0.00000000000E+00 -0.30208624411E+03  0.30208624411E+03  0.00000000000E+00 0.  1.
         25    2    1    2    0    0 -0.38400341412E+02 -0.71289280945E+02 -0.13406990499E+03  0.20044674882E+03  0.12508961543E+03 0.  0.
          5    1    3    3  502    0  0.44546302105E+02 -0.38081826116E+02 -0.43081534780E+02  0.72856636970E+02  0.41800000000E+01 0. -1.
         -5    1    3    3    0  502 -0.82946643517E+02 -0.33207454829E+02 -0.90988370213E+02  0.12759011185E+03  0.41800000000E+01 0. -1.
        -11    1    1    2    0    0  0.19309923205E+02  0.21588581180E+00 -0.81269629433E+02  0.83532463205E+02  0.00000000000E+00 0.  1.
         11    1    1    2    0    0  0.19090418207E+02  0.71073395134E+02 -0.26601032576E+02  0.78252709201E+02  0.00000000000E+00 0. -1.
</event>
<event>
 7    1  0.2766180E-009  0.1140201E+03  0.7561462E-02  0.1253301E+00
          1   -1    0    0  501    0  0.00000000000E+00  0.00000000000E+00  0.14187333545E+03  0.14187333545E+03  0.00000000000E+00 0. -1.
         -1   -1    0    0    0  501 -0.00000000000E+00 -0.00000000000E+00 -0.10131957039E+03  0.10131957039E+03  0.00000000000E+00 0.  1.
         25    2    1    2    0    0  0.48685100011E+02  0.65614922561E+00  0.38157584981E+02  0.13955170539E+03  0.12509199691E+03 0.  0.
          5    1    3    3  502    0  0.40817747463E+02 -0.58069956327E+02  0.44188970075E+01  0.71240489797E+02  0.41800000000E+01 0. -1.
         -5    1    3    3    0  502  0.78673525476E+01  0.58726105553E+02  0.33738687974E+02  0.68311215592E+02  0.41800000000E+01 0. -1.
        -11    1    1    2    0    0 -0.24145351086E+02  0.41931846304E+02 -0.16292380543E+02  0.51056041536E+02  0.00000000000E+00 0.  1.
         11    1    1    2    0    0 -0.24539748925E+02 -0.42587995530E+02  0.18688560616E+02  0.52585158918E+02  0.00000000000E+00 0. -1.
</event>
<event>
 7    1  0.2766180E-009  0.1367935E+03  0.7561462E-02  0.1217710E+00
          2   -1    0    0  501    0  0.00000000000E+00  0.00000000000E+00  0.70867457356E+03  0.70867457356E+03  0.00000000000E+00 0. -1.
         -2   -1    0    0    0  501 -0.00000000000E+00 -0.00000000000E+00 -0.28221690617E+02  0.28221690617E+02  0.00000000000E+00 0.  1.
         25    2    1    2    0    0 -0.73279141219E+02  0.40227533959E+02  0.45195931294E+03  0.47634404965E+03  0.12509334937E+03 0.  0.
          5    1    3    3  502    0 -0.73722876818E+01 -0.43124053220E+02  0.12228385262E+03  0.12994170849E+03  0.41800000000E+01 0.  1.
         -5    1    3    3    0  502 -0.65906853537E+02  0.83351587179E+02  0.32967546031E+03  0.34640234116E+03  0.41800000000E+01 0.  1.
        -11    1    1    2    0    0  0.78841138460E+02 -0.62330484555E+02  0.16626344517E+03  0.19427956047E+03  0.00000000000E+00 0. -1.
         11    1    1    2    0    0 -0.55619972406E+01  0.22102950596E+02  0.62230124843E+02  0.66272654061E+02  0.00000000000E+00 0.  1.
</event>
<event>
 7    1  0.2766180E-009  0.1241363E+03  0.7561462E-02  0.1236425E+00
         -1   -1    0    0    0  501 -0.00000000000E+00  0.00000000000E+00  0.76403407219E+03  0.76403407219E+03  0.00000000000E+00 0.  1.
          1   -1    0    0  501    0  0.00000000000E+00 -0.00000000000E+00 -0.26077775744E+02  0.26077775744E+02  0.00000000000E+00 0. -1.
         25    2    1    2    0    0 -0.81219287955E+02  0.35742854600E+02  0.44321465347E+03  0.46899971170E+03  0.12508947249E+03 0.  0.
          5    1    3    3  502    0 -0.67126975715E+02  0.63749024811E+02  0.16706753427E+03  0.19104712099E+03  0.41800000000E+01 0.  1.
         -5    1    3    3    0  502 -0.14092312240E+02 -0.28006170211E+02  0.27614711920E+03  0.27795259070E+03  0.41800000000E+01 0.  1.
        -11    1    1    2    0    0  0.68037090843E+02  0.16570842444E+02  0.12858097295E+03  0.14641279027E+03  0.00000000000E+00 0. -1.
         11    1    1    2    0    0  0.13182197113E+02 -0.52313697044E+02  0.16616067003E+03  0.17469934597E+03  0.00000000000E+00 0.  1.
</event>
<event>
 7    1  0.2766180E-009  0.9405756E+02  0.7561462E-02  0.1293313E+00
         -2   -1    0    0    0  501 -0.00000000000E+00  0.00000000000E+00  0.24576641814E+02  0.24576641814E+02  0.00000000000E+00 0.  1.
          2   -1    0    0  501    0  0.00000000000E+00 -0.00000000000E+00 -0.54367334881E+03  0.54367334881E+03  0.00000000000E+00 0. -1.
         25    2    1    2    0    0  0.11629585894E+02 -0.30661599842E+02 -0.30834820959E+03  0.33436615155E+03  0.12508686569E+03 0.  0.
          5    1    3    3  502    0  0.43152447444E+01  0.35055889917E+02 -0.22547853815E+03  0.22826646780E+03  0.41800000000E+01 0.  1.
         -5    1    3    3    0  502  0.73143411492E+01 -0.65717489759E+02 -0.82869671446E+02  0.10609968375E+03  0.41800000000E+01 0.  1.
        -11    1    1    2    0    0  0.30311550320E+02 -0.56299530160E+01 -0.23991151213E+02  0.39064840846E+02  0.00000000000E+00 0.  1.
         11    1    1    2    0    0 -0.41941136214E+02  0.36291552858E+02 -0.18675734619E+03  0.19481899823E+03  0.00000000000E+00 0. -1.
</event>
<event>
 7    1  0.2766180E-009  0.1348868E+03  0.7561462E-02  0.1220380E+00
         -2   -1    0    0    0  501 -0.00000000000E+00  0.00000000000E+00  0.53592465849E+03  0.53592465849E+03  0.00000000000E+00 0.  1.
          2   -1    0    0  501    0  0.00000000000E+00 -0.00000000000E+00 -0.47148214157E+02  0.47148214157E+02  0.00000000000E+00 0. -1.
         25    2    1    2    0    0  0.59161717633E+02  0.98396673672E+02  0.31307556078E+03  0.35615316501E+03  0.12508699360E+03 0.  0.
          5    1    3    3  502    0  0.70158264585E+02  0.29860099127E+02  0.25295000150E+03  0.26422525100E+03  0.41800000000E+01 0.  1.
         -5    1    3    3    0  502 -0.10996546952E+02  0.68536574545E+02  0.60125559282E+02  0.91927914010E+02  0.41800000000E+01 0.  1.
        -11    1    1    2    0    0 -0.64069802309E+02 -0.69359457469E+02  0.70951013202E+02  0.11810893354E+03  0.00000000000E+00 0. -1.
         11    1    1    2    0    0  0.49080846759E+01 -0.29037216203E+02  0.10474987035E+03  0.10881077409E+03  0.00000000000E+00 0.  1.
</event>
<event>
 7    1  0.2766180E-009  0.1701310E+03  0.7561462E-02  0.1177711E+00
          2   -1    0    0  501    0  0.00000000000E+00  0.00000000000E+00  0.47362608897E+03  0.47362608897E+03  0.00000000000E+00 0.  1.
         -2   -1    0    0    0  501 -0.00000000000E+00 -0.00000000000E+00 -0.71480530820E+02  0.71480530820E+02  0.00000000000E+00 0. -1.
         25    2    1    2    0    0  0.34015840844E+02 -0.13539303777E+03  0.27833069598E+03  0.33556685725E+03  0.12509511283E+03 0.  0.
          5    1    3    3  502    0 -0.37816857226E+02 -0.47624071029E+02  0.43932939250E+02  0.75138155307E+02  0.41800000000E+01 0.  1.
         -5    1    3    3    0  502  0.71832698070E+02 -0.87768966739E+02  0.23439775673E+03  0.26042870194E+03  0.41800000000E+01 0.  1.
        -11    1    1    2    0    0 -0.59674293237E+02  0.54032108606E+02  0.80567801028E+02  0.11389319820E+03  0.00000000000E+00 0. -1.
         11    1    1    2    0    0  0.25658452393E+02  0.81360929162E+02  0.43247061146E+02  0.95646564345E+02  0.00000000000E+00 0.  1.
</event>
<event>
 7    1  0.2766180E-009  0.9201223E+02  0.7561462E-02  0.1298051E+00
         -2   -1    0    0    0  501 -0.00000000000E+00  0.00000000000E+00  0.16940048341E+03  0.16940048341E+03  0.00000000000E+00 0.  1.
          2   -1    0    0  501    0  0.00000000000E+00 -0.00000000000E+00 -0.90000334298E+02  0.90000334298E+02  0.00000000000E+00 0. -1.
         25    2    1    2    0    0 -0.20964931448E+02 -0.50182772911E+01  0.10396944696E+03  0.16408067683E+03  0.12509241044E+03 0.  0.
          5    1    3    3  502    0 -0.60920366874E+02 -0.38632666182E+02  0.44634411556E+02  0.84932191137E+02  0.41800000000E+01 0.  1.
         -5    1    3    3    0  502  0.39955435426E+02  0.33614388891E+02  0.59335035408E+02  0.79148485693E+02  0.41800000000E+01 0.  1.
        -11    1    1    2    0    0  0.26287406891E+02 -0.20488305224E+02  0.23405580283E+02  0.40726153764E+02  0.00000000000E+00 0.  1.
         11    1    1    2    0    0 -0.53224754431E+01  0.25506582515E+02 -0.47974878137E+02  0.54593987111E+02  0.00000000000E+00 0. -1.
</event>
<event>
 7    1  0.2766180E-009  0.1175606E+03  0.7561462E-02  0.1247176E+00
          1   -1    0    0  501    0  0.00000000000E+00  0.00000000000E+00  0.31420527797E+03  0.31420527797E+03  0.00000000000E+00 0. -1.
         -1   -1    0    0    0  501 -0.00000000000E+00 -0.00000000000E+00 -0.68348045762E+02  0.68348045762E+02  0.00000000000E+00 0.  1.
         25    2    1    2    0    0 -0.57847099024E+02 -0.28106741790E+02  0.35918752901E+02  0.14516554574E+03  0.12508638239E+03 0.  0.
          5    1    3    3  502    0  0.28234022473E+02 -0.35172191476E+02 -0.11241041861E+02  0.46669867156E+02  0.41800000000E+01 0. -1.
         -5    1    3    3    0  502 -0.86081121497E+02  0.70654496862E+01  0.47159794762E+02  0.98495678583E+02  0.41800000000E+01 0. -1.
        -11    1    1    2    0    0  0.35935398487E+02  0.56822971402E+02  0.17353918553E+03  0.18610763514E+03  0.00000000000E+00 0. -1.
         11    1    1    2    0    0  0.21911700538E+02 -0.28716229612E+02  0.36399293780E+02  0.51280142855E+02  0.00000000000E+00 0.  1.
</event>
<event>
 7    1  0.2766180E-009  0.1118403E+03  0.7561462E-02  0.1257199E+00
         -4   -1    0    0    0  501 -0.00000000000E+00  0.00000000000E+00  0.78529273492E+02  0.78529273492E+02  0.00000000000E+00 0.  1.
          4   -1    0    0  501    0  0.00000000000E+00 -0.00000000000E+00 -0.30657577289E+03  0.30657577289E+03  0.00000000000E+00 0. -1.
         25    2    1    2    0    0  0.70464852974E+02 -0.64510955848E+02 -0.18569004627E+03  0.24342376216E+03  0.12508947108E+03 0.  0.
          5    1    3    3  502    0  0.87045065277E+02 -0.37532731146E+02 -0.56692764743E+02  0.11053095164E+03  0.41800000000E+01 0. -1.
         -5    1    3    3    0  502 -0.16580212303E+02 -0.26978224702E+02 -0.12899728152E+03  0.13289281052E+03  0.41800000000E+01 0. -1.
        -11    1    1    2    0    0 -0.37473237888E+02  0.44871780030E+02 -0.72308823109E+02  0.92985407997E+02  0.00000000000E+00 0. -1.
         11    1    1    2    0    0 -0.32991615086E+02  0.19639175818E+02  0.29952369985E+02  0.48695876216E+02  0.00000000000E+00 0.  1.
</event>
<event>
 7    1  0.2766180E-009  0.1087726E+03  0.7561462E-02  0.1262860E+00
         -1   -1    0    0    0  501 -0.00000000000E+00  0.00000000000E+00  0.17195723122E+03  0.17195723122E+03  0.00000000000E+00 0.  1.
          1   -1    0    0  501    0  0.00000000000E+00 -0.00000000000E+00 -0.87507957194E+02  0.87507957194E+02  0.00000000000E+00 0. -1.
         25    2    1    2    0    0 -0.22197562835E+02 -0.24850513219E+02 -0.70454935083E+00  0.12945276112E+03  0.12508893304E+03 0.  0.
          5    1    3    3  502    0 -0.61555626917E+01 -0.71392026063E+02  0.22007311368E+02  0.75076670751E+02  0.41800000000E+01 0.  1.
         -5    1    3    3    0  502 -0.16042000143E+02  0.46541512844E+02 -0.22711860719E+02  0.54376090368E+02  0.41800000000E+01 0.  1.
        -11    1    1    2    0    0 -0.84208753443E+01  0.53661588640E+02  0.35224126199E+02  0.64739603825E+02  0.00000000000E+00 0.  1.
         11    1    1    2    0    0  0.30618438179E+02 -0.28811075421E+02  0.49929697178E+02  0.65272823470E+02  0.00000000000E+00 0. -1.
</event>
<event>
 7    1  0.2766180E-009  0.1020391E+03  0.7561462E-02  0.1276065E+00
         -2   -1    0    0    0  501 -0.00000000000E+00  0.00000000000E+00  0.78849146767E+02  0.78849146767E+02  0.00000000000E+00 0.  1.
          2   -1    0    0  501    0  0.00000000000E+00 -0.00000000000E+00 -0.26405979105E+03  0.26405979105E+03  0.00000000000E+00 0. -1.
         25    2    1    2    0    0  0.50198350966E+01 -0.94700240965E+02 -0.80744220305E+02  0.17652411758E+03  0.12509116912E+03 0.  0.
          5    1    3    3  502    0  0.22070464604E+02 -0.85953652579E+02  0.45958338645E+01  0.88959147300E+02  0.41800000000E+01 0. -1.
         -5    1    3    3    0  502 -0.17050629507E+02 -0.87465883866E+01 -0.85340054169E+02  0.87564970283E+02  0.41800000000E+01 0. -1.
        -11    1    1    2    0    0  0.49614785124E+00  0.78668006707E+02 -0.11993508327E+03  0.14343404631E+03  0.00000000000E+00 0. -1.
         11    1    1    2    0    0 -0.55159829478E+01  0.16032234258E+02  0.15468659295E+02  0.22950773921E+02  0.00000000000E+00 0.  1.
</event>
<event>
 7    1  0.2766180E-009  0.9857328E+02  0.7561462E-02  0.1283325E+00
         -3   -1    0    0    0  501 -0.00000000000E+00  0.00000000000E+00  0.10790299694E+03  0.10790299694E+03  0.00000000000E+00 0.  1.
          3   -1    0    0  501    0  0.00000000000E+00 -0.00000000000E+00 -0.12644915452E+03  0.12644915452E+03  0.00000000000E+00 0. -1.
         25    2    1    2    0    0 -0.12574910596E+02  0.15419348689E+02 -0.48537955255E+02  0.13564658351E+03  0.12509267695E+03 0.  0.
          5    1    3    3  502    0 -0.49343931781E+02  0.53934797360E+02 -0.29574862764E+02  0.78967910428E+02  0.41800000000E+01 0.  1.
         -5    1    3    3    0  502  0.36769021184E+02 -0.38515448671E+02 -0.18963092491E+02  0.56678673079E+02  0.41800000000E+01 0.  1.
        -11    1    1    2    0    0  0.32294267409E+02  0.13917321546E+02 -0.17678832817E+02  0.39359276877E+02  0.00000000000E+00 0. -1.
         11    1    1    2    0    0 -0.19719356813E+02 -0.29336670236E+02  0.47670630485E+02  0.59346291076E+02  0.00000000000E+00 0.  1.
</event>
<event>
 7    1  0.2766180E-009  0.1271226E+03  0.7561462E-02  0.1231789E+00
          1   -1    0    0  501    0  0.00000000000E+00  0.00000000000E+00  0.32751437724E+03  0.32751437724E+03  0.00000000000E+00 0. -1.
         -1   -1    0    0    0  501 -0.00000000000E+00 -0.00000000000E+00 -0.66758489589E+02  0.66758489589E+02  0.00000000000E+00 0.  1.
         25    2    1    2    0    0  0.18685883688E+01 -0.71752334136E+02  0.23088444988E+03  0.27222671783E+03  0.12509143706E+03 0.  0.
          5    1    3    3  502    0  0.81242930125E+01 -0.10637490126E+03  0.15199247546E+03  0.18574393328E+03  0.41800000000E+01 0.  1.
         -5    1    3    3    0  502 -0.62557046437E+01  0.34622567120E+02  0.78891974426E+02  0.86482784549E+02  0.41800000000E+01 0.  1.
        -11    1    1    2    0    0 -0.41812036489E+02  0.54108855687E+02 -0.13023344097E+01  0.68393791634E+02  0.00000000000E+00 0.  1.
         11    1    1    2    0    0  0.39943448120E+02  0.17643478449E+02  0.31173772182E+02  0.53652357371E+02  0.00000000000E+00 0. -1.
</event>
<event>
 7    1  0.2766180E-009  0.1611756E+03  0.7561462E-02  0.1187376E+00
          1   -1    0    0  501    0  0.00000000000E+00  0.00000000000E+00  0.22989842105E+03  0.22989842105E+03  0.00000000000E+00 0. -1.
         -1   -1    0    0    0  501 -0.00000000000E+00 -0.00000000000E+00 -0.21064930719E+03  0.21064930719E+03  0.00000000000E+00 0.  1.
         25    2    1    2    0    0 -0.57734299307E+02  0.12668509469E+03 -0.12105175648E+03  0.22290022850E+03  0.12509445066E+03 0.  0.
          5    1    3    3  502    0  0.16211263630E+02 -0.15144088940E+02 -0.52412421011E+00  0.22580868107E+02  0.41800000000E+01 0.  1.
         -5    1    3    3    0  502 -0.73945562936E+02  0.14182918363E+03 -0.12052763227E+03  0.20031936039E+03  0.41800000000E+01 0.  1.
        -11    1    1    2    0    0  0.32718093342E+02 -0.56845981425E+02  0.12606912280E+03  0.14211039005E+03  0.00000000000E+00 0. -1.
         11    1    1    2    0    0  0.25016205965E+02 -0.69839113265E+02  0.14231747541E+02  0.75537109692E+02  0.00000000000E+00 0.  1.
</event>
<event>
 7    1  0.2766180E-009  0.1161051E+03  0.7561462E-02  0.1249664E+00
          3   -1    0    0  501    0  0.00000000000E+00  0.00000000000E+00  0.18600190267E+03  0.18600190267E+03  0.00000000000E+00 0. -1.
         -3   -1    0    0    0  501 -0.00000000000E+00 -0.00000000000E+00 -0.79779518429E+02  0.79779518429E+02  0.00000000000E+00 0.  1.
         25    2    1    2    0    0  0.14904738198E+02 -0.49876524805E+02  0.34051584487E+02  0.13970440089E+03  0.12509192729E+03 0.  0.
          5    1    3    3  502    0 -0.51492116411E+02 -0.28302072481E+02 -0.58294083485E+01  0.59193747650E+02  0.41800000000E+01 0. -1.
         -5    1    3    3    0  502  0.66396854609E+02 -0.21574452324E+02  0.39880992835E+02  0.80510653237E+02  0.41800000000E+01 0. -1.
        -11    1    1    2    0    0 -0.52350376697E+02  0.22508253721E+02  0.38836244065E+02  0.68959678646E+02  0.00000000000E+00 0.  1.
         11    1    1    2    0    0  0.37445638498E+02  0.27368271084E+02  0.33334555692E+02  0.57117341569E+02  0.00000000000E+00 0. -1.
</event>
<event>
 7    1  0.2766180E-009  0.9580785E+02  0.7561462E-02  0.1289367E+00
          1   -1    0    0  501    0  0.00000000000E+00  0.00000000000E+00  0.82123430171E+03  0.82123430171E+03  0.00000000000E+00 0. -1.
         -1   -1    0    0    0  501 -0.00000000000E+00 -0.00000000000E+00 -0.15140081591E+02  0.15140081591E+02  0.00000000000E+00 0.  1.
         25    2    1    2    0    0 -0.74670277978E+01  0.56481811200E+01  0.53648279282E+03  0.55095240572E+03  0.12508840045E+03 0.  0.
          5    1    3    3  502    0  0.52464506298E+02 -0.12242212865E+02  0.15036687449E+03  0.15978130536E+03  0.41800000000E+01 0.  1.
         -5    1    3    3    0  502 -0.59931534096E+02  0.17890393985E+02  0.38611591833E+03  0.39117110037E+03  0.41800000000E+01 0.  1.
        -11    1    1    2    0    0  0.39429043022E+02  0.78452957634E+01  0.22671505169E+03  0.23025184638E+03  0.00000000000E+00 0. -1.
         11    1    1    2    0    0 -0.31962015224E+02 -0.13493476883E+02  0.42896375604E+02  0.55170131190E+02  0.00000000000E+00 0.  1.
</event>
<event>
 7    1  0.2766180E-009  0.7992089E+02  0.7561462E-02  0.1329276E+00
          1   -1    0    0  501    0  0.00000000000E+00  0.00000000000E+00  0.29990691182E+03  0.29990691182E+03  0.00000000000E+00 0. -1.
         -1   -1    0    0    0  501 -0.00000000000E+00 -0.00000000000E+00 -0.64068863102E+02  0.64068863102E+02  0.00000000000E+00 0.  1.
         25    2    1    2    0    0 -0.32819912635E+02 -0.59425780622E+02  0.60857683654E+02  0.15479296952E+03  0.12509450702E+03 0.  0.
          5    1    3    3  502    0 -0.64996835112E+01 -0.19658847616E+02  0.94145382232E+02  0.96485965669E+02  0.41800000000E+01 0.  1.
         -5    1    3    3    0  502 -0.26320229124E+02 -0.39766933006E+02 -0.33287698579E+02  0.58307003855E+02  0.41800000000E+01 0.  1.
        -11    1    1    2    0    0  0.50735773306E+02  0.45614976481E+02  0.56562627498E+02  0.88623786885E+02  0.00000000000E+00 0.  1.
         11    1    1    2    0    0 -0.17915860671E+02  0.13810804141E+02  0.11841773757E+03  0.12055901851E+03  0.00000000000E+00 0. -1.
</event>
<event>
 7    1  0.2766180E-009  0.1115522E+03  0.7561462E-02  0.1257722E+00
         -1   -1    0    0    0  501 -0.00000000000E+00  0.00000000000E+00  0.99985240028E+02  0.99985240028E+02  0.00000000000E+00 0.  1.
          1   -1    0    0  501    0  0.00000000000E+00 -0.00000000000E+00 -0.24627747572E+03  0.24627747572E+03  0.00000000000E+00 0. -1.
         25    2    1    2    0    0  0.59924089287E+02  0.50544401661E+02  0.11575239864E+02  0.14807840832E+03  0.12509035062E+03 0.  0.
          5    1    3    3  502    0  0.73338553985E+02  0.30688117417E+02 -0.41439395617E+02  0.89749651589E+02  0.41800000000E+01 0.  1.
         -5    1    3    3    0  502 -0.13414464698E+02  0.19856284244E+02  0.53014635481E+02  0.58328756735E+02  0.41800000000E+01 0.  1.
        -11    1    1    2    0    0 -0.55149683887E+02 -0.75647489611E+02 -0.13196771056E+03  0.16180082493E+03  0.00000000000E+00 0.  1.
         11    1    1    2    0    0 -0.47744053999E+01  0.25103087950E+02 -0.25899764995E+02  0.36383482494E+02  0.00000000000E+00 0. -1.
</event>
<event>
 7    1  0.2766180E-009  0.1484497E+03  0.7561462E-02  0.1202391E+00
          1   -1    0    0  501    0  0.00000000000E+00  0.00000000000E+00  0.88541913525E+03  0.88541913525E+03  0.00000000000E+00 0. -1.
         -1   -1    0    0    0  501 -0.00000000000E+00 -0.00000000000E+00 -0.31581863711E+02  0.31581863711E+02  0.00000000000E+00 0.  1.
         25    2    1    2    0    0 -0.55373108700E+02  0.99841716064E+02  0.60002270286E+03  0.62346615736E+03  0.12509298937E+03 0.  0.
          5    1    3    3  502    0 -0.73228525750E+01 -0.23787904451E+02  0.35509888996E+02  0.43565045444E+02  0.41800000000E+01 0.  1.
         -5    1    3    3    0  502 -0.48050256125E+02  0.12362962051E+03  0.56451281386E+03  0.57990111191E+03  0.41800000000E+01 0.  1.
        -11    1    1    2    0    0  0.40136173540E+01 -0.85551898303E+02  0.10524279032E+03  0.13568817687E+03  0.00000000000E+00 0.  1.
         11    1    1    2    0    0  0.51359491346E+02 -0.14289817760E+02  0.14857177835E+03  0.15784666473E+03  0.00000000000E+00 0. -1.
</event>
<event>
 7    1  0.3256103E-009  0.1074950E+03  0.7561462E-02  0.1265280E+00
         -1   -1    0    0    0  501 -0.00000000000E+00  0.00000000000E+00  0.57495668642E+02  0.57495668642E+02  0.00000000000E+00 0.  1.
          1   -1    0    0  501    0  0.00000000000E+00 -0.00000000000E+00 -0.36333506711E+03  0.36333506711E+03  0.00000000000E+00 0. -1.
         25    2    1    2    0    0 -0.57049306607E+02 -0.45545116818E+02 -0.77972766419E+02  0.16449760332E+03  0.12510287025E+03 0.  0.
          5    1    3    3  502    0  0.11268491694E+01 -0.72860401324E+02 -0.15186244080E+02  0.74552010566E+02  0.41800000000E+01 0.  1.
         -5    1    3    3    0  502 -0.58176155776E+02  0.27315284506E+02 -0.62786522338E+02  0.89945592754E+02  0.41800000000E+01 0.  1.
        -11    1    1    2    0    0  0.26711166482E+02  0.37798425380E+02 -0.21893321196E+03  0.22377211326E+03  0.00000000000E+00 0.  1.
         11    1    1    2    0    0  0.30338140125E+02  0.77466914385E+01 -0.89334200860E+01  0.32561019163E+02  0.00000000000E+00 0. -1.
</event>
<event>
 7    1  0.2923399E-009  0.1929491E+03  0.7561462E-02  0.1155828E+00
         -1   -1    0    0    0  501 -0.00000000000E+00  0.00000000000E+00  0.22775084742E+02  0.22775084742E+02  0.00000000000E+00 0.  1.
          1   -1    0    0  501    0  0.00000000000E+00 -0.00000000000E+00 -0.19104893549E+04  0.19104893549E+04  0.00000000000E+00 0. -1.
         25    2    1    2    0    0  0.69634240997E+02  0.16202016110E+03 -0.10895170882E+04  0.11107640247E+04  0.12509905215E+03 0.  0.
          5    1    3    3  502    0  0.79349468680E+02  0.62377966315E+02 -0.34345344842E+03  0.35800152583E+03  0.41800000000E+01 0.  1.
         -5    1    3    3    0  502 -0.97152276832E+01  0.99642194781E+02 -0.74606363981E+03  0.75276249885E+03  0.41800000000E+01 0.  1.
        -11    1    1    2    0    0 -0.35031879379E+02 -0.24194917347E+02 -0.82560977881E+02  0.92892096902E+02  0.00000000000E+00 0.  1.
         11    1    1    2    0    0 -0.34602361617E+02 -0.13782524375E+03 -0.71563620401E+03  0.72960831803E+03  0.00000000000E+00 0. -1.
</event>
<event>
 7    1  0.2766180E-009  0.3447280E+03  0.7561462E-02  0.1064800E+00
         -1   -1    0    0    0  501 -0.00000000000E+00  0.00000000000E+00  0.44845033050E+03  0.44845033050E+03  0.00000000000E+00 0.  1.
          1   -1    0    0  501    0  0.00000000000E+00 -0.00000000000E+00 -0.27780852871E+03  0.27780852871E+03  0.00000000000E+00 0. -1.
         25    2    1    2    0    0 -0.33434755207E+02 -0.33420359332E+03  0.91864805785E+02  0.36999372155E+03  0.12508511823E+03 0.  0.
          5    1    3    3  502    0 -0.40165233464E+02 -0.85167571865E+02 -0.20831003604E+02  0.96530639632E+02  0.41800000000E+01 0. -1.
         -5    1    3    3    0  502  0.67304782575E+01 -0.24903602145E+03  0.11269580939E+03  0.27346308192E+03  0.41800000000E+01 0. -1.
        -11    1    1    2    0    0  0.42085579128E+02  0.69893809455E+02  0.51163392329E+01  0.81746666585E+02  0.00000000000E+00 0.  1.
         11    1    1    2    0    0 -0.86508239212E+01  0.26430978386E+03  0.73660656778E+02  0.27451847107E+03  0.00000000000E+00 0. -1.
</event>
<event>
 7    1  0.2766180E-009  0.8571506E+02  0.7561462E-02  0.1313573E+00
         -3   -1    0    0    0  501 -0.00000000000E+00  0.00000000000E+00  0.35088076877E+02  0.35088076877E+02  0.00000000000E+00 0.  1.
          3   -1    0    0  501    0  0.00000000000E+00 -0.00000000000E+00 -0.42333777323E+03  0.42333777323E+03  0.00000000000E+00 0. -1.
         25    2    1    2    0    0  0.45708372417E+02 -0.31804786787E+02 -0.22502187057E+03  0.26338395708E+03  0.12504186037E+03 0.  0.
          5    1    3    3  502    0  0.37536261362E+02 -0.71930941169E+01 -0.23282788234E+03  0.23598094566E+03  0.41800000000E+01 0.  1.
         -5    1    3    3    0  502  0.81721110546E+01 -0.24611692670E+02  0.78060117743E+01  0.27403011422E+02  0.41800000000E+01 0.  1.
        -11    1    1    2    0    0  0.25371779411E+02 -0.61922641909E+01 -0.42450374937E+02  0.49840803149E+02  0.00000000000E+00 0.  1.
         11    1    1    2    0    0 -0.71080151828E+02  0.37997050978E+02 -0.12077745085E+03  0.14520108987E+03  0.00000000000E+00 0. -1.
</event>
<event>
 6    1  0.2766180E-009  0.8660140E+02  0.7561462E-02  0.1311297E+00
         -3   -1    0    0    0  501 -0.00000000000E+00  0.00000000000E+00  0.14969252305E+03  0.14969252305E+03  0.00000000000E+00 0.  1.
          3   -1    0    0  501    0  0.00000000000E+00 -0.00000000000E+00 -0.12178610890E+03  0.12178610890E+03  0.00000000000E+00 0. -1.
          5    1    1    2  502    0 -0.20138996003E+02 -0.54859153977E+02 -0.18848452299E+02  0.61545450596E+02  0.41800000000E+01 0. -1.
         -5    1    1    2    0  502  0.34188879309E+02 -0.51420447540E+01  0.87119410203E+02  0.93822087627E+02  0.41800000000E+01 0. -1.
        -11    1    1    2    0    0 -0.31119832329E+02  0.21942016116E+02 -0.59164210250E+02  0.70358367022E+02  0.00000000000E+00 0. -1.
         11    1    1    2    0    0  0.17069949024E+02  0.38059182615E+02  0.18799666500E+02  0.45752726711E+02  0.00000000000E+00 0.  1.
</event>
<event>
 7    1  0.2766180E-009  0.8333427E+02  0.7561462E-02  0.1319847E+00
          1   -1    0    0  501    0  0.00000000000E+00  0.00000000000E+00  0.46761491749E+03  0.46761491749E+03  0.00000000000E+00 0. -1.
         -1   -1    0    0    0  501 -0.00000000000E+00 -0.00000000000E+00 -0.26244662253E+02  0.26244662253E+02  0.00000000000E+00 0.  1.
         25    2    1    2    0    0  0.19965748640E+02 -0.56174381205E+01  0.23548100255E+03  0.26744888410E+03  0.12508963313E+03 0.  0.
          5    1    3    3  502    0 -0.27554332510E+02 -0.19691694033E+02  0.20768998351E+03  0.21047471512E+03  0.41800000000E+01 0. -1.
         -5    1    3    3    0  502  0.47520081149E+02  0.14074255912E+02  0.27791019039E+02  0.56974168982E+02  0.41800000000E+01 0. -1.
        -11    1    1    2    0    0  0.12891760881E+02 -0.31021468936E+02  0.14113060283E+03  0.14507369193E+03  0.00000000000E+00 0. -1.
         11    1    1    2    0    0 -0.32857509521E+02  0.36638907056E+02  0.64758649854E+02  0.81337003713E+02  0.00000000000E+00 0.  1.
</event>
<event>
 7    1  0.2766180E-009  0.1097450E+03  0.7561462E-02  0.1261043E+00
          2   -1    0    0  501    0  0.00000000000E+00  0.00000000000E+00  0.22205718031E+03  0.22205718031E+03  0.00000000000E+00 0. -1.
         -2   -1    0    0    0  501 -0.00000000000E+00 -0.00000000000E+00 -0.97336781991E+02  0.97336781991E+02  0.00000000000E+00 0.  1.
         25    2    1    2    0    0  0.24417004694E+02  0.67592300634E+02  0.14194630520E+03  0.20238772484E+03  0.12508848221E+03 0.  0.
          5    1    3    3  502    0  0.36194571177E+02 -0.67654721473E+01 -0.48354994033E+01  0.37372089192E+02  0.41800000000E+01 0.  1.
         -5    1    3    3    0  502 -0.11777566483E+02  0.74357772781E+02  0.14678180461E+03  0.16501563565E+03  0.41800000000E+01 0.  1.
        -11    1    1    2    0    0 -0.33865149930E+02  0.46419184666E+01 -0.26926666876E+02  0.43513689522E+02  0.00000000000E+00 0.  1.
         11    1    1    2    0    0  0.94481452353E+01 -0.72234219100E+02  0.97007599861E+01  0.73492547933E+02  0.00000000000E+00 0. -1.
</event>
<event>
 7    1  0.2766180E-009  0.1179281E+03  0.7561462E-02  0.1246555E+00
         -2   -1    0    0    0  501 -0.00000000000E+00  0.00000000000E+00  0.56105799630E+02  0.56105799630E+02  0.00000000000E+00 0. -1.
          2   -1    0    0  501    0  0.00000000000E+00 -0.00000000000E+00 -0.41834506508E+03  0.41834506508E+03  0.00000000000E+00 0.  1.
         25    2    1    2    0    0 -0.83239736495E+02 -0.67981631696E+02 -0.20279872747E+03  0.26138863289E+03  0.12508532114E+03 0.  0.
          5    1    3    3  502    0  0.14383549585E+01 -0.30952993168E+02  0.70496639610E+01  0.32051939302E+02  0.41800000000E+01 0.  1.
         -5    1    3    3    0  502 -0.84678091454E+02 -0.37028638528E+02 -0.20984839143E+03  0.22933669359E+03  0.41800000000E+01 0.  1.
        -11    1    1    2    0    0  0.75862336025E+02  0.45609436336E+02 -0.16641687887E+03  0.18849374601E+03  0.00000000000E+00 0.  1.
         11    1    1    2    0    0  0.73774004702E+01  0.22372195360E+02  0.69763408851E+01  0.24568485812E+02  0.00000000000E+00 0. -1.
</event>
<event>
 7    1  0.2766180E-009  0.1900026E+03  0.7561462E-02  0.1158459E+00
         -2   -1    0    0    0  501 -0.00000000000E+00  0.00000000000E+00  0.34675564689E+02  0.34675564689E+02  0.00000000000E+00 0.  1.
          2   -1    0    0  501    0  0.00000000000E+00 -0.00000000000E+00 -0.12123656178E+04  0.12123656178E+04  0.00000000000E+00 0. -1.
         25    2    1    2    0    0 -0.48296709698E+02  0.16621813152E+03 -0.57477864954E+03  0.61316497852E+03  0.12505900808E+03 0.  0.
          5    1    3    3  502    0  0.23612678619E+02  0.74013052414E+01 -0.17792269120E+03  0.17968387339E+03  0.41800000000E+01 0. -1.
         -5    1    3    3    0  502 -0.71909388317E+02  0.15881682628E+03 -0.39685595833E+03  0.43348110513E+03  0.41800000000E+01 0. -1.
        -11    1    1    2    0    0  0.20983855236E+01 -0.98631414624E+02 -0.44722781617E+03  0.45797956148E+03  0.00000000000E+00 0. -1.
         11    1    1    2    0    0  0.46198324175E+02 -0.67586716895E+02 -0.15568358745E+03  0.17589664255E+03  0.00000000000E+00 0.  1.
</event>
<event>
 7    1  0.2766180E-009  0.1526863E+03  0.7561462E-02  0.1197210E+00
          2   -1    0    0  501    0  0.00000000000E+00  0.00000000000E+00  0.70057640178E+02  0.70057640178E+02  0.00000000000E+00 0. -1.
         -2   -1    0    0    0  501 -0.00000000000E+00 -0.00000000000E+00 -0.49388683153E+03  0.49388683153E+03  0.00000000000E+00 0.  1.
         25    2    1    2    0    0  0.13150654941E+03  0.41715076467E+02 -0.13030854344E+03  0.22729161306E+03  0.12508813187E+03 0.  0.
          5    1    3    3  502    0  0.10059700052E+03  0.42548246945E+02 -0.18059802632E+02  0.11078690673E+03  0.41800000000E+01 0. -1.
         -5    1    3    3    0  502  0.30909548888E+02 -0.83317047847E+00 -0.11224874081E+03  0.11650470633E+03  0.41800000000E+01 0. -1.
        -11    1    1    2    0    0 -0.14413280126E+03 -0.46370672094E+02 -0.26938172055E+03  0.30901620507E+03  0.00000000000E+00 0.  1.
         11    1    1    2    0    0  0.12626251857E+02  0.46555956274E+01 -0.24138927364E+02  0.27636653576E+02  0.00000000000E+00 0. -1.
</event>
<event>
 7    1  0.2766180E-009  0.3343493E+03  0.7561462E-02  0.1069228E+00
          2   -1    0    0  501    0  0.00000000000E+00  0.00000000000E+00  0.28783775433E+03  0.28783775433E+03  0.00000000000E+00 0. -1.
         -2   -1    0    0    0  501 -0.00000000000E+00 -0.00000000000E+00 -0.43225583987E+03  0.43225583987E+03  0.00000000000E+00 0.  1.
         25    2    1    2    0    0 -0.28280907092E+03 -0.14730039115E+03 -0.17952288712E+03  0.38672246330E+03  0.12508965103E+03 0.  0.
          5    1    3    3  502    0 -0.10326888751E+01 -0.33619610824E+02 -0.39768385275E+02  0.52252670225E+02  0.41800000000E+01 0.  1.
         -5    1    3    3    0  502 -0.28177638205E+03 -0.11368078033E+03 -0.13975450184E+03  0.33446979308E+03  0.41800000000E+01 0.  1.
        -11    1    1    2    0    0  0.15258709624E+03  0.29664785533E+02  0.66037844390E+01  0.15558416181E+03  0.00000000000E+00 0.  1.
         11    1    1    2    0    0  0.13022197468E+03  0.11763560562E+03  0.28501017135E+02  0.17778696909E+03  0.00000000000E+00 0. -1.
</event>
<event>
 7    1  0.2766180E-009  0.1217793E+03  0.7561462E-02  0.1240190E+00
          2   -1    0    0  501    0  0.00000000000E+00  0.00000000000E+00  0.68938725054E+03  0.68938725054E+03  0.00000000000E+00 0. -1.
         -2   -1    0    0    0  501 -0.00000000000E+00 -0.00000000000E+00 -0.26167635769E+02  0.26167635769E+02  0.00000000000E+00 0.  1.
         25    2    1    2    0    0 -0.19469643659E+02  0.87863977384E+02  0.32310050857E+03  0.35796792051E+03  0.12509175806E+03 0.  0.
          5    1    3    3  502    0 -0.43225589268E+02  0.97892059867E+02  0.15837655137E+03  0.19118554176E+03  0.41800000000E+01 0. -1.
         -5    1    3    3    0  502  0.23755945609E+02 -0.10028082483E+02  0.16472395719E+03  0.16678237875E+03  0.41800000000E+01 0. -1.
        -11    1    1    2    0    0  0.39785155840E+02 -0.78431842592E+02  0.27543436281E+03  0.28913405330E+03  0.00000000000E+00 0. -1.
         11    1    1    2    0    0 -0.20315512181E+02 -0.94321347916E+01  0.64684743396E+02  0.68452912503E+02  0.00000000000E+00 0.  1.
</event>
<event>
 7    1  0.2766180E-009  0.6149707E+02  0.7561462E-02  0.1391654E+00
          2   -1    0    0  501    0  0.00000000000E+00  0.00000000000E+00  0.49489985659E+02  0.49489985659E+02  0.00000000000E+00 0. -1.
         -2   -1    0    0    0  501 -0.00000000000E+00 -0.00000000000E+00 -0.27045068814E+03  0.27045068814E+03  0.00000000000E+00 0.  1.
         25    2    1    2    0    0 -0.27924328244E+02  0.22078054502E+02 -0.14932200133E+03  0.19802363980E+03  0.12509633584E+03 0.  0.
          5    1    3    3  502    0  0.26133038392E+02  0.84300615614E+01 -0.13826937911E+03  0.14103153985E+03  0.41800000000E+01 0.  1.
         -5    1    3    3    0  502 -0.54057366636E+02  0.13647992941E+02 -0.11052622219E+02  0.56992099951E+02  0.41800000000E+01 0.  1.
        -11    1    1    2    0    0  0.20552673291E+02 -0.56696030472E+01 -0.92179585689E+02  0.94613068843E+02  0.00000000000E+00 0.  1.
         11    1    1    2    0    0  0.73716549529E+01 -0.16408451455E+02  0.20540884533E+02  0.27303965157E+02  0.00000000000E+00 0. -1.
</event>
<event>
 7    1  0.2766180E-009  0.9653273E+02  0.7561462E-02  0.1287761E+00
          2   -1    0    0  501    0  0.00000000000E+00  0.00000000000E+00  0.70541250887E+02  0.70541250887E+02  0.00000000000E+00 0. -1.
         -2   -1    0    0    0  501 -0.00000000000E+00 -0.00000000000E+00 -0.24473389283E+03  0.24473389283E+03  0.00000000000E+00 0.  1.
         25    2    1    2    0    0 -0.21650383856E+01 -0.53612750240E+02 -0.15707691575E+03  0.20784674622E+03  0.12509235818E+03 0.  0.
          5    1    3    3  502    0  0.13501807070E+02  0.23011598416E+02  0.53430092942E+01  0.27529122836E+02  0.41800000000E+01 0. -1.
         -5    1    3    3    0  502 -0.15666845455E+02 -0.76624348656E+02 -0.16241992504E+03  0.18031762339E+03  0.41800000000E+01 0. -1.
        -11    1    1    2    0    0  0.10042867771E+02  0.69385187275E+02 -0.38283763037E+02  0.79879971949E+02  0.00000000000E+00 0.  1.
         11    1    1    2    0    0 -0.78778293854E+01 -0.15772437035E+02  0.21168036845E+02  0.27548425540E+02  0.00000000000E+00 0. -1.
</event>
<event>
 6    1  0.2766180E-009  0.5245305E+02  0.7561462E-02  0.1432542E+00
          1   -1    0    0  501    0  0.00000000000E+00  0.00000000000E+00  0.55740135658E+03  0.55740135658E+03  0.00000000000E+00 0. -1.
         -1   -1    0    0    0  501 -0.00000000000E+00 -0.00000000000E+00 -0.24824469206E+02  0.24824469206E+02  0.00000000000E+00 0.  1.
          5    1    1    2  502    0 -0.56358390487E+01 -0.68350267738E+01 -0.73872308675E+01  0.12268816270E+02  0.41800000000E+01 0.  1.
         -5    1    1    2    0  502  0.30902329664E+02  0.35973233597E+02  0.37445358122E+03  0.37746785876E+03  0.41800000000E+01 0.  1.
        -11    1    1    2    0    0 -0.30936982927E+02 -0.20302074132E+02  0.17467587486E+03  0.17855232394E+03  0.00000000000E+00 0. -1.
         11    1    1    2    0    0  0.56704923108E+01 -0.88361326915E+01 -0.91653378332E+01  0.13936826812E+02  0.00000000000E+00 0.  1.
</event>
<event>
 7    1  0.2766180E-009  0.1143563E+03  0.7561462E-02  0.1252709E+00
         -2   -1    0    0    0  501 -0.00000000000E+00  0.00000000000E+00  0.86056071475E+02  0.86056071475E+02  0.00000000000E+00 0.  1.
          2   -1    0    0  501    0  0.00000000000E+00 -0.00000000000E+00 -0.16336182650E+03  0.16336182650E+03  0.00000000000E+00 0. -1.
         25    2    1    2    0    0  0.31773009311E+02  0.17647155506E+02 -0.71539530902E+02  0.14861811317E+03  0.12509393616E+03 0.  0.
          5    1    3    3  502    0 -0.35926222957E+02  0.42535536284E+02 -0.17899959344E+02  0.58633150072E+02  0.41800000000E+01 0. -1.
         -5    1    3    3    0  502  0.67699232267E+02 -0.24888380778E+02 -0.53639571558E+02  0.89984963100E+02  0.41800000000E+01 0. -1.
        -11    1    1    2    0    0 -0.62741236931E+02  0.39620246671E+01 -0.30579968558E+01  0.62940541751E+02  0.00000000000E+00 0. -1.
         11    1    1    2    0    0  0.30968227621E+02 -0.21609180173E+02 -0.27082272715E+01  0.37859243055E+02  0.00000000000E+00 0.  1.
</event>
<event>
 7    1  0.3015366E-009  0.1122939E+03  0.7561462E-02  0.1256380E+00
          2   -1    0    0  501    0  0.00000000000E+00  0.00000000000E+00  0.58927722870E+02  0.58927722870E+02  0.00000000000E+00 0.  1.
         -2   -1    0    0    0  501 -0.00000000000E+00 -0.00000000000E+00 -0.34639717873E+03  0.34639717873E+03  0.00000000000E+00 0. -1.
         25    2    1    2    0    0 -0.27355213550E+02 -0.88306957760E+02 -0.16166120308E+03  0.22434933092E+03  0.12510735871E+03 0.  0.
          5    1    3    3  502    0 -0.34449625336E+02 -0.81864190287E+01 -0.13481540357E+03  0.13945056322E+03  0.41800000000E+01 0. -1.
         -5    1    3    3    0  502  0.70944117859E+01 -0.80120538731E+02 -0.26845799511E+02  0.84898767697E+02  0.41800000000E+01 0. -1.
        -11    1    1    2    0    0 -0.38461277846E+01  0.73940576004E+02 -0.31238559874E+02  0.80360743536E+02  0.00000000000E+00 0. -1.
         11    1    1    2    0    0  0.31201341334E+02  0.14366381756E+02 -0.94569692907E+02  0.10061482715E+03  0.00000000000E+00 0.  1.
</event>
<event>
 7    1  0.2766180E-009  0.9387976E+02  0.7561462E-02  0.1293719E+00
         -1   -1    0    0    0  501 -0.00000000000E+00  0.00000000000E+00  0.71345476895E+02  0.71345476895E+02  0.00000000000E+00 0.  1.
          1   -1    0    0  501    0  0.00000000000E+00 -0.00000000000E+00 -0.17135765771E+03  0.17135765771E+03  0.00000000000E+00 0. -1.
         25    2    1    2    0    0  0.24529749104E+02  0.31602454224E+01 -0.51951173469E+02  0.13764470622E+03  0.12504177296E+03 0.  0.
          5    1    3    3  502    0  0.25686419035E+02 -0.54468373530E+02 -0.65236886133E+00  0.60369643224E+02  0.41800000000E+01 0. -1.
         -5    1    3    3    0  502 -0.11566699304E+01  0.57628618952E+02 -0.51298804608E+02  0.77275063001E+02  0.41800000000E+01 0. -1.
        -11    1    1    2    0    0 -0.46522905817E+02  0.34114419779E+01 -0.62463857213E+02  0.77959939456E+02  0.00000000000E+00 0. -1.
         11    1    1    2    0    0  0.21993156713E+02 -0.65716874003E+01  0.14402849870E+02  0.27098488922E+02  0.00000000000E+00 0.  1.
</event>
<event>
 7    1  0.2766180E-009  0.9382113E+02  0.7561462E-02  0.1293853E+00
          4   -1    0    0  501    0  0.00000000000E+00  0.00000000000E+00  0.25106539525E+03  0.25106539525E+03  0.00000000000E+00 0. -1.
         -4   -1    0    0    0  501 -0.00000000000E+00 -0.00000000000E+00 -0.74034739418E+02  0.74034739418E+02  0.00000000000E+00 0.  1.
         25    2    1    2    0    0  0.19173973745E+02 -0.39443111066E+02  0.12743383717E+02  0.13316620046E+03  0.12508973913E+03 0.  0.
          5    1    3    3  502    0  0.59609560570E+02 -0.55872972191E+02 -0.12214315762E+02  0.82714875580E+02  0.41800000000E+01 0.  1.
         -5    1    3    3    0  502 -0.40435586825E+02  0.16429861125E+02  0.24957699480E+02  0.50451324876E+02  0.41800000000E+01 0.  1.
        -11    1    1    2    0    0 -0.24587832395E+02  0.25720002863E+01  0.13169523022E+01  0.24757040428E+02  0.00000000000E+00 0.  1.
         11    1    1    2    0    0  0.54138586503E+01  0.36871110780E+02  0.16297031982E+03  0.16717689379E+03  0.00000000000E+00 0. -1.
</event>
<event>
 7    1  0.2766180E-009  0.8626105E+02  0.7561462E-02  0.1312167E+00
         -1   -1    0    0    0  501 -0.00000000000E+00  0.00000000000E+00  0.45259034014E+02  0.45259034014E+02  0.00000000000E+00 0.  1.
          1   -1    0    0  501    0  0.00000000000E+00 -0.00000000000E+00 -0.31382326871E+03  0.31382326871E+03  0.00000000000E+00 0. -1.
         25    2    1    2    0    0  0.34409907008E+02  0.15158175983E+02 -0.20030962552E+03  0.23913433397E+03  0.12508985413E+03 0.  0.
          5    1    3    3  502    0  0.23735465109E+02  0.57509625062E+02 -0.42807612650E+02  0.75635265449E+02  0.41800000000E+01 0. -1.
         -5    1    3    3    0  502  0.10674441899E+02 -0.42351449078E+02 -0.15750201287E+03  0.16349906852E+03  0.41800000000E+01 0. -1.
        -11    1    1    2    0    0  0.14859843861E+02 -0.67007479197E+01 -0.68031477136E+02  0.69957107312E+02  0.00000000000E+00 0. -1.
         11    1    1    2    0    0 -0.49269750869E+02 -0.84574280637E+01 -0.22313204250E+00  0.49990861445E+02  0.00000000000E+00 0.  1.
</event>
<event>
 7    1  0.2766180E-009  0.1016233E+03  0.7561462E-02  0.1276919E+00
          1   -1    0    0  501    0  0.00000000000E+00  0.00000000000E+00  0.96376307603E+02  0.96376307603E+02  0.00000000000E+00 0. -1.
         -1   -1    0    0    0  501 -0.00000000000E+00 -0.00000000000E+00 -0.15770658998E+03  0.15770658998E+03  0.00000000000E+00 0.  1.
         25    2    1    2    0    0 -0.11032943376E+02 -0.16529020996E+02  0.23744741557E+02  0.12886810707E+03  0.12509293303E+03 0.  0.
          5    1    3    3  502    0 -0.47965438882E+02  0.29970858755E+02 -0.13955468881E+02  0.58405164270E+02  0.41800000000E+01 0.  1.
         -5    1    3    3    0  502  0.36932495506E+02 -0.46499879751E+02  0.37700210438E+02  0.70462942802E+02  0.41800000000E+01 0.  1.
        -11    1    1    2    0    0 -0.27806260846E+02  0.34414841850E+02 -0.63300296721E+02  0.77230156330E+02  0.00000000000E+00 0.  1.
         11    1    1    2    0    0  0.38839204221E+02 -0.17885820854E+02 -0.21774727209E+02  0.47984634178E+02  0.00000000000E+00 0. -1.
</event>
<event>
 7    1  0.2766180E-009  0.1103425E+03  0.7561462E-02  0.1259937E+00
          1   -1    0    0  501    0  0.00000000000E+00  0.00000000000E+00  0.51229198436E+03  0.51229198436E+03  0.00000000000E+00 0. -1.
         -1   -1    0    0    0  501 -0.00000000000E+00 -0.00000000000E+00 -0.41552911104E+02  0.41552911104E+02  0.00000000000E+00 0.  1.
         25    2    1    2    0    0  0.28259749641E+02 -0.43169509116E+02  0.41045707763E+03  0.43219311092E+03  0.12511455783E+03 0.  0.
          5    1    3    3  502    0  0.69774351409E+02 -0.58208612218E+02  0.27227868109E+03  0.28707116753E+03  0.41800000000E+01 0. -1.
         -5    1    3    3    0  502 -0.41514601768E+02  0.15039103102E+02  0.13817839655E+03  0.14512194339E+03  0.41800000000E+01 0. -1.
        -11    1    1    2    0    0  0.54515034577E+01  0.50564615172E+02 -0.15041439867E+01  0.50879874671E+02  0.00000000000E+00 0.  1.
         11    1    1    2    0    0 -0.33711253099E+02 -0.73951060556E+01  0.61786139603E+02  0.70771909867E+02  0.00000000000E+00 0. -1.
</event>
<event>
 7    1  0.3029683E-009  0.1109130E+03  0.7561462E-02  0.1258888E+00
          2   -1    0    0  501    0  0.00000000000E+00  0.00000000000E+00  0.13905717808E+04  0.13905717808E+04  0.00000000000E+00 0. -1.
         -2   -1    0    0    0  501 -0.00000000000E+00 -0.00000000000E+00 -0.18984141714E+02  0.18984141714E+02  0.00000000000E+00 0.  1.
         25    2    1    2    0    0 -0.27675940629E+02 -0.96121462435E+02  0.10259136841E+04  0.10383410175E+04  0.12509151938E+03 0.  0.
          5    1    3    3  502    0 -0.21695829779E+02 -0.27086362370E+02  0.82559694880E+03  0.82633659868E+03  0.41800000000E+01 0. -1.
         -5    1    3    3    0  502 -0.59801108494E+01 -0.69035100065E+02  0.20031673527E+03  0.21200441882E+03  0.41800000000E+01 0. -1.
        -11    1    1    2    0    0 -0.14915746097E+02  0.59308474031E+02  0.86113914655E+02  0.10561998329E+03  0.00000000000E+00 0.  1.
         11    1    1    2    0    0  0.42591686726E+02  0.36812988404E+02  0.25956004033E+03  0.26559492169E+03  0.00000000000E+00 0. -1.
</event>
<event>
 7    1  0.2766180E-009  0.1099293E+03  0.7561462E-02  0.1260701E+00
         -2   -1    0    0    0  501 -0.00000000000E+00  0.00000000000E+00  0.18040955231E+03  0.18040955231E+03  0.00000000000E+00 0.  1.
          2   -1    0    0  501    0  0.00000000000E+00 -0.00000000000E+00 -0.10067995740E+03  0.10067995740E+03  0.00000000000E+00 0. -1.
         25    2    1    2    0    0 -0.62990265804E+02 -0.18309707276E+02  0.92731126704E+02  0.16896679432E+03  0.12509075408E+03 0.  0.
          5    1    3    3  502    0 -0.44970736314E+02 -0.70667011451E+02  0.68901468336E+02  0.10854067611E+03  0.41800000000E+01 0.  1.
         -5    1    3    3    0  502 -0.18019529491E+02  0.52357304175E+02  0.23829658369E+02  0.60426118206E+02  0.41800000000E+01 0.  1.
        -11    1    1    2    0    0  0.58640326497E+02 -0.29965783918E+01  0.28500834776E+02  0.65268407033E+02  0.00000000000E+00 0.  1.
         11    1    1    2    0    0  0.43499393070E+01  0.21306285668E+02 -0.41502366565E+02  0.46854308355E+02  0.00000000000E+00 0. -1.
</event>
<event>
 7    1  0.2766180E-009  0.1251188E+03  0.7561462E-02  0.1234884E+00
         -2   -1    0    0    0  501 -0.00000000000E+00  0.00000000000E+00  0.20185813472E+03  0.20185813472E+03  0.00000000000E+00 0. -1.
          2   -1    0    0  501    0  0.00000000000E+00 -0.00000000000E+00 -0.10820341486E+03  0.10820341486E+03  0.00000000000E+00 0.  1.
         25    2    1    2    0    0  0.76121890495E+02 -0.61076629269E+01 -0.16598799817E+02  0.14749507106E+03  0.12508968812E+03 0.  0.
          5    1    3    3  502    0  0.89631526805E+02  0.28125511483E+02 -0.41582616703E+02  0.10281751507E+03  0.41800000000E+01 0.  1.
         -5    1    3    3    0  502 -0.13509636309E+02 -0.34233174409E+02  0.24983816885E+02  0.44677555993E+02  0.41800000000E+01 0.  1.
        -11    1    1    2    0    0  0.15440604847E+02 -0.18748847250E+02  0.17986994205E+02  0.30223558887E+02  0.00000000000E+00 0.  1.
         11    1    1    2    0    0 -0.91562495343E+02  0.24856510177E+02  0.92266525475E+02  0.13234291962E+03  0.00000000000E+00 0. -1.
</event>
<event>
 7    1  0.2766180E-009  0.9702394E+02  0.7561462E-02  0.1286682E+00
          1   -1    0    0  501    0  0.00000000000E+00  0.00000000000E+00  0.39017505978E+02  0.39017505978E+02  0.00000000000E+00 0. -1.
         -1   -1    0    0    0  501 -0.00000000000E+00 -0.00000000000E+00 -0.39843843577E+03  0.39843843577E+03  0.00000000000E+00 0.  1.
         25    2    1    2    0    0  0.98841643360E+01 -0.36306427631E+02 -0.11509196536E+03  0.17409481700E+03  0.12508793477E+03 0.  0.
          5    1    3    3  502    0  0.34827757236E+02 -0.54354032855E+02 -0.11195127025E+02  0.65651632354E+02  0.41800000000E+01 0. -1.
         -5    1    3    3    0  502 -0.24943592900E+02  0.18047605224E+02 -0.10389683833E+03  0.10844318465E+03  0.41800000000E+01 0. -1.
        -11    1    1    2    0    0  0.40468478998E+02  0.11019928982E+02 -0.10615331509E+03  0.11413878802E+03  0.00000000000E+00 0.  1.
         11    1    1    2    0    0 -0.50352643334E+02  0.25286498649E+02 -0.13817564935E+03  0.14922233673E+03  0.00000000000E+00 0. -1.
</event>
<event>
 7    1  0.2766180E-009  0.1303374E+03  0.7561462E-02  0.1226956E+00
          1   -1    0    0  501    0  0.00000000000E+00  0.00000000000E+00  0.81725825383E+03  0.81725825383E+03  0.00000000000E+00 0. -1.
         -1   -1    0    0    0  501 -0.00000000000E+00 -0.00000000000E+00 -0.66446125758E+02  0.66446125758E+02  0.00000000000E+00 0.  1.
         25    2    1    2    0    0  0.11206245749E+03  0.23332663624E+02  0.71204464308E+03  0.73195462928E+03  0.12509035939E+03 0.  0.
          5    1    3    3  502    0  0.66091151608E+02  0.10663285518E+02  0.11604680870E+03  0.13403760736E+03  0.41800000000E+01 0.  1.
         -5    1    3    3    0  502  0.45971305884E+02  0.12669378106E+02  0.59599783438E+03  0.59791702191E+03  0.41800000000E+01 0.  1.
        -11    1    1    2    0    0 -0.53922630841E+02 -0.57066772386E+02  0.12120808702E+02  0.79442939466E+02  0.00000000000E+00 0.  1.
         11    1    1    2    0    0 -0.58139826650E+02  0.33734108762E+02  0.26646676287E+02  0.72306810841E+02  0.00000000000E+00 0. -1.
</event>
<event>
 7    1  0.2766180E-009  0.2471164E+03  0.7561462E-02  0.1115141E+00
         -2   -1    0    0    0  501 -0.00000000000E+00  0.00000000000E+00  0.41473067514E+02  0.41473067514E+02  0.00000000000E+00 0.  1.
          2   -1    0    0  501    0  0.00000000000E+00 -0.00000000000E+00 -0.21487781076E+04  0.21487781076E+04  0.00000000000E+00 0. -1.
         25    2    1    2    0    0 -0.91130720574E+02  0.21720589556E+03 -0.16240946942E+04  0.16458476049E+04  0.12509018148E+03 0.  0.
          5    1    3    3  502    0 -0.89463452222E+02  0.10643633624E+03 -0.60731176685E+03  0.62303888924E+03  0.41800000000E+01 0. -1.
         -5    1    3    3    0  502 -0.16672683516E+01  0.11076955932E+03 -0.10167829274E+04  0.10228087157E+04  0.41800000000E+01 0. -1.
        -11    1    1    2    0    0  0.68508987662E+02 -0.80512342937E+02 -0.27181568464E+03  0.29164959313E+03  0.00000000000E+00 0.  1.
         11    1    1    2    0    0  0.22621732912E+02 -0.13669355262E+03 -0.21139466120E+03  0.25275397704E+03  0.00000000000E+00 0. -1.
</event>
<event>
 7    1  0.2766180E-009  0.1551642E+03  0.7561462E-02  0.1194267E+00
         -1   -1    0    0    0  501 -0.00000000000E+00  0.00000000000E+00  0.49227798870E+02  0.49227798870E+02  0.00000000000E+00 0.  1.
          1   -1    0    0  501    0  0.00000000000E+00 -0.00000000000E+00 -0.74564212830E+03  0.74564212830E+03  0.00000000000E+00 0. -1.
         25    2    1    2    0    0  0.14327996750E+03 -0.55096395893E+02 -0.29121592630E+03  0.35216300225E+03  0.12508917818E+03 0.  0.
          5    1    3    3  502    0  0.82139813113E+02 -0.36307603148E+02 -0.27011040160E+03  0.28467927989E+03  0.41800000000E+01 0.  1.
         -5    1    3    3    0  502  0.61140154387E+02 -0.18788792745E+02 -0.21105524695E+02  0.67483722363E+02  0.41800000000E+01 0.  1.
        -11    1    1    2    0    0 -0.48689531544E+02  0.40924924979E+01 -0.43628594632E+02  0.65504757433E+02  0.00000000000E+00 0.  1.
         11    1    1    2    0    0 -0.94590435956E+02  0.51003903395E+02 -0.36156980850E+03  0.37720216749E+03  0.00000000000E+00 0. -1.
</event>
<event>
 7    1  0.2766180E-009  0.1729689E+03  0.7561462E-02  0.1174787E+00
         -4   -1    0    0    0  501 -0.00000000000E+00  0.00000000000E+00  0.31671384713E+02  0.31671384713E+02  0.00000000000E+00 0. -1.
          4   -1    0    0  501    0  0.00000000000E+00 -0.00000000000E+00 -0.10469444460E+04  0.10469444460E+04  0.00000000000E+00 0.  1.
         25    2    1    2    0    0  0.13208656770E+03  0.59583934686E+02 -0.57896221296E+03  0.60978859274E+03  0.12509107546E+03 0.  0.
          5    1    3    3  502    0  0.15307332587E+03  0.31949948896E+02 -0.46775747946E+03  0.49322081700E+03  0.41800000000E+01 0.  1.
         -5    1    3    3    0  502 -0.20986758168E+02  0.27633985789E+02 -0.11120473350E+03  0.11656777574E+03  0.41800000000E+01 0.  1.
        -11    1    1    2    0    0 -0.79285184291E+02 -0.62849806808E+01 -0.32501826532E+03  0.33460800084E+03  0.00000000000E+00 0.  1.
         11    1    1    2    0    0 -0.52801383408E+02 -0.53298954005E+02 -0.11129258305E+03  0.13421923718E+03  0.00000000000E+00 0. -1.
</event>
<event>
 7    1  0.2766180E-009  0.5397930E+02  0.7561462E-02  0.1424988E+00
          1   -1    0    0  501    0  0.00000000000E+00  0.00000000000E+00  0.33636304881E+03  0.33636304881E+03  0.00000000000E+00 0. -1.
         -1   -1    0    0    0  501 -0.00000000000E+00 -0.00000000000E+00 -0.36270557315E+02  0.36270557315E+02  0.00000000000E+00 0.  1.
         25    2    1    2    0    0 -0.55232316720E+01  0.52112197554E+01  0.21807077094E+03  0.25151722586E+03  0.12509352848E+03 0.  0.
          5    1    3    3  502    0 -0.21311932421E+02  0.22743620313E+02  0.22451328319E+03  0.22670500095E+03  0.41800000000E+01 0.  1.
         -5    1    3    3    0  502  0.15788700749E+02 -0.17532400558E+02 -0.64425122521E+01  0.24812224906E+02  0.41800000000E+01 0.  1.
        -11    1    1    2    0    0  0.28294114020E+02 -0.84987216385E+01 -0.59927174805E+01  0.30144615115E+02  0.00000000000E+00 0. -1.
         11    1    1    2    0    0 -0.22770882348E+02  0.32875018831E+01  0.88014438039E+02  0.90971765151E+02  0.00000000000E+00 0.  1.
</event>
<event>
 7    1  0.2766180E-009  0.9626157E+02  0.7561462E-02  0.1288360E+00
          1   -1    0    0  501    0  0.00000000000E+00  0.00000000000E+00  0.13008826892E+03  0.13008826892E+03  0.00000000000E+00 0. -1.
         -1   -1    0    0    0  501 -0.00000000000E+00 -0.00000000000E+00 -0.15094190097E+03  0.15094190097E+03  0.00000000000E+00 0.  1.
         25    2    1    2    0    0  0.55166713390E+02 -0.10601765470E+02 -0.78821549851E+02  0.15816066467E+03  0.12508475300E+03 0.  0.
          5    1    3    3  502    0 -0.34884321914E+02 -0.20811343798E+01 -0.53673111937E+02  0.64183505519E+02  0.41800000000E+01 0.  1.
         -5    1    3    3    0  502  0.90051035304E+02 -0.85206310906E+01 -0.25148437914E+02  0.93977159156E+02  0.41800000000E+01 0.  1.
        -11    1    1    2    0    0 -0.14758486845E+02  0.20419014544E+02 -0.21537909087E+02  0.33145597245E+02  0.00000000000E+00 0.  1.
         11    1    1    2    0    0 -0.40408226545E+02 -0.98172490732E+01  0.79505826887E+02  0.89723907967E+02  0.00000000000E+00 0. -1.
</event>
<event>
 7    1  0.2766180E-009  0.1218063E+03  0.7561462E-02  0.1240147E+00
          3   -1    0    0  501    0  0.00000000000E+00  0.00000000000E+00  0.48466954957E+03  0.48466954957E+03  0.00000000000E+00 0. -1.
         -3   -1    0    0    0  501 -0.00000000000E+00 -0.00000000000E+00 -0.56744603230E+02  0.56744603230E+02  0.00000000000E+00 0.  1.
         25    2    1    2    0    0  0.39130370076E+02 -0.62945807177E+02  0.40648419316E+03  0.43170958298E+03  0.12510157568E+03 0.  0.
          5    1    3    3  502    0 -0.47885853847E+01 -0.91834874125E+02  0.23879816240E+03  0.25592696111E+03  0.41800000000E+01 0.  1.
         -5    1    3    3    0  502  0.43918955461E+02  0.28889066948E+02  0.16768603076E+03  0.17578262187E+03  0.41800000000E+01 0.  1.
        -11    1    1    2    0    0  0.14726464430E+02  0.35379149404E+02 -0.12529845373E+02  0.40318109978E+02  0.00000000000E+00 0.  1.
         11    1    1    2    0    0 -0.53856834506E+02  0.27566657773E+02  0.33970598544E+02  0.69386459841E+02  0.00000000000E+00 0. -1.
</event>
<event>
 7    1  0.2766180E-009  0.1972588E+03  0.7561462E-02  0.1152073E+00
         -1   -1    0    0    0  501 -0.00000000000E+00  0.00000000000E+00  0.42983043332E+02  0.42983043332E+02  0.00000000000E+00 0.  1.
          1   -1    0    0  501    0  0.00000000000E+00 -0.00000000000E+00 -0.98654898501E+03  0.98654898501E+03  0.00000000000E+00 0. -1.
         25    2    1    2    0    0 -0.85702077574E+02  0.14406010416E+03 -0.61866621444E+03  0.65306301672E+03  0.12508101061E+03 0.  0.
          5    1    3    3  502    0 -0.15969403460E+02 -0.22853876529E+02 -0.80837577083E+02  0.85612544571E+02  0.41800000000E+01 0. -1.
         -5    1    3    3    0  502 -0.69732674114E+02  0.16691398069E+03 -0.53782863736E+03  0.56745047215E+03  0.41800000000E+01 0. -1.
        -11    1    1    2    0    0  0.20036452548E+02 -0.10922785299E+03 -0.23425221493E+03  0.25924174721E+03  0.00000000000E+00 0. -1.
         11    1    1    2    0    0  0.65665625026E+02 -0.34832251167E+02 -0.90647512317E+02  0.11722726441E+03  0.00000000000E+00 0.  1.
</event>
<event>
 7    1  0.2766180E-009  0.1837232E+03  0.7561462E-02  0.1164248E+00
          2   -1    0    0  501    0  0.00000000000E+00  0.00000000000E+00  0.16733405887E+04  0.16733405887E+04  0.00000000000E+00 0. -1.
         -2   -1    0    0    0  501 -0.00000000000E+00 -0.00000000000E+00 -0.33648661390E+02  0.33648661390E+02  0.00000000000E+00 0.  1.
         25    2    1    2    0    0  0.16486298166E+03 -0.43634511264E+02  0.12928251785E+04  0.13100103202E+04  0.12508526486E+03 0.  0.
          5    1    3    3  502    0  0.32359518433E+02  0.53793259621E+01  0.55250234959E+02  0.64390499641E+02  0.41800000000E+01 0. -1.
         -5    1    3    3    0  502  0.13250346323E+03 -0.49013837226E+02  0.12375749436E+04  0.12456198205E+04  0.41800000000E+01 0. -1.
        -11    1    1    2    0    0 -0.78360720442E+01  0.34899031591E+02  0.61516725940E+02  0.71159356387E+02  0.00000000000E+00 0.  1.
         11    1    1    2    0    0 -0.15702690962E+03  0.87354796730E+01  0.28535002289E+03  0.32581957356E+03  0.00000000000E+00 0. -1.
</event>
<event>
 7    1  0.2766180E-009  0.3976633E+03  0.7561462E-02  0.1044592E+00
         -1   -1    0    0    0  501 -0.00000000000E+00  0.00000000000E+00  0.11968130378E+03  0.11968130378E+03  0.00000000000E+00 0.  1.
          1   -1    0    0  501    0  0.00000000000E+00 -0.00000000000E+00 -0.13238400415E+04  0.13238400415E+04  0.00000000000E+00 0. -1.
         25    2    1    2    0    0  0.31387734537E+03 -0.21850998907E+03 -0.62829785767E+03  0.74610337659E+03  0.12508576002E+03 0.  0.
          5    1    3    3  502    0  0.12536207059E+03 -0.16263523860E+03 -0.33608151630E+03  0.39387069905E+03  0.41800000000E+01 0.  1.
         -5    1    3    3    0  502  0.18851527478E+03 -0.55874750475E+02 -0.29221634137E+03  0.35223267754E+03  0.41800000000E+01 0.  1.
        -11    1    1    2    0    0 -0.18687437052E+03  0.18264082384E+03 -0.37373468242E+03  0.45602336973E+03  0.00000000000E+00 0. -1.
         11    1    1    2    0    0 -0.12700297484E+03  0.35869165232E+02 -0.20212619759E+03  0.24139459892E+03  0.00000000000E+00 0.  1.
</event>
<event>
 7    1  0.2766180E-009  0.6379320E+02  0.7561462E-02  0.1382569E+00
          2   -1    0    0  501    0  0.00000000000E+00  0.00000000000E+00  0.23142985141E+03  0.23142985141E+03  0.00000000000E+00 0. -1.
         -2   -1    0    0    0  501 -0.00000000000E+00 -0.00000000000E+00 -0.60722708852E+02  0.60722708852E+02  0.00000000000E+00 0.  1.
         25    2    1    2    0    0 -0.30557403653E+02  0.29301849396E+02  0.85635817573E+02  0.15740478519E+03  0.12510163809E+03 0.  0.
          5    1    3    3  502    0 -0.33497850720E+02  0.61499191419E+00  0.11269241549E+03  0.11764156208E+03  0.41800000000E+01 0. -1.
         -5    1    3    3    0  502  0.29404470670E+01  0.28686857481E+02 -0.27056597921E+02  0.39763223111E+02  0.41800000000E+01 0. -1.
        -11    1    1    2    0    0  0.11248826298E+02  0.13593279348E+02  0.85906597758E+02  0.87699811145E+02  0.00000000000E+00 0. -1.
         11    1    1    2    0    0  0.19308577356E+02 -0.42895128744E+02 -0.83527277243E+00  0.47047963931E+02  0.00000000000E+00 0.  1.
</event>
<event>
 7    1  0.2766180E-009  0.1131132E+03  0.7561462E-02  0.1254911E+00
          2   -1    0    0  501    0  0.00000000000E+00  0.00000000000E+00  0.10860894160E+03  0.10860894160E+03  0.00000000000E+00 0. -1.
         -2   -1    0    0    0  501 -0.00000000000E+00 -0.00000000000E+00 -0.13650571857E+03  0.13650571857E+03  0.00000000000E+00 0.  1.
         25    2    1    2    0    0 -0.29606105968E+02  0.40728629530E+02  0.10791044558E+01  0.13485159883E+03  0.12509375071E+03 0.  0.
          5    1    3    3  502    0 -0.24419739006E+02 -0.41891076951E+02 -0.13913909067E+02  0.50618724271E+02  0.41800000000E+01 0. -1.
         -5    1    3    3    0  502 -0.51863669618E+01  0.82619706482E+02  0.14993013523E+02  0.84232874555E+02  0.41800000000E+01 0. -1.
        -11    1    1    2    0    0 -0.16800706494E+02 -0.45031859406E+02  0.10486306266E+02  0.49194458218E+02  0.00000000000E+00 0. -1.
         11    1    1    2    0    0  0.46406812462E+02  0.43032298754E+01 -0.39462187687E+02  0.61068603122E+02  0.00000000000E+00 0.  1.
</event>
<event>
 7    1  0.2766180E-009  0.1001154E+03  0.7561462E-02  0.1280053E+00
         -2   -1    0    0    0  501 -0.00000000000E+00  0.00000000000E+00  0.26027148082E+02  0.26027148082E+02  0.00000000000E+00 0.  1.
          2   -1    0    0  501    0  0.00000000000E+00 -0.00000000000E+00 -0.47779775926E+03  0.47779775926E+03  0.00000000000E+00 0. -1.
         25    2    1    2    0    0  0.54814935040E+01 -0.14643323721E+01 -0.20298108165E+03  0.23849755175E+03  0.12509025400E+03 0.  0.
          5    1    3    3  502    0  0.12981713869E+02 -0.53944369721E+02 -0.16221312773E+03  0.17149079022E+03  0.41800000000E+01 0. -1.
         -5    1    3    3    0  502 -0.75002203646E+01  0.52480037349E+02 -0.40767953912E+02  0.67006761538E+02  0.41800000000E+01 0. -1.
        -11    1    1    2    0    0 -0.30782256539E+02  0.36784060342E+02 -0.14782067549E+03  0.15540774277E+03  0.00000000000E+00 0.  1.
         11    1    1    2    0    0  0.25300763035E+02 -0.35319727970E+02 -0.10096885405E+03  0.10991961281E+03  0.00000000000E+00 0. -1.
</event>
<event>
 7    1  0.2766180E-009  0.1121654E+03  0.7561462E-02  0.1256612E+00
          2   -1    0    0  501    0  0.00000000000E+00  0.00000000000E+00  0.23680071598E+03  0.23680071598E+03  0.00000000000E+00 0. -1.
         -2   -1    0    0    0  501 -0.00000000000E+00 -0.00000000000E+00 -0.68722290777E+02  0.68722290777E+02  0.00000000000E+00 0.  1.
         25    2    1    2    0    0  0.44747373097E+02  0.70515308609E+01  0.11149592705E+03  0.17358188815E+03  0.12508908289E+03 0.  0.
          5    1    3    3  502    0 -0.76470211621E+01  0.42437770530E+02  0.10027454244E+03  0.10923322554E+03  0.41800000000E+01 0.  1.
         -5    1    3    3    0  502  0.52394394259E+02 -0.35386239669E+02  0.11221384615E+02  0.64348662615E+02  0.41800000000E+01 0.  1.
        -11    1    1    2    0    0  0.18748749672E+02 -0.41404285454E+02  0.11699009921E+02  0.46932902119E+02  0.00000000000E+00 0. -1.
         11    1    1    2    0    0 -0.63496122769E+02  0.34352754593E+02  0.44883488236E+02  0.85008216491E+02  0.00000000000E+00 0.  1.
</event>
<event>
 7    1  0.2766180E-009  0.1125947E+03  0.7561462E-02  0.1255839E+00
          1   -1    0    0  501    0  0.00000000000E+00  0.00000000000E+00  0.80569826133E+02  0.80569826133E+02  0.00000000000E+00 0. -1.
         -1   -1    0    0    0  501 -0.00000000000E+00 -0.00000000000E+00 -0.22106732572E+03  0.22106732572E+03  0.00000000000E+00 0.  1.
         25    2    1    2    0    0 -0.46047356400E+02  0.62171426444E+02 -0.69420681566E+02  0.16264214627E+03  0.12509033303E+03 0.  0.
          5    1    3    3  502    0 -0.23372890281E+02  0.75476061502E+02 -0.96418746124E+02  0.12472760265E+03  0.41800000000E+01 0.  1.
         -5    1    3    3    0  502 -0.22674466119E+02 -0.13304635058E+02  0.26998064557E+02  0.37914543617E+02  0.41800000000E+01 0.  1.
        -11    1    1    2    0    0  0.71837199293E+02 -0.59942083899E+02 -0.55851262475E+02  0.10896329724E+03  0.00000000000E+00 0.  1.
         11    1    1    2    0    0 -0.25789842893E+02 -0.22293425444E+01 -0.15225555547E+02  0.30031708349E+02  0.00000000000E+00 0. -1.
</event>
<event>
 7    1  0.2766180E-009  0.1239753E+03  0.7561462E-02  0.1236679E+00
         -3   -1    0    0    0  501 -0.00000000000E+00  0.00000000000E+00  0.11501380597E+04  0.11501380597E+04  0.00000000000E+00 0.  1.
          3   -1    0    0  501    0  0.00000000000E+00 -0.00000000000E+00 -0.13718755530E+02  0.13718755530E+02  0.00000000000E+00 0. -1.
         25    2    1    2    0    0  0.28071975981E+02  0.57329020628E+02  0.59469827289E+03  0.61105514925E+03  0.12509079585E+03 0.  0.
          5    1    3    3  502    0  0.69059054836E+02  0.68898593897E+02  0.41519781137E+03  0.42652416610E+03  0.41800000000E+01 0.  1.
         -5    1    3    3    0  502 -0.40987078855E+02 -0.11569573269E+02  0.17950046152E+03  0.18453098315E+03  0.41800000000E+01 0.  1.
        -11    1    1    2    0    0 -0.58712636977E+02 -0.27793598909E+02  0.38322097646E+03  0.38868750260E+03  0.00000000000E+00 0. -1.
         11    1    1    2    0    0  0.30640660996E+02 -0.29535421719E+02  0.15850005480E+03  0.16411416336E+03  0.00000000000E+00 0.  1.
</event>
<event>
 7    1  0.2766180E-009  0.1001166E+03  0.7561462E-02  0.1280051E+00
         -1   -1    0    0    0  501 -0.00000000000E+00  0.00000000000E+00  0.48960820412E+02  0.48960820412E+02  0.00000000000E+00 0.  1.
          1   -1    0    0  501    0  0.00000000000E+00 -0.00000000000E+00 -0.29315521237E+03  0.29315521237E+03  0.00000000000E+00 0. -1.
         25    2    1    2    0    0  0.18035659348E+01  0.49705987496E+02 -0.13711375439E+03  0.19213384071E+03  0.12506515526E+03 0.  0.
          5    1    3    3  502    0  0.16443898047E+02  0.88769780508E+02 -0.10927921493E+03  0.14180936122E+03  0.41800000000E+01 0. -1.
         -5    1    3    3    0  502 -0.14640332112E+02 -0.39063793012E+02 -0.27834539458E+02  0.50324479487E+02  0.41800000000E+01 0. -1.
        -11    1    1    2    0    0  0.14178826560E+02 -0.49973394664E+02 -0.11913130752E+03  0.12996402475E+03  0.00000000000E+00 0. -1.
         11    1    1    2    0    0 -0.15982392494E+02  0.26740716810E+00  0.12050669957E+02  0.20018167320E+02  0.00000000000E+00 0.  1.
</event>
<event>
 7    1  0.2766180E-009  0.1198842E+03  0.7561462E-02  0.1243288E+00
          2   -1    0    0  501    0  0.00000000000E+00  0.00000000000E+00  0.47424350364E+03  0.47424350364E+03  0.00000000000E+00 0. -1.
         -2   -1    0    0    0  501 -0.00000000000E+00 -0.00000000000E+00 -0.41712290590E+02  0.41712290590E+02  0.00000000000E+00 0.  1.
         25    2    1    2    0    0  0.76437170775E+02 -0.40566776370E+02  0.29948504079E+03  0.33589754305E+03  0.12509022884E+03 0.  0.
          5    1    3    3  502    0  0.89333654723E+02  0.18422619152E+02  0.17022598748E+03  0.19316897778E+03  0.41800000000E+01 0.  1.
         -5    1    3    3    0  502 -0.12896483948E+02 -0.58989395522E+02  0.12925905331E+03  0.14272856527E+03  0.41800000000E+01 0.  1.
        -11    1    1    2    0    0 -0.25982339771E+02  0.22403626234E+02  0.12008497903E+03  0.12488957778E+03  0.00000000000E+00 0. -1.
         11    1    1    2    0    0 -0.50454831004E+02  0.18163150137E+02  0.12961193224E+02  0.55168673396E+02  0.00000000000E+00 0.  1.
</event>
<event>
 7    1  0.2766180E-009  0.8282742E+02  0.7561462E-02  0.1321214E+00
          2   -1    0    0  501    0  0.00000000000E+00  0.00000000000E+00  0.41158923739E+03  0.41158923739E+03  0.00000000000E+00 0. -1.
         -2   -1    0    0    0  501 -0.00000000000E+00 -0.00000000000E+00 -0.34882033635E+02  0.34882033635E+02  0.00000000000E+00 0.  1.
         25    2    1    2    0    0 -0.34082827457E+01 -0.40122062737E+02  0.15327701453E+03  0.20189948844E+03  0.12509262144E+03 0.  0.
          5    1    3    3  502    0 -0.27462552533E+02 -0.44581617129E+02  0.16592694612E+03  0.17404291490E+03  0.41800000000E+01 0.  1.
         -5    1    3    3    0  502  0.24054269787E+02  0.44595543915E+01 -0.12649931587E+02  0.27856573542E+02  0.41800000000E+01 0.  1.
        -11    1    1    2    0    0  0.26913780893E+02  0.54479383085E+02  0.19789027091E+03  0.20700945414E+03  0.00000000000E+00 0.  1.
         11    1    1    2    0    0 -0.23505498147E+02 -0.14357320348E+02  0.25539918312E+02  0.37562328443E+02  0.00000000000E+00 0. -1.
</event>
<event>
 7    1  0.2766180E-009  0.2779794E+03  0.7561462E-02  0.1096798E+00
         -1   -1    0    0    0  501 -0.00000000000E+00  0.00000000000E+00  0.11918829134E+03  0.11918829134E+03  0.00000000000E+00 0.  1.
          1   -1    0    0  501    0  0.00000000000E+00 -0.00000000000E+00 -0.67313336513E+03  0.67313336513E+03  0.00000000000E+00 0. -1.
         25    2    1    2    0    0 -0.17175901693E+03  0.19586188286E+03 -0.30744398902E+03  0.42193894940E+03  0.12509050155E+03 0.  0.
          5    1    3    3  502    0 -0.13438750955E+03  0.20851853184E+03 -0.25084884680E+03  0.35282091376E+03  0.41800000000E+01 0.  1.
         -5    1    3    3    0  502 -0.37371507384E+02 -0.12656648980E+02 -0.56595142226E+02  0.69118035643E+02  0.41800000000E+01 0.  1.
        -11    1    1    2    0    0  0.44832908752E+02 -0.98444161440E+02 -0.14499281424E+03  0.18089820013E+03  0.00000000000E+00 0. -1.
         11    1    1    2    0    0  0.12692610818E+03 -0.97417721423E+02 -0.10150827052E+03  0.18948450694E+03  0.00000000000E+00 0.  1.
</event>
<event>
 7    1  0.3201521E-009  0.2016593E+03  0.7561462E-02  0.1148347E+00
          2   -1    0    0  501    0  0.00000000000E+00  0.00000000000E+00  0.15608124091E+04  0.15608124091E+04  0.00000000000E+00 0. -1.
         -2   -1    0    0    0  501 -0.00000000000E+00 -0.00000000000E+00 -0.32873708400E+02  0.32873708400E+02  0.00000000000E+00 0.  1.
         25    2    1    2    0    0  0.14969003368E+03  0.12144113696E+03  0.62549478304E+03  0.66636778838E+03  0.12508896770E+03 0.  0.
          5    1    3    3  502    0  0.38449971685E+02  0.19895129691E+02  0.31873724654E+02  0.53922381543E+02  0.41800000000E+01 0. -1.
         -5    1    3    3    0  502  0.11124006199E+03  0.10154600727E+03  0.59362105839E+03  0.61244540683E+03  0.41800000000E+01 0. -1.
        -11    1    1    2    0    0 -0.14523864325E+03 -0.76814965144E+02  0.77468711057E+03  0.79191850695E+03  0.00000000000E+00 0.  1.
         11    1    1    2    0    0 -0.44513904270E+01 -0.44626171820E+02  0.12775680706E+03  0.13539982215E+03  0.00000000000E+00 0. -1.
</event>
<event>
 7    1  0.2766180E-009  0.1524244E+03  0.7561462E-02  0.1197525E+00
         -2   -1    0    0    0  501 -0.00000000000E+00  0.00000000000E+00  0.20577261064E+03  0.20577261064E+03  0.00000000000E+00 0.  1.
          2   -1    0    0  501    0  0.00000000000E+00 -0.00000000000E+00 -0.13265270590E+03  0.13265270590E+03  0.00000000000E+00 0. -1.
         25    2    1    2    0    0  0.89756187753E+02  0.84381995922E+02  0.55761643950E+02  0.18421026695E+03  0.12509023559E+03 0.  0.
          5    1    3    3  502    0  0.16555949194E+02 -0.18967613738E+02  0.51437310972E+02  0.57420720865E+02  0.41800000000E+01 0.  1.
         -5    1    3    3    0  502  0.73200238558E+02  0.10334960966E+03  0.43243329777E+01  0.12678954609E+03  0.41800000000E+01 0.  1.
        -11    1    1    2    0    0 -0.11856277611E+02 -0.72914526061E+02  0.14598336409E+01  0.73886605983E+02  0.00000000000E+00 0. -1.
         11    1    1    2    0    0 -0.77899910142E+02 -0.11467469861E+02  0.15898427153E+02  0.80328443599E+02  0.00000000000E+00 0.  1.
</event>
<event>
 7    1  0.2766180E-009  0.1061891E+03  0.7561462E-02  0.1267794E+00
          2   -1    0    0  501    0  0.00000000000E+00  0.00000000000E+00  0.56543066709E+02  0.56543066709E+02  0.00000000000E+00 0. -1.
         -2   -1    0    0    0  501 -0.00000000000E+00 -0.00000000000E+00 -0.28128621990E+03  0.28128621990E+03  0.00000000000E+00 0.  1.
         25    2    1    2    0    0  0.22844682866E+01  0.60363979295E+02 -0.15493931130E+03  0.20809756072E+03  0.12509746520E+03 0.  0.
          5    1    3    3  502    0  0.40924828904E+02 -0.15565630683E+02 -0.92381649398E+02  0.10231799463E+03  0.41800000000E+01 0. -1.
         -5    1    3    3    0  502 -0.38640360618E+02  0.75929609978E+02 -0.62557661903E+02  0.10577956609E+03  0.41800000000E+01 0. -1.
        -11    1    1    2    0    0  0.48968930602E+01  0.10648687804E+02  0.14905335965E+02  0.18961623185E+02  0.00000000000E+00 0. -1.
         11    1    1    2    0    0 -0.71813613468E+01 -0.71012667099E+02 -0.84709177852E+02  0.11077010270E+03  0.00000000000E+00 0.  1.
</event>
<event>
 7    1  0.2766180E-009  0.9554843E+02  0.7561462E-02  0.1289946E+00
         -2   -1    0    0    0  501 -0.00000000000E+00  0.00000000000E+00  0.25990758433E+02  0.25990758433E+02  0.00000000000E+00 0. -1.
          2   -1    0    0  501    0  0.00000000000E+00 -0.00000000000E+00 -0.53484237456E+03  0.53484237456E+03  0.00000000000E+00 0.  1.
         25    2    1    2    0    0  0.15420535666E+02  0.12252467856E+02 -0.29519534253E+03  0.32120705000E+03  0.12508302375E+03 0.  0.
          5    1    3    3  502    0  0.66011942610E+02  0.94666925750E+01 -0.10601984709E+03  0.12531909356E+03  0.41800000000E+01 0.  1.
         -5    1    3    3    0  502 -0.50591406944E+02  0.27857752807E+01 -0.18917549545E+03  0.19588795644E+03  0.41800000000E+01 0.  1.
        -11    1    1    2    0    0 -0.16703048397E+02  0.28302270604E+02 -0.18966041255E+03  0.19248657729E+03  0.00000000000E+00 0.  1.
         11    1    1    2    0    0  0.12825127305E+01 -0.40554738460E+02 -0.23995861040E+02  0.47139505699E+02  0.00000000000E+00 0. -1.
</event>
<event>
 7    1  0.2766180E-009  0.7621496E+02  0.7561462E-02  0.1340149E+00
          2   -1    0    0  501    0  0.00000000000E+00  0.00000000000E+00  0.17186612693E+03  0.17186612693E+03  0.00000000000E+00 0.  1.
         -2   -1    0    0    0  501 -0.00000000000E+00 -0.00000000000E+00 -0.83301297469E+02  0.83301297469E+02  0.00000000000E+00 0. -1.
         25    2    1    2    0    0  0.12458680385E+02 -0.35501711574E+02  0.91273063806E+02  0.15935230172E+03  0.12508714420E+03 0.  0.
          5    1    3    3  502    0  0.38767021113E+02 -0.39659045709E+02  0.11219661682E+03  0.12522489792E+03  0.41800000000E+01 0. -1.
         -5    1    3    3    0  502 -0.26308340729E+02  0.41573341346E+01 -0.20923553017E+02  0.34127403796E+02  0.41800000000E+01 0. -1.
        -11    1    1    2    0    0 -0.20254041218E+02  0.49692537878E+02  0.28423677150E+02  0.60724623746E+02  0.00000000000E+00 0.  1.
         11    1    1    2    0    0  0.77953608339E+01 -0.14190826303E+02 -0.31131911499E+02  0.35090498932E+02  0.00000000000E+00 0. -1.
</event>
<event>
 7    1  0.2766180E-009  0.1142787E+03  0.7561462E-02  0.1252845E+00
         -1   -1    0    0    0  501 -0.00000000000E+00  0.00000000000E+00  0.43214351236E+02  0.43214351236E+02  0.00000000000E+00 0.  1.
          1   -1    0    0  501    0  0.00000000000E+00 -0.00000000000E+00 -0.33054699032E+03  0.33054699032E+03  0.00000000000E+00 0. -1.
         25    2    1    2    0    0  0.37143244509E+02  0.19767637797E+02 -0.12424568139E+03  0.18126253856E+03  0.12509491765E+03 0.  0.
          5    1    3    3  502    0 -0.12199372755E+02  0.63513617862E+02 -0.49870828456E+02  0.81776379722E+02  0.41800000000E+01 0.  1.
         -5    1    3    3    0  502  0.49342617264E+02 -0.43745980065E+02 -0.74374852937E+02  0.99486158835E+02  0.41800000000E+01 0.  1.
        -11    1    1    2    0    0 -0.63674057977E+02 -0.28473319950E+02 -0.13942481109E+03  0.15589866438E+03  0.00000000000E+00 0. -1.
         11    1    1    2    0    0  0.26530813468E+02  0.87056821532E+01 -0.23662146603E+02  0.36600138618E+02  0.00000000000E+00 0.  1.
</event>
<event>
 7    1  0.3089355E-009  0.1127468E+03  0.7561462E-02  0.1255566E+00
         -1   -1    0    0    0  501 -0.00000000000E+00  0.00000000000E+00  0.67918624732E+02  0.67918624732E+02  0.00000000000E+00 0.  1.
          1   -1    0    0  501    0  0.00000000000E+00 -0.00000000000E+00 -0.29064237205E+03  0.29064237205E+03  0.00000000000E+00 0. -1.
         25    2    1    2    0    0  0.39511150761E+02  0.61577056019E+02 -0.57692789074E+02  0.15597808749E+03  0.12509133065E+03 0.  0.
          5    1    3    3  502    0  0.11284265815E+02  0.82432669823E+02 -0.78917005164E+02  0.11475123447E+03  0.41800000000E+01 0. -1.
         -5    1    3    3    0  502  0.28226884946E+02 -0.20855613804E+02  0.21224216090E+02  0.41226853015E+02  0.41800000000E+01 0. -1.
        -11    1    1    2    0    0  0.12860207086E+02 -0.52046661296E+02 -0.40620250858E+02  0.67262505589E+02  0.00000000000E+00 0.  1.
         11    1    1    2    0    0 -0.52371357847E+02 -0.95303947232E+01 -0.12441070739E+03  0.13532040370E+03  0.00000000000E+00 0. -1.
</event>
<event>
 7    1  0.2766180E-009  0.1836521E+03  0.7561462E-02  0.1164315E+00
          1   -1    0    0  501    0  0.00000000000E+00  0.00000000000E+00  0.16258617590E+04  0.16258617590E+04  0.00000000000E+00 0. -1.
         -1   -1    0    0    0  501 -0.00000000000E+00 -0.00000000000E+00 -0.21565910300E+02  0.21565910300E+02  0.00000000000E+00 0.  1.
         25    2    1    2    0    0 -0.88095028802E+02 -0.11965056993E+03  0.70731042355E+03  0.73349358783E+03  0.12509122726E+03 0.  0.
          5    1    3    3  502    0 -0.11943000756E+03 -0.94950973661E+02  0.59378152692E+03  0.61308497634E+03  0.41800000000E+01 0. -1.
         -5    1    3    3    0  502  0.31334978758E+02 -0.24699596271E+02  0.11352889664E+03  0.12040861149E+03  0.41800000000E+01 0. -1.
        -11    1    1    2    0    0  0.99283102466E+02  0.64764384298E+02  0.64439755968E+03  0.65520971820E+03  0.00000000000E+00 0. -1.
         11    1    1    2    0    0 -0.11188073663E+02  0.54886185634E+02  0.25258786544E+03  0.25872436324E+03  0.00000000000E+00 0.  1.
</event>
<event>
 7    1  0.2766180E-009  0.1608033E+03  0.7561462E-02  0.1187793E+00
         -1   -1    0    0    0  501 -0.00000000000E+00  0.00000000000E+00  0.38901888783E+02  0.38901888783E+02  0.00000000000E+00 0.  1.
          1   -1    0    0  501    0  0.00000000000E+00 -0.00000000000E+00 -0.87516427422E+03  0.87516427422E+03  0.00000000000E+00 0. -1.
         25    2    1    2    0    0 -0.13720798130E+03 -0.32305517990E+02 -0.56332696365E+03  0.59401556114E+03  0.12509013660E+03 0.  0.
          5    1    3    3  502    0 -0.15635066619E+03 -0.28111090782E+02 -0.54172016243E+03  0.56454758083E+03  0.41800000000E+01 0. -1.
         -5    1    3    3    0  502  0.19142684888E+02 -0.41944272080E+01 -0.21606801227E+02  0.29467980310E+02  0.41800000000E+01 0. -1.
        -11    1    1    2    0    0  0.38771493764E+02 -0.86550852918E+00 -0.14297479989E+02  0.41332744498E+02  0.00000000000E+00 0.  1.
         11    1    1    2    0    0  0.98436487535E+02  0.33171026519E+02 -0.25863794180E+03  0.27871785737E+03  0.00000000000E+00 0. -1.
</event>
<event>
 7    1  0.2766180E-009  0.1019578E+03  0.7561462E-02  0.1276232E+00
         -2   -1    0    0    0  501 -0.00000000000E+00  0.00000000000E+00  0.17749352193E+02  0.17749352193E+02  0.00000000000E+00 0.  1.
          2   -1    0    0  501    0  0.00000000000E+00 -0.00000000000E+00 -0.69925790276E+03  0.69925790276E+03  0.00000000000E+00 0. -1.
         25    2    1    2    0    0 -0.29694623639E+02  0.15217938465E+02 -0.42508662530E+03  0.44437227320E+03  0.12511883094E+03 0.  0.
          5    1    3    3  502    0  0.41343417555E+02 -0.12923792553E+02 -0.24289425763E+03  0.24676181913E+03  0.41800000000E+01 0.  1.
         -5    1    3    3    0  502 -0.71038041194E+02  0.28141731018E+02 -0.18219236767E+03  0.19761045407E+03  0.41800000000E+01 0.  1.
        -11    1    1    2    0    0 -0.19390486790E+02 -0.27146848996E+02 -0.49896261945E+02  0.60021490689E+02  0.00000000000E+00 0.  1.
         11    1    1    2    0    0  0.49085110429E+02  0.11928910531E+02 -0.20652566333E+03  0.21261349107E+03  0.00000000000E+00 0. -1.
</event>
<event>
 7    1  0.2766180E-009  0.1071085E+03  0.7561462E-02  0.1266020E+00
         -2   -1    0    0    0  501 -0.00000000000E+00  0.00000000000E+00  0.34526691986E+02  0.34526691986E+02  0.00000000000E+00 0.  1.
          2   -1    0    0  501    0  0.00000000000E+00 -0.00000000000E+00 -0.35738543436E+03  0.35738543436E+03  0.00000000000E+00 0. -1.
         25    2    1    2    0    0 -0.15252049818E+02 -0.14240725312E+02 -0.15176480434E+03  0.19777645425E+03  0.12509015444E+03 0.  0.
          5    1    3    3  502    0 -0.68714424443E+02 -0.21457901690E+02 -0.96123522517E+02  0.12016371188E+03  0.41800000000E+01 0. -1.
         -5    1    3    3    0  502  0.53462374625E+02  0.72171763785E+01 -0.55641281818E+02  0.77612742368E+02  0.41800000000E+01 0. -1.
        -11    1    1    2    0    0 -0.29450069405E+02  0.28596122839E+02 -0.52904447305E+02  0.66962118949E+02  0.00000000000E+00 0.  1.
         11    1    1    2    0    0  0.44702119223E+02 -0.14355397528E+02 -0.11818949073E+03  0.12717355315E+03  0.00000000000E+00 0. -1.
</event>
<event>
 7    1  0.2766180E-009  0.6294766E+02  0.7561462E-02  0.1385862E+00
          2   -1    0    0  501    0  0.00000000000E+00  0.00000000000E+00  0.37703188632E+03  0.37703188632E+03  0.00000000000E+00 0. -1.
         -2   -1    0    0    0  501 -0.00000000000E+00 -0.00000000000E+00 -0.35430652540E+02  0.35430652540E+02  0.00000000000E+00 0.  1.
         25    2    1    2    0    0 -0.82232083066E+01 -0.12592219889E+02  0.26052508261E+03  0.28939044816E+03  0.12508927876E+03 0.  0.
          5    1    3    3  502    0 -0.62653483240E+01 -0.27450205234E+02  0.26978659335E+03  0.27128407013E+03  0.41800000000E+01 0. -1.
         -5    1    3    3    0  502 -0.19578599825E+01  0.14857985345E+02 -0.92615107369E+01  0.18106378030E+02  0.41800000000E+01 0. -1.
        -11    1    1    2    0    0 -0.21400917684E+02  0.37494282594E+02  0.13560913755E+02  0.45251727998E+02  0.00000000000E+00 0.  1.
         11    1    1    2    0    0  0.29624125990E+02 -0.24902062705E+02  0.67515237412E+02  0.77820362698E+02  0.00000000000E+00 0. -1.
</event>
<event>
 7    1  0.2766180E-009  0.8379660E+02  0.7561462E-02  0.1318610E+00
          1   -1    0    0  501    0  0.00000000000E+00  0.00000000000E+00  0.63219786225E+03  0.63219786225E+03  0.00000000000E+00 0. -1.
         -1   -1    0    0    0  501 -0.00000000000E+00 -0.00000000000E+00 -0.24618778583E+02  0.24618778583E+02  0.00000000000E+00 0.  1.
         25    2    1    2    0    0 -0.33916744658E+02 -0.19987043772E+02  0.42295482184E+03  0.44280756912E+03  0.12505172716E+03 0.  0.
          5    1    3    3  502    0 -0.17204697549E+02 -0.49024596752E+02  0.65251365919E+02  0.83514225487E+02  0.41800000000E+01 0.  1.
         -5    1    3    3    0  502 -0.16712047109E+02  0.29037552980E+02  0.35770345592E+03  0.35929334363E+03  0.41800000000E+01 0.  1.
        -11    1    1    2    0    0  0.18418261746E+02 -0.26743805677E+02  0.12192197785E+02  0.34685922139E+02  0.00000000000E+00 0.  1.
         11    1    1    2    0    0  0.15498482912E+02  0.46730849449E+02  0.17243206404E+03  0.17932314957E+03  0.00000000000E+00 0. -1.
</event>
<event>
 7    1  0.2766180E-009  0.2786292E+03  0.7561462E-02  0.1096440E+00
          1   -1    0    0  501    0  0.00000000000E+00  0.00000000000E+00  0.10671041810E+04  0.10671041810E+04  0.00000000000E+00 0. -1.
         -1   -1    0    0    0  501 -0.00000000000E+00 -0.00000000000E+00 -0.83775847879E+02  0.83775847879E+02  0.00000000000E+00 0.  1.
         25    2    1    2    0    0  0.18392378524E+03  0.20567690039E+03  0.57550407520E+03  0.65037206717E+03  0.12509172256E+03 0.  0.
          5    1    3    3  502    0  0.57197163276E+02  0.54876632687E+02  0.30848488757E+03  0.31853313574E+03  0.41800000000E+01 0.  1.
         -5    1    3    3    0  502  0.12672662197E+03  0.15080026771E+03  0.26701918763E+03  0.33183893143E+03  0.41800000000E+01 0.  1.
        -11    1    1    2    0    0 -0.13218671759E+03 -0.10949325927E+03  0.18503377602E+03  0.25238779765E+03  0.00000000000E+00 0.  1.
         11    1    1    2    0    0 -0.51737067653E+02 -0.96183641118E+02  0.22279048194E+03  0.24812016410E+03  0.00000000000E+00 0. -1.
</event>
<event>
 7    1  0.2766180E-009  0.1074384E+03  0.7561462E-02  0.1265388E+00
         -2   -1    0    0    0  501 -0.00000000000E+00  0.00000000000E+00  0.56281412703E+03  0.56281412703E+03  0.00000000000E+00 0.  1.
          2   -1    0    0  501    0  0.00000000000E+00 -0.00000000000E+00 -0.25330532474E+02  0.25330532474E+02  0.00000000000E+00 0. -1.
         25    2    1    2    0    0  0.37125608936E+02 -0.27345824896E+02  0.26052080585E+03  0.29265108152E+03  0.12508980876E+03 0.  0.
          5    1    3    3  502    0  0.59812217382E+02 -0.58436731567E+02  0.22514440317E+03  0.24020788418E+03  0.41800000000E+01 0. -1.
         -5    1    3    3    0  502 -0.22686608446E+02  0.31090906672E+02  0.35376402679E+02  0.52443197337E+02  0.41800000000E+01 0. -1.
        -11    1    1    2    0    0 -0.41475515186E+02  0.52502195238E+02  0.12874292569E+03  0.14509114301E+03  0.00000000000E+00 0. -1.
         11    1    1    2    0    0  0.43499062505E+01 -0.25156370343E+02  0.14821986302E+03  0.15040243498E+03  0.00000000000E+00 0.  1.
</event>
<event>
 6    1  0.2766180E-009  0.1433045E+03  0.7561462E-02  0.1208950E+00
          1   -1    0    0  501    0  0.00000000000E+00  0.00000000000E+00  0.14829940699E+03  0.14829940699E+03  0.00000000000E+00 0. -1.
         -1   -1    0    0    0  501 -0.00000000000E+00 -0.00000000000E+00 -0.18553071068E+03  0.18553071068E+03  0.00000000000E+00 0.  1.
          5    1    1    2  502    0 -0.48538293555E+02 -0.79703076694E+02 -0.25462605437E+02  0.96821294411E+02  0.41800000000E+01 0.  1.
         -5    1    1    2    0  502 -0.46975514858E+02  0.38984300056E+02 -0.65005177920E+02  0.89272729338E+02  0.41800000000E+01 0.  1.
        -11    1    1    2    0    0  0.94820711572E+00  0.37371164444E+02 -0.32657417410E+01  0.37525565922E+02  0.00000000000E+00 0.  1.
         11    1    1    2    0    0  0.94565601297E+02  0.33476121944E+01  0.56502221408E+02  0.11021052799E+03  0.00000000000E+00 0. -1.
</event>
<event>
 7    1  0.2766180E-009  0.1091089E+03  0.7561462E-02  0.1262229E+00
          1   -1    0    0  501    0  0.00000000000E+00  0.00000000000E+00  0.52653133492E+03  0.52653133492E+03  0.00000000000E+00 0. -1.
         -1   -1    0    0    0  501 -0.00000000000E+00 -0.00000000000E+00 -0.23810673725E+02  0.23810673725E+02  0.00000000000E+00 0.  1.
         25    2    1    2    0    0  0.11193224417E+02  0.16125110611E+02  0.34087106008E+03  0.36363273092E+03  0.12510146256E+03 0.  0.
          5    1    3    3  502    0 -0.56479787471E+02 -0.11824261516E+01  0.15029994160E+03  0.16062038902E+03  0.41800000000E+01 0. -1.
         -5    1    3    3    0  502  0.67673011887E+02  0.17307536763E+02  0.19057111848E+03  0.20301234190E+03  0.41800000000E+01 0. -1.
        -11    1    1    2    0    0 -0.44190490515E+02  0.14567847351E+02  0.98818805935E+02  0.10922535436E+03  0.00000000000E+00 0.  1.
         11    1    1    2    0    0  0.32997266098E+02 -0.30692957963E+02  0.63030795187E+02  0.77483923367E+02  0.00000000000E+00 0. -1.
</event>
<event>
 7    1  0.2766180E-009  0.1136674E+03  0.7561462E-02  0.1253925E+00
          2   -1    0    0  501    0  0.00000000000E+00  0.00000000000E+00  0.94885115819E+03  0.94885115819E+03  0.00000000000E+00 0. -1.
         -2   -1    0    0    0  501 -0.00000000000E+00 -0.00000000000E+00 -0.14031223502E+02  0.14031223502E+02  0.00000000000E+00 0.  1.
         25    2    1    2    0    0 -0.48257510618E+01  0.32485223279E+02  0.57846807543E+03  0.59274912496E+03  0.12509050021E+03 0.  0.
          5    1    3    3  502    0  0.35322645432E+02  0.67204372756E+02  0.34833360741E+03  0.35653596095E+03  0.41800000000E+01 0. -1.
         -5    1    3    3    0  502 -0.40148396494E+02 -0.34719149477E+02  0.23013446802E+03  0.23621316401E+03  0.41800000000E+01 0. -1.
        -11    1    1    2    0    0  0.48669341469E+02 -0.17598301576E+02  0.15088523194E+03  0.15951413177E+03  0.00000000000E+00 0.  1.
         11    1    1    2    0    0 -0.43843590407E+02 -0.14886921703E+02  0.20546662731E+03  0.21061912496E+03  0.00000000000E+00 0. -1.
</event>
<event>
 6    1  0.2766180E-009  0.1423552E+03  0.7561462E-02  0.1210195E+00
          4   -1    0    0  501    0  0.00000000000E+00  0.00000000000E+00  0.13643155253E+03  0.13643155253E+03  0.00000000000E+00 0.  1.
         -4   -1    0    0    0  501 -0.00000000000E+00 -0.00000000000E+00 -0.15742253790E+03  0.15742253790E+03  0.00000000000E+00 0. -1.
          5    1    1    2  502    0  0.16440242011E+02  0.73886267493E+02  0.21823606746E+02  0.78887288538E+02  0.41800000000E+01 0. -1.
         -5    1    1    2    0  502  0.69090796570E+02 -0.34899379337E+02 -0.90272118607E+01  0.78041449261E+02  0.41800000000E+01 0. -1.
        -11    1    1    2    0    0 -0.37723943738E+01 -0.48883430183E+02 -0.21970802986E+02  0.53726500813E+02  0.00000000000E+00 0.  1.
         11    1    1    2    0    0 -0.81758644207E+02  0.98965420264E+01 -0.11816577270E+02  0.83198851826E+02  0.00000000000E+00 0. -1.
</event>
<event>
 7    1  0.2766180E-009  0.1127472E+03  0.7561462E-02  0.1255565E+00
          2   -1    0    0  501    0  0.00000000000E+00  0.00000000000E+00  0.37441507026E+02  0.37441507026E+02  0.00000000000E+00 0. -1.
         -2   -1    0    0    0  501 -0.00000000000E+00 -0.00000000000E+00 -0.45765536284E+03  0.45765536284E+03  0.00000000000E+00 0.  1.
         25    2    1    2    0    0 -0.68447897118E+01 -0.65972860343E+02 -0.31090539197E+03  0.34162572888E+03  0.12508679559E+03 0.  0.
          5    1    3    3  502    0 -0.42654234350E+02 -0.19617658066E+00 -0.33902825750E+02  0.54647014439E+02  0.41800000000E+01 0.  1.
         -5    1    3    3    0  502  0.35809444638E+02 -0.65776683762E+02 -0.27700256622E+03  0.28697871444E+03  0.41800000000E+01 0.  1.
        -11    1    1    2    0    0 -0.36878336712E+02  0.13375588372E+02 -0.43058860938E+02  0.58249322642E+02  0.00000000000E+00 0.  1.
         11    1    1    2    0    0  0.43723126424E+02  0.52597271971E+02 -0.66249602911E+02  0.95221818345E+02  0.00000000000E+00 0. -1.
</event>
<event>
 7    1  0.2766180E-009  0.1057735E+03  0.7561462E-02  0.1268603E+00
         -2   -1    0    0    0  501 -0.00000000000E+00  0.00000000000E+00  0.39626052943E+02  0.39626052943E+02  0.00000000000E+00 0.  1.
          2   -1    0    0  501    0  0.00000000000E+00 -0.00000000000E+00 -0.35999309333E+03  0.35999309333E+03  0.00000000000E+00 0. -1.
         25    2    1    2    0    0 -0.10319766053E+02 -0.48916124576E+02 -0.16435894452E+03  0.21251088637E+03  0.12509088442E+03 0.  0.
          5    1    3    3  502    0  0.29891441616E+02  0.32157174116E+02 -0.52384571914E+02  0.68477718300E+02  0.41800000000E+01 0. -1.
         -5    1    3    3    0  502 -0.40211207669E+02 -0.81073298692E+02 -0.11197437260E+03  0.14403316807E+03  0.41800000000E+01 0.  1.
        -11    1    1    2    0    0  0.34781668183E+02  0.29883388805E+02 -0.14821908194E+03  0.15515049990E+03  0.00000000000E+00 0. -1.
         11    1    1    2    0    0 -0.24461902130E+02  0.19032735771E+02 -0.77890139305E+01  0.31957760009E+02  0.00000000000E+00 0.  1.
</event>
<event>
 7    1  0.2766180E-009  0.1017317E+03  0.7561462E-02  0.1276696E+00
          3   -1    0    0  501    0  0.00000000000E+00  0.00000000000E+00  0.22122417958E+02  0.22122417958E+02  0.00000000000E+00 0. -1.
         -3   -1    0    0    0  501 -0.00000000000E+00 -0.00000000000E+00 -0.60560798360E+03  0.60560798360E+03  0.00000000000E+00 0.  1.
         25    2    1    2    0    0 -0.19487175876E+01  0.24024870655E+02 -0.41764267172E+03  0.43663926809E+03  0.12508979689E+03 0.  0.
          5    1    3    3  502    0  0.50300845300E+02 -0.10467249563E+01 -0.31212552093E+03  0.31618204232E+03  0.41800000000E+01 0.  1.
         -5    1    3    3    0  502 -0.52249562888E+02  0.25071595611E+02 -0.10551715079E+03  0.12045722577E+03  0.41800000000E+01 0.  1.
        -11    1    1    2    0    0  0.13859573703E+02  0.33434601326E+02 -0.60075676032E+02  0.70135919469E+02  0.00000000000E+00 0. -1.
         11    1    1    2    0    0 -0.11910856115E+02 -0.57459471981E+02 -0.10576721789E+03  0.12095521400E+03  0.00000000000E+00 0.  1.
</event>
<event>
 7    1  0.2766180E-009  0.9642842E+02  0.7561462E-02  0.1287991E+00
         -2   -1    0    0    0  501 -0.00000000000E+00  0.00000000000E+00  0.32714521636E+02  0.32714521636E+02  0.00000000000E+00 0. -1.
          2   -1    0    0  501    0  0.00000000000E+00 -0.00000000000E+00 -0.62207818040E+03  0.62207818040E+03  0.00000000000E+00 0.  1.
         25    2    1    2    0    0  0.77806221430E+02 -0.34649091224E+02 -0.42592350468E+03  0.45200921673E+03  0.12508849889E+03 0.  0.
          5    1    3    3  502    0 -0.51585484318E+01  0.86885941646E+01 -0.26914271363E+03  0.26936476197E+03  0.41800000000E+01 0. -1.
         -5    1    3    3    0  502  0.82964769862E+02 -0.43337685388E+02 -0.15678079105E+03  0.18264445476E+03  0.41800000000E+01 0. -1.
        -11    1    1    2    0    0 -0.72543864268E+01  0.12191875980E+02  0.78232425463E+01  0.16200959425E+02  0.00000000000E+00 0.  1.
         11    1    1    2    0    0 -0.70551835003E+02  0.22457215244E+02 -0.17126339663E+03  0.18658252588E+03  0.00000000000E+00 0. -1.
</event>
<event>
 7    1  0.2766180E-009  0.1096976E+03  0.7561462E-02  0.1261131E+00
         -1   -1    0    0    0  501 -0.00000000000E+00  0.00000000000E+00  0.84158794553E+03  0.84158794553E+03  0.00000000000E+00 0.  1.
          1   -1    0    0  501    0  0.00000000000E+00 -0.00000000000E+00 -0.22941987150E+02  0.22941987150E+02  0.00000000000E+00 0. -1.
         25    2    1    2    0    0  0.38966354777E+02  0.72727883386E+02  0.49177027996E+03  0.51409480086E+03  0.12509090375E+03 0.  0.
          5    1    3    3  502    0  0.54125254894E+02 -0.68457483165E+01  0.31349768830E+03  0.31823683077E+03  0.41800000000E+01 0.  1.
         -5    1    3    3    0  502 -0.15158900117E+02  0.79573631703E+02  0.17827259166E+03  0.19585797010E+03  0.41800000000E+01 0.  1.
        -11    1    1    2    0    0 -0.89833886330E+01 -0.30369002808E+02  0.16423188649E+02  0.35674903339E+02  0.00000000000E+00 0. -1.
         11    1    1    2    0    0 -0.29982966144E+02 -0.42358880579E+02  0.31045248977E+03  0.31476022847E+03  0.00000000000E+00 0.  1.
</event>
<event>
 7    1  0.2766180E-009  0.9772665E+02  0.7561462E-02  0.1285150E+00
          1   -1    0    0  501    0  0.00000000000E+00  0.00000000000E+00  0.10084949726E+03  0.10084949726E+03  0.00000000000E+00 0.  1.
         -1   -1    0    0    0  501 -0.00000000000E+00 -0.00000000000E+00 -0.19920651870E+03  0.19920651870E+03  0.00000000000E+00 0. -1.
         25    2    1    2    0    0  0.11326843223E+02  0.40308361846E+02  0.31652727397E+02  0.13565925402E+03  0.12509387130E+03 0.  0.
          5    1    3    3  502    0  0.20820659243E+02 -0.24943743042E+02 -0.30638327736E+02  0.44853870455E+02  0.41800000000E+01 0. -1.
         -5    1    3    3    0  502 -0.94938160205E+01  0.65252104888E+02  0.62291055133E+02  0.90805383566E+02  0.41800000000E+01 0. -1.
        -11    1    1    2    0    0 -0.35253751643E+02  0.13487501908E+02 -0.74313513882E+02  0.83350093330E+02  0.00000000000E+00 0. -1.
         11    1    1    2    0    0  0.23926908420E+02 -0.53795863754E+02 -0.55696234960E+02  0.81046668607E+02  0.00000000000E+00 0.  1.
</event>
<event>
 7    1  0.2766180E-009  0.2992781E+03  0.7561462E-02  0.1085602E+00
          2   -1    0    0  501    0  0.00000000000E+00  0.00000000000E+00  0.12185683631E+03  0.12185683631E+03  0.00000000000E+00 0. -1.
         -2   -1    0    0    0  501 -0.00000000000E+00 -0.00000000000E+00 -0.10787892104E+04  0.10787892104E+04  0.00000000000E+00 0.  1.
         25    2    1    2    0    0  0.28181640451E+03 -0.69854071881E+02 -0.79501509922E+03  0.85556789958E+03  0.12508935042E+03 0.  0.
          5    1    3    3  502    0  0.28087641820E+03 -0.47646171806E+02 -0.77368005478E+03  0.82447560276E+03  0.41800000000E+01 0.  1.
         -5    1    3    3    0  502  0.93998631271E+00 -0.22207900075E+02 -0.21335044448E+02  0.31092296821E+02  0.41800000000E+01 0.  1.
        -11    1    1    2    0    0 -0.16553005055E+03  0.51042613343E+02 -0.14534308852E+03  0.22611978992E+03  0.00000000000E+00 0.  1.
         11    1    1    2    0    0 -0.11628635396E+03  0.18811458539E+02 -0.16574186304E+02  0.11895835717E+03  0.00000000000E+00 0. -1.
</event>
<event>
 7    1  0.2766180E-009  0.1692663E+03  0.7561462E-02  0.1178615E+00
          1   -1    0    0  501    0  0.00000000000E+00  0.00000000000E+00  0.11543079076E+04  0.11543079076E+04  0.00000000000E+00 0. -1.
         -1   -1    0    0    0  501 -0.00000000000E+00 -0.00000000000E+00 -0.28710017365E+02  0.28710017365E+02  0.00000000000E+00 0.  1.
         25    2    1    2    0    0  0.10203604019E+03 -0.10095906998E+03  0.50909361499E+03  0.54353242104E+03  0.12508835512E+03 0.  0.
          5    1    3    3  502    0  0.11915500545E+03 -0.69412273824E+02  0.28606021999E+03  0.31759077591E+03  0.41800000000E+01 0. -1.
         -5    1    3    3    0  502 -0.17118965260E+02 -0.31546796160E+02  0.22303339500E+03  0.22594164513E+03  0.41800000000E+01 0. -1.
        -11    1    1    2    0    0 -0.78256636286E+02  0.21013682143E+02  0.38446834781E+03  0.39291422274E+03  0.00000000000E+00 0. -1.
         11    1    1    2    0    0 -0.23779403902E+02  0.79945387840E+02  0.23203592741E+03  0.24657128117E+03  0.00000000000E+00 0.  1.
</event>
<event>
 7    1  0.2766180E-009  0.1181647E+03  0.7561462E-02  0.1246156E+00
         -2   -1    0    0    0  501 -0.00000000000E+00  0.00000000000E+00  0.10895045713E+02  0.10895045713E+02  0.00000000000E+00 0.  1.
          2   -1    0    0  501    0  0.00000000000E+00 -0.00000000000E+00 -0.16878441076E+04  0.16878441076E+04  0.00000000000E+00 0. -1.
         25    2    1    2    0    0  0.24707146725E+02  0.64609707870E+02 -0.11804245802E+04  0.11890479637E+04  0.12509201822E+03 0.  0.
          5    1    3    3  502    0  0.60959493918E+02  0.57862860946E+02 -0.45774036552E+03  0.46541152242E+03  0.41800000000E+01 0.  1.
         -5    1    3    3    0  502 -0.36252347193E+02  0.67468469236E+01 -0.72268421469E+03  0.72363644130E+03  0.41800000000E+01 0.  1.
        -11    1    1    2    0    0 -0.79118559364E+01  0.23797136483E+02 -0.11359299581E+03  0.11632828490E+03  0.00000000000E+00 0.  1.
         11    1    1    2    0    0 -0.16795290789E+02 -0.88406844353E+02 -0.38293148586E+03  0.39336290469E+03  0.00000000000E+00 0. -1.
</event>
<event>
 7    1  0.2766180E-009  0.8666332E+02  0.7561462E-02  0.1311139E+00
         -1   -1    0    0    0  501 -0.00000000000E+00  0.00000000000E+00  0.41529163147E+03  0.41529163147E+03  0.00000000000E+00 0.  1.
          1   -1    0    0  501    0  0.00000000000E+00 -0.00000000000E+00 -0.36498499597E+02  0.36498499597E+02  0.00000000000E+00 0. -1.
         25    2    1    2    0    0  0.30821974592E+02  0.42740371364E+02  0.17726751338E+03  0.22326783243E+03  0.12509204705E+03 0.  0.
          5    1    3    3  502    0  0.29157078305E+02 -0.16120046440E+01  0.17622361821E+03  0.17867559931E+03  0.41800000000E+01 0.  1.
         -5    1    3    3    0  502  0.16648962877E+01  0.44352376008E+02  0.10438951700E+01  0.44592233117E+02  0.41800000000E+01 0.  1.
        -11    1    1    2    0    0 -0.25905195874E+02 -0.68389414325E+02  0.18128791843E+03  0.19548273718E+03  0.00000000000E+00 0. -1.
         11    1    1    2    0    0 -0.49167787188E+01  0.25649042961E+02  0.20237700062E+02  0.33039561461E+02  0.00000000000E+00 0.  1.
</event>
<event>
 7    1  0.2766180E-009  0.1489448E+03  0.7561462E-02  0.1201776E+00
          2   -1    0    0  501    0  0.00000000000E+00  0.00000000000E+00  0.22278447157E+04  0.22278447157E+04  0.00000000000E+00 0. -1.
         -2   -1    0    0    0  501 -0.00000000000E+00 -0.00000000000E+00 -0.11723396735E+02  0.11723396735E+02  0.00000000000E+00 0.  1.
         25    2    1    2    0    0  0.64678434751E+02  0.84178065372E+02  0.16069107762E+04  0.16152641780E+04  0.12508747107E+03 0.  0.
          5    1    3    3  502    0 -0.10021989898E+02  0.88457624503E+02  0.87393167395E+03  0.87846413401E+03  0.41800000000E+01 0. -1.
         -5    1    3    3    0  502  0.74700424649E+02 -0.42795591315E+01  0.73297910221E+03  0.73680004394E+03  0.41800000000E+01 0. -1.
        -11    1    1    2    0    0  0.21554500182E+01 -0.63969854241E+02  0.35268253553E+03  0.35844352286E+03  0.00000000000E+00 0. -1.
         11    1    1    2    0    0 -0.66833884769E+02 -0.20208211131E+02  0.25652800732E+03  0.26586041167E+03  0.00000000000E+00 0.  1.
</event>
<event>
 7    1  0.2766180E-009  0.9555590E+02  0.7561462E-02  0.1289929E+00
          2   -1    0    0  501    0  0.00000000000E+00  0.00000000000E+00  0.59276208685E+03  0.59276208685E+03  0.00000000000E+00 0. -1.
         -2   -1    0    0    0  501 -0.00000000000E+00 -0.00000000000E+00 -0.21091604555E+02  0.21091604555E+02  0.00000000000E+00 0.  1.
         25    2    1    2    0    0  0.71123577131E+01  0.23465016094E+02  0.38144938357E+03  0.40218417484E+03  0.12508911087E+03 0.  0.
          5    1    3    3  502    0 -0.47718435360E+02 -0.16935163897E+02  0.95142196792E+02  0.10785804958E+03  0.41800000000E+01 0. -1.
         -5    1    3    3    0  502  0.54830793073E+02  0.40400179991E+02  0.28630718677E+03  0.29432612526E+03  0.41800000000E+01 0. -1.
        -11    1    1    2    0    0  0.15596708413E+02 -0.40683716219E+02  0.41259983935E+02  0.60006735897E+02  0.00000000000E+00 0.  1.
         11    1    1    2    0    0 -0.22709066126E+02  0.17218700125E+02  0.14896111479E+03  0.15166278066E+03  0.00000000000E+00 0. -1.
</event>
<event>
 7    1  0.2766180E-009  0.1415875E+03  0.7561462E-02  0.1211209E+00
          1   -1    0    0  501    0  0.00000000000E+00  0.00000000000E+00  0.32501056928E+03  0.32501056928E+03  0.00000000000E+00 0. -1.
         -1   -1    0    0    0  501 -0.00000000000E+00 -0.00000000000E+00 -0.75793948318E+02  0.75793948318E+02  0.00000000000E+00 0.  1.
         25    2    1    2    0    0 -0.11004526256E+03 -0.14940089974E+02  0.10348779433E+03  0.19670135184E+03  0.12509409314E+03 0.  0.
          5    1    3    3  502    0  0.54972367680E+01 -0.33241691071E+02  0.65253717516E+02  0.73557798274E+02  0.41800000000E+01 0.  1.
         -5    1    3    3    0  502 -0.11554249933E+03  0.18301601098E+02  0.38234076818E+02  0.12314355356E+03  0.41800000000E+01 0.  1.
        -11    1    1    2    0    0  0.34343573044E+02  0.39722914565E+02  0.98166714661E+02  0.11132876905E+03  0.00000000000E+00 0.  1.
         11    1    1    2    0    0  0.75701689516E+02 -0.24782824591E+02  0.47562111964E+02  0.92774396709E+02  0.00000000000E+00 0. -1.
</event>
<event>
 7    1  0.2766180E-009  0.1070721E+03  0.7561462E-02  0.1266090E+00
          2   -1    0    0  501    0  0.00000000000E+00  0.00000000000E+00  0.74717326836E+03  0.74717326836E+03  0.00000000000E+00 0. -1.
         -2   -1    0    0    0  501 -0.00000000000E+00 -0.00000000000E+00 -0.24044897459E+02  0.24044897459E+02  0.00000000000E+00 0.  1.
         25    2    1    2    0    0  0.52565935888E+02  0.41143611732E+02  0.29582585293E+03  0.32804975651E+03  0.12509089927E+03 0.  0.
          5    1    3    3  502    0  0.15265786714E+02 -0.31153425629E+02  0.19654590253E+03  0.19962801501E+03  0.41800000000E+01 0. -1.
         -5    1    3    3    0  502  0.37300149174E+02  0.72297037361E+02  0.99279950396E+02  0.12842174150E+03  0.41800000000E+01 0. -1.
        -11    1    1    2    0    0  0.15646568547E+02  0.37389516148E+01  0.12411102041E+02  0.20318226309E+02  0.00000000000E+00 0.  1.
         11    1    1    2    0    0 -0.68212504434E+02 -0.44882563347E+02  0.41489141593E+03  0.42285018300E+03  0.00000000000E+00 0. -1.
</event>
<event>
 7    1  0.2766180E-009  0.9792134E+02  0.7561462E-02  0.1284729E+00
          2   -1    0    0  501    0  0.00000000000E+00  0.00000000000E+00  0.45704019812E+02  0.45704019812E+02  0.00000000000E+00 0. -1.
         -2   -1    0    0    0  501 -0.00000000000E+00 -0.00000000000E+00 -0.27140994878E+03  0.27140994878E+03  0.00000000000E+00 0.  1.
         25    2    1    2    0    0  0.15471350090E+02 -0.12179923049E+02 -0.13270329580E+03  0.18342657544E+03  0.12508969047E+03 0.  0.
          5    1    3    3  502    0  0.51345382188E+02 -0.50241807351E+02 -0.59563427655E+02  0.93412321414E+02  0.41800000000E+01 0.  1.
         -5    1    3    3    0  502 -0.35874032098E+02  0.38061884302E+02 -0.73139868143E+02  0.90014254024E+02  0.41800000000E+01 0.  1.
        -11    1    1    2    0    0  0.17627838027E+02  0.29265841994E+02 -0.90059804304E+02  0.96322367768E+02  0.00000000000E+00 0.  1.
         11    1    1    2    0    0 -0.33099188117E+02 -0.17085918944E+02 -0.29428288645E+01  0.37365025384E+02  0.00000000000E+00 0. -1.
</event>
<event>
 7    1  0.2766180E-009  0.1565510E+03  0.7561462E-02  0.1192647E+00
         -2   -1    0    0    0  501 -0.00000000000E+00  0.00000000000E+00  0.21742202572E+03  0.21742202572E+03  0.00000000000E+00 0.  1.
          2   -1    0    0  501    0  0.00000000000E+00 -0.00000000000E+00 -0.32941953559E+03  0.32941953559E+03  0.00000000000E+00 0. -1.
         25    2    1    2    0    0  0.16901003051E+01  0.12778684813E+03  0.15492840734E+03  0.23660976922E+03  0.12509610903E+03 0.  0.
          5    1    3    3  502    0 -0.56780137517E+02  0.36550619133E+02  0.40009055226E+02  0.78601072992E+02  0.41800000000E+01 0. -1.
         -5    1    3    3    0  502  0.58470237822E+02  0.91236228999E+02  0.11491935212E+03  0.15800869623E+03  0.41800000000E+01 0. -1.
        -11    1    1    2    0    0  0.21235874251E+02 -0.31276285762E+02 -0.17214451384E+02  0.41539207295E+02  0.00000000000E+00 0.  1.
         11    1    1    2    0    0 -0.22925974556E+02 -0.96510562371E+02 -0.24971146583E+03  0.26869258480E+03  0.00000000000E+00 0. -1.
</event>
<event>
 7    1  0.2766180E-009  0.8979949E+02  0.7561462E-02  0.1303338E+00
         -2   -1    0    0    0  501 -0.00000000000E+00  0.00000000000E+00  0.36768550214E+02  0.36768550214E+02  0.00000000000E+00 0.  1.
          2   -1    0    0  501    0  0.00000000000E+00 -0.00000000000E+00 -0.50967439392E+03  0.50967439392E+03  0.00000000000E+00 0. -1.
         25    2    1    2    0    0  0.16920477270E+02  0.26771457026E+02 -0.42210093889E+03  0.44138303583E+03  0.12508704266E+03 0.  0.
          5    1    3    3  502    0 -0.28861174087E+02  0.30045436965E+02 -0.36773159495E+03  0.37010767889E+03  0.41800000000E+01 0. -1.
         -5    1    3    3    0  502  0.45781651357E+02 -0.32739799391E+01 -0.54369343945E+02  0.71275356938E+02  0.41800000000E+01 0. -1.
        -11    1    1    2    0    0  0.21182380040E+02 -0.44748536795E+02 -0.31793149743E+02  0.58838160577E+02  0.00000000000E+00 0.  1.
         11    1    1    2    0    0 -0.38102857310E+02  0.17977079769E+02 -0.19011755071E+02  0.46221747729E+02  0.00000000000E+00 0. -1.
</event>
<event>
 7    1  0.2766727E-009  0.1241784E+03  0.7561462E-02  0.1236359E+00
          2   -1    0    0  501    0  0.00000000000E+00  0.00000000000E+00  0.24885978267E+03  0.24885978267E+03  0.00000000000E+00 0.  1.
         -2   -1    0    0    0  501 -0.00000000000E+00 -0.00000000000E+00 -0.88784749653E+02  0.88784749653E+02  0.00000000000E+00 0. -1.
         25    2    1    2    0    0 -0.53692187980E+02 -0.81311635212E+02  0.54687128045E+02  0.16772792305E+03  0.12509013201E+03 0.  0.
          5    1    3    3  502    0 -0.76429448924E+02 -0.53303418772E+02 -0.97277643637E+01  0.93780685192E+02  0.41800000000E+01 0.  1.
         -5    1    3    3    0  502  0.22737260944E+02 -0.28008216440E+02  0.64414892409E+02  0.73947237862E+02  0.41800000000E+01 0.  1.
        -11    1    1    2    0    0  0.24825541105E+02  0.86007749100E+02  0.10832037270E+03  0.14052381840E+03  0.00000000000E+00 0. -1.
         11    1    1    2    0    0  0.28866646875E+02 -0.46961138884E+01 -0.29324677364E+01  0.29392790859E+02  0.00000000000E+00 0.  1.
</event>
<event>
 7    1  0.2766180E-009  0.2231745E+03  0.7561462E-02  0.1131538E+00
         -1   -1    0    0    0  501 -0.00000000000E+00  0.00000000000E+00  0.26244844938E+02  0.26244844938E+02  0.00000000000E+00 0.  1.
          1   -1    0    0  501    0  0.00000000000E+00 -0.00000000000E+00 -0.21650488004E+04  0.21650488004E+04  0.00000000000E+00 0. -1.
         25    2    1    2    0    0  0.20945857489E+03  0.22323394313E+02 -0.11925617025E+04  0.12174654342E+04  0.12508972975E+03 0.  0.
          5    1    3    3  502    0  0.91165254971E+02 -0.14140825675E+02 -0.24471335726E+03  0.26155910668E+03  0.41800000000E+01 0.  1.
         -5    1    3    3    0  502  0.11829331992E+03  0.36464219988E+02 -0.94784834527E+03  0.95590632747E+03  0.41800000000E+01 0.  1.
        -11    1    1    2    0    0 -0.97115705414E+02 -0.56952543002E+02 -0.46035778558E+03  0.47392440656E+03  0.00000000000E+00 0. -1.
         11    1    1    2    0    0 -0.11234286947E+03  0.34629148689E+02 -0.48588446732E+03  0.49990380459E+03  0.00000000000E+00 0.  1.
</event>
<event>
 7    1  0.2766180E-009  0.9886929E+02  0.7561462E-02  0.1282692E+00
         -2   -1    0    0    0  501 -0.00000000000E+00  0.00000000000E+00  0.18952578534E+02  0.18952578534E+02  0.00000000000E+00 0.  1.
          2   -1    0    0  501    0  0.00000000000E+00 -0.00000000000E+00 -0.59276697562E+03  0.59276697562E+03  0.00000000000E+00 0. -1.
         25    2    1    2    0    0 -0.13693204602E+02 -0.46526939210E+02 -0.31782051882E+03  0.34497613032E+03  0.12508552427E+03 0.  0.
          5    1    3    3  502    0  0.13445057333E+02  0.34596890970E+02 -0.42202253404E+02  0.56357936653E+02  0.41800000000E+01 0. -1.
         -5    1    3    3    0  502 -0.27138261935E+02 -0.81123830180E+02 -0.27561826542E+03  0.28861819367E+03  0.41800000000E+01 0. -1.
        -11    1    1    2    0    0  0.30321674067E+02  0.49305099701E+02 -0.20637966676E+03  0.21434309792E+03  0.00000000000E+00 0. -1.
         11    1    1    2    0    0 -0.16628469466E+02 -0.27781604906E+01 -0.49614211506E+02  0.52400325913E+02  0.00000000000E+00 0.  1.
</event>
<event>
 7    1  0.2981709E-009  0.1614828E+03  0.7561462E-02  0.1187033E+00
         -2   -1    0    0    0  501 -0.00000000000E+00  0.00000000000E+00  0.10792232856E+03  0.10792232856E+03  0.00000000000E+00 0.  1.
          2   -1    0    0  501    0  0.00000000000E+00 -0.00000000000E+00 -0.33915954680E+03  0.33915954680E+03  0.00000000000E+00 0. -1.
         25    2    1    2    0    0  0.13542301397E+03 -0.70186713544E+02 -0.76522979302E+02  0.21158051097E+03  0.12507988963E+03 0.  0.
          5    1    3    3  502    0  0.10302150503E+03 -0.85883551336E+02 -0.84451672880E+01  0.13445522726E+03  0.41800000000E+01 0.  1.
         -5    1    3    3    0  502  0.32401508948E+02  0.15696837792E+02 -0.68077812014E+02  0.77125283710E+02  0.41800000000E+01 0.  1.
        -11    1    1    2    0    0 -0.49654032310E+02  0.25672864342E+02 -0.12077283778E+03  0.13308154355E+03  0.00000000000E+00 0.  1.
         11    1    1    2    0    0 -0.85768981665E+02  0.44513849202E+02 -0.33941401160E+02  0.10241982083E+03  0.00000000000E+00 0. -1.
</event>
<event>
 7    1  0.2766180E-009  0.6482009E+02  0.7561462E-02  0.1378650E+00
          2   -1    0    0  501    0  0.00000000000E+00  0.00000000000E+00  0.44831234047E+02  0.44831234047E+02  0.00000000000E+00 0.  1.
         -2   -1    0    0    0  501 -0.00000000000E+00 -0.00000000000E+00 -0.26371009358E+03  0.26371009358E+03  0.00000000000E+00 0. -1.
         25    2    1    2    0    0  0.35432172486E+02  0.29424355155E+02 -0.90424922978E+02  0.16107595192E+03  0.12509022371E+03 0.  0.
          5    1    3    3  502    0 -0.70769670818E+01  0.35315456018E+01  0.29679830805E+02  0.30998710199E+02  0.41800000000E+01 0.  1.
         -5    1    3    3    0  502  0.42509139568E+02  0.25892809553E+02 -0.12010475378E+03  0.13007724172E+03  0.41800000000E+01 0.  1.
        -11    1    1    2    0    0 -0.49659673030E+02 -0.26237985504E+02 -0.11318097798E+03  0.12635049974E+03  0.00000000000E+00 0. -1.
         11    1    1    2    0    0  0.14227500544E+02 -0.31863696512E+01 -0.15272958580E+02  0.21114875966E+02  0.00000000000E+00 0.  1.
</event>
<event>
 7    1  0.2766180E-009  0.3173087E+03  0.7561462E-02  0.1076895E+00
          1   -1    0    0  501    0  0.00000000000E+00  0.00000000000E+00  0.33376583349E+03  0.33376583349E+03  0.00000000000E+00 0. -1.
         -1   -1    0    0    0  501 -0.00000000000E+00 -0.00000000000E+00 -0.32524796485E+03  0.32524796485E+03  0.00000000000E+00 0.  1.
         25    2    1    2    0    0 -0.29932518592E+03 -0.55286390319E+02  0.67335129149E+02  0.33590681227E+03  0.12508882855E+03 0.  0.
          5    1    3    3  502    0 -0.23524129237E+03  0.12266260470E+02  0.54506667733E+02  0.24182095858E+03  0.41800000000E+01 0.  1.
         -5    1    3    3    0  502 -0.64083893556E+02 -0.67552650789E+02  0.12828461416E+02  0.94085853688E+02  0.41800000000E+01 0.  1.
        -11    1    1    2    0    0  0.26444726744E+03  0.58322882202E+02 -0.21065824902E+02  0.27162047939E+03  0.00000000000E+00 0.  1.
         11    1    1    2    0    0  0.34877918481E+02 -0.30364918822E+01 -0.37751435603E+02  0.51486506685E+02  0.00000000000E+00 0. -1.
</event>
<event>
 7    1  0.3621732E-009  0.2221213E+03  0.7561462E-02  0.1132311E+00
          1   -1    0    0  501    0  0.00000000000E+00  0.00000000000E+00  0.62951628260E+03  0.62951628260E+03  0.00000000000E+00 0. -1.
         -1   -1    0    0    0  501 -0.00000000000E+00 -0.00000000000E+00 -0.11758148586E+03  0.11758148586E+03  0.00000000000E+00 0.  1.
         25    2    1    2    0    0 -0.19989908548E+03  0.67370499906E+02  0.44410010952E+03  0.50731619023E+03  0.12508549461E+03 0.  0.
          5    1    3    3  502    0 -0.82042778117E+01 -0.41839037657E+01  0.14235802590E+03  0.14271683560E+03  0.41800000000E+01 0. -1.
         -5    1    3    3    0  502 -0.19169480767E+03  0.71554403672E+02  0.30174208362E+03  0.36459935463E+03  0.41800000000E+01 0. -1.
        -11    1    1    2    0    0  0.10252086420E+03 -0.81637480375E+02  0.46651173600E+02  0.13910980482E+03  0.00000000000E+00 0.  1.
         11    1    1    2    0    0  0.97378221275E+02  0.14266980469E+02  0.21183513623E+02  0.10067177340E+03  0.00000000000E+00 0. -1.
</event>
<event>
 7    1  0.2766180E-009  0.1043101E+03  0.7561462E-02  0.1271485E+00
         -4   -1    0    0    0  501 -0.00000000000E+00  0.00000000000E+00  0.45912106109E+03  0.45912106109E+03  0.00000000000E+00 0.  1.
          4   -1    0    0  501    0  0.00000000000E+00 -0.00000000000E+00 -0.27883038332E+02  0.27883038332E+02  0.00000000000E+00 0. -1.
         25    2    1    2    0    0  0.10677585424E+02 -0.23638570383E+02  0.30064884480E+03  0.32666547935E+03  0.12509122542E+03 0.  0.
          5    1    3    3  502    0 -0.34605209321E+02 -0.56099719119E+02  0.11311443358E+03  0.13098490937E+03  0.41800000000E+01 0.  1.
         -5    1    3    3    0  502  0.45282794745E+02  0.32461148736E+02  0.18753441122E+03  0.19568056999E+03  0.41800000000E+01 0.  1.
        -11    1    1    2    0    0  0.36273261430E+02  0.13226332102E+02  0.88009735501E+02  0.96106185538E+02  0.00000000000E+00 0.  1.
         11    1    1    2    0    0 -0.46950846854E+02  0.10412238280E+02  0.42579442451E+02  0.64232434531E+02  0.00000000000E+00 0. -1.
</event>
<event>
 7    1  0.2766180E-009  0.1239320E+03  0.7561462E-02  0.1236748E+00
          1   -1    0    0  501    0  0.00000000000E+00  0.00000000000E+00  0.63059862645E+03  0.63059862645E+03  0.00000000000E+00 0. -1.
         -1   -1    0    0    0  501 -0.00000000000E+00 -0.00000000000E+00 -0.31375584532E+02  0.31375584532E+02  0.00000000000E+00 0.  1.
         25    2    1    2    0    0 -0.25440730769E+02  0.55448578617E+02  0.17607512512E+03  0.22443707335E+03  0.12509106505E+03 0.  0.
          5    1    3    3  502    0  0.32373550839E+02 -0.23626713206E+02  0.40567238803E+02  0.57179031427E+02  0.41800000000E+01 0.  1.
         -5    1    3    3    0  502 -0.57814281608E+02  0.79075291823E+02  0.13550788631E+03  0.16725804192E+03  0.41800000000E+01 0.  1.
        -11    1    1    2    0    0 -0.19321741873E+02  0.16083659021E+02  0.67893794265E+02  0.72398764466E+02  0.00000000000E+00 0.  1.
         11    1    1    2    0    0  0.44762472642E+02 -0.71532237639E+02  0.35525412253E+03  0.36513837316E+03  0.00000000000E+00 0. -1.
</event>
<event>
 7    1  0.2766180E-009  0.1453141E+03  0.7561462E-02  0.1206352E+00
         -2   -1    0    0    0  501 -0.00000000000E+00  0.00000000000E+00  0.53507654492E+02  0.53507654492E+02  0.00000000000E+00 0.  1.
          2   -1    0    0  501    0  0.00000000000E+00 -0.00000000000E+00 -0.60029060395E+03  0.60029060395E+03  0.00000000000E+00 0. -1.
         25    2    1    2    0    0  0.75744091070E+01  0.12982864391E+03 -0.40491026768E+03  0.44329789874E+03  0.12509138140E+03 0.  0.
          5    1    3    3  502    0 -0.13958899367E+02  0.12554433018E+02  0.19245369505E+01  0.19329793130E+02  0.41800000000E+01 0.  1.
         -5    1    3    3    0  502  0.21533308475E+02  0.11727421089E+03 -0.40683480464E+03  0.42396810561E+03  0.41800000000E+01 0.  1.
        -11    1    1    2    0    0  0.30140967239E+02 -0.20543192318E+02 -0.54532257909E+02  0.65606918914E+02  0.00000000000E+00 0. -1.
         11    1    1    2    0    0 -0.37715376346E+02 -0.10928545159E+03 -0.87340423861E+02  0.14489344078E+03  0.00000000000E+00 0.  1.
</event>
<event>
 7    1  0.2766180E-009  0.1145528E+03  0.7561462E-02  0.1252364E+00
          1   -1    0    0  501    0  0.00000000000E+00  0.00000000000E+00  0.11477059622E+03  0.11477059622E+03  0.00000000000E+00 0. -1.
         -1   -1    0    0    0  501 -0.00000000000E+00 -0.00000000000E+00 -0.12123497810E+03  0.12123497810E+03  0.00000000000E+00 0.  1.
         25    2    1    2    0    0  0.18073993149E+02 -0.31887621547E+02 -0.30551446121E+02  0.13388202438E+03  0.12509003140E+03 0.  0.
          5    1    3    3  502    0  0.71276102095E+02 -0.27373591438E+02 -0.13290395658E+02  0.77612519962E+02  0.41800000000E+01 0.  1.
         -5    1    3    3    0  502 -0.53202108946E+02 -0.45140301093E+01 -0.17261050463E+02  0.56269504416E+02  0.41800000000E+01 0.  1.
        -11    1    1    2    0    0 -0.53466718093E+02  0.34439118866E+02  0.18224390137E+02  0.66157926568E+02  0.00000000000E+00 0.  1.
         11    1    1    2    0    0  0.35392724944E+02 -0.25514973194E+01  0.58626741030E+01  0.35965623381E+02  0.00000000000E+00 0. -1.
</event>
<event>
 7    1  0.2766180E-009  0.1248149E+03  0.7561462E-02  0.1235359E+00
          2   -1    0    0  501    0  0.00000000000E+00  0.00000000000E+00  0.38371571850E+02  0.38371571850E+02  0.00000000000E+00 0. -1.
         -2   -1    0    0    0  501 -0.00000000000E+00 -0.00000000000E+00 -0.56516447415E+03  0.56516447415E+03  0.00000000000E+00 0.  1.
         25    2    1    2    0    0  0.60719796484E+02 -0.34348889275E+02 -0.43584712097E+03  0.45877528671E+03  0.12508121745E+03 0.  0.
          5    1    3    3  502    0 -0.25924739337E+02 -0.46986551179E+02 -0.13249769945E+03  0.14301377857E+03  0.41800000000E+01 0.  1.
         -5    1    3    3    0  502  0.86644535821E+02  0.12637661904E+02 -0.30334942152E+03  0.31576150814E+03  0.41800000000E+01 0.  1.
        -11    1    1    2    0    0 -0.72490715415E+02  0.70019928547E+00 -0.78863602094E+02  0.10712078153E+03  0.00000000000E+00 0.  1.
         11    1    1    2    0    0  0.11770918931E+02  0.33648689990E+02 -0.12082179235E+02  0.37639977758E+02  0.00000000000E+00 0. -1.
</event>
<event>
 7    1  0.2766180E-009  0.1397421E+03  0.7561462E-02  0.1213676E+00
          2   -1    0    0  501    0  0.00000000000E+00  0.00000000000E+00  0.29488442133E+03  0.29488442133E+03  0.00000000000E+00 0. -1.
         -2   -1    0    0    0  501 -0.00000000000E+00 -0.00000000000E+00 -0.72676242698E+02  0.72676242698E+02  0.00000000000E+00 0.  1.
         25    2    1    2    0    0  0.10052330874E+03 -0.14552304563E+01  0.10679465551E+03  0.19276861207E+03  0.12509031161E+03 0.  0.
          5    1    3    3  502    0 -0.67378177933E+01  0.43412894405E+02  0.30283153077E+02  0.53522138873E+02  0.41800000000E+01 0. -1.
         -5    1    3    3    0  502  0.10726112653E+03 -0.44868124861E+02  0.76511502437E+02  0.13924647320E+03  0.41800000000E+01 0. -1.
        -11    1    1    2    0    0 -0.48821913455E+02 -0.31125632407E+02  0.93295189442E+02  0.10980153277E+03  0.00000000000E+00 0. -1.
         11    1    1    2    0    0 -0.51701395281E+02  0.32580862863E+02  0.22118333671E+02  0.64990519180E+02  0.00000000000E+00 0.  1.
</event>
<event>
 7    1  0.2766180E-009  0.9606436E+02  0.7561462E-02  0.1288797E+00
         -1   -1    0    0    0  501 -0.00000000000E+00  0.00000000000E+00  0.43936132676E+03  0.43936132676E+03  0.00000000000E+00 0.  1.
          1   -1    0    0  501    0  0.00000000000E+00 -0.00000000000E+00 -0.32105604572E+02  0.32105604572E+02  0.00000000000E+00 0. -1.
         25    2    1    2    0    0 -0.37020059821E+02  0.46664990004E+01  0.17051216389E+03  0.21474265522E+03  0.12509096248E+03 0.  0.
          5    1    3    3  502    0 -0.58355985369E+02 -0.28743777459E+02  0.36035698565E+02  0.74482680820E+02  0.41800000000E+01 0.  1.
         -5    1    3    3    0  502  0.21335925548E+02  0.33410276459E+02  0.13447646532E+03  0.14025997440E+03  0.41800000000E+01 0.  1.
        -11    1    1    2    0    0  0.74289334510E-01 -0.37593115190E+02  0.16717054000E+03  0.17134537424E+03  0.00000000000E+00 0.  1.
         11    1    1    2    0    0  0.36945770486E+02  0.32926616189E+02  0.69573018297E+02  0.85378901875E+02  0.00000000000E+00 0. -1.
</event>
<event>
 7    1  0.2766180E-009  0.2073783E+03  0.7561462E-02  0.1143659E+00
          1   -1    0    0  501    0  0.00000000000E+00  0.00000000000E+00  0.36835234943E+03  0.36835234943E+03  0.00000000000E+00 0. -1.
         -1   -1    0    0    0  501 -0.00000000000E+00 -0.00000000000E+00 -0.23698092000E+03  0.23698092000E+03  0.00000000000E+00 0.  1.
         25    2    1    2    0    0 -0.33738574559E+02 -0.18621337161E+03 -0.13638872582E+03  0.26469572936E+03  0.12509289920E+03 0.  0.
          5    1    3    3  502    0  0.19210448431E+02 -0.16606721642E+03 -0.11914550553E+03  0.20533018674E+03  0.41800000000E+01 0.  1.
         -5    1    3    3    0  502 -0.52949022990E+02 -0.20146155188E+02 -0.17243220292E+02  0.59365542619E+02  0.41800000000E+01 0.  1.
        -11    1    1    2    0    0  0.27705655715E+02  0.86520072476E+02  0.56568499576E+02  0.10702019176E+03  0.00000000000E+00 0.  1.
         11    1    1    2    0    0  0.60329188434E+01  0.99693299135E+02  0.21119165568E+03  0.23361734831E+03  0.00000000000E+00 0. -1.
</event>
<event>
 7    1  0.2766180E-009  0.1122320E+03  0.7561462E-02  0.1256492E+00
         -4   -1    0    0    0  501 -0.00000000000E+00  0.00000000000E+00  0.33438784424E+02  0.33438784424E+02  0.00000000000E+00 0.  1.
          4   -1    0    0  501    0  0.00000000000E+00 -0.00000000000E+00 -0.50973213652E+03  0.50973213652E+03  0.00000000000E+00 0. -1.
         25    2    1    2    0    0 -0.99241344326E+01 -0.29634454792E+02 -0.40189858319E+03  0.42207095985E+03  0.12507891357E+03 0.  0.
          5    1    3    3  502    0 -0.62901308799E+02  0.83640674041E+01 -0.19945533803E+03  0.20934764517E+03  0.41800000000E+01 0. -1.
         -5    1    3    3    0  502  0.52977174366E+02 -0.37998522196E+02 -0.20244324517E+03  0.21272331468E+03  0.41800000000E+01 0. -1.
        -11    1    1    2    0    0 -0.26386995504E+02 -0.20657708605E+02 -0.27021334137E+02  0.43048425698E+02  0.00000000000E+00 0.  1.
         11    1    1    2    0    0  0.36311129937E+02  0.50292163397E+02 -0.47373434765E+02  0.78051535397E+02  0.00000000000E+00 0. -1.
</event>
<event>
 7    1  0.2766180E-009  0.1074644E+03  0.7561462E-02  0.1265339E+00
          2   -1    0    0  501    0  0.00000000000E+00  0.00000000000E+00  0.55182748389E+03  0.55182748389E+03  0.00000000000E+00 0.  1.
         -2   -1    0    0    0  501 -0.00000000000E+00 -0.00000000000E+00 -0.47311511693E+02  0.47311511693E+02  0.00000000000E+00 0. -1.
         25    2    1    2    0    0 -0.79374097276E+01  0.81312061267E+02  0.43084101758E+03  0.45601098390E+03  0.12508949286E+03 0.  0.
          5    1    3    3  502    0 -0.26015094913E+02  0.49304888844E+02  0.40950478281E+03  0.41330303262E+03  0.41800000000E+01 0. -1.
         -5    1    3    3    0  502  0.18077685186E+02  0.32007172423E+02  0.21336234770E+02  0.42707951278E+02  0.41800000000E+01 0. -1.
        -11    1    1    2    0    0  0.46769666001E+02 -0.23385343248E+02  0.24177162319E+02  0.57609123535E+02  0.00000000000E+00 0.  1.
         11    1    1    2    0    0 -0.38832256273E+02 -0.57926718020E+02  0.49497792292E+02  0.85518888145E+02  0.00000000000E+00 0. -1.
</event>
<event>
 7    1  0.2766180E-009  0.1127019E+03  0.7561462E-02  0.1255647E+00
         -1   -1    0    0    0  501 -0.00000000000E+00  0.00000000000E+00  0.21791462781E+02  0.21791462781E+02  0.00000000000E+00 0.  1.
          1   -1    0    0  501    0  0.00000000000E+00 -0.00000000000E+00 -0.86660386742E+03  0.86660386742E+03  0.00000000000E+00 0. -1.
         25    2    1    2    0    0 -0.75551564799E+02 -0.22180396838E+02 -0.35996730080E+03  0.38913059650E+03  0.12508458955E+03 0.  0.
          5    1    3    3  502    0  0.19321681516E+02  0.63947649919E+00 -0.20500726604E+03  0.20595918973E+03  0.41800000000E+01 0.  1.
         -5    1    3    3    0  502 -0.94873246315E+02 -0.22819873337E+02 -0.15496003476E+03  0.18317140677E+03  0.41800000000E+01 0.  1.
        -11    1    1    2    0    0  0.89222373017E+02  0.10245607201E+02 -0.45888385319E+03  0.46758955830E+03  0.00000000000E+00 0.  1.
         11    1    1    2    0    0 -0.13670808218E+02  0.11934789636E+02 -0.25961250653E+02  0.31675175398E+02  0.00000000000E+00 0. -1.
</event>
<event>
 7    1  0.2766180E-009  0.1840902E+03  0.7561462E-02  0.1163902E+00
         -3   -1    0    0    0  501 -0.00000000000E+00  0.00000000000E+00  0.92073268912E+02  0.92073268912E+02  0.00000000000E+00 0.  1.
          3   -1    0    0  501    0  0.00000000000E+00 -0.00000000000E+00 -0.43351384641E+03  0.43351384641E+03  0.00000000000E+00 0. -1.
         25    2    1    2    0    0  0.14233794600E+03 -0.86857911228E+02 -0.17846527837E+03  0.27441259411E+03  0.12509208052E+03 0.  0.
          5    1    3    3  502    0  0.26843464483E+02 -0.70203008005E+02 -0.20574809092E+02  0.78037357000E+02  0.41800000000E+01 0.  1.
         -5    1    3    3    0  502  0.11549448151E+03 -0.16654903224E+02 -0.15789046928E+03  0.19637523711E+03  0.41800000000E+01 0.  1.
        -11    1    1    2    0    0 -0.12358151576E+02  0.33370500214E+02 -0.80973685660E+02  0.88448018430E+02  0.00000000000E+00 0. -1.
         11    1    1    2    0    0 -0.12997979442E+03  0.53487411015E+02 -0.82001613460E+02  0.16272650277E+03  0.00000000000E+00 0.  1.
</event>
<event>
 7    1  0.2766180E-009  0.1728511E+03  0.7561462E-02  0.1174907E+00
          2   -1    0    0  501    0  0.00000000000E+00  0.00000000000E+00  0.87091439929E+03  0.87091439929E+03  0.00000000000E+00 0. -1.
         -2   -1    0    0    0  501 -0.00000000000E+00 -0.00000000000E+00 -0.35506191559E+02  0.35506191559E+02  0.00000000000E+00 0.  1.
         25    2    1    2    0    0  0.13683384484E+03 -0.16234178301E+01  0.47901960773E+03  0.51364776932E+03  0.12509240489E+03 0.  0.
          5    1    3    3  502    0  0.19209805290E+01  0.39696609315E+02  0.65824876518E+02  0.77005829169E+02  0.41800000000E+01 0. -1.
         -5    1    3    3    0  502  0.13491286431E+03 -0.41320027145E+02  0.41319473121E+03  0.43664194016E+03  0.41800000000E+01 0. -1.
        -11    1    1    2    0    0 -0.76254380645E+02 -0.44635567005E+02  0.17572631979E+03  0.19668961304E+03  0.00000000000E+00 0. -1.
         11    1    1    2    0    0 -0.60579464197E+02  0.46258984835E+02  0.18066228020E+03  0.19608320848E+03  0.00000000000E+00 0.  1.
</event>
<event>
 7    1  0.2766180E-009  0.1641001E+03  0.7561462E-02  0.1184144E+00
          2   -1    0    0  501    0  0.00000000000E+00  0.00000000000E+00  0.25587149041E+03  0.25587149041E+03  0.00000000000E+00 0.  1.
         -2   -1    0    0    0  501 -0.00000000000E+00 -0.00000000000E+00 -0.13992508179E+03  0.13992508179E+03  0.00000000000E+00 0. -1.
         25    2    1    2    0    0  0.74258707633E+02 -0.11943495270E+03 -0.50198169200E+01  0.18828829767E+03  0.12509284908E+03 0.  0.
          5    1    3    3  502    0  0.67068978944E+02 -0.32898744008E+01 -0.21621155826E+02  0.70668366256E+02  0.41800000000E+01 0. -1.
         -5    1    3    3    0  502  0.71897286892E+01 -0.11614507830E+03  0.16601338906E+02  0.11761993141E+03  0.41800000000E+01 0. -1.
        -11    1    1    2    0    0 -0.32947361841E+02  0.83351927429E+02  0.12350429865E+03  0.15259876882E+03  0.00000000000E+00 0.  1.
         11    1    1    2    0    0 -0.41311345792E+02  0.36083025269E+02 -0.25380731115E+01  0.54909505724E+02  0.00000000000E+00 0. -1.
</event>
<event>
 7    1  0.2766180E-009  0.1099354E+03  0.7561462E-02  0.1260690E+00
          2   -1    0    0  501    0  0.00000000000E+00  0.00000000000E+00  0.12766373427E+03  0.12766373427E+03  0.00000000000E+00 0. -1.
         -2   -1    0    0    0  501 -0.00000000000E+00 -0.00000000000E+00 -0.15397648906E+03  0.15397648906E+03  0.00000000000E+00 0.  1.
         25    2    1    2    0    0 -0.25801901065E+02 -0.34763660344E+02 -0.92318671887E+02  0.16138213461E+03  0.12508879252E+03 0.  0.
          5    1    3    3  502    0  0.99321680268E+01 -0.70847031376E+02 -0.22824741111E+02  0.75208982332E+02  0.41800000000E+01 0.  1.
         -5    1    3    3    0  502 -0.35734069092E+02  0.36083371032E+02 -0.69493930776E+02  0.86173152278E+02  0.41800000000E+01 0.  1.
        -11    1    1    2    0    0  0.51832878828E+02 -0.23909667955E+01  0.19893274546E+02  0.55570733503E+02  0.00000000000E+00 0.  1.
         11    1    1    2    0    0 -0.26030977763E+02  0.37154627140E+02  0.46112642557E+02  0.64687355216E+02  0.00000000000E+00 0. -1.
</event>
<event>
 7    1  0.2766180E-009  0.1161610E+03  0.7561462E-02  0.1249568E+00
          1   -1    0    0  501    0  0.00000000000E+00  0.00000000000E+00  0.40365667443E+02  0.40365667443E+02  0.00000000000E+00 0. -1.
         -1   -1    0    0    0  501 -0.00000000000E+00 -0.00000000000E+00 -0.37249964422E+03  0.37249964422E+03  0.00000000000E+00 0.  1.
         25    2    1    2    0    0  0.50320983631E+02  0.19095213047E+02 -0.19802826938E+03  0.24033086427E+03  0.12508757050E+03 0.  0.
          5    1    3    3  502    0  0.61654623997E+01 -0.45333221786E+02 -0.29668814651E+02  0.54688434672E+02  0.41800000000E+01 0.  1.
         -5    1    3    3    0  502  0.44155521231E+02  0.64428434834E+02 -0.16835945473E+03  0.18564242960E+03  0.41800000000E+01 0.  1.
        -11    1    1    2    0    0  0.87197542265E+01  0.30083744877E+02 -0.45681355057E+02  0.55388193863E+02  0.00000000000E+00 0.  1.
         11    1    1    2    0    0 -0.59040737857E+02 -0.49178957924E+02 -0.88424352339E+02  0.11714625353E+03  0.00000000000E+00 0. -1.
</event>
<event>
 7    1  0.2766180E-009  0.1305561E+03  0.7561462E-02  0.1226633E+00
         -1   -1    0    0    0  501 -0.00000000000E+00  0.00000000000E+00  0.17327606130E+02  0.17327606130E+02  0.00000000000E+00 0.  1.
          1   -1    0    0  501    0  0.00000000000E+00 -0.00000000000E+00 -0.12214613975E+04  0.12214613975E+04  0.00000000000E+00 0. -1.
         25    2    1    2    0    0  0.43689847048E+02 -0.87508126930E+02 -0.66538161992E+03  0.68406651723E+03  0.12509126612E+03 0.  0.
          5    1    3    3  502    0 -0.12401636432E+02 -0.68282876826E+02 -0.54898763489E+03  0.55337261182E+03  0.41800000000E+01 0.  1.
         -5    1    3    3    0  502  0.56091483480E+02 -0.19225250104E+02 -0.11639398503E+03  0.13069390541E+03  0.41800000000E+01 0.  1.
        -11    1    1    2    0    0 -0.39985072135E+02 -0.43417624313E+01 -0.16213174444E+03  0.16704598005E+03  0.00000000000E+00 0. -1.
         11    1    1    2    0    0 -0.37047749129E+01  0.91849889362E+02 -0.37662042701E+03  0.38767650634E+03  0.00000000000E+00 0.  1.
</event>
<event>
 7    1  0.2766180E-009  0.1356496E+03  0.7561462E-02  0.1219306E+00
         -2   -1    0    0    0  501 -0.00000000000E+00  0.00000000000E+00  0.11229502426E+03  0.11229502426E+03  0.00000000000E+00 0.  1.
          2   -1    0    0  501    0  0.00000000000E+00 -0.00000000000E+00 -0.34818315608E+03  0.34818315608E+03  0.00000000000E+00 0. -1.
         25    2    1    2    0    0  0.47831832470E+02  0.64863908163E+02  0.43587913865E+02  0.15505637256E+03  0.12508941465E+03 0.  0.
          5    1    3    3  502    0  0.90019785229E+02  0.36811702393E+02  0.21844897639E+02  0.99766402755E+02  0.41800000000E+01 0.  1.
         -5    1    3    3    0  502 -0.42187952759E+02  0.28052205771E+02  0.21743016226E+02  0.55289969806E+02  0.41800000000E+01 0.  1.
        -11    1    1    2    0    0 -0.76237783873E+02 -0.47642771472E+02 -0.19940138914E+03  0.21873030735E+03  0.00000000000E+00 0. -1.
         11    1    1    2    0    0  0.28405951402E+02 -0.17221136692E+02 -0.80074656549E+02  0.86691500423E+02  0.00000000000E+00 0.  1.
</event>
<event>
 7    1  0.3259581E-009  0.9481581E+02  0.7561462E-02  0.1291591E+00
          1   -1    0    0  501    0  0.00000000000E+00  0.00000000000E+00  0.36254290994E+03  0.36254290994E+03  0.00000000000E+00 0. -1.
         -1   -1    0    0    0  501 -0.00000000000E+00 -0.00000000000E+00 -0.39253326424E+02  0.39253326424E+02  0.00000000000E+00 0.  1.
         25    2    1    2    0    0  0.37780438918E+02 -0.30210927381E+01  0.12907684341E+03  0.18369778192E+03  0.12509018751E+03 0.  0.
          5    1    3    3  502    0  0.27428145063E+02  0.46790956066E+02  0.11617116859E+02  0.55624873171E+02  0.41800000000E+01 0. -1.
         -5    1    3    3    0  502  0.10352293855E+02 -0.49812048804E+02  0.11745972655E+03  0.12807290875E+03  0.41800000000E+01 0. -1.
        -11    1    1    2    0    0  0.78440602834E+01  0.30116887466E+02  0.22580411792E+02  0.38450373067E+02  0.00000000000E+00 0.  1.
         11    1    1    2    0    0 -0.45624499201E+02 -0.27095794728E+02  0.17163232831E+03  0.17964808137E+03  0.00000000000E+00 0. -1.
</event>
<event>
 7    1  0.2766180E-009  0.7415876E+02  0.7561462E-02  0.1346496E+00
          1   -1    0    0  501    0  0.00000000000E+00  0.00000000000E+00  0.91281802270E+02  0.91281802270E+02  0.00000000000E+00 0. -1.
         -1   -1    0    0    0  501 -0.00000000000E+00 -0.00000000000E+00 -0.14203261258E+03  0.14203261258E+03  0.00000000000E+00 0.  1.
         25    2    1    2    0    0 -0.26268488343E+02 -0.66763226331E+01 -0.53875800295E+02  0.13887125382E+03  0.12509203219E+03 0.  0.
          5    1    3    3  502    0 -0.41408985271E+02 -0.10562207867E+02 -0.89763336550E+02  0.99504740012E+02  0.41800000000E+01 0.  1.
         -5    1    3    3    0  502  0.15140496928E+02  0.38858852344E+01  0.35887536255E+02  0.39366513813E+02  0.41800000000E+01 0.  1.
        -11    1    1    2    0    0  0.25465780369E+02 -0.37327693378E+02  0.17026784978E+02  0.48288446542E+02  0.00000000000E+00 0. -1.
         11    1    1    2    0    0  0.80270797471E+00  0.44004016011E+02 -0.13901794995E+02  0.46154714486E+02  0.00000000000E+00 0.  1.
</event>
<event>
 7    1  0.2766180E-009  0.1070639E+03  0.7561462E-02  0.1266106E+00
         -1   -1    0    0    0  501 -0.00000000000E+00  0.00000000000E+00  0.35078169610E+02  0.35078169610E+02  0.00000000000E+00 0.  1.
          1   -1    0    0  501    0  0.00000000000E+00 -0.00000000000E+00 -0.48649211752E+03  0.48649211752E+03  0.00000000000E+00 0. -1.
         25    2    1    2    0    0 -0.50014045890E+00  0.41011401044E+02 -0.13037239030E+03  0.18527298512E+03  0.12508770406E+03 0.  0.
          5    1    3    3  502    0  0.33509044879E+01 -0.36958583270E+02 -0.89668435351E+02  0.97134268600E+02  0.41800000000E+01 0. -1.
         -5    1    3    3    0  502 -0.38510449468E+01  0.77969984313E+02 -0.40703954945E+02  0.88138716517E+02  0.41800000000E+01 0. -1.
        -11    1    1    2    0    0  0.30377668273E+02  0.15930752098E+02 -0.85184988283E+02  0.91831769127E+02  0.00000000000E+00 0. -1.
         11    1    1    2    0    0 -0.29877527814E+02 -0.56942153142E+02 -0.23585656933E+03  0.24446553289E+03  0.00000000000E+00 0.  1.
</event>
<event>
 7    1  0.2766180E-009  0.8282806E+02  0.7561462E-02  0.1321212E+00
          2   -1    0    0  501    0  0.00000000000E+00  0.00000000000E+00  0.63891629737E+03  0.63891629737E+03  0.00000000000E+00 0. -1.
         -2   -1    0    0    0  501 -0.00000000000E+00 -0.00000000000E+00 -0.18462141302E+02  0.18462141302E+02  0.00000000000E+00 0.  1.
         25    2    1    2    0    0  0.15308729606E+02 -0.25363376181E+01  0.38008402205E+03  0.40043897666E+03  0.12508684983E+03 0.  0.
          5    1    3    3  502    0 -0.13979867341E+02  0.37264851485E+02  0.39384739335E+02  0.56149229198E+02  0.41800000000E+01 0.  1.
         -5    1    3    3    0  502  0.29288596947E+02 -0.39801189103E+02  0.34069928272E+03  0.34428974746E+03  0.41800000000E+01 0.  1.
        -11    1    1    2    0    0 -0.43003715435E+02 -0.12161538644E+02  0.20437375650E+03  0.20920290368E+03  0.00000000000E+00 0. -1.
         11    1    1    2    0    0  0.27694985829E+02  0.14697876262E+02  0.35996377521E+02  0.47736558331E+02  0.00000000000E+00 0.  1.
</event>
<event>
 7    1  0.2766180E-009  0.2799637E+03  0.7561462E-02  0.1095709E+00
         -2   -1    0    0    0  501 -0.00000000000E+00  0.00000000000E+00  0.26220162020E+03  0.26220162020E+03  0.00000000000E+00 0.  1.
          2   -1    0    0  501    0  0.00000000000E+00 -0.00000000000E+00 -0.47568468605E+03  0.47568468605E+03  0.00000000000E+00 0. -1.
         25    2    1    2    0    0 -0.18654917153E+01 -0.27232096098E+03 -0.31372838117E+03  0.43386087261E+03  0.12509026254E+03 0.  0.
          5    1    3    3  502    0 -0.76661979776E+01 -0.66562694253E+02 -0.11409630015E+02  0.68095630658E+02  0.41800000000E+01 0.  1.
         -5    1    3    3    0  502  0.58007062622E+01 -0.20575826673E+03 -0.30231875115E+03  0.36576524195E+03  0.41800000000E+01 0.  1.
        -11    1    1    2    0    0  0.45041186794E+02  0.16975791782E+03  0.57231087499E+02  0.18472102356E+03  0.00000000000E+00 0.  1.
         11    1    1    2    0    0 -0.43175695079E+02  0.10256304316E+03  0.43014227828E+02  0.11930441008E+03  0.00000000000E+00 0. -1.
</event>
<event>
 7    1  0.2766180E-009  0.1047903E+03  0.7561462E-02  0.1270533E+00
         -1   -1    0    0    0  501 -0.00000000000E+00  0.00000000000E+00  0.49894637247E+02  0.49894637247E+02  0.00000000000E+00 0.  1.
          1   -1    0    0  501    0  0.00000000000E+00 -0.00000000000E+00 -0.26123809737E+03  0.26123809737E+03  0.00000000000E+00 0. -1.
         25    2    1    2    0    0  0.68026452645E+01 -0.38498877708E+02 -0.13308655828E+03  0.18678316556E+03  0.12508988518E+03 0.  0.
          5    1    3    3  502    0  0.18360646210E+02 -0.79528000387E+02 -0.11305023879E+03  0.13949783176E+03  0.41800000000E+01 0. -1.
         -5    1    3    3    0  502 -0.11558000945E+02  0.41029122680E+02 -0.20036319481E+02  0.47285333795E+02  0.41800000000E+01 0. -1.
        -11    1    1    2    0    0  0.33145898904E+02  0.63577904508E+01 -0.61947886526E+02  0.70545111514E+02  0.00000000000E+00 0.  1.
         11    1    1    2    0    0 -0.39948544168E+02  0.32141087257E+02 -0.16309015324E+02  0.53804457548E+02  0.00000000000E+00 0. -1.
</event>
<event>
 7    1  0.2766180E-009  0.8023787E+02  0.7561462E-02  0.1328378E+00
         -1   -1    0    0    0  501 -0.00000000000E+00  0.00000000000E+00  0.29963935949E+02  0.29963935949E+02  0.00000000000E+00 0.  1.
          1   -1    0    0  501    0  0.00000000000E+00 -0.00000000000E+00 -0.40571088502E+03  0.40571088502E+03  0.00000000000E+00 0. -1.
         25    2    1    2    0    0 -0.53809295055E+01 -0.23285597063E+02 -0.21901016393E+03  0.25335070888E+03  0.12509978559E+03 0.  0.
          5    1    3    3  502    0 -0.33107846040E+02 -0.98848472366E+00 -0.21468549864E+03  0.21726583325E+03  0.41800000000E+01 0.  1.
         -5    1    3    3    0  502  0.27726916535E+02 -0.22297112340E+02 -0.43246652827E+01  0.36084875627E+02  0.41800000000E+01 0.  1.
        -11    1    1    2    0    0  0.42158948869E+02 -0.80833706533E+01 -0.92087876325E+02  0.10160164771E+03  0.00000000000E+00 0. -1.
         11    1    1    2    0    0 -0.36778019364E+02  0.31368967717E+02 -0.64648908815E+02  0.80722464376E+02  0.00000000000E+00 0.  1.
</event>
<event>
 7    1  0.2766180E-009  0.1210298E+03  0.7561462E-02  0.1241408E+00
         -3   -1    0    0    0  501 -0.00000000000E+00  0.00000000000E+00  0.38628944811E+02  0.38628944811E+02  0.00000000000E+00 0.  1.
          3   -1    0    0  501    0  0.00000000000E+00 -0.00000000000E+00 -0.40240819920E+03  0.40240819920E+03  0.00000000000E+00 0. -1.
         25    2    1    2    0    0  0.29676292778E+02  0.49129748274E+02 -0.18411831209E+03  0.22987313633E+03  0.12509073283E+03 0.  0.
          5    1    3    3  502    0 -0.34567594112E+02  0.59249295302E+02 -0.12096393676E+03  0.13912276576E+03  0.41800000000E+01 0.  1.
         -5    1    3    3    0  502  0.64243886890E+02 -0.10119547028E+02 -0.63154375328E+02  0.90750370566E+02  0.41800000000E+01 0.  1.
        -11    1    1    2    0    0  0.20625916038E+02 -0.53828566011E+02 -0.11894851659E+03  0.13218053008E+03  0.00000000000E+00 0.  1.
         11    1    1    2    0    0 -0.50302208816E+02  0.46988177367E+01 -0.60712425708E+02  0.78983477609E+02  0.00000000000E+00 0. -1.
</event>
<event>
 7    1  0.2766180E-009  0.1346206E+03  0.7561462E-02  0.1220756E+00
          1   -1    0    0  501    0  0.00000000000E+00  0.00000000000E+00  0.28544935490E+03  0.28544935490E+03  0.00000000000E+00 0. -1.
         -1   -1    0    0    0  501 -0.00000000000E+00 -0.00000000000E+00 -0.78345848391E+02  0.78345848391E+02  0.00000000000E+00 0.  1.
         25    2    1    2    0    0 -0.60579734838E+02  0.21928854364E+02  0.10860388068E+03  0.17774487396E+03  0.12509060074E+03 0.  0.
          5    1    3    3  502    0  0.19610858817E+02 -0.34794617120E+02  0.17849640189E+02  0.43946936400E+02  0.41800000000E+01 0.  1.
         -5    1    3    3    0  502 -0.80190593655E+02  0.56723471484E+02  0.90754240489E+02  0.13379793756E+03  0.41800000000E+01 0.  1.
        -11    1    1    2    0    0  0.35230848485E+02 -0.68905246595E+02  0.10694301232E+03  0.13200739971E+03  0.00000000000E+00 0. -1.
         11    1    1    2    0    0  0.25348886353E+02  0.46976392231E+02 -0.84433864961E+01  0.54042929619E+02  0.00000000000E+00 0.  1.
</event>
<event>
 7    1  0.2766180E-009  0.8227862E+02  0.7561462E-02  0.1322707E+00
          2   -1    0    0  501    0  0.00000000000E+00  0.00000000000E+00  0.52369935851E+03  0.52369935851E+03  0.00000000000E+00 0.  1.
         -2   -1    0    0    0  501 -0.00000000000E+00 -0.00000000000E+00 -0.28991237483E+02  0.28991237483E+02  0.00000000000E+00 0. -1.
         25    2    1    2    0    0 -0.14898657558E+01 -0.46389644389E+02  0.34020687760E+03  0.36542657913E+03  0.12506656774E+03 0.  0.
          5    1    3    3  502    0  0.30706693907E+02 -0.31097673910E+02  0.30053619166E+02  0.53203935928E+02  0.41800000000E+01 0. -1.
         -5    1    3    3    0  502 -0.32196559663E+02 -0.15291970479E+02  0.31015325843E+03  0.31222264321E+03  0.41800000000E+01 0. -1.
        -11    1    1    2    0    0 -0.34327668021E+02  0.29064101090E+02  0.24308881148E+02  0.51127609632E+02  0.00000000000E+00 0. -1.
         11    1    1    2    0    0  0.35817533777E+02  0.17325543299E+02  0.13019236228E+03  0.13613640723E+03  0.00000000000E+00 0.  1.
</event>
<event>
 7    1  0.2766180E-009  0.9447988E+02  0.7561462E-02  0.1292352E+00
          1   -1    0    0  501    0  0.00000000000E+00  0.00000000000E+00  0.73349099258E+02  0.73349099258E+02  0.00000000000E+00 0. -1.
         -1   -1    0    0    0  501 -0.00000000000E+00 -0.00000000000E+00 -0.19143679011E+03  0.19143679011E+03  0.00000000000E+00 0.  1.
         25    2    1    2    0    0 -0.61229073493E+01  0.46333452426E+02 -0.62391422469E+02  0.14739116760E+03  0.12508872004E+03 0.  0.
          5    1    3    3  502    0 -0.63170260948E+02  0.38621837933E+02 -0.23501931951E+02  0.77794224972E+02  0.41800000000E+01 0.  1.
         -5    1    3    3    0  502  0.57047353599E+02  0.77116144931E+01 -0.38889490518E+02  0.69596942631E+02  0.41800000000E+01 0.  1.
        -11    1    1    2    0    0 -0.12458518626E+02 -0.89632297153E+01  0.23387724834E+02  0.27973913673E+02  0.00000000000E+00 0. -1.
         11    1    1    2    0    0  0.18581425975E+02 -0.37370222711E+02 -0.79083993215E+02  0.89420808091E+02  0.00000000000E+00 0.  1.
</event>
<event>
 7    1  0.2766180E-009  0.1124647E+03  0.7561462E-02  0.1256073E+00
          2   -1    0    0  501    0  0.00000000000E+00  0.00000000000E+00  0.53572719832E+03  0.53572719832E+03  0.00000000000E+00 0. -1.
         -2   -1    0    0    0  501 -0.00000000000E+00 -0.00000000000E+00 -0.28835259199E+02  0.28835259199E+02  0.00000000000E+00 0.  1.
         25    2    1    2    0    0 -0.47083557439E+02  0.26188231019E+02  0.35005028207E+03  0.37561354247E+03  0.12509056114E+03 0.  0.
          5    1    3    3  502    0  0.42469617092E+02  0.28739345313E+00  0.11964626180E+03  0.12702933257E+03  0.41800000000E+01 0.  1.
         -5    1    3    3    0  502 -0.89553174531E+02  0.25900837566E+02  0.23040402027E+03  0.24858420990E+03  0.41800000000E+01 0.  1.
        -11    1    1    2    0    0  0.58465295207E+02 -0.40149416146E+02  0.15547092735E+03  0.17088409994E+03  0.00000000000E+00 0. -1.
         11    1    1    2    0    0 -0.11381737768E+02  0.13961185127E+02  0.13707296944E+01  0.18064815102E+02  0.00000000000E+00 0.  1.
</event>
<event>
 7    1  0.2766180E-009  0.1518744E+03  0.7561462E-02  0.1198188E+00
          2   -1    0    0  501    0  0.00000000000E+00  0.00000000000E+00  0.50158469345E+03  0.50158469345E+03  0.00000000000E+00 0. -1.
         -2   -1    0    0    0  501 -0.00000000000E+00 -0.00000000000E+00 -0.61996601057E+02  0.61996601057E+02  0.00000000000E+00 0.  1.
         25    2    1    2    0    0 -0.41255670281E+02 -0.10916209308E+03  0.11128061212E+03  0.20409097264E+03  0.12510538591E+03 0.  0.
          5    1    3    3  502    0  0.14661890957E+02 -0.10670755656E+03  0.43879577697E+02  0.11638025353E+03  0.41800000000E+01 0.  1.
         -5    1    3    3    0  502 -0.55917561239E+02 -0.24545365141E+01  0.67401034422E+02  0.87710719103E+02  0.41800000000E+01 0.  1.
        -11    1    1    2    0    0 -0.21960114267E+02  0.43235395183E+02  0.16939031580E+03  0.17619484982E+03  0.00000000000E+00 0. -1.
         11    1    1    2    0    0  0.63215784548E+02  0.65926697892E+02  0.15891716447E+03  0.18329547205E+03  0.00000000000E+00 0.  1.
</event>
<event>
 7    1  0.2766180E-009  0.1453958E+03  0.7561462E-02  0.1206248E+00
         -2   -1    0    0    0  501 -0.00000000000E+00  0.00000000000E+00  0.12851981268E+02  0.12851981268E+02  0.00000000000E+00 0.  1.
          2   -1    0    0  501    0  0.00000000000E+00 -0.00000000000E+00 -0.23674405821E+04  0.23674405821E+04  0.00000000000E+00 0. -1.
         25    2    1    2    0    0  0.48699825103E+02 -0.10045724301E+03 -0.17810859376E+04  0.17889600971E+04  0.12509109244E+03 0.  0.
          5    1    3    3  502    0  0.78110632108E+02 -0.83405348432E+02 -0.16315198006E+04  0.16355219519E+04  0.41800000000E+01 0.  1.
         -5    1    3    3    0  502 -0.29410807005E+02 -0.17051894580E+02 -0.14956613693E+03  0.15343814517E+03  0.41800000000E+01 0.  1.
        -11    1    1    2    0    0 -0.71099496379E+02  0.49805400357E+02 -0.30148172043E+03  0.31373068712E+03  0.00000000000E+00 0.  1.
         11    1    1    2    0    0  0.22399671277E+02  0.50651842655E+02 -0.27202094281E+03  0.27760177911E+03  0.00000000000E+00 0. -1.
</event>
<event>
 7    1  0.2766180E-009  0.9803293E+02  0.7561462E-02  0.1284488E+00
         -1   -1    0    0    0  501 -0.00000000000E+00  0.00000000000E+00  0.44291251005E+03  0.44291251005E+03  0.00000000000E+00 0.  1.
          1   -1    0    0  501    0  0.00000000000E+00 -0.00000000000E+00 -0.43915770292E+02  0.43915770292E+02  0.00000000000E+00 0. -1.
         25    2    1    2    0    0  0.26045886373E+01 -0.45420747152E+01  0.37195155847E+03  0.39245607340E+03  0.12508554424E+03 0.  0.
          5    1    3    3  502    0  0.81823713996E+01 -0.64314823876E+02  0.18757754583E+03  0.19850983822E+03  0.41800000000E+01 0. -1.
         -5    1    3    3    0  502 -0.55777827623E+01  0.59772749161E+02  0.18437401265E+03  0.19394623518E+03  0.41800000000E+01 0. -1.
        -11    1    1    2    0    0 -0.91314055492E+01  0.36847492743E+02 -0.15113212535E+02  0.40859876186E+02  0.00000000000E+00 0. -1.
         11    1    1    2    0    0  0.65268169119E+01 -0.32305418028E+02  0.42158393820E+02  0.53512330751E+02  0.00000000000E+00 0.  1.
</event>
<event>
 7    1  0.2766180E-009  0.1032951E+03  0.7561462E-02  0.1273516E+00
          2   -1    0    0  501    0  0.00000000000E+00  0.00000000000E+00  0.99355257176E+03  0.99355257176E+03  0.00000000000E+00 0. -1.
         -2   -1    0    0    0  501 -0.00000000000E+00 -0.00000000000E+00 -0.16250240612E+02  0.16250240612E+02  0.00000000000E+00 0.  1.
         25    2    1    2    0    0  0.35325597121E+01  0.55910083196E+02  0.68700560852E+03  0.70054434303E+03  0.12508898443E+03 0.  0.
          5    1    3    3  502    0  0.49044150132E+02 -0.15373240640E+02  0.29808943222E+03  0.30251685439E+03  0.41800000000E+01 0.  1.
         -5    1    3    3    0  502 -0.45511590420E+02  0.71283323835E+02  0.38891617630E+03  0.39802748863E+03  0.41800000000E+01 0.  1.
        -11    1    1    2    0    0  0.15458881542E+02 -0.46793006727E+02  0.28254597582E+03  0.28681142054E+03  0.00000000000E+00 0. -1.
         11    1    1    2    0    0 -0.18991441254E+02 -0.91170764689E+01  0.77507468074E+01  0.22447048811E+02  0.00000000000E+00 0.  1.
</event>
<event>
 7    1  0.2766180E-009  0.1363655E+03  0.7561462E-02  0.1218305E+00
          2   -1    0    0  501    0  0.00000000000E+00  0.00000000000E+00  0.11741068860E+03  0.11741068860E+03  0.00000000000E+00 0. -1.
         -2   -1    0    0    0  501 -0.00000000000E+00 -0.00000000000E+00 -0.23099540298E+03  0.23099540298E+03  0.00000000000E+00 0.  1.
         25    2    1    2    0    0  0.61501642290E+02  0.10698430585E+03 -0.46391202647E+02  0.18173628374E+03  0.12509132441E+03 0.  0.
          5    1    3    3  502    0  0.65899531790E+02  0.10873669388E+03  0.75375302042E+01  0.12743901933E+03  0.41800000000E+01 0. -1.
         -5    1    3    3    0  502 -0.43978895000E+01 -0.17523880324E+01 -0.53928732851E+02  0.54297264414E+02  0.41800000000E+01 0. -1.
        -11    1    1    2    0    0 -0.74976952037E+02 -0.96033106374E+02 -0.79417963865E+02  0.14543422514E+03  0.00000000000E+00 0.  1.
         11    1    1    2    0    0  0.13475309748E+02 -0.10951199471E+02  0.12224452134E+02  0.21235582700E+02  0.00000000000E+00 0. -1.
</event>
<event>
 7    1  0.2766180E-009  0.2113352E+03  0.7561462E-02  0.1140513E+00
          1   -1    0    0  501    0  0.00000000000E+00  0.00000000000E+00  0.12315280023E+04  0.12315280023E+04  0.00000000000E+00 0. -1.
         -1   -1    0    0    0  501 -0.00000000000E+00 -0.00000000000E+00 -0.60691382953E+02  0.60691382953E+02  0.00000000000E+00 0.  1.
         25    2    1    2    0    0  0.18646358882E+03 -0.85574174759E+01  0.99052796874E+03  0.10156930489E+04  0.12507922854E+03 0.  0.
          5    1    3    3  502    0 -0.12883247501E+02 -0.25965821919E+00  0.16106688517E+02  0.21046218272E+02  0.41800000000E+01 0. -1.
         -5    1    3    3    0  502  0.19934683632E+03 -0.82977592567E+01  0.97442128023E+03  0.99464683065E+03  0.41800000000E+01 0. -1.
        -11    1    1    2    0    0 -0.13230700043E+03  0.49923750709E+02  0.11773260117E+03  0.18400676245E+03  0.00000000000E+00 0.  1.
         11    1    1    2    0    0 -0.54156588387E+02 -0.41366333233E+02  0.62576049465E+02  0.92519573915E+02  0.00000000000E+00 0. -1.
</event>
<event>
 7    1  0.3541473E-009  0.1055954E+03  0.7561462E-02  0.1268951E+00
          2   -1    0    0  501    0  0.00000000000E+00  0.00000000000E+00  0.55908446601E+03  0.55908446601E+03  0.00000000000E+00 0. -1.
         -2   -1    0    0    0  501 -0.00000000000E+00 -0.00000000000E+00 -0.33327659902E+02  0.33327659902E+02  0.00000000000E+00 0.  1.
         25    2    1    2    0    0  0.63323496965E+02 -0.51971331755E+02  0.31102757313E+03  0.34511330305E+03  0.12511657006E+03 0.  0.
          5    1    3    3  502    0  0.15870641074E+02 -0.70507640538E+02  0.27009431524E+03  0.27962763838E+03  0.41800000000E+01 0. -1.
         -5    1    3    3    0  502  0.47452855891E+02  0.18536308783E+02  0.40933257890E+02  0.65485664668E+02  0.41800000000E+01 0. -1.
        -11    1    1    2    0    0 -0.34619458237E+02  0.85980047333E+01  0.11438756218E+02  0.37460348608E+02  0.00000000000E+00 0.  1.
         11    1    1    2    0    0 -0.28704038728E+02  0.43373327021E+02  0.20329047676E+03  0.20983847425E+03  0.00000000000E+00 0. -1.
</event>
<event>
 7    1  0.2766180E-009  0.9443789E+02  0.7561462E-02  0.1292447E+00
          3   -1    0    0  501    0  0.00000000000E+00  0.00000000000E+00  0.21646962489E+03  0.21646962489E+03  0.00000000000E+00 0.  1.
         -3   -1    0    0    0  501 -0.00000000000E+00 -0.00000000000E+00 -0.56626602416E+02  0.56626602416E+02  0.00000000000E+00 0. -1.
         25    2    1    2    0    0  0.21704838257E+01 -0.28811434066E+02  0.88035801076E+02  0.15566877582E+03  0.12509059022E+03 0.  0.
          5    1    3    3  502    0 -0.31927951639E+02  0.31290646669E+02  0.16004763120E+01  0.44928082412E+02  0.41800000000E+01 0.  1.
         -5    1    3    3    0  502  0.34098435464E+02 -0.60102080735E+02  0.86435324764E+02  0.11074069341E+03  0.41800000000E+01 0.  1.
        -11    1    1    2    0    0 -0.99049727054E+01  0.50635248872E+02  0.77944541194E+02  0.93473998601E+02  0.00000000000E+00 0.  1.
         11    1    1    2    0    0  0.77344888797E+01 -0.21823814806E+02 -0.61373197919E+01  0.23953452886E+02  0.00000000000E+00 0. -1.
</event>
<event>
 7    1  0.2766180E-009  0.1082326E+03  0.7561462E-02  0.1263878E+00
          1   -1    0    0  501    0  0.00000000000E+00  0.00000000000E+00  0.76939395744E+02  0.76939395744E+02  0.00000000000E+00 0. -1.
         -1   -1    0    0    0  501 -0.00000000000E+00 -0.00000000000E+00 -0.20200621128E+03  0.20200621128E+03  0.00000000000E+00 0.  1.
         25    2    1    2    0    0 -0.52749463801E+02  0.17004820641E+02 -0.42825665642E+02  0.14336399607E+03  0.12509007905E+03 0.  0.
          5    1    3    3  502    0  0.22328428193E+02  0.47396078064E+02 -0.32018598617E+02  0.61543561636E+02  0.41800000000E+01 0. -1.
         -5    1    3    3    0  502 -0.75077891993E+02 -0.30391257423E+02 -0.10807067025E+02  0.81820434438E+02  0.41800000000E+01 0. -1.
        -11    1    1    2    0    0  0.45815075275E+02  0.16418314140E+02 -0.88384800450E+02  0.10089824137E+03  0.00000000000E+00 0.  1.
         11    1    1    2    0    0  0.69343885260E+01 -0.33423134781E+02  0.61436505586E+01  0.34683369574E+02  0.00000000000E+00 0. -1.
</event>
<event>
 7    1  0.2766180E-009  0.1220645E+03  0.7561462E-02  0.1239730E+00
          2   -1    0    0  501    0  0.00000000000E+00  0.00000000000E+00  0.49738870314E+03  0.49738870314E+03  0.00000000000E+00 0. -1.
         -2   -1    0    0    0  501 -0.00000000000E+00 -0.00000000000E+00 -0.76520164535E+02  0.76520164535E+02  0.00000000000E+00 0.  1.
         25    2    1    2    0    0 -0.11595823436E+03 -0.84583958101E+01  0.55276230581E+02  0.17950196080E+03  0.12509050999E+03 0.  0.
          5    1    3    3  502    0 -0.10785318833E+03  0.65645858248E+01 -0.13080832342E+02  0.10892191971E+03  0.41800000000E+01 0. -1.
         -5    1    3    3    0  502 -0.81050460308E+01 -0.15022981635E+02  0.68357062923E+02  0.70580041087E+02  0.41800000000E+01 0. -1.
        -11    1    1    2    0    0  0.54505087299E+02 -0.72684185984E+01  0.56379413185E+02  0.78754508960E+02  0.00000000000E+00 0.  1.
         11    1    1    2    0    0  0.61453147059E+02  0.15726814409E+02  0.30921289484E+03  0.31565239791E+03  0.00000000000E+00 0. -1.
</event>
<event>
 7    1  0.2766180E-009  0.1119928E+03  0.7561462E-02  0.1256923E+00
          1   -1    0    0  501    0  0.00000000000E+00  0.00000000000E+00  0.43312476769E+02  0.43312476769E+02  0.00000000000E+00 0. -1.
         -1   -1    0    0    0  501 -0.00000000000E+00 -0.00000000000E+00 -0.38047219541E+03  0.38047219541E+03  0.00000000000E+00 0.  1.
         25    2    1    2    0    0 -0.40253480691E+02  0.65618437937E+02 -0.17607050527E+03  0.22929476051E+03  0.12509653179E+03 0.  0.
          5    1    3    3  502    0 -0.72291296493E+02  0.77940831145E+02 -0.10123514008E+03  0.14685649694E+03  0.41800000000E+01 0. -1.
         -5    1    3    3    0  502  0.32037815802E+02 -0.12322393209E+02 -0.74835365195E+02  0.82438263565E+02  0.41800000000E+01 0. -1.
        -11    1    1    2    0    0  0.19656442123E+02 -0.57692920843E+02 -0.16128771718E+03  0.17241976843E+03  0.00000000000E+00 0.  1.
         11    1    1    2    0    0  0.20597038568E+02 -0.79255170934E+01  0.19850380767E+00  0.22070143243E+02  0.00000000000E+00 0. -1.
</event>
<event>
 7    1  0.2766180E-009  0.1329542E+03  0.7561462E-02  0.1223137E+00
          1   -1    0    0  501    0  0.00000000000E+00  0.00000000000E+00  0.64033013671E+02  0.64033013671E+02  0.00000000000E+00 0. -1.
         -1   -1    0    0    0  501 -0.00000000000E+00 -0.00000000000E+00 -0.31871411804E+03  0.31871411804E+03  0.00000000000E+00 0.  1.
         25    2    1    2    0    0 -0.92008877844E+02  0.12159029445E+02 -0.14426333556E+03  0.21229838364E+03  0.12508084630E+03 0.  0.
          5    1    3    3  502    0 -0.11723738830E+03  0.32518742225E+02 -0.10166681806E+03  0.15860544791E+03  0.41800000000E+01 0.  1.
         -5    1    3    3    0  502  0.25228510458E+02 -0.20359712780E+02 -0.42596517496E+02  0.53692935729E+02  0.41800000000E+01 0.  1.
        -11    1    1    2    0    0  0.54370254253E+02  0.23872508514E+02 -0.10148903277E+03  0.11758420380E+03  0.00000000000E+00 0.  1.
         11    1    1    2    0    0  0.37638623591E+02 -0.36031537959E+02 -0.89287360337E+01  0.52864544269E+02  0.00000000000E+00 0. -1.
</event>
<event>
 7    1  0.2766180E-009  0.1171408E+03  0.7561462E-02  0.1247890E+00
          1   -1    0    0  501    0  0.00000000000E+00  0.00000000000E+00  0.23930024736E+03  0.23930024736E+03  0.00000000000E+00 0. -1.
         -1   -1    0    0    0  501 -0.00000000000E+00 -0.00000000000E+00 -0.62146541892E+02  0.62146541892E+02  0.00000000000E+00 0.  1.
         25    2    1    2    0    0 -0.26945510790E+02 -0.47017232381E+02  0.86825329862E+02  0.16162912240E+03  0.12509458265E+03 0.  0.
          5    1    3    3  502    0 -0.73340512801E+02 -0.42375280798E+02  0.34870466593E+02  0.91694694945E+02  0.41800000000E+01 0. -1.
         -5    1    3    3    0  502  0.46395002011E+02 -0.46419515828E+01  0.51954863269E+02  0.69934427454E+02  0.41800000000E+01 0. -1.
        -11    1    1    2    0    0 -0.24852196626E+02  0.44298282255E+02  0.63825337000E+02  0.81569866563E+02  0.00000000000E+00 0.  1.
         11    1    1    2    0    0  0.51797707416E+02  0.27189501253E+01  0.26503038609E+02  0.58247800292E+02  0.00000000000E+00 0. -1.
</event>
<event>
 7    1  0.2766180E-009  0.1467522E+03  0.7561462E-02  0.1204522E+00
         -2   -1    0    0    0  501 -0.00000000000E+00  0.00000000000E+00  0.10285620418E+04  0.10285620418E+04  0.00000000000E+00 0.  1.
          2   -1    0    0  501    0  0.00000000000E+00 -0.00000000000E+00 -0.32944971569E+02  0.32944971569E+02  0.00000000000E+00 0. -1.
         25    2    1    2    0    0  0.11964413257E+03  0.42958108411E+02  0.75721991126E+03  0.77793661278E+03  0.12507302652E+03 0.  0.
          5    1    3    3  502    0  0.48043702650E+02  0.57626879083E+02  0.59788673639E+03  0.60259030569E+03  0.41800000000E+01 0. -1.
         -5    1    3    3    0  502  0.71600429919E+02 -0.14668770672E+02  0.15933317486E+03  0.17534630709E+03  0.41800000000E+01 0. -1.
        -11    1    1    2    0    0 -0.93146331939E+02  0.17733220073E+01  0.10485088249E+03  0.14026079774E+03  0.00000000000E+00 0. -1.
         11    1    1    2    0    0 -0.26497800631E+02 -0.44731430418E+02  0.13354627650E+03  0.14330960287E+03  0.00000000000E+00 0.  1.
</event>
<event>
 7    1  0.2766180E-009  0.1263234E+03  0.7561462E-02  0.1233015E+00
         -1   -1    0    0    0  501 -0.00000000000E+00  0.00000000000E+00  0.14552795929E+03  0.14552795929E+03  0.00000000000E+00 0.  1.
          1   -1    0    0  501    0  0.00000000000E+00 -0.00000000000E+00 -0.18875246923E+03  0.18875246923E+03  0.00000000000E+00 0. -1.
         25    2    1    2    0    0  0.11817590112E+03 -0.76520164033E+01 -0.65431953474E+02  0.18425290147E+03  0.12507475447E+03 0.  0.
          5    1    3    3  502    0 -0.38816751726E+01  0.27620530537E+01  0.28898183224E+02  0.29585025484E+02  0.41800000000E+01 0.  1.
         -5    1    3    3    0  502  0.12205757629E+03 -0.10414069457E+02 -0.94330136699E+02  0.15466787599E+03  0.41800000000E+01 0.  1.
        -11    1    1    2    0    0 -0.50365962116E+02  0.21097906529E+02  0.51394625580E+02  0.74988394691E+02  0.00000000000E+00 0.  1.
         11    1    1    2    0    0 -0.67809939003E+02 -0.13445890126E+02 -0.29187182049E+02  0.75039132357E+02  0.00000000000E+00 0. -1.
</event>
<event>
 7    1  0.2766180E-009  0.2258155E+03  0.7561462E-02  0.1129620E+00
          1   -1    0    0  501    0  0.00000000000E+00  0.00000000000E+00  0.21842264909E+04  0.21842264909E+04  0.00000000000E+00 0. -1.
         -1   -1    0    0    0  501 -0.00000000000E+00 -0.00000000000E+00 -0.31572716809E+02  0.31572716809E+02  0.00000000000E+00 0.  1.
         25    2    1    2    0    0 -0.19947809473E+03  0.66899549588E+02  0.15965338675E+04  0.16151886086E+04  0.12508713418E+03 0.  0.
          5    1    3    3  502    0 -0.99647982857E+02 -0.21220873613E+02  0.47842202644E+03  0.48916781758E+03  0.41800000000E+01 0.  1.
         -5    1    3    3    0  502 -0.99830111869E+02  0.88120423200E+02  0.11181118410E+04  0.11260207910E+04  0.41800000000E+01 0.  1.
        -11    1    1    2    0    0  0.45348101399E+02 -0.38982764690E+02  0.24616815286E+03  0.25332758580E+03  0.00000000000E+00 0. -1.
         11    1    1    2    0    0  0.15412999333E+03 -0.27916784897E+02  0.30995175373E+03  0.34728301335E+03  0.00000000000E+00 0.  1.
</event>
<event>
 7    1  0.2766180E-009  0.1206124E+03  0.7561462E-02  0.1242090E+00
         -4   -1    0    0    0  501 -0.00000000000E+00  0.00000000000E+00  0.29359358619E+03  0.29359358619E+03  0.00000000000E+00 0.  1.
          4   -1    0    0  501    0  0.00000000000E+00 -0.00000000000E+00 -0.70071684403E+02  0.70071684403E+02  0.00000000000E+00 0. -1.
         25    2    1    2    0    0 -0.29992357737E+02  0.84678560506E+02  0.10590618460E+03  0.18690411755E+03  0.12508808532E+03 0.  0.
          5    1    3    3  502    0  0.45070709450E+02  0.14984571811E+02  0.15262759645E+02  0.50063264723E+02  0.41800000000E+01 0. -1.
         -5    1    3    3    0  502 -0.75063067187E+02  0.69693988695E+02  0.90643424950E+02  0.13684085283E+03  0.41800000000E+01 0. -1.
        -11    1    1    2    0    0  0.16543429638E+01 -0.24042711335E+02  0.10615486277E+03  0.10885606878E+03  0.00000000000E+00 0.  1.
         11    1    1    2    0    0  0.28338014773E+02 -0.60635849172E+02  0.11460854423E+02  0.67905084273E+02  0.00000000000E+00 0. -1.
</event>
<event>
 7    1  0.2766180E-009  0.1500372E+03  0.7561462E-02  0.1200427E+00
         -2   -1    0    0    0  501 -0.00000000000E+00  0.00000000000E+00  0.33048663884E+03  0.33048663884E+03  0.00000000000E+00 0.  1.
          2   -1    0    0  501    0  0.00000000000E+00 -0.00000000000E+00 -0.10249201949E+03  0.10249201949E+03  0.00000000000E+00 0. -1.
         25    2    1    2    0    0  0.66921674866E+02  0.12653757675E+03  0.15975651489E+03  0.24831218986E+03  0.12508609310E+03 0.  0.
          5    1    3    3  502    0  0.32452394386E+02  0.84084009086E+01 -0.12974478282E+02  0.36189343652E+02  0.41800000000E+01 0.  1.
         -5    1    3    3    0  502  0.34469280480E+02  0.11812917584E+03  0.17273099317E+03  0.21212284620E+03  0.41800000000E+01 0.  1.
        -11    1    1    2    0    0 -0.37122466301E+02 -0.72740193136E+02 -0.13085800655E+02  0.82707021350E+02  0.00000000000E+00 0. -1.
         11    1    1    2    0    0 -0.29799208565E+02 -0.53797383611E+02  0.81323905116E+02  0.10195944712E+03  0.00000000000E+00 0.  1.
</event>
<event>
 7    1  0.2766180E-009  0.1040433E+03  0.7561462E-02  0.1272016E+00
         -2   -1    0    0    0  501 -0.00000000000E+00  0.00000000000E+00  0.28765778690E+02  0.28765778690E+02  0.00000000000E+00 0.  1.
          2   -1    0    0  501    0  0.00000000000E+00 -0.00000000000E+00 -0.54269657502E+03  0.54269657502E+03  0.00000000000E+00 0. -1.
         25    2    1    2    0    0  0.34808139536E+02 -0.57224149446E+02 -0.36855000561E+03  0.39492125747E+03  0.12508990011E+03 0.  0.
          5    1    3    3  502    0  0.62955909955E+02 -0.40108030513E+02 -0.10283966176E+03  0.12714389148E+03  0.41800000000E+01 0. -1.
         -5    1    3    3    0  502 -0.28147770419E+02 -0.17116118933E+02 -0.26571034385E+03  0.26777736599E+03  0.41800000000E+01 0. -1.
        -11    1    1    2    0    0 -0.80095042035E+01  0.69979556577E+02 -0.10453650174E+03  0.12605225381E+03  0.00000000000E+00 0.  1.
         11    1    1    2    0    0 -0.26798635333E+02 -0.12755407132E+02 -0.40844288977E+02  0.50488842419E+02  0.00000000000E+00 0. -1.
</event>
<event>
 7    1  0.2912236E-009  0.2217769E+03  0.7561462E-02  0.1132565E+00
         -2   -1    0    0    0  501 -0.00000000000E+00  0.00000000000E+00  0.11803971270E+03  0.11803971270E+03  0.00000000000E+00 0.  1.
          2   -1    0    0  501    0  0.00000000000E+00 -0.00000000000E+00 -0.52011437664E+03  0.52011437664E+03  0.00000000000E+00 0. -1.
         25    2    1    2    0    0  0.20198040627E+03  0.34077123538E+02 -0.95727814015E+02  0.25839826745E+03  0.12509402616E+03 0.  0.
          5    1    3    3  502    0  0.10590683908E+03  0.79326506231E+02 -0.39457077520E+02  0.13814226914E+03  0.41800000000E+01 0. -1.
         -5    1    3    3    0  502  0.96073567183E+02 -0.45249382693E+02 -0.56270736495E+02  0.12025599832E+03  0.41800000000E+01 0. -1.
        -11    1    1    2    0    0 -0.89065341611E+02 -0.17375349066E+02 -0.61532054640E+02  0.10963909695E+03  0.00000000000E+00 0.  1.
         11    1    1    2    0    0 -0.11291506466E+03 -0.16701774472E+02 -0.24481479529E+03  0.27011672494E+03  0.00000000000E+00 0. -1.
</event>
<event>
 7    1  0.3406477E-009  0.1000793E+03  0.7561462E-02  0.1280129E+00
         -1   -1    0    0    0  501 -0.00000000000E+00  0.00000000000E+00  0.49587717511E+02  0.49587717511E+02  0.00000000000E+00 0.  1.
          1   -1    0    0  501    0  0.00000000000E+00 -0.00000000000E+00 -0.35928854592E+03  0.35928854592E+03  0.00000000000E+00 0. -1.
         25    2    1    2    0    0  0.55347900624E+02 -0.32348065757E+02 -0.23806674478E+03  0.27646517222E+03  0.12508968391E+03 0.  0.
          5    1    3    3  502    0 -0.17981754260E+02  0.21483023696E+02 -0.13919355067E+03  0.14204640348E+03  0.41800000000E+01 0. -1.
         -5    1    3    3    0  502  0.73329654884E+02 -0.53831089453E+02 -0.98873194111E+02  0.13441876874E+03  0.41800000000E+01 0. -1.
        -11    1    1    2    0    0 -0.37016550702E+02  0.45169639635E+02 -0.10951605553E+01  0.58409937059E+02  0.00000000000E+00 0.  1.
         11    1    1    2    0    0 -0.18331349923E+02 -0.12821573878E+02 -0.70538923073E+02  0.74001154146E+02  0.00000000000E+00 0. -1.
</event>
<event>
 7    1  0.2766180E-009  0.9725518E+02  0.7561462E-02  0.1286176E+00
         -2   -1    0    0    0  501 -0.00000000000E+00  0.00000000000E+00  0.75911841379E+02  0.75911841379E+02  0.00000000000E+00 0.  1.
          2   -1    0    0  501    0  0.00000000000E+00 -0.00000000000E+00 -0.24535177020E+03  0.24535177020E+03  0.00000000000E+00 0. -1.
         25    2    1    2    0    0  0.17947312624E+02  0.71126516701E+02 -0.48796291767E+02  0.15300038234E+03  0.12508777517E+03 0.  0.
          5    1    3    3  502    0 -0.34815206415E+01  0.47990150409E+02  0.37423271276E+02  0.61099502087E+02  0.41800000000E+01 0.  1.
         -5    1    3    3    0  502  0.21428833266E+02  0.23136366292E+02 -0.86219563043E+02  0.91900880255E+02  0.41800000000E+01 0.  1.
        -11    1    1    2    0    0 -0.40750252763E+02 -0.80121185858E+02 -0.10852861513E+03  0.14092000505E+03  0.00000000000E+00 0.  1.
         11    1    1    2    0    0  0.22802940139E+02  0.89946691577E+01 -0.12115021926E+02  0.27343224179E+02  0.00000000000E+00 0. -1.
</event>
<event>
 7    1  0.2766180E-009  0.8093063E+02  0.7561462E-02  0.1326431E+00
         -2   -1    0    0    0  501 -0.00000000000E+00  0.00000000000E+00  0.43308076294E+02  0.43308076294E+02  0.00000000000E+00 0.  1.
          2   -1    0    0  501    0  0.00000000000E+00 -0.00000000000E+00 -0.33122992041E+03  0.33122992041E+03  0.00000000000E+00 0. -1.
         25    2    1    2    0    0 -0.26388681351E+01  0.48337124943E+02 -0.19103688112E+03  0.23342292816E+03  0.12509089563E+03 0.  0.
          5    1    3    3  502    0  0.17737329639E+02  0.46253942982E+02 -0.94100697017E+01  0.50597054419E+02  0.41800000000E+01 0. -1.
         -5    1    3    3    0  502 -0.20376197774E+02  0.20831819616E+01 -0.18162681142E+03  0.18282587374E+03  0.41800000000E+01 0. -1.
        -11    1    1    2    0    0  0.22720265545E+02  0.13361551926E+02 -0.23597095620E+01  0.26463366482E+02  0.00000000000E+00 0.  1.
         11    1    1    2    0    0 -0.20081397410E+02 -0.61698676870E+02 -0.94525253439E+02  0.11465170207E+03  0.00000000000E+00 0. -1.
</event>
<event>
 7    1  0.2766180E-009  0.9446345E+02  0.7561462E-02  0.1292389E+00
         -1   -1    0    0    0  501 -0.00000000000E+00  0.00000000000E+00  0.39570698376E+02  0.39570698376E+02  0.00000000000E+00 0.  1.
          1   -1    0    0  501    0  0.00000000000E+00 -0.00000000000E+00 -0.36742828283E+03  0.36742828283E+03  0.00000000000E+00 0. -1.
         25    2    1    2    0    0  0.46645265568E+02 -0.12767044305E+02 -0.14597653986E+03  0.19822618446E+03  0.12508273980E+03 0.  0.
          5    1    3    3  502    0  0.65355315213E+02 -0.23485681271E+02 -0.15839027924E+03  0.17299666878E+03  0.41800000000E+01 0. -1.
         -5    1    3    3    0  502 -0.18710049645E+02  0.10718636966E+02  0.12413739381E+02  0.25229515682E+02  0.41800000000E+01 0. -1.
        -11    1    1    2    0    0 -0.65473691563E+02  0.29858881502E+02 -0.15915920440E+03  0.17467114655E+03  0.00000000000E+00 0. -1.
         11    1    1    2    0    0  0.18828425995E+02 -0.17091837198E+02 -0.22721840194E+02  0.34101650195E+02  0.00000000000E+00 0.  1.
</event>
<event>
 7    1  0.2766180E-009  0.8281413E+02  0.7561462E-02  0.1321250E+00
         -1   -1    0    0    0  501 -0.00000000000E+00  0.00000000000E+00  0.18866394406E+02  0.18866394406E+02  0.00000000000E+00 0.  1.
          1   -1    0    0  501    0  0.00000000000E+00 -0.00000000000E+00 -0.80839854950E+03  0.80839854950E+03  0.00000000000E+00 0. -1.
         25    2    1    2    0    0 -0.43280724990E+02  0.39859594292E+02 -0.49697473869E+03  0.51584186087E+03  0.12508767373E+03 0.  0.
          5    1    3    3  502    0 -0.95972173566E+00 -0.14351176702E+02 -0.90027549876E+00  0.15005340200E+02  0.41800000000E+01 0.  1.
         -5    1    3    3    0  502 -0.42321003254E+02  0.54210770994E+02 -0.49607446319E+03  0.50083652067E+03  0.41800000000E+01 0.  1.
        -11    1    1    2    0    0  0.49927820279E+02 -0.96946563896E+01 -0.26559866570E+03  0.27042452703E+03  0.00000000000E+00 0. -1.
         11    1    1    2    0    0 -0.66470952890E+01 -0.30164937902E+02 -0.26958750703E+02  0.40998555998E+02  0.00000000000E+00 0.  1.
</event>
<event>
 7    1  0.2766180E-009  0.8257369E+02  0.7561462E-02  0.1321902E+00
          1   -1    0    0  501    0  0.00000000000E+00  0.00000000000E+00  0.59113118511E+03  0.59113118511E+03  0.00000000000E+00 0. -1.
         -1   -1    0    0    0  501 -0.00000000000E+00 -0.00000000000E+00 -0.21410354749E+02  0.21410354749E+02  0.00000000000E+00 0.  1.
         25    2    1    2    0    0 -0.23591284431E+02 -0.23274395348E+02  0.31250048560E+03  0.33824641046E+03  0.12512327725E+03 0.  0.
          5    1    3    3  502    0  0.38029069349E+01 -0.38315256351E+02  0.19148507073E+02  0.43204845719E+02  0.41800000000E+01 0. -1.
         -5    1    3    3    0  502 -0.27394191366E+02  0.15040861003E+02  0.29335197852E+03  0.29504156474E+03  0.41800000000E+01 0. -1.
        -11    1    1    2    0    0 -0.21517887124E+02  0.41093612808E+02  0.13796672871E+03  0.14555590923E+03  0.00000000000E+00 0.  1.
         11    1    1    2    0    0  0.45109171555E+02 -0.17819217459E+02  0.11925361605E+03  0.12873922017E+03  0.00000000000E+00 0. -1.
</event>
<event>
 7    1  0.2766180E-009  0.9779055E+02  0.7561462E-02  0.1285012E+00
         -1   -1    0    0    0  501 -0.00000000000E+00  0.00000000000E+00  0.52752518422E+02  0.52752518422E+02  0.00000000000E+00 0.  1.
          1   -1    0    0  501    0  0.00000000000E+00 -0.00000000000E+00 -0.22854459867E+03  0.22854459867E+03  0.00000000000E+00 0. -1.
         25    2    1    2    0    0  0.64404277912E-01  0.12463236344E+02 -0.80397963923E+02  0.14921581078E+03  0.12508472798E+03 0.  0.
          5    1    3    3  502    0 -0.51967174186E+02 -0.27165877309E+02 -0.49065146443E+02  0.76573057130E+02  0.41800000000E+01 0. -1.
         -5    1    3    3    0  502  0.52031578463E+02  0.39629113652E+02 -0.31332817479E+02  0.72642753647E+02  0.41800000000E+01 0. -1.
        -11    1    1    2    0    0  0.18184035342E+02 -0.36675556735E+02 -0.10973406997E+02  0.42381260768E+02  0.00000000000E+00 0.  1.
         11    1    1    2    0    0 -0.18248439620E+02  0.24212320392E+02 -0.84420709326E+02  0.89700045543E+02  0.00000000000E+00 0. -1.
</event>
<event>
 7    1  0.2766180E-009  0.1172920E+03  0.7561462E-02  0.1247633E+00
         -2   -1    0    0    0  501 -0.00000000000E+00  0.00000000000E+00  0.55374991018E+02  0.55374991018E+02  0.00000000000E+00 0.  1.
          2   -1    0    0  501    0  0.00000000000E+00 -0.00000000000E+00 -0.54754776104E+03  0.54754776104E+03  0.00000000000E+00 0. -1.
         25    2    1    2    0    0  0.79140708975E+02  0.85547006652E+02 -0.38092777400E+03  0.41753242729E+03  0.12508323897E+03 0.  0.
          5    1    3    3  502    0  0.60335058653E+02  0.71858281107E+02 -0.38248551140E+03  0.39384841081E+03  0.41800000000E+01 0.  1.
         -5    1    3    3    0  502  0.18805650321E+02  0.13688725544E+02  0.15577373971E+01  0.23684016485E+02  0.41800000000E+01 0.  1.
        -11    1    1    2    0    0 -0.55178551980E+02 -0.66550560124E+02 -0.19415859596E+02  0.88603754182E+02  0.00000000000E+00 0.  1.
         11    1    1    2    0    0 -0.23962156995E+02 -0.18996446528E+02 -0.91829136423E+02  0.96786570580E+02  0.00000000000E+00 0. -1.
</event>
<event>
 7    1  0.2766180E-009  0.9896607E+02  0.7561462E-02  0.1282485E+00
         -2   -1    0    0    0  501 -0.00000000000E+00  0.00000000000E+00  0.20596236261E+02  0.20596236261E+02  0.00000000000E+00 0.  1.
          2   -1    0    0  501    0  0.00000000000E+00 -0.00000000000E+00 -0.64407454482E+03  0.64407454482E+03  0.00000000000E+00 0. -1.
         25    2    1    2    0    0  0.25494710598E+02 -0.30831815947E+02 -0.37915042037E+03  0.40125165278E+03  0.12508903406E+03 0.  0.
          5    1    3    3  502    0 -0.21284390297E+01 -0.71907945383E+02 -0.14535587965E+03  0.16223774841E+03  0.41800000000E+01 0. -1.
         -5    1    3    3    0  502  0.27623149628E+02  0.41076129436E+02 -0.23379454073E+03  0.23901390436E+03  0.41800000000E+01 0. -1.
        -11    1    1    2    0    0 -0.47509353363E+02  0.18686507222E+02 -0.22751634970E+03  0.23317378409E+03  0.00000000000E+00 0. -1.
         11    1    1    2    0    0  0.22014642764E+02  0.12145308725E+02 -0.16811538484E+02  0.30245344208E+02  0.00000000000E+00 0.  1.
</event>
<event>
 7    1  0.2766180E-009  0.1505788E+03  0.7561462E-02  0.1199764E+00
         -2   -1    0    0    0  501 -0.00000000000E+00  0.00000000000E+00  0.52564822955E+02  0.52564822955E+02  0.00000000000E+00 0.  1.
          2   -1    0    0  501    0  0.00000000000E+00 -0.00000000000E+00 -0.60274888988E+03  0.60274888988E+03  0.00000000000E+00 0. -1.
         25    2    1    2    0    0  0.11132055690E+03  0.26819566634E+02 -0.14183277945E+03  0.22107844256E+03  0.12509030697E+03 0.  0.
          5    1    3    3  502    0  0.46618827320E+02  0.63833325050E+02 -0.11915855954E+03  0.14305328783E+03  0.41800000000E+01 0.  1.
         -5    1    3    3    0  502  0.64701729582E+02 -0.37013758416E+02 -0.22674219911E+02  0.78025154736E+02  0.41800000000E+01 0.  1.
        -11    1    1    2    0    0 -0.30278910602E+02  0.34364196068E+02 -0.11373738907E+03  0.12261282181E+03  0.00000000000E+00 0.  1.
         11    1    1    2    0    0 -0.81041646300E+02 -0.61183762703E+02 -0.29461389841E+03  0.31162244847E+03  0.00000000000E+00 0. -1.
</event>
<event>
 7    1  0.2766180E-009  0.1144039E+03  0.7561462E-02  0.1252625E+00
          1   -1    0    0  501    0  0.00000000000E+00  0.00000000000E+00  0.15013495267E+04  0.15013495267E+04  0.00000000000E+00 0. -1.
         -1   -1    0    0    0  501 -0.00000000000E+00 -0.00000000000E+00 -0.13318804644E+02  0.13318804644E+02  0.00000000000E+00 0.  1.
         25    2    1    2    0    0  0.16084681095E+02  0.43130347933E+02  0.12236726469E+04  0.12309110108E+04  0.12509286882E+03 0.  0.
          5    1    3    3  502    0  0.13369379751E+02  0.86169100725E+02  0.69400406479E+03  0.69947335087E+03  0.41800000000E+01 0.  1.
         -5    1    3    3    0  502  0.27153013445E+01 -0.43038752792E+02  0.52966858215E+03  0.53143765995E+03  0.41800000000E+01 0.  1.
        -11    1    1    2    0    0  0.80566782411E+01  0.24806724477E+02  0.37205979440E+02  0.45437523586E+02  0.00000000000E+00 0.  1.
         11    1    1    2    0    0 -0.24141359336E+02 -0.67937072410E+02  0.22715209567E+03  0.23831979692E+03  0.00000000000E+00 0. -1.
</event>
<event>
 7    1  0.4127919E-009  0.2226888E+03  0.7561462E-02  0.1131894E+00
         -3   -1    0    0    0  501 -0.00000000000E+00  0.00000000000E+00  0.17869262468E+03  0.17869262468E+03  0.00000000000E+00 0.  1.
          3   -1    0    0  501    0  0.00000000000E+00 -0.00000000000E+00 -0.32614184270E+03  0.32614184270E+03  0.00000000000E+00 0. -1.
         25    2    1    2    0    0 -0.17101440070E+03 -0.13001106494E+03 -0.92441183627E+02  0.26522022462E+03  0.12509033881E+03 0.  0.
          5    1    3    3  502    0 -0.92976361473E+02 -0.45223614249E+02 -0.10717197813E+03  0.14897343513E+03  0.41800000000E+01 0. -1.
         -5    1    3    3    0  502 -0.78038039228E+02 -0.84787450686E+02  0.14730794499E+02  0.11624678949E+03  0.41800000000E+01 0. -1.
        -11    1    1    2    0    0  0.89067926704E+01  0.40389652184E+02  0.11292957438E+02  0.42874069633E+02  0.00000000000E+00 0.  1.
         11    1    1    2    0    0  0.16210760803E+03  0.89621412751E+02 -0.66300991830E+02  0.19674017313E+03  0.00000000000E+00 0. -1.
</event>
<event>
 7    1  0.2766180E-009  0.1845950E+03  0.7561462E-02  0.1163429E+00
          2   -1    0    0  501    0  0.00000000000E+00  0.00000000000E+00  0.19216107735E+03  0.19216107735E+03  0.00000000000E+00 0.  1.
         -2   -1    0    0    0  501 -0.00000000000E+00 -0.00000000000E+00 -0.19377037770E+03  0.19377037770E+03  0.00000000000E+00 0. -1.
         25    2    1    2    0    0  0.14790840467E+03 -0.25050538268E+02 -0.55356326521E+02  0.20301445778E+03  0.12508445764E+03 0.  0.
          5    1    3    3  502    0  0.13762582654E+03 -0.66070512298E+02 -0.46044711749E+02  0.15951102973E+03  0.41800000000E+01 0. -1.
         -5    1    3    3    0  502  0.10282578135E+02  0.41019974030E+02 -0.93116147718E+01  0.43503428051E+02  0.41800000000E+01 0. -1.
        -11    1    1    2    0    0 -0.95213190561E+02 -0.27954748332E+02  0.21604452859E+02  0.10155674273E+03  0.00000000000E+00 0. -1.
         11    1    1    2    0    0 -0.52695214112E+02  0.53005286600E+02  0.32142573310E+02  0.81360254528E+02  0.00000000000E+00 0.  1.
</event>
<event>
 7    1  0.2766180E-009  0.1338636E+03  0.7561462E-02  0.1221833E+00
          1   -1    0    0  501    0  0.00000000000E+00  0.00000000000E+00  0.31096278756E+02  0.31096278756E+02  0.00000000000E+00 0. -1.
         -1   -1    0    0    0  501 -0.00000000000E+00 -0.00000000000E+00 -0.93766699227E+03  0.93766699227E+03  0.00000000000E+00 0.  1.
         25    2    1    2    0    0 -0.78021973210E+01 -0.12478432829E+03 -0.59683487605E+03  0.62248821042E+03  0.12509076693E+03 0.  0.
          5    1    3    3  502    0 -0.13352872725E+02 -0.51916214762E+02 -0.49024344279E+03  0.49318322981E+03  0.41800000000E+01 0.  1.
         -5    1    3    3    0  502  0.55506754040E+01 -0.72868113527E+02 -0.10659143326E+03  0.12930498061E+03  0.41800000000E+01 0.  1.
        -11    1    1    2    0    0  0.23588498977E+02  0.11250938535E+02 -0.13355304758E+03  0.13608606622E+03  0.00000000000E+00 0.  1.
         11    1    1    2    0    0 -0.15786301656E+02  0.11353338975E+03 -0.17618278988E+03  0.21018899438E+03  0.00000000000E+00 0. -1.
</event>
<event>
 7    1  0.2766180E-009  0.8709178E+02  0.7561462E-02  0.1310051E+00
          1   -1    0    0  501    0  0.00000000000E+00  0.00000000000E+00  0.19333339381E+03  0.19333339381E+03  0.00000000000E+00 0. -1.
         -1   -1    0    0    0  501 -0.00000000000E+00 -0.00000000000E+00 -0.88767208987E+02  0.88767208987E+02  0.00000000000E+00 0.  1.
         25    2    1    2    0    0 -0.57898111631E+02 -0.23086949963E+02  0.16158728551E+02  0.14069064633E+03  0.12509018694E+03 0.  0.
          5    1    3    3  502    0 -0.12625594782E+01 -0.16709420681E+01  0.63528153244E+02  0.63699958858E+02  0.41800000000E+01 0. -1.
         -5    1    3    3    0  502 -0.56635552153E+02 -0.21416007895E+02 -0.47369424693E+02  0.76990687473E+02  0.41800000000E+01 0. -1.
        -11    1    1    2    0    0  0.30394751972E+00 -0.30288894376E+02  0.14528214428E+02  0.33594322750E+02  0.00000000000E+00 0.  1.
         11    1    1    2    0    0  0.57594164111E+02  0.53375844339E+02  0.73879241848E+02  0.10781563372E+03  0.00000000000E+00 0. -1.
</event>
<event>
 7    1  0.2766180E-009  0.1203683E+03  0.7561462E-02  0.1242491E+00
         -1   -1    0    0    0  501 -0.00000000000E+00  0.00000000000E+00  0.47653837007E+02  0.47653837007E+02  0.00000000000E+00 0.  1.
          1   -1    0    0  501    0  0.00000000000E+00 -0.00000000000E+00 -0.41462432104E+03  0.41462432104E+03  0.00000000000E+00 0. -1.
         25    2    1    2    0    0 -0.45072893180E+02 -0.46014779041E+02 -0.31457218981E+03  0.34460482772E+03  0.12509156286E+03 0.  0.
          5    1    3    3  502    0 -0.43866534007E+02  0.36430586745E+02 -0.14893370567E+03  0.15953113032E+03  0.41800000000E+01 0. -1.
         -5    1    3    3    0  502 -0.12063591729E+01 -0.82445365786E+02 -0.16563848414E+03  0.18507369740E+03  0.41800000000E+01 0. -1.
        -11    1    1    2    0    0  0.25474610901E+02  0.67364845402E+02 -0.51749423922E+02  0.88684728521E+02  0.00000000000E+00 0. -1.
         11    1    1    2    0    0  0.19598282279E+02 -0.21350066361E+02 -0.64887030274E+00  0.28988601804E+02  0.00000000000E+00 0.  1.
</event>
<event>
 7    1  0.2766180E-009  0.1274626E+03  0.7561462E-02  0.1231270E+00
          2   -1    0    0  501    0  0.00000000000E+00  0.00000000000E+00  0.86078054726E+03  0.86078054726E+03  0.00000000000E+00 0. -1.
         -2   -1    0    0    0  501 -0.00000000000E+00 -0.00000000000E+00 -0.22136130920E+02  0.22136130920E+02  0.00000000000E+00 0.  1.
         25    2    1    2    0    0 -0.71965981548E+02  0.46581785142E+02  0.47040548422E+03  0.49424346069E+03  0.12508522550E+03 0.  0.
          5    1    3    3  502    0  0.12547431784E+02  0.44636573848E+02  0.64136939723E+02  0.79252010740E+02  0.41800000000E+01 0. -1.
         -5    1    3    3    0  502 -0.84513413332E+02  0.19452112937E+01  0.40626854450E+03  0.41499144995E+03  0.41800000000E+01 0. -1.
        -11    1    1    2    0    0  0.78096447754E+02 -0.66697989769E+02  0.31920327951E+03  0.33531837206E+03  0.00000000000E+00 0.  1.
         11    1    1    2    0    0 -0.61304662054E+01  0.20116204627E+02  0.49035652616E+02  0.53354845440E+02  0.00000000000E+00 0. -1.
</event>
<event>
 7    1  0.2766180E-009  0.1122305E+03  0.7561462E-02  0.1256494E+00
         -2   -1    0    0    0  501 -0.00000000000E+00  0.00000000000E+00  0.20536429374E+03  0.20536429374E+03  0.00000000000E+00 0.  1.
          2   -1    0    0  501    0  0.00000000000E+00 -0.00000000000E+00 -0.71796461032E+02  0.71796461032E+02  0.00000000000E+00 0. -1.
         25    2    1    2    0    0  0.15447996589E+02 -0.27501040539E+02  0.12478165059E+03  0.17948072270E+03  0.12509165306E+03 0.  0.
          5    1    3    3  502    0  0.67760513776E+02  0.20521701841E+01  0.55768771698E+02  0.87882460857E+02  0.41800000000E+01 0. -1.
         -5    1    3    3    0  502 -0.52312517187E+02 -0.29553210723E+02  0.69012878895E+02  0.91598261839E+02  0.41800000000E+01 0. -1.
        -11    1    1    2    0    0 -0.51553981382E+02  0.10686341668E+01 -0.21712259049E+01  0.51610746917E+02  0.00000000000E+00 0.  1.
         11    1    1    2    0    0  0.36105984793E+02  0.26432406372E+02  0.10957408020E+02  0.46069285159E+02  0.00000000000E+00 0. -1.
</event>
<event>
 7    1  0.2766180E-009  0.9469177E+02  0.7561462E-02  0.1291872E+00
         -2   -1    0    0    0  501 -0.00000000000E+00  0.00000000000E+00  0.47837341865E+02  0.47837341865E+02  0.00000000000E+00 0.  1.
          2   -1    0    0  501    0  0.00000000000E+00 -0.00000000000E+00 -0.26071077303E+03  0.26071077303E+03  0.00000000000E+00 0. -1.
         25    2    1    2    0    0  0.25609283259E+02 -0.64061651489E+01 -0.11543334513E+03  0.17224574702E+03  0.12508743285E+03 0.  0.
          5    1    3    3  502    0  0.57268522773E+02 -0.47072056440E+02 -0.53229896256E+02  0.91358395638E+02  0.41800000000E+01 0. -1.
         -5    1    3    3    0  502 -0.31659239514E+02  0.40665891291E+02 -0.62203448878E+02  0.80887351381E+02  0.41800000000E+01 0. -1.
        -11    1    1    2    0    0  0.15511438960E+02  0.14823053018E+02 -0.91414754485E+02  0.93898801786E+02  0.00000000000E+00 0. -1.
         11    1    1    2    0    0 -0.41120722219E+02 -0.84168878694E+01 -0.60253315508E+01  0.42403566094E+02  0.00000000000E+00 0.  1.
</event>
<event>
 7    1  0.2766180E-009  0.9998582E+02  0.7561462E-02  0.1280326E+00
          1   -1    0    0  501    0  0.00000000000E+00  0.00000000000E+00  0.52315599709E+02  0.52315599709E+02  0.00000000000E+00 0. -1.
         -1   -1    0    0    0  501 -0.00000000000E+00 -0.00000000000E+00 -0.37929524072E+03  0.37929524072E+03  0.00000000000E+00 0.  1.
         25    2    1    2    0    0 -0.32149078518E+02  0.66269324562E+02 -0.26005714741E+03  0.29782869394E+03  0.12508806654E+03 0.  0.
          5    1    3    3  502    0 -0.66302134980E+02  0.62170715446E+02 -0.24245018084E+03  0.25896087262E+03  0.41800000000E+01 0.  1.
         -5    1    3    3    0  502  0.34153056462E+02  0.40986091163E+01 -0.17606966572E+02  0.38867821321E+02  0.41800000000E+01 0.  1.
        -11    1    1    2    0    0  0.11134913493E+02 -0.13286598516E+02 -0.74311975024E+02  0.76307205627E+02  0.00000000000E+00 0.  1.
         11    1    1    2    0    0  0.21014165025E+02 -0.52982726047E+02  0.73894814200E+01  0.57474940859E+02  0.00000000000E+00 0. -1.
</event>
<event>
 7    1  0.2766180E-009  0.2568337E+03  0.7561462E-02  0.1109061E+00
          1   -1    0    0  501    0  0.00000000000E+00  0.00000000000E+00  0.12369530839E+03  0.12369530839E+03  0.00000000000E+00 0. -1.
         -1   -1    0    0    0  501 -0.00000000000E+00 -0.00000000000E+00 -0.60296632896E+03  0.60296632896E+03  0.00000000000E+00 0.  1.
         25    2    1    2    0    0  0.23582402337E+03  0.83296003274E+02 -0.26409673250E+03  0.38465324156E+03  0.12513927427E+03 0.  0.
          5    1    3    3  502    0  0.17350866826E+03  0.27668841007E+02 -0.10450496802E+03  0.20447391879E+03  0.41800000000E+01 0.  1.
         -5    1    3    3    0  502  0.62315355106E+02  0.55627162267E+02 -0.15959176448E+03  0.18017932277E+03  0.41800000000E+01 0.  1.
        -11    1    1    2    0    0 -0.15885973076E+03 -0.32745472496E+02 -0.18283908019E+03  0.24441523944E+03  0.00000000000E+00 0. -1.
         11    1    1    2    0    0 -0.76964292608E+02 -0.50550530779E+02 -0.32335207883E+02  0.97593156356E+02  0.00000000000E+00 0.  1.
</event>
<event>
 7    1  0.2766180E-009  0.1107694E+03  0.7561462E-02  0.1259152E+00
          1   -1    0    0  501    0  0.00000000000E+00  0.00000000000E+00  0.51124650611E+02  0.51124650611E+02  0.00000000000E+00 0. -1.
         -1   -1    0    0    0  501 -0.00000000000E+00 -0.00000000000E+00 -0.40087521531E+03  0.40087521531E+03  0.00000000000E+00 0.  1.
         25    2    1    2    0    0  0.87343904419E+01 -0.77174502559E+02 -0.27456005684E+03  0.31154684302E+03  0.12508404039E+03 0.  0.
          5    1    3    3  502    0 -0.31843434295E+02 -0.93413502200E+02 -0.15121014429E+03  0.18061579897E+03  0.41800000000E+01 0. -1.
         -5    1    3    3    0  502  0.40577824737E+02  0.16238999641E+02 -0.12334991255E+03  0.13093104405E+03  0.41800000000E+01 0. -1.
        -11    1    1    2    0    0  0.13749686785E+01  0.47181075544E+02 -0.92886029041E+02  0.10419097283E+03  0.00000000000E+00 0.  1.
         11    1    1    2    0    0 -0.10109359120E+02  0.29993427015E+02  0.17695521178E+02  0.36262050076E+02  0.00000000000E+00 0. -1.
</event>
<event>
 7    1  0.2766180E-009  0.5480821E+02  0.7561462E-02  0.1421008E+00
          1   -1    0    0  501    0  0.00000000000E+00  0.00000000000E+00  0.93126115016E+03  0.93126115016E+03  0.00000000000E+00 0. -1.
         -1   -1    0    0    0  501 -0.00000000000E+00 -0.00000000000E+00 -0.12941562045E+02  0.12941562045E+02  0.00000000000E+00 0.  1.
         25    2    1    2    0    0  0.77566374458E+01  0.17109818148E+02  0.54950634185E+03  0.56387748063E+03  0.12509069558E+03 0.  0.
          5    1    3    3  502    0  0.12709095475E+02  0.13107022053E+02  0.50910777655E+01  0.19408931133E+02  0.41800000000E+01 0. -1.
         -5    1    3    3    0  502 -0.49524580297E+01  0.40027960951E+01  0.54441526409E+03  0.54446854949E+03  0.41800000000E+01 0. -1.
        -11    1    1    2    0    0 -0.55008865161E+01 -0.50000384521E+02  0.29797690698E+03  0.30219287764E+03  0.00000000000E+00 0. -1.
         11    1    1    2    0    0 -0.22557509297E+01  0.32890566374E+02  0.70836339282E+02  0.78132353936E+02  0.00000000000E+00 0.  1.
</event>
<event>
 7    1  0.2766180E-009  0.1150238E+03  0.7561462E-02  0.1251540E+00
         -2   -1    0    0    0  501 -0.00000000000E+00  0.00000000000E+00  0.25282315498E+02  0.25282315498E+02  0.00000000000E+00 0.  1.
          2   -1    0    0  501    0  0.00000000000E+00 -0.00000000000E+00 -0.82728650195E+03  0.82728650195E+03  0.00000000000E+00 0. -1.
         25    2    1    2    0    0 -0.80432792404E+02  0.49816897580E+02 -0.45131154898E+03  0.47778760392E+03  0.12509085835E+03 0.  0.
          5    1    3    3  502    0  0.30431729139E+01  0.70476078717E+01 -0.29720369623E+03  0.29733220332E+03  0.41800000000E+01 0.  1.
         -5    1    3    3    0  502 -0.83475965318E+02  0.42769289708E+02 -0.15410785275E+03  0.18045540060E+03  0.41800000000E+01 0.  1.
        -11    1    1    2    0    0  0.49873198043E+02  0.18010078517E+02 -0.19728840325E+03  0.20429002146E+03  0.00000000000E+00 0. -1.
         11    1    1    2    0    0  0.30559594361E+02 -0.67826976097E+02 -0.15340423422E+03  0.17049119206E+03  0.00000000000E+00 0.  1.
</event>
<event>
 7    1  0.2766180E-009  0.8980048E+02  0.7561462E-02  0.1303336E+00
          1   -1    0    0  501    0  0.00000000000E+00  0.00000000000E+00  0.20675428459E+03  0.20675428459E+03  0.00000000000E+00 0. -1.
         -1   -1    0    0    0  501 -0.00000000000E+00 -0.00000000000E+00 -0.68054943374E+02  0.68054943374E+02  0.00000000000E+00 0.  1.
         25    2    1    2    0    0  0.31087768012E+01  0.32884772595E+02  0.11674035149E+03  0.17426421052E+03  0.12509449485E+03 0.  0.
          5    1    3    3  502    0 -0.36280399918E+02  0.29619086426E+02 -0.39605037694E+01  0.47188088423E+02  0.41800000000E+01 0.  1.
         -5    1    3    3    0  502  0.39389176719E+02  0.32656861693E+01  0.12070085526E+03  0.12707612210E+03  0.41800000000E+01 0.  1.
        -11    1    1    2    0    0  0.41824142552E+02 -0.17549694728E+02  0.27025105449E+02  0.52797793607E+02  0.00000000000E+00 0.  1.
         11    1    1    2    0    0 -0.44932919353E+02 -0.15335077867E+02 -0.50661157243E+01  0.47747223828E+02  0.00000000000E+00 0. -1.
</event>
<event>
 7    1  0.2766180E-009  0.1009102E+03  0.7561462E-02  0.1278393E+00
          2   -1    0    0  501    0  0.00000000000E+00  0.00000000000E+00  0.70603152461E+03  0.70603152461E+03  0.00000000000E+00 0. -1.
         -2   -1    0    0    0  501 -0.00000000000E+00 -0.00000000000E+00 -0.19872192115E+02  0.19872192115E+02  0.00000000000E+00 0.  1.
         25    2    1    2    0    0 -0.10853085202E+02  0.39374127067E+02  0.47238156982E+03  0.49036692877E+03  0.12508903226E+03 0.  0.
          5    1    3    3  502    0  0.54078791605E+02  0.37235048391E+02  0.21224480784E+03  0.22220777526E+03  0.41800000000E+01 0.  1.
         -5    1    3    3    0  502 -0.64931876806E+02  0.21390786761E+01  0.26013676197E+03  0.26815915351E+03  0.41800000000E+01 0.  1.
        -11    1    1    2    0    0 -0.18374717059E+02 -0.37356295749E+02  0.19786441344E+03  0.20219656071E+03  0.00000000000E+00 0. -1.
         11    1    1    2    0    0  0.29227802261E+02 -0.20178313172E+01  0.15913349241E+02  0.33340227238E+02  0.00000000000E+00 0.  1.
</event>
<event>
 7    1  0.2766180E-009  0.1274530E+03  0.7561462E-02  0.1231285E+00
         -2   -1    0    0    0  501 -0.00000000000E+00  0.00000000000E+00  0.24902036580E+02  0.24902036580E+02  0.00000000000E+00 0.  1.
          2   -1    0    0  501    0  0.00000000000E+00 -0.00000000000E+00 -0.13930839452E+04  0.13930839452E+04  0.00000000000E+00 0. -1.
         25    2    1    2    0    0 -0.68735556700E+02  0.19789010942E+02 -0.11940401433E+04  0.12027038978E+04  0.12509444556E+03 0.  0.
          5    1    3    3  502    0 -0.11798180563E+01  0.59557808665E+02 -0.69094228450E+03  0.69351801523E+03  0.41800000000E+01 0.  1.
         -5    1    3    3    0  502 -0.67555738643E+02 -0.39768797723E+02 -0.50309785878E+03  0.50918588257E+03  0.41800000000E+01 0.  1.
        -11    1    1    2    0    0 -0.91708241380E+01  0.25134784609E+02 -0.83148613460E+02  0.87347314401E+02  0.00000000000E+00 0. -1.
         11    1    1    2    0    0  0.77906380838E+02 -0.44923795550E+02 -0.90993151928E+02  0.12793476963E+03  0.00000000000E+00 0.  1.
</event>
<event>
 7    1  0.2766180E-009  0.8240541E+02  0.7561462E-02  0.1322361E+00
          2   -1    0    0  501    0  0.00000000000E+00  0.00000000000E+00  0.89449845491E+02  0.89449845491E+02  0.00000000000E+00 0. -1.
         -2   -1    0    0    0  501 -0.00000000000E+00 -0.00000000000E+00 -0.16560278027E+03  0.16560278027E+03  0.00000000000E+00 0.  1.
         25    2    1    2    0    0  0.25305639572E+02 -0.37746438156E+02 -0.10234483792E+02  0.13347986272E+03  0.12508780958E+03 0.  0.
          5    1    3    3  502    0 -0.19989015846E+02 -0.58506123596E+01 -0.57020019642E+02  0.60848545253E+02  0.41800000000E+01 0. -1.
         -5    1    3    3    0  502  0.45294655417E+02 -0.31895825796E+02  0.46785535850E+02  0.72631317469E+02  0.41800000000E+01 0. -1.
        -11    1    1    2    0    0 -0.55336517260E+01 -0.23245780982E+02 -0.50140099615E+02  0.55542931362E+02  0.00000000000E+00 0.  1.
         11    1    1    2    0    0 -0.19771987846E+02  0.60992219138E+02 -0.15778351367E+02  0.66029831672E+02  0.00000000000E+00 0. -1.
</event>
<event>
 7    1  0.2766180E-009  0.1202272E+03  0.7561462E-02  0.1242723E+00
          1   -1    0    0  501    0  0.00000000000E+00  0.00000000000E+00  0.28697370369E+03  0.28697370369E+03  0.00000000000E+00 0. -1.
         -1   -1    0    0    0  501 -0.00000000000E+00 -0.00000000000E+00 -0.57462325596E+02  0.57462325596E+02  0.00000000000E+00 0.  1.
         25    2    1    2    0    0  0.15454352575E+02 -0.45467593534E+02  0.16909498402E+03  0.21574649865E+03  0.12508916413E+03 0.  0.
          5    1    3    3  502    0  0.67967649103E+02 -0.14749823257E+02  0.66032672972E+02  0.95994504585E+02  0.41800000000E+01 0.  1.
         -5    1    3    3    0  502 -0.52513296528E+02 -0.30717770277E+02  0.10306231105E+03  0.11975199406E+03  0.41800000000E+01 0.  1.
        -11    1    1    2    0    0 -0.49937120462E+02  0.54734702746E+02  0.55656371952E+02  0.92667337415E+02  0.00000000000E+00 0. -1.
         11    1    1    2    0    0  0.34482767887E+02 -0.92671092118E+01  0.47600221243E+01  0.36022193227E+02  0.00000000000E+00 0.  1.
</event>
<event>
 7    1  0.2766180E-009  0.2105459E+03  0.7561462E-02  0.1141134E+00
          1   -1    0    0  501    0  0.00000000000E+00  0.00000000000E+00  0.17781393282E+04  0.17781393282E+04  0.00000000000E+00 0. -1.
         -1   -1    0    0    0  501 -0.00000000000E+00 -0.00000000000E+00 -0.49267416537E+02  0.49267416537E+02  0.00000000000E+00 0.  1.
         25    2    1    2    0    0 -0.78173813674E+02 -0.16696447972E+03  0.15154934154E+04  0.15317820689E+04  0.12509089448E+03 0.  0.
          5    1    3    3  502    0  0.96211121800E+01 -0.11878270063E+03  0.69035002461E+03  0.70057299737E+03  0.41800000000E+01 0.  1.
         -5    1    3    3    0  502 -0.87794925854E+02 -0.48181779086E+02  0.82514339075E+03  0.83120907149E+03  0.41800000000E+01 0.  1.
        -11    1    1    2    0    0  0.50590186674E+02  0.23969107767E+02  0.37981935701E+02  0.67649926492E+02  0.00000000000E+00 0.  1.
         11    1    1    2    0    0  0.27583627000E+02  0.14299537195E+03  0.17539656058E+03  0.22797474935E+03  0.00000000000E+00 0. -1.
</event>
<event>
 7    1  0.2766180E-009  0.1918639E+03  0.7561462E-02  0.1156791E+00
          2   -1    0    0  501    0  0.00000000000E+00  0.00000000000E+00  0.47464459194E+03  0.47464459194E+03  0.00000000000E+00 0.  1.
         -2   -1    0    0    0  501 -0.00000000000E+00 -0.00000000000E+00 -0.82498702083E+02  0.82498702083E+02  0.00000000000E+00 0. -1.
         25    2    1    2    0    0  0.12632133263E+03 -0.10088691447E+03  0.25373129950E+03  0.32582708147E+03  0.12509382914E+03 0.  0.
          5    1    3    3  502    0  0.28975998644E+00  0.25519317296E+02  0.32154663987E+02  0.41263959241E+02  0.41800000000E+01 0.  1.
         -5    1    3    3    0  502  0.12603157264E+03 -0.12640623176E+03  0.22157663551E+03  0.28456312223E+03  0.41800000000E+01 0.  1.
        -11    1    1    2    0    0 -0.65614631198E+02  0.98764099638E+02  0.11787205763E+03  0.16719285025E+03  0.00000000000E+00 0. -1.
         11    1    1    2    0    0 -0.60706701433E+02  0.21228148280E+01  0.20542532729E+02  0.64123362299E+02  0.00000000000E+00 0.  1.
</event>
<event>
 7    1  0.2766180E-009  0.1009804E+03  0.7561462E-02  0.1278248E+00
         -2   -1    0    0    0  501 -0.00000000000E+00  0.00000000000E+00  0.48459178640E+02  0.48459178640E+02  0.00000000000E+00 0.  1.
          2   -1    0    0  501    0  0.00000000000E+00 -0.00000000000E+00 -0.32945999538E+03  0.32945999538E+03  0.00000000000E+00 0. -1.
         25    2    1    2    0    0  0.44048410080E+02 -0.13537523896E+02 -0.86356859766E+02  0.15883370303E+03  0.12508841275E+03 0.  0.
          5    1    3    3  502    0 -0.10881566233E+02  0.48504613089E+02 -0.26175528273E+02  0.56335926858E+02  0.41800000000E+01 0.  1.
         -5    1    3    3    0  502  0.54929976312E+02 -0.62042136985E+02 -0.60181331493E+02  0.10249777617E+03  0.41800000000E+01 0.  1.
        -11    1    1    2    0    0 -0.13329616903E+02  0.31018183122E+02 -0.16700486459E+02  0.37665801717E+02  0.00000000000E+00 0.  1.
         11    1    1    2    0    0 -0.30718793176E+02 -0.17480659227E+02 -0.17794347052E+03  0.18141966928E+03  0.00000000000E+00 0. -1.
</event>
<event>
 7    1  0.2766180E-009  0.1152434E+03  0.7561462E-02  0.1251157E+00
          2   -1    0    0  501    0  0.00000000000E+00  0.00000000000E+00  0.23189164113E+03  0.23189164113E+03  0.00000000000E+00 0. -1.
         -2   -1    0    0    0  501 -0.00000000000E+00 -0.00000000000E+00 -0.58239753993E+02  0.58239753993E+02  0.00000000000E+00 0.  1.
         25    2    1    2    0    0  0.51011096267E+01 -0.40679952464E+02  0.95266387280E+02  0.16249424391E+03  0.12509122634E+03 0.  0.
          5    1    3    3  502    0  0.40609279135E+02 -0.71642826031E+02  0.46975745622E+02  0.94899953374E+02  0.41800000000E+01 0.  1.
         -5    1    3    3    0  502 -0.35508169508E+02  0.30962873567E+02  0.48290641658E+02  0.67594290536E+02  0.41800000000E+01 0.  1.
        -11    1    1    2    0    0 -0.47876364381E+02  0.30486784381E+02  0.44096762993E+02  0.71875689873E+02  0.00000000000E+00 0.  1.
         11    1    1    2    0    0  0.42775254755E+02  0.10193168083E+02  0.34288736862E+02  0.55761461337E+02  0.00000000000E+00 0. -1.
</event>
<event>
 7    1  0.2766180E-009  0.1067611E+03  0.7561462E-02  0.1266688E+00
          1   -1    0    0  501    0  0.00000000000E+00  0.00000000000E+00  0.33810852772E+03  0.33810852772E+03  0.00000000000E+00 0. -1.
         -1   -1    0    0    0  501 -0.00000000000E+00 -0.00000000000E+00 -0.46289842645E+02  0.46289842645E+02  0.00000000000E+00 0.  1.
         25    2    1    2    0    0  0.49763649951E+02 -0.35352923687E+02  0.19323579414E+03  0.23814601921E+03  0.12508878549E+03 0.  0.
          5    1    3    3  502    0 -0.22224319602E+02 -0.29358131904E+02  0.61628134188E+01  0.37566913101E+02  0.41800000000E+01 0. -1.
         -5    1    3    3    0  502  0.71987969553E+02 -0.59947917827E+01  0.18707298072E+03  0.20057910610E+03  0.41800000000E+01 0. -1.
        -11    1    1    2    0    0 -0.70389763196E+02  0.42561397766E+02  0.92048274610E+02  0.12344665326E+03  0.00000000000E+00 0. -1.
         11    1    1    2    0    0  0.20626113246E+02 -0.72084740789E+01  0.65346163212E+01  0.22805697898E+02  0.00000000000E+00 0.  1.
</event>
<event>
 7    1  0.2766180E-009  0.1486760E+03  0.7561462E-02  0.1202109E+00
         -2   -1    0    0    0  501 -0.00000000000E+00  0.00000000000E+00  0.39793842880E+02  0.39793842880E+02  0.00000000000E+00 0.  1.
          2   -1    0    0  501    0  0.00000000000E+00 -0.00000000000E+00 -0.67667572942E+03  0.67667572942E+03  0.00000000000E+00 0. -1.
         25    2    1    2    0    0 -0.10321788855E+03  0.66948574488E+02 -0.32051861432E+03  0.36539852680E+03  0.12509139506E+03 0.  0.
          5    1    3    3  502    0 -0.93554001040E+01  0.56772048080E+02 -0.42211170166E+02  0.71483174531E+02  0.41800000000E+01 0. -1.
         -5    1    3    3    0  502 -0.93862488443E+02  0.10176526408E+02 -0.27830744415E+03  0.29391535226E+03  0.41800000000E+01 0. -1.
        -11    1    1    2    0    0  0.54360568089E+02 -0.77992190771E+02 -0.25318768619E+03  0.27044751362E+03  0.00000000000E+00 0. -1.
         11    1    1    2    0    0  0.48857320458E+02  0.11043616284E+02 -0.63175586027E+02  0.80623531881E+02  0.00000000000E+00 0.  1.
</event>
<event>
 7    1  0.2766180E-009  0.1311983E+03  0.7561462E-02  0.1225688E+00
          2   -1    0    0  501    0  0.00000000000E+00  0.00000000000E+00  0.50687792749E+03  0.50687792749E+03  0.00000000000E+00 0.  1.
         -2   -1    0    0    0  501 -0.00000000000E+00 -0.00000000000E+00 -0.35488083367E+02  0.35488083367E+02  0.00000000000E+00 0. -1.
         25    2    1    2    0    0 -0.26345105817E+02  0.83127524371E+02  0.25531346318E+03  0.29738566896E+03  0.12509604994E+03 0.  0.
          5    1    3    3  502    0  0.37979215321E+02  0.73722622576E+02  0.10734443032E+03  0.13571199283E+03  0.41800000000E+01 0.  1.
         -5    1    3    3    0  502 -0.64324321138E+02  0.94049017948E+01  0.14796903286E+03  0.16167367613E+03  0.41800000000E+01 0.  1.
        -11    1    1    2    0    0 -0.24396733776E+02 -0.12957642155E+02  0.68711087769E+02  0.74056159038E+02  0.00000000000E+00 0.  1.
         11    1    1    2    0    0  0.50741839593E+02 -0.70169882216E+02  0.14736529317E+03  0.17092418286E+03  0.00000000000E+00 0. -1.
</event>
<event>
 7    1  0.2766180E-009  0.1773018E+03  0.7561462E-02  0.1170440E+00
          3   -1    0    0  501    0  0.00000000000E+00  0.00000000000E+00  0.22444279317E+02  0.22444279317E+02  0.00000000000E+00 0. -1.
         -3   -1    0    0    0  501 -0.00000000000E+00 -0.00000000000E+00 -0.15305727116E+04  0.15305727116E+04  0.00000000000E+00 0.  1.
         25    2    1    2    0    0 -0.14133829796E+03  0.55813236150E+02 -0.81917231404E+03  0.84248785882E+03  0.12510347864E+03 0.  0.
          5    1    3    3  502    0  0.15009163390E+02  0.38472920268E+01 -0.23399391788E+03  0.23454360500E+03  0.41800000000E+01 0. -1.
         -5    1    3    3    0  502 -0.15634746135E+03  0.51965944123E+02 -0.58517839616E+03  0.60794425382E+03  0.41800000000E+01 0. -1.
        -11    1    1    2    0    0  0.83079991704E+02  0.12443096435E+02 -0.33710988335E+03  0.34741932751E+03  0.00000000000E+00 0.  1.
         11    1    1    2    0    0  0.58258306252E+02 -0.68256332586E+02 -0.35184623489E+03  0.36310980459E+03  0.00000000000E+00 0. -1.
</event>
<event>
 7    1  0.2766180E-009  0.2222319E+03  0.7561462E-02  0.1132230E+00
         -2   -1    0    0    0  501 -0.00000000000E+00  0.00000000000E+00  0.18919753701E+02  0.18919753701E+02  0.00000000000E+00 0.  1.
          2   -1    0    0  501    0  0.00000000000E+00 -0.00000000000E+00 -0.27134236625E+04  0.27134236625E+04  0.00000000000E+00 0. -1.
         25    2    1    2    0    0  0.17951131571E+03  0.80555048047E+02 -0.15972192304E+04  0.16141469242E+04  0.12509034611E+03 0.  0.
          5    1    3    3  502    0 -0.17249430750E+02  0.15911635179E+02 -0.10870681124E+03  0.11128956018E+03  0.41800000000E+01 0.  1.
         -5    1    3    3    0  502  0.19676074646E+03  0.64643412868E+02 -0.14885124192E+04  0.15028573640E+04  0.41800000000E+01 0.  1.
        -11    1    1    2    0    0 -0.88968471596E+02  0.47279313903E+01 -0.52993914400E+03  0.53737625423E+03  0.00000000000E+00 0. -1.
         11    1    1    2    0    0 -0.90542844110E+02 -0.85282979437E+02 -0.56734553437E+03  0.58082023774E+03  0.00000000000E+00 0.  1.
</event>
<event>
 7    1  0.2766180E-009  0.1274460E+03  0.7561462E-02  0.1231295E+00
         -2   -1    0    0    0  501 -0.00000000000E+00  0.00000000000E+00  0.76361180132E+03  0.76361180132E+03  0.00000000000E+00 0.  1.
          2   -1    0    0  501    0  0.00000000000E+00 -0.00000000000E+00 -0.25923101597E+02  0.25923101597E+02  0.00000000000E+00 0. -1.
         25    2    1    2    0    0  0.80226911312E+02 -0.27301466707E+02  0.31622339822E+03  0.35046596575E+03  0.12508968056E+03 0.  0.
          5    1    3    3  502    0  0.52164872411E+02  0.43277855526E+02  0.96909360903E+02  0.11833445535E+03  0.41800000000E+01 0.  1.
         -5    1    3    3    0  502  0.28062038901E+02 -0.70579322233E+02  0.21931403732E+03  0.23213151039E+03  0.41800000000E+01 0.  1.
        -11    1    1    2    0    0 -0.89302950203E+01 -0.22326426277E+02  0.31967911363E+02  0.40002085400E+02  0.00000000000E+00 0.  1.
         11    1    1    2    0    0 -0.71296616291E+02  0.49627892984E+02  0.38949739014E+03  0.39906685177E+03  0.00000000000E+00 0. -1.
</event>
<event>
 7    1  0.2766180E-009  0.1152403E+03  0.7561462E-02  0.1251162E+00
          4   -1    0    0  501    0  0.00000000000E+00  0.00000000000E+00  0.14236950828E+03  0.14236950828E+03  0.00000000000E+00 0. -1.
         -4   -1    0    0    0  501 -0.00000000000E+00 -0.00000000000E+00 -0.13663608433E+03  0.13663608433E+03  0.00000000000E+00 0.  1.
         25    2    1    2    0    0  0.79691495910E+02  0.35005675319E+02  0.88911560521E+01  0.15265189664E+03  0.12508963612E+03 0.  0.
          5    1    3    3  502    0 -0.20125464162E+02 -0.12642890084E+02  0.31499687436E+02  0.39680973854E+02  0.41800000000E+01 0.  1.
         -5    1    3    3    0  502  0.99816960072E+02  0.47648565403E+02 -0.22608531384E+02  0.11297092278E+03  0.41800000000E+01 0.  1.
        -11    1    1    2    0    0 -0.23599151815E+02  0.80682692353E+01  0.37304930617E+02  0.44873987824E+02  0.00000000000E+00 0. -1.
         11    1    1    2    0    0 -0.56092344095E+02 -0.43073944555E+02 -0.40462662720E+02  0.81479708148E+02  0.00000000000E+00 0.  1.
</event>
<event>
 7    1  0.2766180E-009  0.1004969E+03  0.7561462E-02  0.1279255E+00
          1   -1    0    0  501    0  0.00000000000E+00  0.00000000000E+00  0.40013137145E+03  0.40013137145E+03  0.00000000000E+00 0. -1.
         -1   -1    0    0    0  501 -0.00000000000E+00 -0.00000000000E+00 -0.33741517469E+02  0.33741517469E+02  0.00000000000E+00 0.  1.
         25    2    1    2    0    0 -0.28313805100E+02 -0.62160896282E+01  0.18660061377E+03  0.22651274692E+03  0.12509166291E+03 0.  0.
          5    1    3    3  502    0  0.34552254960E+02 -0.37451943315E+02  0.11646747613E+03  0.12719532922E+03  0.41800000000E+01 0.  1.
         -5    1    3    3    0  502 -0.62866060060E+02  0.31235853686E+02  0.70133137644E+02  0.99317417701E+02  0.41800000000E+01 0.  1.
        -11    1    1    2    0    0  0.16164649877E+01 -0.32486393241E+02  0.14678066855E+02  0.35685071830E+02  0.00000000000E+00 0.  1.
         11    1    1    2    0    0  0.26697340112E+02  0.38702482869E+02  0.16511117336E+03  0.17167507016E+03  0.00000000000E+00 0. -1.
</event>
<event>
 7    1  0.2766180E-009  0.1931394E+03  0.7561462E-02  0.1155660E+00
          3   -1    0    0  501    0  0.00000000000E+00  0.00000000000E+00  0.45346325421E+02  0.45346325421E+02  0.00000000000E+00 0. -1.
         -3   -1    0    0    0  501 -0.00000000000E+00 -0.00000000000E+00 -0.97261413166E+03  0.97261413166E+03  0.00000000000E+00 0.  1.
         25    2    1    2    0    0  0.62142730744E+02  0.16696636176E+03 -0.53120943168E+03  0.57408373049E+03  0.12509670004E+03 0.  0.
          5    1    3    3  502    0  0.56151046077E+02  0.17512225696E+03 -0.53219550183E+03  0.56308993014E+03  0.41800000000E+01 0.  1.
         -5    1    3    3    0  502  0.59916846662E+01 -0.81558952013E+01  0.98607015097E+00  0.10993800345E+02  0.41800000000E+01 0.  1.
        -11    1    1    2    0    0 -0.43027255386E+02 -0.28527397212E+02 -0.17404165436E+03  0.18153692338E+03  0.00000000000E+00 0.  1.
         11    1    1    2    0    0 -0.19115475357E+02 -0.13843896455E+03 -0.22201672020E+03  0.26233980321E+03  0.00000000000E+00 0. -1.
</event>
<event>
 7    1  0.2766180E-009  0.1030023E+03  0.7561462E-02  0.1274106E+00
          3   -1    0    0  501    0  0.00000000000E+00  0.00000000000E+00  0.55738275779E+02  0.55738275779E+02  0.00000000000E+00 0. -1.
         -3   -1    0    0    0  501 -0.00000000000E+00 -0.00000000000E+00 -0.26683884429E+03  0.26683884429E+03  0.00000000000E+00 0.  1.
         25    2    1    2    0    0 -0.73098314674E+01  0.48241245629E+02 -0.79314773141E+02  0.15594559500E+03  0.12509014328E+03 0.  0.
          5    1    3    3  502    0 -0.44322435048E+02 -0.14903934674E+02 -0.66684577621E+02  0.81553116493E+02  0.41800000000E+01 0.  1.
         -5    1    3    3    0  502  0.37012603581E+02  0.63145180303E+02 -0.12630195520E+02  0.74392478505E+02  0.41800000000E+01 0.  1.
        -11    1    1    2    0    0  0.32316883785E+02 -0.10464070133E+01 -0.98563075366E+02  0.10373117068E+03  0.00000000000E+00 0.  1.
         11    1    1    2    0    0 -0.25007052318E+02 -0.47194838616E+02 -0.33222719999E+02  0.62900354385E+02  0.00000000000E+00 0. -1.
</event>
<event>
 7    1  0.2766180E-009  0.1761572E+03  0.7561462E-02  0.1171575E+00
          1   -1    0    0  501    0  0.00000000000E+00  0.00000000000E+00  0.56076896076E+03  0.56076896076E+03  0.00000000000E+00 0. -1.
         -1   -1    0    0    0  501 -0.00000000000E+00 -0.00000000000E+00 -0.76795476823E+02  0.76795476823E+02  0.00000000000E+00 0.  1.
         25    2    1    2    0    0  0.32437993521E+02 -0.13513956954E+03  0.85311881985E+02  0.20552662307E+03  0.12509256134E+03 0.  0.
          5    1    3    3  502    0 -0.17697303755E+02 -0.13428170654E+03  0.51794711074E+02  0.14506872774E+03  0.41800000000E+01 0.  1.
         -5    1    3    3    0  502  0.50135297276E+02 -0.85786299589E+00  0.33517170911E+02  0.60457895330E+02  0.41800000000E+01 0.  1.
        -11    1    1    2    0    0 -0.30602192614E+02 -0.72761178881E+00  0.75897775094E+02  0.81838229917E+02  0.00000000000E+00 0. -1.
         11    1    1    2    0    0 -0.18358009066E+01  0.13586718133E+03  0.32276382686E+03  0.35019958460E+03  0.00000000000E+00 0.  1.
</event>
<event>
 7    1  0.2766180E-009  0.1095132E+03  0.7561462E-02  0.1261474E+00
         -2   -1    0    0    0  501 -0.00000000000E+00  0.00000000000E+00  0.96049370566E+01  0.96049370566E+01  0.00000000000E+00 0. -1.
          2   -1    0    0  501    0  0.00000000000E+00 -0.00000000000E+00 -0.14632379637E+04  0.14632379637E+04  0.00000000000E+00 0.  1.
         25    2    1    2    0    0 -0.27365691639E+01 -0.47563405292E+02 -0.88671867585E+03  0.89676444141E+03  0.12508671768E+03 0.  0.
          5    1    3    3  502    0 -0.23321085484E+02  0.29162894071E+02 -0.52780685671E+03  0.52914260630E+03  0.41800000000E+01 0.  1.
         -5    1    3    3    0  502  0.20584516320E+02 -0.76726299362E+02 -0.35891181915E+03  0.36762183511E+03  0.41800000000E+01 0.  1.
        -11    1    1    2    0    0 -0.16282882532E+02  0.70356805946E+02 -0.42507096102E+03  0.43116184236E+03  0.00000000000E+00 0. -1.
         11    1    1    2    0    0  0.19019451696E+02 -0.22793400654E+02 -0.14184338979E+03  0.14491661700E+03  0.00000000000E+00 0.  1.
</event>
<event>
 7    1  0.2766180E-009  0.1566683E+03  0.7561462E-02  0.1192510E+00
         -4   -1    0    0    0  501 -0.00000000000E+00  0.00000000000E+00  0.86573701463E+03  0.86573701463E+03  0.00000000000E+00 0.  1.
          4   -1    0    0  501    0  0.00000000000E+00 -0.00000000000E+00 -0.34570226295E+02  0.34570226295E+02  0.00000000000E+00 0. -1.
         25    2    1    2    0    0 -0.38713165928E+02  0.12834515780E+03  0.46748828781E+03  0.50215779343E+03  0.12508381795E+03 0.  0.
          5    1    3    3  502    0 -0.58396579873E+01 -0.82909702449E+01 -0.27852744336E+01  0.11316887676E+02  0.41800000000E+01 0.  1.
         -5    1    3    3    0  502 -0.32873507941E+02  0.13663612805E+03  0.47027356225E+03  0.49084090575E+03  0.41800000000E+01 0.  1.
        -11    1    1    2    0    0  0.66030135999E+02 -0.64401080604E+02  0.21888444566E+03  0.23752447999E+03  0.00000000000E+00 0.  1.
         11    1    1    2    0    0 -0.27316970070E+02 -0.63944077198E+02  0.14479405486E+03  0.16062496750E+03  0.00000000000E+00 0. -1.
</event>
<event>
 7    1  0.3462253E-009  0.7819633E+02  0.7561462E-02  0.1334249E+00
         -1   -1    0    0    0  501 -0.00000000000E+00  0.00000000000E+00  0.50876452133E+02  0.50876452133E+02  0.00000000000E+00 0.  1.
          1   -1    0    0  501    0  0.00000000000E+00 -0.00000000000E+00 -0.28342794975E+03  0.28342794975E+03  0.00000000000E+00 0. -1.
         25    2    1    2    0    0 -0.27531881024E+01 -0.25765811169E+02 -0.19336394298E+03  0.23175248985E+03  0.12509254588E+03 0.  0.
          5    1    3    3  502    0 -0.38368705358E+02  0.20600215049E+02 -0.18813108581E+02  0.47622808248E+02  0.41800000000E+01 0.  1.
         -5    1    3    3    0  502  0.35615517256E+02 -0.46366026218E+02 -0.17455083440E+03  0.18412968160E+03  0.41800000000E+01 0.  1.
        -11    1    1    2    0    0  0.23391372234E+02  0.34712709784E+01  0.23220400825E+02  0.33142013091E+02  0.00000000000E+00 0.  1.
         11    1    1    2    0    0 -0.20638184132E+02  0.22294540191E+02 -0.62407955456E+02  0.69409898940E+02  0.00000000000E+00 0. -1.
</event>
<event>
 7    1  0.2766180E-009  0.1016587E+03  0.7561462E-02  0.1276846E+00
          1   -1    0    0  501    0  0.00000000000E+00  0.00000000000E+00  0.67416403947E+03  0.67416403947E+03  0.00000000000E+00 0. -1.
         -1   -1    0    0    0  501 -0.00000000000E+00 -0.00000000000E+00 -0.21869900785E+02  0.21869900785E+02  0.00000000000E+00 0.  1.
         25    2    1    2    0    0  0.26315877641E+02  0.25133658265E+01  0.50916243573E+03  0.52496634318E+03  0.12507770821E+03 0.  0.
          5    1    3    3  502    0 -0.39258529261E+02 -0.17131725890E+02  0.33555564923E+03  0.33830429244E+03  0.41800000000E+01 0.  1.
         -5    1    3    3    0  502  0.65574406901E+02  0.19645091717E+02  0.17360678650E+03  0.18666205075E+03  0.41800000000E+01 0.  1.
        -11    1    1    2    0    0  0.27748057687E+02 -0.20742916782E+02  0.71833537099E+02  0.79751365846E+02  0.00000000000E+00 0.  1.
         11    1    1    2    0    0 -0.54063935328E+02  0.18229550956E+02  0.71298165853E+02  0.91316231225E+02  0.00000000000E+00 0. -1.
</event>
<event>
 7    1  0.2766180E-009  0.9611834E+02  0.7561462E-02  0.1288677E+00
         -1   -1    0    0    0  501 -0.00000000000E+00  0.00000000000E+00  0.30829715093E+02  0.30829715093E+02  0.00000000000E+00 0.  1.
          1   -1    0    0  501    0  0.00000000000E+00 -0.00000000000E+00 -0.40093617835E+03  0.40093617835E+03  0.00000000000E+00 0. -1.
         25    2    1    2    0    0  0.19205969059E+02 -0.63536484142E+01 -0.18910045660E+03  0.22763049199E+03  0.12508964825E+03 0.  0.
          5    1    3    3  502    0 -0.19842972562E+02 -0.48444808443E+02 -0.34956695185E+02  0.63087922485E+02  0.41800000000E+01 0.  1.
         -5    1    3    3    0  502  0.39048941621E+02  0.42091160029E+02 -0.15414376142E+03  0.16454256950E+03  0.41800000000E+01 0.  1.
        -11    1    1    2    0    0 -0.28808120106E+02  0.38793827139E+02 -0.15225056903E+03  0.15973448149E+03  0.00000000000E+00 0. -1.
         11    1    1    2    0    0  0.96021510477E+01 -0.32440178725E+02 -0.28755437618E+02  0.44400919957E+02  0.00000000000E+00 0.  1.
</event>
<event>
 7    1  0.2766180E-009  0.1457724E+03  0.7561462E-02  0.1205766E+00
         -1   -1    0    0    0  501 -0.00000000000E+00  0.00000000000E+00  0.45292274982E+02  0.45292274982E+02  0.00000000000E+00 0.  1.
          1   -1    0    0  501    0  0.00000000000E+00 -0.00000000000E+00 -0.59673561443E+03  0.59673561443E+03  0.00000000000E+00 0. -1.
         25    2    1    2    0    0  0.65978069623E+02  0.10373674692E+03 -0.25400682750E+03  0.30867661416E+03  0.12508942954E+03 0.  0.
          5    1    3    3  502    0 -0.25536004404E+02  0.19982421547E+02 -0.88220467960E+01  0.33862746514E+02  0.41800000000E+01 0. -1.
         -5    1    3    3    0  502  0.91514074027E+02  0.83754325373E+02 -0.24518478070E+03  0.27481386765E+03  0.41800000000E+01 0. -1.
        -11    1    1    2    0    0 -0.32184469658E+02 -0.94298036248E+02 -0.27294164130E+03  0.29055997536E+03  0.00000000000E+00 0. -1.
         11    1    1    2    0    0 -0.33793599964E+02 -0.94387106727E+01 -0.24494870647E+02  0.42791299883E+02  0.00000000000E+00 0.  1.
</event>
<event>
 7    1  0.5172595E-009  0.1331317E+03  0.7561462E-02  0.1222881E+00
         -2   -1    0    0    0  501 -0.00000000000E+00  0.00000000000E+00  0.13510956642E+03  0.13510956642E+03  0.00000000000E+00 0.  1.
          2   -1    0    0  501    0  0.00000000000E+00 -0.00000000000E+00 -0.18286756386E+03  0.18286756386E+03  0.00000000000E+00 0. -1.
         25    2    1    2    0    0 -0.10447673032E+03  0.11222838685E+01 -0.70512253679E+02  0.17758126628E+03  0.12508589655E+03 0.  0.
          5    1    3    3  502    0 -0.11261270929E+03  0.41719133620E+02 -0.42689088330E+02  0.12752230811E+03  0.41800000000E+01 0. -1.
         -5    1    3    3    0  502  0.81359789663E+01 -0.40596849752E+02 -0.27823165349E+02  0.50058958175E+02  0.41800000000E+01 0. -1.
        -11    1    1    2    0    0  0.56357899257E+02 -0.34219046987E+00 -0.34128009718E+02  0.65886652293E+02  0.00000000000E+00 0. -1.
         11    1    1    2    0    0  0.48118831061E+02 -0.78009339861E+00  0.56882265957E+02  0.74509211705E+02  0.00000000000E+00 0.  1.
</event>
<event>
 7    1  0.2766180E-009  0.1017273E+03  0.7561462E-02  0.1276705E+00
         -3   -1    0    0    0  501 -0.00000000000E+00  0.00000000000E+00  0.21460760641E+02  0.21460760641E+02  0.00000000000E+00 0.  1.
          3   -1    0    0  501    0  0.00000000000E+00 -0.00000000000E+00 -0.55596873731E+03  0.55596873731E+03  0.00000000000E+00 0. -1.
         25    2    1    2    0    0  0.43190831708E+01  0.10359051506E+02 -0.34201301453E+03  0.36434607098E+03  0.12509673420E+03 0.  0.
          5    1    3    3  502    0 -0.16630838110E+02 -0.47502728623E+02 -0.75816767298E+02  0.91097467618E+02  0.41800000000E+01 0. -1.
         -5    1    3    3    0  502  0.20949921281E+02  0.57861780129E+02 -0.26619624723E+03  0.27324860336E+03  0.41800000000E+01 0. -1.
        -11    1    1    2    0    0  0.26902706150E+02 -0.40010281087E+02 -0.10683450441E+03  0.11721002313E+03  0.00000000000E+00 0.  1.
         11    1    1    2    0    0 -0.31221789321E+02  0.29651229581E+02 -0.85660457733E+02  0.95873403836E+02  0.00000000000E+00 0. -1.
</event>
<event>
 7    1  0.2766180E-009  0.1660652E+03  0.7561462E-02  0.1182014E+00
         -2   -1    0    0    0  501 -0.00000000000E+00  0.00000000000E+00  0.87610463602E+03  0.87610463602E+03  0.00000000000E+00 0.  1.
          2   -1    0    0  501    0  0.00000000000E+00 -0.00000000000E+00 -0.41696226476E+02  0.41696226476E+02  0.00000000000E+00 0. -1.
         25    2    1    2    0    0 -0.38702039526E+02  0.13609012831E+03  0.62212713888E+03  0.65016013179E+03  0.12509056381E+03 0.  0.
          5    1    3    3  502    0 -0.12804353138E+02  0.14351461344E+03  0.59298532159E+03  0.61025360282E+03  0.41800000000E+01 0. -1.
         -5    1    3    3    0  502 -0.25897686389E+02 -0.74244851325E+01  0.29141817288E+02  0.39906528972E+02  0.41800000000E+01 0. -1.
        -11    1    1    2    0    0 -0.22903879231E+02 -0.48501913678E+02  0.92875149393E+02  0.10725118502E+03  0.00000000000E+00 0.  1.
         11    1    1    2    0    0  0.61605918757E+02 -0.87588214628E+02  0.11940612128E+03  0.16038954569E+03  0.00000000000E+00 0. -1.
</event>
<event>
 7    1  0.2766180E-009  0.1283244E+03  0.7561462E-02  0.1229963E+00
          1   -1    0    0  501    0  0.00000000000E+00  0.00000000000E+00  0.19500787396E+03  0.19500787396E+03  0.00000000000E+00 0. -1.
         -1   -1    0    0    0  501 -0.00000000000E+00 -0.00000000000E+00 -0.12852230163E+03  0.12852230163E+03  0.00000000000E+00 0.  1.
         25    2    1    2    0    0  0.76848688271E+02  0.79064882154E+02  0.54097717539E+00  0.16674470523E+03  0.12508608071E+03 0.  0.
          5    1    3    3  502    0  0.85052586893E+02  0.68366277431E+02  0.46481985808E+02  0.11868419369E+03  0.41800000000E+01 0. -1.
         -5    1    3    3    0  502 -0.82038986215E+01  0.10698604723E+02 -0.45941008633E+02  0.48060511543E+02  0.41800000000E+01 0. -1.
        -11    1    1    2    0    0 -0.81998034944E+02 -0.89689816648E+02  0.39428911877E+02  0.12775985299E+03  0.00000000000E+00 0.  1.
         11    1    1    2    0    0  0.51493466722E+01  0.10624934495E+02  0.26515683272E+02  0.29025617367E+02  0.00000000000E+00 0. -1.
</event>
<event>
 7    1  0.2766180E-009  0.1668540E+03  0.7561462E-02  0.1181169E+00
          1   -1    0    0  501    0  0.00000000000E+00  0.00000000000E+00  0.11085049088E+03  0.11085049088E+03  0.00000000000E+00 0. -1.
         -1   -1    0    0    0  501 -0.00000000000E+00 -0.00000000000E+00 -0.30118563678E+03  0.30118563678E+03  0.00000000000E+00 0.  1.
         25    2    1    2    0    0  0.58758947877E+02  0.12607222970E+03 -0.15327611284E+03  0.24184053100E+03  0.12508578902E+03 0.  0.
          5    1    3    3  502    0 -0.28453687906E+02  0.66455433301E+02 -0.99963985544E+02  0.12343503464E+03  0.41800000000E+01 0. -1.
         -5    1    3    3    0  502  0.87212635783E+02  0.59616796396E+02 -0.53312127294E+02  0.11840549636E+03  0.41800000000E+01 0. -1.
        -11    1    1    2    0    0  0.32220421494E+01 -0.75522806186E+02 -0.47890341346E+02  0.89484974181E+02  0.00000000000E+00 0.  1.
         11    1    1    2    0    0 -0.61980990026E+02 -0.50549423511E+02  0.10831308288E+02  0.80710622480E+02  0.00000000000E+00 0. -1.
</event>
<event>
 7    1  0.2766180E-009  0.1166591E+03  0.7561462E-02  0.1248712E+00
         -1   -1    0    0    0  501 -0.00000000000E+00  0.00000000000E+00  0.14012371009E+04  0.14012371009E+04  0.00000000000E+00 0.  1.
          1   -1    0    0  501    0  0.00000000000E+00 -0.00000000000E+00 -0.12978137567E+02  0.12978137567E+02  0.00000000000E+00 0. -1.
         25    2    1    2    0    0 -0.55791409170E+02  0.44134860817E+02  0.10374045433E+04  0.10473378152E+04  0.12509094833E+03 0.  0.
          5    1    3    3  502    0 -0.71432834925E+02  0.67633577843E+02  0.95638141195E+03  0.96143633605E+03  0.41800000000E+01 0. -1.
         -5    1    3    3    0  502  0.15641425755E+02 -0.23498717026E+02  0.81023131371E+02  0.85901479141E+02  0.41800000000E+01 0. -1.
        -11    1    1    2    0    0  0.16967507379E+01  0.21330918444E+02  0.53109452511E+02  0.57258195839E+02  0.00000000000E+00 0.  1.
         11    1    1    2    0    0  0.54094658432E+02 -0.65465779261E+02  0.29774496754E+03  0.30961922747E+03  0.00000000000E+00 0. -1.
</event>
<event>
 7    1  0.4778895E-009  0.1082767E+03  0.7561462E-02  0.1263795E+00
         -1   -1    0    0    0  501 -0.00000000000E+00  0.00000000000E+00  0.74709351688E+02  0.74709351688E+02  0.00000000000E+00 0.  1.
          1   -1    0    0  501    0  0.00000000000E+00 -0.00000000000E+00 -0.19252983168E+03  0.19252983168E+03  0.00000000000E+00 0. -1.
         25    2    1    2    0    0  0.25364723828E+02  0.43519977844E+02 -0.76440019707E+02  0.15501875213E+03  0.12510147566E+03 0.  0.
          5    1    3    3  502    0  0.11213259124E+02  0.87261031519E+02 -0.42981165309E+02  0.98005498689E+02  0.41800000000E+01 0.  1.
         -5    1    3    3    0  502  0.14151464704E+02 -0.43741053676E+02 -0.33458854398E+02  0.57013253437E+02  0.41800000000E+01 0.  1.
        -11    1    1    2    0    0  0.64584963266E+01 -0.49510928876E+02  0.10538729570E+02  0.51030472014E+02  0.00000000000E+00 0.  1.
         11    1    1    2    0    0 -0.31823220155E+02  0.59909510326E+01 -0.51919189859E+02  0.61189959233E+02  0.00000000000E+00 0. -1.
</event>
<event>
 7    1  0.2766180E-009  0.1672012E+03  0.7561462E-02  0.1180798E+00
          3   -1    0    0  501    0  0.00000000000E+00  0.00000000000E+00  0.28068738404E+03  0.28068738404E+03  0.00000000000E+00 0. -1.
         -3   -1    0    0    0  501 -0.00000000000E+00 -0.00000000000E+00 -0.12070866850E+03  0.12070866850E+03  0.00000000000E+00 0.  1.
         25    2    1    2    0    0 -0.14591287573E+03  0.18614057211E+02  0.80047288427E+02  0.20902591084E+03  0.12508881880E+03 0.  0.
          5    1    3    3  502    0 -0.14279609065E+03  0.52365681842E+02  0.85363136250E+02  0.17446267673E+03  0.41800000000E+01 0. -1.
         -5    1    3    3    0  502 -0.31167850761E+01 -0.33751624631E+02 -0.53158478227E+01  0.34563234115E+02  0.41800000000E+01 0. -1.
        -11    1    1    2    0    0  0.29620553447E+02  0.31466301857E+01 -0.21334163570E+02  0.36639118483E+02  0.00000000000E+00 0.  1.
         11    1    1    2    0    0  0.11629232228E+03 -0.21760687396E+02  0.10126559068E+03  0.15573102322E+03  0.00000000000E+00 0. -1.
</event>
<event>
 7    1  0.2766180E-009  0.1359543E+03  0.7561462E-02  0.1218879E+00
         -1   -1    0    0    0  501 -0.00000000000E+00  0.00000000000E+00  0.30595832196E+03  0.30595832196E+03  0.00000000000E+00 0.  1.
          1   -1    0    0  501    0  0.00000000000E+00 -0.00000000000E+00 -0.75877626760E+02  0.75877626760E+02  0.00000000000E+00 0. -1.
         25    2    1    2    0    0  0.99913081214E+02 -0.32996451570E+02  0.11911311515E+03  0.20225179395E+03  0.12508582790E+03 0.  0.
          5    1    3    3  502    0  0.88463333908E+02  0.12547031739E+02  0.18784205130E+02  0.91397528489E+02  0.41800000000E+01 0.  1.
         -5    1    3    3    0  502  0.11449747307E+02 -0.45543483309E+02  0.10032891002E+03  0.11085426546E+03  0.41800000000E+01 0.  1.
        -11    1    1    2    0    0 -0.39053390198E+02 -0.28844410825E+02  0.16404453108E+02  0.51247179469E+02  0.00000000000E+00 0.  1.
         11    1    1    2    0    0 -0.60859691016E+02  0.61840862395E+02  0.94563126946E+02  0.12833697530E+03  0.00000000000E+00 0. -1.
</event>
<event>
 7    1  0.2766180E-009  0.1358783E+03  0.7561462E-02  0.1218985E+00
          2   -1    0    0  501    0  0.00000000000E+00  0.00000000000E+00  0.55637656525E+02  0.55637656525E+02  0.00000000000E+00 0.  1.
         -2   -1    0    0    0  501 -0.00000000000E+00 -0.00000000000E+00 -0.43437316604E+03  0.43437316604E+03  0.00000000000E+00 0. -1.
         25    2    1    2    0    0 -0.66908388021E+02 -0.76635705711E+02 -0.13250004707E+03  0.20869346249E+03  0.12508770937E+03 0.  0.
          5    1    3    3  502    0 -0.13749177553E+02  0.34797832102E+02 -0.28731265506E+02  0.47359128159E+02  0.41800000000E+01 0. -1.
         -5    1    3    3    0  502 -0.53159210468E+02 -0.11143353781E+03 -0.10376878157E+03  0.16133433433E+03  0.41800000000E+01 0. -1.
        -11    1    1    2    0    0  0.31083866438E+02  0.64098900447E+01 -0.16534915897E+03  0.16836756759E+03  0.00000000000E+00 0. -1.
         11    1    1    2    0    0  0.35824521583E+02  0.70225815666E+02 -0.80886303467E+02  0.11294979248E+03  0.00000000000E+00 0.  1.
</event>
<event>
 7    1  0.2766180E-009  0.1542215E+03  0.7561462E-02  0.1195380E+00
         -2   -1    0    0    0  501 -0.00000000000E+00  0.00000000000E+00  0.15235337081E+03  0.15235337081E+03  0.00000000000E+00 0.  1.
          2   -1    0    0  501    0  0.00000000000E+00 -0.00000000000E+00 -0.23372793660E+03  0.23372793660E+03  0.00000000000E+00 0. -1.
         25    2    1    2    0    0  0.11904033910E+03 -0.55210908195E+02 -0.12533918306E+03  0.22040147532E+03  0.12509217719E+03 0.  0.
          5    1    3    3  502    0  0.82564856095E+02  0.26338434602E+02 -0.87711827019E+02  0.12337546595E+03  0.41800000000E+01 0.  1.
         -5    1    3    3    0  502  0.36475483002E+02 -0.81549342797E+02 -0.37627356044E+02  0.97026009367E+02  0.41800000000E+01 0.  1.
        -11    1    1    2    0    0 -0.82632014609E+02  0.29778714023E+02 -0.17786584303E+02  0.89616874686E+02  0.00000000000E+00 0.  1.
         11    1    1    2    0    0 -0.36408324488E+02  0.25432194171E+02  0.61751201576E+02  0.76062957400E+02  0.00000000000E+00 0. -1.
</event>
<event>
 7    1  0.2766180E-009  0.1089243E+03  0.7561462E-02  0.1262575E+00
         -2   -1    0    0    0  501 -0.00000000000E+00  0.00000000000E+00  0.34951997596E+02  0.34951997596E+02  0.00000000000E+00 0.  1.
          2   -1    0    0  501    0  0.00000000000E+00 -0.00000000000E+00 -0.43681453915E+03  0.43681453915E+03  0.00000000000E+00 0. -1.
         25    2    1    2    0    0  0.25668335570E+02  0.54949986892E+02 -0.21190171163E+03  0.25343260349E+03  0.12508950639E+03 0.  0.
          5    1    3    3  502    0  0.11056902589E+02  0.87531096466E+02 -0.19423627540E+03  0.21337561019E+03  0.41800000000E+01 0. -1.
         -5    1    3    3    0  502  0.14611432981E+02 -0.32581109574E+02 -0.17665436231E+02  0.40056993298E+02  0.41800000000E+01 0. -1.
        -11    1    1    2    0    0 -0.78983204079E+01  0.17380128645E+02 -0.62316190389E+01  0.20081967354E+02  0.00000000000E+00 0.  1.
         11    1    1    2    0    0 -0.17770015162E+02 -0.72330115537E+02 -0.18372921088E+03  0.19825196590E+03  0.00000000000E+00 0. -1.
</event>
<event>
 7    1  0.2766180E-009  0.1111433E+03  0.7561462E-02  0.1258467E+00
         -1   -1    0    0    0  501 -0.00000000000E+00  0.00000000000E+00  0.47628958175E+02  0.47628958175E+02  0.00000000000E+00 0.  1.
          1   -1    0    0  501    0  0.00000000000E+00 -0.00000000000E+00 -0.32806290767E+03  0.32806290767E+03  0.00000000000E+00 0. -1.
         25    2    1    2    0    0  0.29048887379E+02  0.47581591333E+02 -0.12344020443E+03  0.18437735631E+03  0.12509868008E+03 0.  0.
          5    1    3    3  502    0  0.46321722200E+02  0.73461260343E+02 -0.12576886906E+03  0.15289715348E+03  0.41800000000E+01 0. -1.
         -5    1    3    3    0  502 -0.17272834820E+02 -0.25879669011E+02  0.23286646272E+01  0.31480202823E+02  0.41800000000E+01 0. -1.
        -11    1    1    2    0    0 -0.29129193866E+02 -0.72963833227E+02 -0.88879225559E+02  0.11862439728E+03  0.00000000000E+00 0.  1.
         11    1    1    2    0    0  0.80306486988E-01  0.25382241895E+02 -0.68114519503E+02  0.72690112257E+02  0.00000000000E+00 0. -1.
</event>
<event>
 7    1  0.2766180E-009  0.1048780E+03  0.7561462E-02  0.1270360E+00
         -2   -1    0    0    0  501 -0.00000000000E+00  0.00000000000E+00  0.37914797445E+02  0.37914797445E+02  0.00000000000E+00 0.  1.
          2   -1    0    0  501    0  0.00000000000E+00 -0.00000000000E+00 -0.43428758623E+03  0.43428758623E+03  0.00000000000E+00 0. -1.
         25    2    1    2    0    0 -0.53267733432E+02  0.35267435965E+02 -0.26922968086E+03  0.30366588949E+03  0.12508840042E+03 0.  0.
          5    1    3    3  502    0  0.24138117077E+02 -0.23125257702E+02 -0.12761877896E+03  0.13199034579E+03  0.41800000000E+01 0. -1.
         -5    1    3    3    0  502 -0.77405850509E+02  0.58392693667E+02 -0.14161090191E+03  0.17167554370E+03  0.41800000000E+01 0. -1.
        -11    1    1    2    0    0  0.46592527958E+02 -0.36862769778E+01 -0.11032489528E+02  0.48022579321E+02  0.00000000000E+00 0.  1.
         11    1    1    2    0    0  0.66752054741E+01 -0.31581158987E+02 -0.11611061839E+03  0.12051391486E+03  0.00000000000E+00 0. -1.
</event>
<event>
 7    1  0.2766180E-009  0.1477945E+03  0.7561462E-02  0.1203210E+00
          2   -1    0    0  501    0  0.00000000000E+00  0.00000000000E+00  0.12623260758E+03  0.12623260758E+03  0.00000000000E+00 0. -1.
         -2   -1    0    0    0  501 -0.00000000000E+00 -0.00000000000E+00 -0.18856071805E+03  0.18856071805E+03  0.00000000000E+00 0.  1.
         25    2    1    2    0    0 -0.10586936830E+03 -0.27447142872E+02 -0.34623503417E+02  0.16972889307E+03  0.12508973323E+03 0.  0.
          5    1    3    3  502    0 -0.71241584361E+01 -0.57838951311E+02  0.57876337640E+01  0.58711728188E+02  0.41800000000E+01 0.  1.
         -5    1    3    3    0  502 -0.98745209860E+02  0.30391808440E+02 -0.40411137181E+02  0.11101716488E+03  0.41800000000E+01 0.  1.
        -11    1    1    2    0    0 -0.11777467674E+02 -0.31702469088E+01  0.12068004116E+02  0.17157969974E+02  0.00000000000E+00 0. -1.
         11    1    1    2    0    0  0.11764683597E+03  0.30617389780E+02 -0.39772611165E+02  0.12790646258E+03  0.00000000000E+00 0.  1.
</event>
<event>
 7    1  0.2766180E-009  0.1436843E+03  0.7561462E-02  0.1208456E+00
         -2   -1    0    0    0  501 -0.00000000000E+00  0.00000000000E+00  0.22519093642E+02  0.22519093642E+02  0.00000000000E+00 0.  1.
          2   -1    0    0  501    0  0.00000000000E+00 -0.00000000000E+00 -0.97597108803E+03  0.97597108803E+03  0.00000000000E+00 0. -1.
         25    2    1    2    0    0  0.36255005755E+02  0.95938264670E+02 -0.52927345103E+03  0.55344171985E+03  0.12509506478E+03 0.  0.
          5    1    3    3  502    0  0.81613691157E+02  0.58494170824E+02 -0.37655189533E+03  0.38973217071E+03  0.41800000000E+01 0. -1.
         -5    1    3    3    0  502 -0.45358685402E+02  0.37444093846E+02 -0.15272155570E+03  0.16370954915E+03  0.41800000000E+01 0. -1.
        -11    1    1    2    0    0 -0.28007699704E+01 -0.94372730542E+02 -0.24101031271E+03  0.25884363507E+03  0.00000000000E+00 0.  1.
         11    1    1    2    0    0 -0.33454235784E+02 -0.15655341283E+01 -0.18316823065E+03  0.18620482676E+03  0.00000000000E+00 0. -1.
</event>
<event>
 7    1  0.2766180E-009  0.1030774E+03  0.7561462E-02  0.1273954E+00
         -1   -1    0    0    0  501 -0.00000000000E+00  0.00000000000E+00  0.94745145490E+02  0.94745145490E+02  0.00000000000E+00 0.  1.
          1   -1    0    0  501    0  0.00000000000E+00 -0.00000000000E+00 -0.15272429758E+03  0.15272429758E+03  0.00000000000E+00 0. -1.
         25    2    1    2    0    0  0.50453964627E+02 -0.10794689847E+02 -0.47102094846E+02  0.14327781068E+03  0.12509115004E+03 0.  0.
          5    1    3    3  502    0 -0.33944446004E+02  0.13405839425E+02 -0.41174363146E+02  0.55179185620E+02  0.41800000000E+01 0. -1.
         -5    1    3    3    0  502  0.84398410632E+02 -0.24200529272E+02 -0.59277316999E+01  0.88098625059E+02  0.41800000000E+01 0. -1.
        -11    1    1    2    0    0  0.12278811164E+02  0.14105800086E+02 -0.32715804615E+02  0.37683771989E+02  0.00000000000E+00 0. -1.
         11    1    1    2    0    0 -0.62732775791E+02 -0.33111102390E+01  0.21838747366E+02  0.66507860407E+02  0.00000000000E+00 0.  1.
</event>
<event>
 7    1  0.2766180E-009  0.1097468E+03  0.7561462E-02  0.1261039E+00
         -1   -1    0    0    0  501 -0.00000000000E+00  0.00000000000E+00  0.18207849945E+02  0.18207849945E+02  0.00000000000E+00 0.  1.
          1   -1    0    0  501    0  0.00000000000E+00 -0.00000000000E+00 -0.73718822917E+03  0.73718822917E+03  0.00000000000E+00 0. -1.
         25    2    1    2    0    0 -0.13832359611E+02  0.26654072448E+02 -0.49342071926E+03  0.50991535923E+03  0.12509154103E+03 0.  0.
          5    1    3    3  502    0  0.46815158771E+02  0.38492159758E+02 -0.16784567934E+03  0.17850196057E+03  0.41800000000E+01 0. -1.
         -5    1    3    3    0  502 -0.60647518381E+02 -0.11838087310E+02 -0.32557503992E+03  0.33141339866E+03  0.41800000000E+01 0. -1.
        -11    1    1    2    0    0  0.34475548692E+02 -0.53068974040E+02 -0.14327676167E+03  0.15663048841E+03  0.00000000000E+00 0. -1.
         11    1    1    2    0    0 -0.20643189081E+02  0.26414901592E+02 -0.82282898299E+02  0.88850231480E+02  0.00000000000E+00 0.  1.
</event>
<event>
 7    1  0.2766180E-009  0.1091512E+03  0.7561462E-02  0.1262150E+00
          2   -1    0    0  501    0  0.00000000000E+00  0.00000000000E+00  0.43390348384E+03  0.43390348384E+03  0.00000000000E+00 0. -1.
         -2   -1    0    0    0  501 -0.00000000000E+00 -0.00000000000E+00 -0.33596513102E+02  0.33596513102E+02  0.00000000000E+00 0.  1.
         25    2    1    2    0    0  0.20043039489E+02 -0.49824729152E+02  0.24919227085E+03  0.28395165979E+03  0.12509008826E+03 0.  0.
          5    1    3    3  502    0 -0.28076933806E+02  0.21699142787E+02  0.14151035261E+03  0.14595142790E+03  0.41800000000E+01 0. -1.
         -5    1    3    3    0  502  0.48119973295E+02 -0.71523871940E+02  0.10768191824E+03  0.13800023189E+03  0.41800000000E+01 0. -1.
        -11    1    1    2    0    0  0.25469622205E+02 -0.39970210961E+01  0.13902631073E+02  0.29290971026E+02  0.00000000000E+00 0.  1.
         11    1    1    2    0    0 -0.45512661694E+02  0.53821750249E+02  0.13721206881E+03  0.15425736612E+03  0.00000000000E+00 0. -1.
</event>
<event>
 7    1  0.2766180E-009  0.1014848E+03  0.7561462E-02  0.1277204E+00
         -2   -1    0    0    0  501 -0.00000000000E+00  0.00000000000E+00  0.52190045015E+02  0.52190045015E+02  0.00000000000E+00 0.  1.
          2   -1    0    0  501    0  0.00000000000E+00 -0.00000000000E+00 -0.38868521051E+03  0.38868521051E+03  0.00000000000E+00 0. -1.
         25    2    1    2    0    0  0.83123779691E+02  0.24800589852E+02 -0.22687574079E+03  0.27321152511E+03  0.12508918294E+03 0.  0.
          5    1    3    3  502    0  0.12554705892E+02 -0.25910251346E+02 -0.16224196514E+03  0.16482988023E+03  0.41800000000E+01 0.  1.
         -5    1    3    3    0  502  0.70569073800E+02  0.50710841198E+02 -0.64633775643E+02  0.10838164488E+03  0.41800000000E+01 0.  1.
        -11    1    1    2    0    0 -0.61846160949E+02 -0.20605742675E+02 -0.10291639688E+02  0.65995924895E+02  0.00000000000E+00 0.  1.
         11    1    1    2    0    0 -0.21277618743E+02 -0.41948471764E+01 -0.99327785026E+02  0.10166780553E+03  0.00000000000E+00 0. -1.
</event>
<event>
 7    1  0.2766180E-009  0.1731337E+03  0.7561462E-02  0.1174619E+00
         -2   -1    0    0    0  501 -0.00000000000E+00  0.00000000000E+00  0.25212248464E+03  0.25212248464E+03  0.00000000000E+00 0.  1.
          2   -1    0    0  501    0  0.00000000000E+00 -0.00000000000E+00 -0.13012169096E+03  0.13012169096E+03  0.00000000000E+00 0. -1.
         25    2    1    2    0    0 -0.12418497100E+03 -0.55545766682E+02  0.11591001778E+03  0.21814833586E+03  0.12508527091E+03 0.  0.
          5    1    3    3  502    0  0.19458959708E+02  0.14786510187E+02  0.14477633690E+02  0.28711779354E+02  0.41800000000E+01 0. -1.
         -5    1    3    3    0  502 -0.14364393071E+03 -0.70332276868E+02  0.10143238409E+03  0.18943655651E+03  0.41800000000E+01 0. -1.
        -11    1    1    2    0    0  0.12887406417E+03  0.25881018172E+02 -0.63211826306E+01  0.13159904585E+03  0.00000000000E+00 0. -1.
         11    1    1    2    0    0 -0.46890931692E+01  0.29664748510E+02  0.12411958533E+02  0.32496793896E+02  0.00000000000E+00 0.  1.
</event>
<event>
 7    1  0.2766180E-009  0.1028159E+03  0.7561462E-02  0.1274483E+00
         -3   -1    0    0    0  501 -0.00000000000E+00  0.00000000000E+00  0.10678329379E+03  0.10678329379E+03  0.00000000000E+00 0.  1.
          3   -1    0    0  501    0  0.00000000000E+00 -0.00000000000E+00 -0.17012955600E+03  0.17012955600E+03  0.00000000000E+00 0. -1.
         25    2    1    2    0    0  0.36015265716E+02 -0.22502311407E+01  0.35515591719E+02  0.13495028417E+03  0.12509220214E+03 0.  0.
          5    1    3    3  502    0  0.59683974234E-02  0.56777753028E+02 -0.37736655474E+00  0.56932662682E+02  0.41800000000E+01 0. -1.
         -5    1    3    3    0  502  0.36009297319E+02 -0.59027984169E+02  0.35892958274E+02  0.78017621484E+02  0.41800000000E+01 0. -1.
        -11    1    1    2    0    0 -0.56578366301E+02 -0.67567700058E+01 -0.20672843168E+02  0.60614618030E+02  0.00000000000E+00 0.  1.
         11    1    1    2    0    0  0.20563100585E+02  0.90070011465E+01 -0.78189010755E+02  0.81347947596E+02  0.00000000000E+00 0. -1.
</event>
<event>
 7    1  0.2766180E-009  0.1571510E+03  0.7561462E-02  0.1191951E+00
          1   -1    0    0  501    0  0.00000000000E+00  0.00000000000E+00  0.78778154502E+03  0.78778154502E+03  0.00000000000E+00 0. -1.
         -1   -1    0    0    0  501 -0.00000000000E+00 -0.00000000000E+00 -0.37279500766E+02  0.37279500766E+02  0.00000000000E+00 0.  1.
         25    2    1    2    0    0 -0.12278811139E+03  0.36903126091E+02  0.31717213866E+03  0.36425767502E+03  0.12508687883E+03 0.  0.
          5    1    3    3  502    0 -0.72077563888E+02  0.67209248157E+02  0.27329453930E+03  0.29055057368E+03  0.41800000000E+01 0. -1.
         -5    1    3    3    0  502 -0.50710547503E+02 -0.30306122065E+02  0.43877599365E+02  0.73707101345E+02  0.41800000000E+01 0. -1.
        -11    1    1    2    0    0  0.27712496545E+02 -0.53191528030E+02  0.15261674383E+03  0.16397924142E+03  0.00000000000E+00 0. -1.
         11    1    1    2    0    0  0.95075614846E+02  0.16288401939E+02  0.28071316176E+03  0.29682412935E+03  0.00000000000E+00 0.  1.
</event>
<event>
 7    1  0.2766180E-009  0.1256671E+03  0.7561462E-02  0.1234030E+00
         -2   -1    0    0    0  501 -0.00000000000E+00  0.00000000000E+00  0.26580396609E+02  0.26580396609E+02  0.00000000000E+00 0.  1.
          2   -1    0    0  501    0  0.00000000000E+00 -0.00000000000E+00 -0.82064998340E+03  0.82064998340E+03  0.00000000000E+00 0. -1.
         25    2    1    2    0    0 -0.53155927588E+02  0.48859013309E+02 -0.23240048244E+03  0.27362345302E+03  0.12508818483E+03 0.  0.
          5    1    3    3  502    0  0.37868831196E+02  0.18379068048E+01 -0.38017444630E+02  0.53853735003E+02  0.41800000000E+01 0.  1.
         -5    1    3    3    0  502 -0.91024758785E+02  0.47021106504E+02 -0.19438303781E+03  0.21976971801E+03  0.41800000000E+01 0.  1.
        -11    1    1    2    0    0  0.75752731887E+02 -0.30995554858E+02 -0.48178902267E+03  0.48869199213E+03  0.00000000000E+00 0.  1.
         11    1    1    2    0    0 -0.22596804298E+02 -0.17863458451E+02 -0.79880081683E+02  0.84914934858E+02  0.00000000000E+00 0. -1.
</event>
<event>
 7    1  0.2766180E-009  0.2304744E+03  0.7561462E-02  0.1126306E+00
          1   -1    0    0  501    0  0.00000000000E+00  0.00000000000E+00  0.65490116561E+03  0.65490116561E+03  0.00000000000E+00 0. -1.
         -1   -1    0    0    0  501 -0.00000000000E+00 -0.00000000000E+00 -0.91305925134E+02  0.91305925134E+02  0.00000000000E+00 0.  1.
         25    2    1    2    0    0  0.17742373238E+03  0.12695580480E+03  0.25883260355E+03  0.36088587215E+03  0.12508932357E+03 0.  0.
          5    1    3    3  502    0  0.13664438364E+03  0.12842686983E+03  0.25909725732E+03  0.31986561182E+03  0.41800000000E+01 0.  1.
         -5    1    3    3    0  502  0.40779348743E+02 -0.14710650316E+01 -0.26465376189E+00  0.41020260334E+02  0.41800000000E+01 0.  1.
        -11    1    1    2    0    0 -0.14171499478E+03 -0.54969268156E+02  0.22916666774E+03  0.27499476684E+03  0.00000000000E+00 0. -1.
         11    1    1    2    0    0 -0.35708737604E+02 -0.71986536642E+02  0.75595969176E+02  0.11032645174E+03  0.00000000000E+00 0.  1.
</event>
<event>
 7    1  0.2766180E-009  0.1246883E+03  0.7561462E-02  0.1235557E+00
          2   -1    0    0  501    0  0.00000000000E+00  0.00000000000E+00  0.74988569964E+03  0.74988569964E+03  0.00000000000E+00 0.  1.
         -2   -1    0    0    0  501 -0.00000000000E+00 -0.00000000000E+00 -0.34340581528E+02  0.34340581528E+02  0.00000000000E+00 0. -1.
         25    2    1    2    0    0  0.10100620725E+03  0.38312563284E+02  0.49999824261E+03  0.52660950212E+03  0.12509683728E+03 0.  0.
          5    1    3    3  502    0  0.22172839353E+02  0.12211012186E+02  0.37859099593E+03  0.37945929718E+03  0.41800000000E+01 0.  1.
         -5    1    3    3    0  502  0.78833367901E+02  0.26101551098E+02  0.12140724668E+03  0.14715020493E+03  0.41800000000E+01 0.  1.
        -11    1    1    2    0    0 -0.11180899020E+03 -0.51856528161E+02  0.18112917044E+03  0.21908474658E+03  0.00000000000E+00 0.  1.
         11    1    1    2    0    0  0.10802782948E+02  0.13543964877E+02  0.34417705065E+02  0.38532032466E+02  0.00000000000E+00 0. -1.
</event>
<event>
 7    1  0.2766180E-009  0.2531500E+03  0.7561462E-02  0.1111330E+00
          1   -1    0    0  501    0  0.00000000000E+00  0.00000000000E+00  0.25992637703E+03  0.25992637703E+03  0.00000000000E+00 0. -1.
         -1   -1    0    0    0  501 -0.00000000000E+00 -0.00000000000E+00 -0.26051225356E+03  0.26051225356E+03  0.00000000000E+00 0.  1.
         25    2    1    2    0    0 -0.16035092009E+03  0.16678295588E+03  0.47028744354E+02  0.26718749676E+03  0.12509389947E+03 0.  0.
          5    1    3    3  502    0 -0.12195585782E+03  0.45421843041E+02  0.50818818792E+02  0.13977267196E+03  0.41800000000E+01 0. -1.
         -5    1    3    3    0  502 -0.38395062270E+02  0.12136111283E+03 -0.37900744389E+01  0.12741482480E+03  0.41800000000E+01 0. -1.
        -11    1    1    2    0    0  0.40612040307E+02 -0.10792185360E+03 -0.21902304815E+02  0.11737195261E+03  0.00000000000E+00 0. -1.
         11    1    1    2    0    0  0.11973887978E+03 -0.58861102276E+02 -0.25712316063E+02  0.13587918122E+03  0.00000000000E+00 0.  1.
</event>
<event>
 7    1  0.2766180E-009  0.1689407E+03  0.7561462E-02  0.1178957E+00
         -2   -1    0    0    0  501 -0.00000000000E+00  0.00000000000E+00  0.24210179795E+03  0.24210179795E+03  0.00000000000E+00 0. -1.
          2   -1    0    0  501    0  0.00000000000E+00 -0.00000000000E+00 -0.40038062638E+03  0.40038062638E+03  0.00000000000E+00 0.  1.
         25    2    1    2    0    0  0.49155507742E+00  0.15462970805E+03  0.17427749326E+03  0.26444301072E+03  0.12508746150E+03 0.  0.
          5    1    3    3  502    0  0.23191708260E+02  0.55644917134E+02  0.14740429589E+03  0.15931010948E+03  0.41800000000E+01 0. -1.
         -5    1    3    3    0  502 -0.22700153183E+02  0.98984790912E+02  0.26873197369E+02  0.10513290124E+03  0.41800000000E+01 0. -1.
        -11    1    1    2    0    0  0.23113036452E+02 -0.41383772753E+01 -0.22197469007E+02  0.32312014032E+02  0.00000000000E+00 0. -1.
         11    1    1    2    0    0 -0.23604591529E+02 -0.15049133077E+03 -0.31035885268E+03  0.34572739958E+03  0.00000000000E+00 0.  1.
</event>
<event>
 7    1  0.2766180E-009  0.1315468E+03  0.7561462E-02  0.1225178E+00
          2   -1    0    0  501    0  0.00000000000E+00  0.00000000000E+00  0.87867275388E+03  0.87867275388E+03  0.00000000000E+00 0. -1.
         -2   -1    0    0    0  501 -0.00000000000E+00 -0.00000000000E+00 -0.33523301150E+02  0.33523301150E+02  0.00000000000E+00 0.  1.
         25    2    1    2    0    0 -0.48757330396E+02 -0.67077150515E+02  0.72468181460E+03  0.74005918126E+03  0.12508892018E+03 0.  0.
          5    1    3    3  502    0 -0.72568542541E+02 -0.90616962053E+02  0.57576543579E+03  0.58736780353E+03  0.41800000000E+01 0.  1.
         -5    1    3    3    0  502  0.23811212145E+02  0.23539811538E+02  0.14891637882E+03  0.15269137772E+03  0.41800000000E+01 0.  1.
        -11    1    1    2    0    0  0.60895276892E+02  0.19289497761E+02  0.33410752977E+02  0.72087432235E+02  0.00000000000E+00 0.  1.
         11    1    1    2    0    0 -0.12137946496E+02  0.47787652754E+02  0.87056885147E+02  0.10004944154E+03  0.00000000000E+00 0. -1.
</event>
<event>
 7    1  0.2766180E-009  0.2006258E+03  0.7561462E-02  0.1149212E+00
          4   -1    0    0  501    0  0.00000000000E+00  0.00000000000E+00  0.58974602094E+02  0.58974602094E+02  0.00000000000E+00 0. -1.
         -4   -1    0    0    0  501 -0.00000000000E+00 -0.00000000000E+00 -0.78725557978E+03  0.78725557978E+03  0.00000000000E+00 0.  1.
         25    2    1    2    0    0  0.16586776205E+03  0.70333677918E+02 -0.46676271470E+03  0.51572684361E+03  0.12509118536E+03 0.  0.
          5    1    3    3  502    0  0.15332583734E+03  0.97689261757E+02 -0.43640142382E+03  0.47277444873E+03  0.41800000000E+01 0. -1.
         -5    1    3    3    0  502  0.12541924707E+02 -0.27355583839E+02 -0.30361290875E+02  0.42952394882E+02  0.41800000000E+01 0. -1.
        -11    1    1    2    0    0 -0.75447778659E+02 -0.16417084781E+01 -0.16512904725E+03  0.18155623029E+03  0.00000000000E+00 0.  1.
         11    1    1    2    0    0 -0.90419983391E+02 -0.68691969440E+02 -0.96389215739E+02  0.14894710797E+03  0.00000000000E+00 0. -1.
</event>
<event>
 7    1  0.2766180E-009  0.7440045E+02  0.7561462E-02  0.1345738E+00
          1   -1    0    0  501    0  0.00000000000E+00  0.00000000000E+00  0.21687659155E+03  0.21687659155E+03  0.00000000000E+00 0. -1.
         -1   -1    0    0    0  501 -0.00000000000E+00 -0.00000000000E+00 -0.64666845713E+02  0.64666845713E+02  0.00000000000E+00 0.  1.
         25    2    1    2    0    0 -0.25988478127E+02  0.37645871926E+02  0.56514785633E+02  0.14468244421E+03  0.12508587449E+03 0.  0.
          5    1    3    3  502    0 -0.24208477472E+02  0.39131573802E+02 -0.31895015538E+02  0.56143520248E+02  0.41800000000E+01 0.  1.
         -5    1    3    3    0  502 -0.17800006554E+01 -0.14857018755E+01  0.88409801171E+02  0.88538923957E+02  0.41800000000E+01 0.  1.
        -11    1    1    2    0    0 -0.21817748714E+01  0.27110764628E+02  0.25185306529E+02  0.37068225818E+02  0.00000000000E+00 0. -1.
         11    1    1    2    0    0  0.28170252999E+02 -0.64756636554E+02  0.70509653670E+02  0.99792767235E+02  0.00000000000E+00 0.  1.
</event>
<event>
 7    1  0.2766180E-009  0.1213457E+03  0.7561462E-02  0.1240893E+00
          2   -1    0    0  501    0  0.00000000000E+00  0.00000000000E+00  0.71393581270E+03  0.71393581270E+03  0.00000000000E+00 0. -1.
         -2   -1    0    0    0  501 -0.00000000000E+00 -0.00000000000E+00 -0.26974494431E+02  0.26974494431E+02  0.00000000000E+00 0.  1.
         25    2    1    2    0    0 -0.50704222493E+02  0.58624720409E+02  0.26795473965E+03  0.30570544505E+03  0.12509316772E+03 0.  0.
          5    1    3    3  502    0  0.31005291731E+02  0.31152237752E+02  0.16772266491E+03  0.17343631326E+03  0.41800000000E+01 0.  1.
         -5    1    3    3    0  502 -0.81709514224E+02  0.27472482658E+02  0.10023207474E+03  0.13226913179E+03  0.41800000000E+01 0.  1.
        -11    1    1    2    0    0 -0.73225462535E+01 -0.53482266574E+02  0.13714427660E+03  0.14738563406E+03  0.00000000000E+00 0.  1.
         11    1    1    2    0    0  0.58026768747E+02 -0.51424538349E+01  0.28186230202E+03  0.28781922803E+03  0.00000000000E+00 0. -1.
</event>
<event>
 7    1  0.2766180E-009  0.1139001E+03  0.7561462E-02  0.1253513E+00
          2   -1    0    0  501    0  0.00000000000E+00  0.00000000000E+00  0.31762527407E+03  0.31762527407E+03  0.00000000000E+00 0.  1.
         -2   -1    0    0    0  501 -0.00000000000E+00 -0.00000000000E+00 -0.48348925274E+02  0.48348925274E+02  0.00000000000E+00 0. -1.
         25    2    1    2    0    0 -0.11761426736E+01 -0.61981680514E+02  0.13367532485E+03  0.19328765523E+03  0.12509161906E+03 0.  0.
          5    1    3    3  502    0 -0.33023772431E+02 -0.78442851830E+02  0.42490879810E+02  0.95219734382E+02  0.41800000000E+01 0. -1.
         -5    1    3    3    0  502  0.31847629757E+02  0.16461171316E+02  0.91184445044E+02  0.98067920852E+02  0.41800000000E+01 0. -1.
        -11    1    1    2    0    0  0.16942744180E+02 -0.18148043412E+02  0.25341213492E+02  0.35476543818E+02  0.00000000000E+00 0. -1.
         11    1    1    2    0    0 -0.15766601507E+02  0.80129723926E+02  0.11025981045E+03  0.13721000030E+03  0.00000000000E+00 0.  1.
</event>
<event>
 7    1  0.2766180E-009  0.1263862E+03  0.7561462E-02  0.1232919E+00
         -2   -1    0    0    0  501 -0.00000000000E+00  0.00000000000E+00  0.20529997814E+03  0.20529997814E+03  0.00000000000E+00 0.  1.
          2   -1    0    0  501    0  0.00000000000E+00 -0.00000000000E+00 -0.11287566389E+03  0.11287566389E+03  0.00000000000E+00 0. -1.
         25    2    1    2    0    0  0.36376325125E+02  0.43370999002E+02  0.13578357975E+03  0.19310354567E+03  0.12509004051E+03 0.  0.
          5    1    3    3  502    0  0.80277191720E+02  0.11399975610E+02  0.66342403435E+02  0.10484833736E+03  0.41800000000E+01 0. -1.
         -5    1    3    3    0  502 -0.43900866595E+02  0.31971023392E+02  0.69441176318E+02  0.88255208305E+02  0.41800000000E+01 0. -1.
        -11    1    1    2    0    0  0.30235479610E+02 -0.40364786812E+02 -0.22325231682E+02  0.55153569343E+02  0.00000000000E+00 0.  1.
         11    1    1    2    0    0 -0.66611804735E+02 -0.30062121901E+01 -0.21034033824E+02  0.69918527020E+02  0.00000000000E+00 0. -1.
</event>
<event>
 7    1  0.2766180E-009  0.1221870E+03  0.7561462E-02  0.1239532E+00
          1   -1    0    0  501    0  0.00000000000E+00  0.00000000000E+00  0.68564467671E+03  0.68564467671E+03  0.00000000000E+00 0. -1.
         -1   -1    0    0    0  501 -0.00000000000E+00 -0.00000000000E+00 -0.29804036422E+02  0.29804036422E+02  0.00000000000E+00 0.  1.
         25    2    1    2    0    0  0.54264884491E+02 -0.77688859816E+02  0.35265598254E+03  0.38599642425E+03  0.12508701324E+03 0.  0.
          5    1    3    3  502    0 -0.51307146593E+01 -0.66183172539E+02  0.68645518884E+02  0.95583556238E+02  0.41800000000E+01 0. -1.
         -5    1    3    3    0  502  0.59395599150E+02 -0.11505687276E+02  0.28401046366E+03  0.29041286801E+03  0.41800000000E+01 0. -1.
        -11    1    1    2    0    0  0.85459286820E+01  0.46145943767E+02  0.59200048630E+02  0.75545527869E+02  0.00000000000E+00 0.  1.
         11    1    1    2    0    0 -0.62810813173E+02  0.31542916049E+02  0.24398460912E+03  0.25390676102E+03  0.00000000000E+00 0. -1.
</event>
<event>
 7    1  0.2766180E-009  0.1133206E+03  0.7561462E-02  0.1254541E+00
         -1   -1    0    0    0  501 -0.00000000000E+00  0.00000000000E+00  0.52792342448E+03  0.52792342448E+03  0.00000000000E+00 0.  1.
          1   -1    0    0  501    0  0.00000000000E+00 -0.00000000000E+00 -0.70224686882E+02  0.70224686882E+02  0.00000000000E+00 0. -1.
         25    2    1    2    0    0 -0.54726636405E+02  0.57706476519E+02  0.45299899275E+03  0.47663505308E+03  0.12509134355E+03 0.  0.
          5    1    3    3  502    0  0.33013194666E+02  0.48152740304E+02  0.14998814275E+03  0.16100457381E+03  0.41800000000E+01 0.  1.
         -5    1    3    3    0  502 -0.87739831071E+02  0.95537362150E+01  0.30301085000E+03  0.31563047928E+03  0.41800000000E+01 0.  1.
        -11    1    1    2    0    0  0.15018181214E+02 -0.19832320873E+02 -0.42425029398E+02  0.49180787281E+02  0.00000000000E+00 0. -1.
         11    1    1    2    0    0  0.39708455191E+02 -0.37874155645E+02  0.47124774246E+02  0.72332270995E+02  0.00000000000E+00 0.  1.
</event>
<event>
 7    1  0.2766180E-009  0.1153212E+03  0.7561462E-02  0.1251021E+00
          3   -1    0    0  501    0  0.00000000000E+00  0.00000000000E+00  0.44772705637E+03  0.44772705637E+03  0.00000000000E+00 0. -1.
         -3   -1    0    0    0  501 -0.00000000000E+00 -0.00000000000E+00 -0.35677773841E+02  0.35677773841E+02  0.00000000000E+00 0.  1.
         25    2    1    2    0    0  0.15511756317E+01  0.58284442607E+02  0.17433284321E+03  0.22235035590E+03  0.12509299801E+03 0.  0.
          5    1    3    3  502    0 -0.49565338084E+02 -0.11500749779E+02  0.72476414475E+02  0.88652653880E+02  0.41800000000E+01 0.  1.
         -5    1    3    3    0  502  0.51116513715E+02  0.69785192386E+02  0.10185642873E+03  0.13369770202E+03  0.41800000000E+01 0.  1.
        -11    1    1    2    0    0  0.35411942862E+02 -0.30633728380E+02  0.53287836589E+02  0.70936764375E+02  0.00000000000E+00 0.  1.
         11    1    1    2    0    0 -0.36963118494E+02 -0.27650714227E+02  0.18442860273E+03  0.19011770994E+03  0.00000000000E+00 0. -1.
</event>
<event>
 7    1  0.2766180E-009  0.1047412E+03  0.7561462E-02  0.1270630E+00
         -2   -1    0    0    0  501 -0.00000000000E+00  0.00000000000E+00  0.66432027183E+02  0.66432027183E+02  0.00000000000E+00 0.  1.
          2   -1    0    0  501    0  0.00000000000E+00 -0.00000000000E+00 -0.19064403569E+03  0.19064403569E+03  0.00000000000E+00 0. -1.
         25    2    1    2    0    0  0.95373190608E+01  0.11631652217E+02 -0.40527909493E+02  0.13234804209E+03  0.12508891641E+03 0.  0.
          5    1    3    3  502    0 -0.53125613702E+02  0.27474282560E+02 -0.28844759730E+02  0.66533146606E+02  0.41800000000E+01 0. -1.
         -5    1    3    3    0  502  0.62662932763E+02 -0.15842630342E+02 -0.11683149763E+02  0.65814895480E+02  0.41800000000E+01 0. -1.
        -11    1    1    2    0    0 -0.35166731841E+02  0.22742905726E+02 -0.66386949783E+02  0.78493094541E+02  0.00000000000E+00 0.  1.
         11    1    1    2    0    0  0.25629412781E+02 -0.34374557943E+02 -0.17297149230E+02  0.46234926244E+02  0.00000000000E+00 0. -1.
</event>
<event>
 7    1  0.2766180E-009  0.1043389E+03  0.7561462E-02  0.1271428E+00
          1   -1    0    0  501    0  0.00000000000E+00  0.00000000000E+00  0.29053814146E+03  0.29053814146E+03  0.00000000000E+00 0. -1.
         -1   -1    0    0    0  501 -0.00000000000E+00 -0.00000000000E+00 -0.83344942258E+02  0.83344942258E+02  0.00000000000E+00 0.  1.
         25    2    1    2    0    0  0.52064008617E+02 -0.19261525765E+02 -0.52279151778E+01  0.13695552553E+03  0.12509123674E+03 0.  0.
          5    1    3    3  502    0  0.10037876574E+02 -0.60431578516E+02  0.29912621893E+02  0.68300600265E+02  0.41800000000E+01 0.  1.
         -5    1    3    3    0  502  0.42026132044E+02  0.41170052752E+02 -0.35140537071E+02  0.68654925270E+02  0.41800000000E+01 0.  1.
        -11    1    1    2    0    0 -0.28272298474E+02  0.45063966026E+02  0.58568070944E+02  0.79122075486E+02  0.00000000000E+00 0.  1.
         11    1    1    2    0    0 -0.23791710143E+02 -0.25802440262E+02  0.15385304343E+03  0.15780548269E+03  0.00000000000E+00 0. -1.
</event>
<event>
 7    1  0.2766180E-009  0.7290404E+02  0.7561462E-02  0.1350487E+00
         -1   -1    0    0    0  501 -0.00000000000E+00  0.00000000000E+00  0.79135676740E+01  0.79135676740E+01  0.00000000000E+00 0.  1.
          1   -1    0    0  501    0  0.00000000000E+00 -0.00000000000E+00 -0.17344644758E+04  0.17344644758E+04  0.00000000000E+00 0. -1.
         25    2    1    2    0    0 -0.27604586486E+02  0.96214819687E+01 -0.11971149772E+04  0.12039875645E+04  0.12508877177E+03 0.  0.
          5    1    3    3  502    0 -0.36415303741E+02  0.10783579511E+02 -0.10347849447E+03  0.11030698596E+03  0.41800000000E+01 0.  1.
         -5    1    3    3    0  502  0.88107172558E+01 -0.11620975426E+01 -0.10936364827E+04  0.10936805786E+04  0.41800000000E+01 0.  1.
        -11    1    1    2    0    0 -0.34659709550E+02  0.69229332988E+00 -0.18495068680E+03  0.18817154749E+03  0.00000000000E+00 0. -1.
         11    1    1    2    0    0  0.62264296035E+02 -0.10313775299E+02 -0.34448524410E+03  0.35021893142E+03  0.00000000000E+00 0.  1.
</event>
<event>
 7    1  0.2766180E-009  0.9067805E+02  0.7561462E-02  0.1301218E+00
          2   -1    0    0  501    0  0.00000000000E+00  0.00000000000E+00  0.77938216932E+02  0.77938216932E+02  0.00000000000E+00 0.  1.
         -2   -1    0    0    0  501 -0.00000000000E+00 -0.00000000000E+00 -0.17069004493E+03  0.17069004493E+03  0.00000000000E+00 0. -1.
         25    2    1    2    0    0 -0.33949360815E+02 -0.57593817236E+01 -0.78443570928E+02  0.15161849335E+03  0.12509613954E+03 0.  0.
          5    1    3    3  502    0 -0.76614175726E+02  0.20148682484E+02 -0.42777206513E+02  0.90128037397E+02  0.41800000000E+01 0. -1.
         -5    1    3    3    0  502  0.42664814911E+02 -0.25908064208E+02 -0.35666364415E+02  0.61490455951E+02  0.41800000000E+01 0. -1.
        -11    1    1    2    0    0  0.29843401247E+02  0.20779840625E+02 -0.47808540263E+02  0.60067353001E+02  0.00000000000E+00 0. -1.
         11    1    1    2    0    0  0.41059595674E+01 -0.15020458901E+02  0.33500283196E+02  0.36942415511E+02  0.00000000000E+00 0.  1.
</event>
<event>
 7    1  0.2766180E-009  0.9358351E+02  0.7561462E-02  0.1294399E+00
         -2   -1    0    0    0  501 -0.00000000000E+00  0.00000000000E+00  0.51835723076E+02  0.51835723076E+02  0.00000000000E+00 0.  1.
          2   -1    0    0  501    0  0.00000000000E+00 -0.00000000000E+00 -0.60485391062E+03  0.60485391062E+03  0.00000000000E+00 0. -1.
         25    2    1    2    0    0  0.28360647610E+02  0.43257493272E+02 -0.52151347098E+03  0.53879373286E+03  0.12508736585E+03 0.  0.
          5    1    3    3  502    0 -0.43549614177E+02 -0.10826814721E+02 -0.18850125010E+03  0.19381429901E+03  0.41800000000E+01 0. -1.
         -5    1    3    3    0  502  0.71910261787E+02  0.54084307993E+02 -0.33301222088E+03  0.34497943385E+03  0.41800000000E+01 0. -1.
        -11    1    1    2    0    0 -0.13626962390E+02 -0.25800125815E+02 -0.68477873102E+02  0.74434936022E+02  0.00000000000E+00 0. -1.
         11    1    1    2    0    0 -0.14733685220E+02 -0.17457367457E+02  0.36973156536E+02  0.43460964818E+02  0.00000000000E+00 0.  1.
</event>
<event>
 7    1  0.2766180E-009  0.2578187E+03  0.7561462E-02  0.1108461E+00
         -2   -1    0    0    0  501 -0.00000000000E+00  0.00000000000E+00  0.92157456398E+02  0.92157456398E+02  0.00000000000E+00 0.  1.
          2   -1    0    0  501    0  0.00000000000E+00 -0.00000000000E+00 -0.87010379898E+03  0.87010379898E+03  0.00000000000E+00 0. -1.
         25    2    1    2    0    0 -0.24117213552E+03  0.32607637998E+02 -0.55892397144E+03  0.62231067282E+03  0.12508921077E+03 0.  0.
          5    1    3    3  502    0 -0.14986745052E+03 -0.33243224401E+02 -0.39124715459E+03  0.42030604691E+03  0.41800000000E+01 0. -1.
         -5    1    3    3    0  502 -0.91304684991E+02  0.65850862399E+02 -0.16767681685E+03  0.20200462591E+03  0.41800000000E+01 0. -1.
        -11    1    1    2    0    0  0.17925053140E+03 -0.48093635270E+02 -0.11632083883E+03  0.21903033650E+03  0.00000000000E+00 0.  1.
         11    1    1    2    0    0  0.61921604119E+02  0.15485997271E+02 -0.10270153231E+03  0.12092024606E+03  0.00000000000E+00 0. -1.
</event>
<event>
 7    1  0.2766180E-009  0.1179787E+03  0.7561462E-02  0.1246469E+00
         -2   -1    0    0    0  501 -0.00000000000E+00  0.00000000000E+00  0.27235233274E+03  0.27235233274E+03  0.00000000000E+00 0.  1.
          2   -1    0    0  501    0  0.00000000000E+00 -0.00000000000E+00 -0.64574095428E+02  0.64574095428E+02  0.00000000000E+00 0. -1.
         25    2    1    2    0    0 -0.73316764624E+02 -0.75819994162E+01  0.12776172654E+03  0.19339906534E+03  0.12508918824E+03 0.  0.
          5    1    3    3  502    0 -0.60898517686E+02 -0.54576824791E+02  0.11802830483E+03  0.14365031292E+03  0.41800000000E+01 0. -1.
         -5    1    3    3    0  502 -0.12418246939E+02  0.46994825375E+02  0.97334217067E+01  0.49748752418E+02  0.41800000000E+01 0. -1.
        -11    1    1    2    0    0  0.65808416526E+02 -0.26087867356E+02  0.18774803336E+02  0.73238089470E+02  0.00000000000E+00 0. -1.
         11    1    1    2    0    0  0.75083480981E+01  0.33669866772E+02  0.61241707439E+02  0.70289273361E+02  0.00000000000E+00 0.  1.
</event>
<event>
 7    1  0.2766180E-009  0.1456462E+03  0.7561462E-02  0.1205927E+00
          1   -1    0    0  501    0  0.00000000000E+00  0.00000000000E+00  0.53517034960E+02  0.53517034960E+02  0.00000000000E+00 0. -1.
         -1   -1    0    0    0  501 -0.00000000000E+00 -0.00000000000E+00 -0.54076778982E+03  0.54076778982E+03  0.00000000000E+00 0.  1.
         25    2    1    2    0    0 -0.21801859010E+02  0.11036811076E+03 -0.40005401664E+03  0.43398455702E+03  0.12507173372E+03 0.  0.
          5    1    3    3  502    0 -0.43038965139E+02 -0.46996158529E+01 -0.58354891458E+02  0.72781897931E+02  0.41800000000E+01 0. -1.
         -5    1    3    3    0  502  0.21237106129E+02  0.11506772662E+03 -0.34169912518E+03  0.36120265909E+03  0.41800000000E+01 0. -1.
        -11    1    1    2    0    0  0.45899179509E+02 -0.70447874790E+02 -0.73561554724E+02  0.11171812778E+03  0.00000000000E+00 0.  1.
         11    1    1    2    0    0 -0.24097320499E+02 -0.39920235974E+02 -0.13635183499E+02  0.48582139975E+02  0.00000000000E+00 0. -1.
</event>
<event>
 7    1  0.2766180E-009  0.1024415E+03  0.7561462E-02  0.1275244E+00
         -2   -1    0    0    0  501 -0.00000000000E+00  0.00000000000E+00  0.56567506229E+03  0.56567506229E+03  0.00000000000E+00 0. -1.
          2   -1    0    0  501    0  0.00000000000E+00 -0.00000000000E+00 -0.29290907762E+02  0.29290907762E+02  0.00000000000E+00 0.  1.
         25    2    1    2    0    0 -0.11327614980E+01  0.54284305885E+02  0.41263696145E+03  0.43458616972E+03  0.12509119848E+03 0.  0.
          5    1    3    3  502    0 -0.28267318981E+02 -0.32996456133E+02  0.10741455449E+03  0.11594466937E+03  0.41800000000E+01 0. -1.
         -5    1    3    3    0  502  0.27134557483E+02  0.87280762018E+02  0.30522240697E+03  0.31864150035E+03  0.41800000000E+01 0. -1.
        -11    1    1    2    0    0  0.95037125384E+01  0.43896195617E+01 -0.97574064859E+01  0.14310705547E+02  0.00000000000E+00 0.  1.
         11    1    1    2    0    0 -0.83709510404E+01 -0.58673925447E+02  0.13350459956E+03  0.14606909479E+03  0.00000000000E+00 0. -1.
</event>
<event>
 7    1  0.2766180E-009  0.8880390E+02  0.7561462E-02  0.1305774E+00
          2   -1    0    0  501    0  0.00000000000E+00  0.00000000000E+00  0.44504050857E+03  0.44504050857E+03  0.00000000000E+00 0. -1.
         -2   -1    0    0    0  501 -0.00000000000E+00 -0.00000000000E+00 -0.25765576911E+02  0.25765576911E+02  0.00000000000E+00 0.  1.
         25    2    1    2    0    0  0.56407582131E+01 -0.24101403273E+01  0.23300931034E+03  0.26453400277E+03  0.12508906022E+03 0.  0.
          5    1    3    3  502    0  0.28700904353E+02 -0.56103318510E+02  0.15165810692E+03  0.16428322511E+03  0.41800000000E+01 0.  1.
         -5    1    3    3    0  502 -0.23060146139E+02  0.53693178182E+02  0.81351203421E+02  0.10025077766E+03  0.41800000000E+01 0.  1.
        -11    1    1    2    0    0  0.21019888400E+02 -0.13344673524E+02  0.92386680256E+01  0.26556901301E+02  0.00000000000E+00 0.  1.
         11    1    1    2    0    0 -0.26660646613E+02  0.15754813851E+02  0.17702695329E+03  0.17971518141E+03  0.00000000000E+00 0. -1.
</event>
<event>
 7    1  0.2766180E-009  0.9744097E+02  0.7561462E-02  0.1285771E+00
          2   -1    0    0  501    0  0.00000000000E+00  0.00000000000E+00  0.38223624231E+02  0.38223624231E+02  0.00000000000E+00 0.  1.
         -2   -1    0    0    0  501 -0.00000000000E+00 -0.00000000000E+00 -0.45630097606E+03  0.45630097606E+03  0.00000000000E+00 0. -1.
         25    2    1    2    0    0  0.46541528941E+02 -0.42790429625E+02 -0.30666214649E+03  0.33717450135E+03  0.12509131659E+03 0.  0.
          5    1    3    3  502    0 -0.64032898441E+01 -0.61383220278E+02 -0.24914808630E+03  0.25671217961E+03  0.41800000000E+01 0.  1.
         -5    1    3    3    0  502  0.52944818785E+02  0.18592790652E+02 -0.57514060192E+02  0.80462321742E+02  0.41800000000E+01 0.  1.
        -11    1    1    2    0    0 -0.53530995818E+02  0.28036852537E+02 -0.18768898927E+02  0.63276410931E+02  0.00000000000E+00 0.  1.
         11    1    1    2    0    0  0.69894668771E+01  0.14753577089E+02 -0.92646306410E+02  0.94073688009E+02  0.00000000000E+00 0. -1.
</event>
<event>
 7    1  0.2766180E-009  0.1629099E+03  0.7561462E-02  0.1185450E+00
         -1   -1    0    0    0  501 -0.00000000000E+00  0.00000000000E+00  0.19686123772E+02  0.19686123772E+02  0.00000000000E+00 0.  1.
          1   -1    0    0  501    0  0.00000000000E+00 -0.00000000000E+00 -0.18336991185E+04  0.18336991185E+04  0.00000000000E+00 0. -1.
         25    2    1    2    0    0 -0.15292885488E+00  0.15549785109E+03 -0.95263788985E+03  0.97331673031E+03  0.12508758234E+03 0.  0.
          5    1    3    3  502    0  0.46548049147E+01  0.10543643112E+03 -0.87071447374E+03  0.87709730098E+03  0.41800000000E+01 0. -1.
         -5    1    3    3    0  502 -0.48077337696E+01  0.50061419972E+02 -0.81923416107E+02  0.96219429328E+02  0.41800000000E+01 0. -1.
        -11    1    1    2    0    0 -0.29658370148E+02 -0.36361083498E+02 -0.12488242154E+03  0.13340677090E+03  0.00000000000E+00 0.  1.
         11    1    1    2    0    0  0.29811299003E+02 -0.11913676759E+03 -0.73649268336E+03  0.74666174107E+03  0.00000000000E+00 0. -1.
</event>
<event>
 6    1  0.2766180E-009  0.1238531E+03  0.7561462E-02  0.1236873E+00
         -3   -1    0    0    0  501 -0.00000000000E+00  0.00000000000E+00  0.54155695010E+03  0.54155695010E+03  0.00000000000E+00 0.  1.
          3   -1    0    0  501    0  0.00000000000E+00 -0.00000000000E+00 -0.39754443282E+02  0.39754443282E+02  0.00000000000E+00 0. -1.
          5    1    1    2  502    0  0.43113617935E+02 -0.92732425831E+02  0.12557220662E+03  0.16199980965E+03  0.41800000000E+01 0. -1.
         -5    1    1    2    0  502 -0.12678139529E+02  0.27049649396E+01  0.19051307111E+03  0.19099935791E+03  0.41800000000E+01 0. -1.
        -11    1    1    2    0    0 -0.12900335796E+02 -0.18082481345E+02  0.43161968310E+02  0.48542252767E+02  0.00000000000E+00 0.  1.
         11    1    1    2    0    0 -0.17535142609E+02  0.10810994224E+03  0.14255526077E+03  0.17976997305E+03  0.00000000000E+00 0. -1.
</event>
<event>
 7    1  0.2766180E-009  0.9753884E+02  0.7561462E-02  0.1285558E+00
         -3   -1    0    0    0  501 -0.00000000000E+00  0.00000000000E+00  0.40175758127E+03  0.40175758127E+03  0.00000000000E+00 0.  1.
          3   -1    0    0  501    0  0.00000000000E+00 -0.00000000000E+00 -0.41675690511E+02  0.41675690511E+02  0.00000000000E+00 0. -1.
         25    2    1    2    0    0 -0.19194577759E+02  0.59048659224E+02  0.14820811640E+03  0.20363752392E+03  0.12508964548E+03 0.  0.
          5    1    3    3  502    0  0.26673093335E+02  0.26342916958E+02 -0.70928235966E+01  0.38382075614E+02  0.41800000000E+01 0. -1.
         -5    1    3    3    0  502 -0.45867671094E+02  0.32705742266E+02  0.15530094000E+03  0.16525544830E+03  0.41800000000E+01 0. -1.
        -11    1    1    2    0    0 -0.31127661653E+02 -0.18237285492E+02  0.30652090140E+02  0.47340052092E+02  0.00000000000E+00 0. -1.
         11    1    1    2    0    0  0.50322239412E+02 -0.40811373731E+02  0.18122168422E+03  0.19245569578E+03  0.00000000000E+00 0.  1.
</event>
<event>
 7    1  0.2766180E-009  0.1483180E+03  0.7561462E-02  0.1202555E+00
          2   -1    0    0  501    0  0.00000000000E+00  0.00000000000E+00  0.74954418508E+03  0.74954418508E+03  0.00000000000E+00 0. -1.
         -2   -1    0    0    0  501 -0.00000000000E+00 -0.00000000000E+00 -0.33901967713E+02  0.33901967713E+02  0.00000000000E+00 0.  1.
         25    2    1    2    0    0 -0.17832128828E+01  0.11310649260E+03  0.45278188713E+03  0.48317195910E+03  0.12508975269E+03 0.  0.
          5    1    3    3  502    0 -0.50950043906E+02  0.32097358814E+02  0.91283982505E+02  0.10943667246E+03  0.41800000000E+01 0.  1.
         -5    1    3    3    0  502  0.49166831023E+02  0.81009133789E+02  0.36149790463E+03  0.37373528664E+03  0.41800000000E+01 0.  1.
        -11    1    1    2    0    0  0.41781883131E+02 -0.76656539085E+02  0.19364034155E+03  0.21241123468E+03  0.00000000000E+00 0.  1.
         11    1    1    2    0    0 -0.39998670248E+02 -0.36449953518E+02  0.69219988680E+02  0.87862959010E+02  0.00000000000E+00 0. -1.
</event>
<event>
 7    1  0.2766180E-009  0.1310267E+03  0.7561462E-02  0.1225940E+00
         -2   -1    0    0    0  501 -0.00000000000E+00  0.00000000000E+00  0.63915728221E+02  0.63915728221E+02  0.00000000000E+00 0.  1.
          2   -1    0    0  501    0  0.00000000000E+00 -0.00000000000E+00 -0.33937612368E+03  0.33937612368E+03  0.00000000000E+00 0. -1.
         25    2    1    2    0    0  0.90414204413E+02 -0.33819250109E+02 -0.11725479647E+03  0.19674938502E+03  0.12507263160E+03 0.  0.
          5    1    3    3  502    0  0.58247436758E+02 -0.81159176191E+02 -0.65985113285E+02  0.11979600721E+03  0.41800000000E+01 0.  1.
         -5    1    3    3    0  502  0.32166767655E+02  0.47339926083E+02 -0.51269683183E+02  0.76953377811E+02  0.41800000000E+01 0.  1.
        -11    1    1    2    0    0 -0.89136241704E+01  0.20162012421E+02 -0.10717556518E+03  0.10941919947E+03  0.00000000000E+00 0. -1.
         11    1    1    2    0    0 -0.81500580243E+02  0.13657237688E+02 -0.51030033809E+02  0.97123267406E+02  0.00000000000E+00 0.  1.
</event>
<event>
 7    1  0.2766180E-009  0.1167847E+03  0.7561462E-02  0.1248498E+00
          3   -1    0    0  501    0  0.00000000000E+00  0.00000000000E+00  0.30377819854E+03  0.30377819854E+03  0.00000000000E+00 0. -1.
         -3   -1    0    0    0  501 -0.00000000000E+00 -0.00000000000E+00 -0.76694946936E+02  0.76694946936E+02  0.00000000000E+00 0.  1.
         25    2    1    2    0    0  0.95629996286E+02 -0.25669083286E+01  0.65385852368E+02  0.17051104021E+03  0.12508804873E+03 0.  0.
          5    1    3    3  502    0  0.73043322224E+02 -0.17253532830E+02  0.10084733908E+03  0.12578024295E+03  0.41800000000E+01 0. -1.
         -5    1    3    3    0  502  0.22586674062E+02  0.14686624501E+02 -0.35461486708E+02  0.44730797265E+02  0.41800000000E+01 0. -1.
        -11    1    1    2    0    0 -0.10002199852E+03 -0.25099179801E+02  0.14291390862E+03  0.17623494061E+03  0.00000000000E+00 0. -1.
         11    1    1    2    0    0  0.43920022304E+01  0.27666088129E+02  0.18783490612E+02  0.33727164653E+02  0.00000000000E+00 0.  1.
</event>
<event>
 7    1  0.2766180E-009  0.1274016E+03  0.7561462E-02  0.1231363E+00
          1   -1    0    0  501    0  0.00000000000E+00  0.00000000000E+00  0.94864357446E+02  0.94864357446E+02  0.00000000000E+00 0. -1.
         -1   -1    0    0    0  501 -0.00000000000E+00 -0.00000000000E+00 -0.19448655919E+03  0.19448655919E+03  0.00000000000E+00 0.  1.
         25    2    1    2    0    0 -0.62973690477E+02 -0.36670242437E+02 -0.92026437593E+02  0.17154166242E+03  0.12508910567E+03 0.  0.
          5    1    3    3  502    0  0.35077440909E+02  0.23929498740E+01 -0.73475298163E+01  0.36160913487E+02  0.41800000000E+01 0. -1.
         -5    1    3    3    0  502 -0.98051131386E+02 -0.39063192311E+02 -0.84678907777E+02  0.13538074893E+03  0.41800000000E+01 0. -1.
        -11    1    1    2    0    0 -0.20407656752E+00  0.49333101492E+02  0.11399380334E+02  0.50633412111E+02  0.00000000000E+00 0. -1.
         11    1    1    2    0    0  0.63177767045E+02 -0.12662859055E+02 -0.18995144482E+02  0.67175842102E+02  0.00000000000E+00 0.  1.
</event>
<event>
 7    1  0.2766180E-009  0.1131817E+03  0.7561462E-02  0.1254789E+00
         -2   -1    0    0    0  501 -0.00000000000E+00  0.00000000000E+00  0.20639895723E+02  0.20639895723E+02  0.00000000000E+00 0.  1.
          2   -1    0    0  501    0  0.00000000000E+00 -0.00000000000E+00 -0.79403249656E+03  0.79403249656E+03  0.00000000000E+00 0. -1.
         25    2    1    2    0    0  0.42262376025E+02  0.26838405498E+02 -0.27706177047E+03  0.30807870082E+03  0.12507139082E+03 0.  0.
          5    1    3    3  502    0  0.54302424091E+02 -0.34896616924E+02 -0.91137572595E+02  0.11175892212E+03  0.41800000000E+01 0. -1.
         -5    1    3    3    0  502 -0.12040048066E+02  0.61735022422E+02 -0.18592419788E+03  0.19631977870E+03  0.41800000000E+01 0. -1.
        -11    1    1    2    0    0 -0.16697124366E+02 -0.56830792133E+02 -0.35338437212E+03  0.35831417410E+03  0.00000000000E+00 0.  1.
         11    1    1    2    0    0 -0.25565251659E+02  0.29992386634E+02 -0.14294645824E+03  0.14827951737E+03  0.00000000000E+00 0. -1.
</event>
<event>
 7    1  0.2766180E-009  0.8924586E+02  0.7561462E-02  0.1304688E+00
         -1   -1    0    0    0  501 -0.00000000000E+00  0.00000000000E+00  0.68083053150E+03  0.68083053150E+03  0.00000000000E+00 0.  1.
          1   -1    0    0  501    0  0.00000000000E+00 -0.00000000000E+00 -0.29656574777E+02  0.29656574777E+02  0.00000000000E+00 0. -1.
         25    2    1    2    0    0  0.40665943607E+02 -0.67923747215E+02  0.48100566327E+03  0.50327009420E+03  0.12508790993E+03 0.  0.
          5    1    3    3  502    0  0.15389404920E+02 -0.69768174423E+02  0.10910201652E+03  0.13048047499E+03  0.41800000000E+01 0.  1.
         -5    1    3    3    0  502  0.25276538687E+02  0.18444272083E+01  0.37190364675E+03  0.37278961921E+03  0.41800000000E+01 0.  1.
        -11    1    1    2    0    0 -0.27754288214E+02  0.28617691136E+02  0.15961733392E+03  0.16452041225E+03  0.00000000000E+00 0.  1.
         11    1    1    2    0    0 -0.12911655393E+02  0.39306056079E+02  0.10550959532E+02  0.42696599824E+02  0.00000000000E+00 0. -1.
</event>
<event>
 7    1  0.3219411E-009  0.1248672E+03  0.7561462E-02  0.1235277E+00
          2   -1    0    0  501    0  0.00000000000E+00  0.00000000000E+00  0.22768185930E+03  0.22768185930E+03  0.00000000000E+00 0. -1.
         -2   -1    0    0    0  501 -0.00000000000E+00 -0.00000000000E+00 -0.80447688960E+02  0.80447688960E+02  0.00000000000E+00 0.  1.
         25    2    1    2    0    0 -0.64644403357E+02  0.46923071894E+02  0.88291471582E+02  0.17269689239E+03  0.12509260221E+03 0.  0.
          5    1    3    3  502    0 -0.47996066457E+02 -0.24950008038E+02  0.82281083249E+02  0.98558481913E+02  0.41800000000E+01 0.  1.
         -5    1    3    3    0  502 -0.16648336900E+02  0.71873079932E+02  0.60103883332E+01  0.74138410479E+02  0.41800000000E+01 0.  1.
        -11    1    1    2    0    0  0.38822176605E+02 -0.74374621237E+02  0.45341642589E+02  0.95365665903E+02  0.00000000000E+00 0. -1.
         11    1    1    2    0    0  0.25822226752E+02  0.27451549342E+02  0.13601056166E+02  0.40066989961E+02  0.00000000000E+00 0.  1.
</event>
<event>
 7    1  0.2766180E-009  0.1421798E+03  0.7561462E-02  0.1210426E+00
         -1   -1    0    0    0  501 -0.00000000000E+00  0.00000000000E+00  0.11197803845E+03  0.11197803845E+03  0.00000000000E+00 0.  1.
          1   -1    0    0  501    0  0.00000000000E+00 -0.00000000000E+00 -0.20167703033E+03  0.20167703033E+03  0.00000000000E+00 0. -1.
         25    2    1    2    0    0  0.99272759883E+02 -0.12432406783E+02 -0.60377522708E+02  0.17118018722E+03  0.12509023005E+03 0.  0.
          5    1    3    3  502    0  0.11228305414E+03 -0.35823028900E+02 -0.15758584846E+02  0.11898142310E+03  0.41800000000E+01 0. -1.
         -5    1    3    3    0  502 -0.13010294256E+02  0.23390622117E+02 -0.44618937862E+02  0.52198764119E+02  0.41800000000E+01 0. -1.
        -11    1    1    2    0    0 -0.72611016784E+02 -0.38249655320E+02 -0.14769845225E+02  0.83387914103E+02  0.00000000000E+00 0.  1.
         11    1    1    2    0    0 -0.26661743099E+02  0.50682062103E+02 -0.14551623945E+02  0.59086967459E+02  0.00000000000E+00 0. -1.
</event>
<event>
 7    1  0.2766180E-009  0.9871177E+02  0.7561462E-02  0.1283028E+00
         -2   -1    0    0    0  501 -0.00000000000E+00  0.00000000000E+00  0.12622882995E+03  0.12622882995E+03  0.00000000000E+00 0.  1.
          2   -1    0    0  501    0  0.00000000000E+00 -0.00000000000E+00 -0.15806155693E+03  0.15806155693E+03  0.00000000000E+00 0. -1.
         25    2    1    2    0    0  0.19037260606E+02  0.32154825365E+02 -0.10073256454E+03  0.16489845728E+03  0.12509237215E+03 0.  0.
          5    1    3    3  502    0 -0.17630787471E+02 -0.31959157944E+02 -0.80060343318E+02  0.88087248881E+02  0.41800000000E+01 0.  1.
         -5    1    3    3    0  502  0.36668048078E+02  0.64113983310E+02 -0.20672221218E+02  0.76811208399E+02  0.41800000000E+01 0.  1.
        -11    1    1    2    0    0 -0.22899428652E+02  0.22390094843E+02  0.77490510554E+00  0.32035927607E+02  0.00000000000E+00 0.  1.
         11    1    1    2    0    0  0.38621680457E+01 -0.54544920209E+02  0.68124932447E+02  0.87356001989E+02  0.00000000000E+00 0. -1.
</event>
<event>
 7    1  0.3907602E-009  0.6374690E+02  0.7561462E-02  0.1382748E+00
          1   -1    0    0  501    0  0.00000000000E+00  0.00000000000E+00  0.51371703218E+03  0.51371703218E+03  0.00000000000E+00 0. -1.
         -1   -1    0    0    0  501 -0.00000000000E+00 -0.00000000000E+00 -0.38090227228E+02  0.38090227228E+02  0.00000000000E+00 0.  1.
         25    2    1    2    0    0  0.13144382566E+02  0.38108342577E+02  0.41506246276E+03  0.43537316085E+03  0.12509164891E+03 0.  0.
          5    1    3    3  502    0  0.30643448375E+02  0.77535593004E+01  0.17740647402E+02  0.36487553774E+02  0.41800000000E+01 0.  1.
         -5    1    3    3    0  502 -0.17499065809E+02  0.30354783277E+02  0.39732181536E+03  0.39888560708E+03  0.41800000000E+01 0.  1.
        -11    1    1    2    0    0  0.16496541585E+02 -0.18484150760E+02 -0.17717864988E+02  0.30458536625E+02  0.00000000000E+00 0.  1.
         11    1    1    2    0    0 -0.29640924152E+02 -0.19624191818E+02  0.78282207176E+02  0.85975561931E+02  0.00000000000E+00 0. -1.
</event>
<event>
 7    1  0.2766180E-009  0.1666712E+03  0.7561462E-02  0.1181364E+00
         -2   -1    0    0    0  501 -0.00000000000E+00  0.00000000000E+00  0.31806403174E+02  0.31806403174E+02  0.00000000000E+00 0.  1.
          2   -1    0    0  501    0  0.00000000000E+00 -0.00000000000E+00 -0.10165310468E+04  0.10165310468E+04  0.00000000000E+00 0. -1.
         25    2    1    2    0    0  0.51647777432E+02 -0.13323947274E+03 -0.50257374990E+03  0.53726185244E+03  0.12509865703E+03 0.  0.
          5    1    3    3  502    0  0.87380105755E+02 -0.80887335062E+02 -0.25176180853E+03  0.27853101172E+03  0.41800000000E+01 0.  1.
         -5    1    3    3    0  502 -0.35732328323E+02 -0.52352137674E+02 -0.25081194137E+03  0.25873084072E+03  0.41800000000E+01 0.  1.
        -11    1    1    2    0    0 -0.48158893498E+02  0.58140107190E+02 -0.12444402921E+03  0.14555365847E+03  0.00000000000E+00 0.  1.
         11    1    1    2    0    0 -0.34888839339E+01  0.75099365546E+02 -0.35770686449E+03  0.36552193904E+03  0.00000000000E+00 0. -1.
</event>
<event>
 7    1  0.2766180E-009  0.2446074E+03  0.7561462E-02  0.1116761E+00
          2   -1    0    0  501    0  0.00000000000E+00  0.00000000000E+00  0.64695554828E+03  0.64695554828E+03  0.00000000000E+00 0. -1.
         -2   -1    0    0    0  501 -0.00000000000E+00 -0.00000000000E+00 -0.99909687150E+02  0.99909687150E+02  0.00000000000E+00 0.  1.
         25    2    1    2    0    0 -0.22178862985E+03  0.58200356826E+02  0.26751440193E+03  0.37388390885E+03  0.12509094367E+03 0.  0.
          5    1    3    3  502    0  0.13291503175E+02  0.40749212756E+01  0.38846765955E+02  0.41470624123E+02  0.41800000000E+01 0.  1.
         -5    1    3    3    0  502 -0.23508013303E+03  0.54125435550E+02  0.22866763598E+03  0.33241328472E+03  0.41800000000E+01 0.  1.
        -11    1    1    2    0    0  0.20773077241E+03 -0.65205777608E+02  0.21287372064E+03  0.30449809224E+03  0.00000000000E+00 0.  1.
         11    1    1    2    0    0  0.14057857440E+02  0.70054207825E+01  0.66657738558E+02  0.68483234341E+02  0.00000000000E+00 0. -1.
</event>
<event>
 7    1  0.2766180E-009  0.1927167E+03  0.7561462E-02  0.1156034E+00
          2   -1    0    0  501    0  0.00000000000E+00  0.00000000000E+00  0.78405924210E+03  0.78405924210E+03  0.00000000000E+00 0. -1.
         -2   -1    0    0    0  501 -0.00000000000E+00 -0.00000000000E+00 -0.55100910068E+02  0.55100910068E+02  0.00000000000E+00 0.  1.
         25    2    1    2    0    0  0.13823742896E+03  0.10099128672E+03  0.46385351247E+03  0.51001632255E+03  0.12509093285E+03 0.  0.
          5    1    3    3  502    0  0.58898732472E+02  0.11692231661E+03  0.28934239756E+03  0.31761042841E+03  0.41800000000E+01 0. -1.
         -5    1    3    3    0  502  0.79338696487E+02 -0.15931029892E+02  0.17451111491E+03  0.19240589415E+03  0.41800000000E+01 0. -1.
        -11    1    1    2    0    0 -0.78956696043E+01 -0.15917918249E+02  0.10258478155E+03  0.10411224292E+03  0.00000000000E+00 0. -1.
         11    1    1    2    0    0 -0.13034175935E+03 -0.85073368474E+02  0.16252003801E+03  0.22503158669E+03  0.00000000000E+00 0.  1.
</event>
<event>
 7    1  0.2766180E-009  0.1084418E+03  0.7561462E-02  0.1263483E+00
         -2   -1    0    0    0  501 -0.00000000000E+00  0.00000000000E+00  0.24170952477E+03  0.24170952477E+03  0.00000000000E+00 0.  1.
          2   -1    0    0  501    0  0.00000000000E+00 -0.00000000000E+00 -0.69296926897E+02  0.69296926897E+02  0.00000000000E+00 0. -1.
         25    2    1    2    0    0  0.27604309642E+02 -0.22287648887E+02  0.16807253462E+03  0.21249463235E+03  0.12508738817E+03 0.  0.
          5    1    3    3  502    0 -0.24241507622E+02  0.36384808869E+02  0.28350463586E+02  0.52275483678E+02  0.41800000000E+01 0. -1.
         -5    1    3    3    0  502  0.51845817264E+02 -0.58672457756E+02  0.13972207103E+03  0.16021914867E+03  0.41800000000E+01 0. -1.
        -11    1    1    2    0    0  0.29840026202E+02 -0.61339053412E+01 -0.11381948590E+02  0.32520773548E+02  0.00000000000E+00 0. -1.
         11    1    1    2    0    0 -0.57444335843E+02  0.28421554229E+02  0.15722011842E+02  0.65991045769E+02  0.00000000000E+00 0.  1.
</event>
<event>
 7    1  0.2766180E-009  0.1662219E+03  0.7561462E-02  0.1181846E+00
         -1   -1    0    0    0  501 -0.00000000000E+00  0.00000000000E+00  0.70990938874E+02  0.70990938874E+02  0.00000000000E+00 0.  1.
          1   -1    0    0  501    0  0.00000000000E+00 -0.00000000000E+00 -0.54429934690E+03  0.54429934690E+03  0.00000000000E+00 0. -1.
         25    2    1    2    0    0 -0.15192384382E+03  0.10858848236E+02 -0.33066245550E+03  0.38495076883E+03  0.12510262201E+03 0.  0.
          5    1    3    3  502    0 -0.45660001339E+02 -0.41260160618E+02 -0.46968482278E+02  0.77529009435E+02  0.41800000000E+01 0. -1.
         -5    1    3    3    0  502 -0.10626384249E+03  0.52119008854E+02 -0.28369397322E+03  0.30742175939E+03  0.41800000000E+01 0. -1.
        -11    1    1    2    0    0  0.80474041207E+02 -0.45390368489E+01 -0.12264389402E+02  0.81529684233E+02  0.00000000000E+00 0.  1.
         11    1    1    2    0    0  0.71449802617E+02 -0.63198113870E+01 -0.13038156312E+03  0.14880983271E+03  0.00000000000E+00 0. -1.
</event>
<event>
 7    1  0.2766180E-009  0.8028682E+02  0.7561462E-02  0.1328239E+00
          2   -1    0    0  501    0  0.00000000000E+00  0.00000000000E+00  0.21612293426E+04  0.21612293426E+04  0.00000000000E+00 0. -1.
         -2   -1    0    0    0  501 -0.00000000000E+00 -0.00000000000E+00 -0.28770317918E+02  0.28770317918E+02  0.00000000000E+00 0.  1.
         25    2    1    2    0    0  0.35479635350E+02 -0.11567899130E+02  0.20654017022E+04  0.20695234239E+04  0.12510151702E+03 0.  0.
          5    1    3    3  502    0  0.26491673069E+02 -0.53430515361E+02  0.17696184430E+04  0.17706280058E+04  0.41800000000E+01 0.  1.
         -5    1    3    3    0  502  0.89879622810E+01  0.41862616231E+02  0.29578325921E+03  0.29889541805E+03  0.41800000000E+01 0.  1.
        -11    1    1    2    0    0 -0.23935319088E+02 -0.15381642718E+02  0.82550663931E+02  0.87316129942E+02  0.00000000000E+00 0. -1.
         11    1    1    2    0    0 -0.11544316263E+02  0.26949541848E+02 -0.15493341507E+02  0.33160106677E+02  0.00000000000E+00 0.  1.
</event>
<event>
 7    1  0.2766180E-009  0.8877713E+02  0.7561462E-02  0.1305840E+00
         -2   -1    0    0    0  501 -0.00000000000E+00  0.00000000000E+00  0.45373090581E+02  0.45373090581E+02  0.00000000000E+00 0.  1.
          2   -1    0    0  501    0  0.00000000000E+00 -0.00000000000E+00 -0.33086643492E+03  0.33086643492E+03  0.00000000000E+00 0. -1.
         25    2    1    2    0    0  0.98197675855E+00 -0.51624710653E+02 -0.11937811397E+03  0.18045806606E+03  0.12509158438E+03 0.  0.
          5    1    3    3  502    0 -0.18436650866E+02 -0.55518995104E+02 -0.13986145591E+03  0.15166070078E+03  0.41800000000E+01 0.  1.
         -5    1    3    3    0  502  0.19418627625E+02  0.38942844516E+01  0.20483341938E+02  0.28797365282E+02  0.41800000000E+01 0.  1.
        -11    1    1    2    0    0 -0.39654926784E+02  0.81622780336E+01 -0.99015601234E+02  0.10697301196E+03  0.00000000000E+00 0. -1.
         11    1    1    2    0    0  0.38672950025E+02  0.43462432619E+02 -0.67099629134E+02  0.88808447474E+02  0.00000000000E+00 0.  1.
</event>
<event>
 7    1  0.2766180E-009  0.1046368E+03  0.7561462E-02  0.1270837E+00
         -2   -1    0    0    0  501 -0.00000000000E+00  0.00000000000E+00  0.84739395958E+02  0.84739395958E+02  0.00000000000E+00 0.  1.
          2   -1    0    0  501    0  0.00000000000E+00 -0.00000000000E+00 -0.16667694994E+03  0.16667694994E+03  0.00000000000E+00 0. -1.
         25    2    1    2    0    0 -0.57441883652E+01 -0.15459116049E+01 -0.96390545855E+02  0.15803077869E+03  0.12508878503E+03 0.  0.
          5    1    3    3  502    0 -0.35442646111E+02 -0.51887497257E+02 -0.68772623455E+02  0.93250413789E+02  0.41800000000E+01 0. -1.
         -5    1    3    3    0  502  0.29698457746E+02  0.50341585652E+02 -0.27617922400E+02  0.64780364897E+02  0.41800000000E+01 0. -1.
        -11    1    1    2    0    0 -0.25903115583E+02  0.33752325867E+02 -0.74611248573E+01  0.43195593322E+02  0.00000000000E+00 0. -1.
         11    1    1    2    0    0  0.31647303949E+02 -0.32206414262E+02  0.21914116731E+02  0.50189973888E+02  0.00000000000E+00 0.  1.
</event>
<event>
 7    1  0.2766180E-009  0.1171818E+03  0.7561462E-02  0.1247820E+00
          3   -1    0    0  501    0  0.00000000000E+00  0.00000000000E+00  0.76131214536E+03  0.76131214536E+03  0.00000000000E+00 0. -1.
         -3   -1    0    0    0  501 -0.00000000000E+00 -0.00000000000E+00 -0.33425468060E+02  0.33425468060E+02  0.00000000000E+00 0.  1.
         25    2    1    2    0    0 -0.78130782879E+02  0.63029326213E+02  0.53556117325E+03  0.55906280387E+03  0.12509329791E+03 0.  0.
          5    1    3    3  502    0 -0.64744415108E+02  0.43480313585E+02  0.12235713330E+03  0.14515893850E+03  0.41800000000E+01 0. -1.
         -5    1    3    3    0  502 -0.13386367771E+02  0.19549012628E+02  0.41320403995E+03  0.41390386537E+03  0.41800000000E+01 0. -1.
        -11    1    1    2    0    0  0.88685406986E+02 -0.24147333501E+02  0.15779522894E+03  0.18261305923E+03  0.00000000000E+00 0.  1.
         11    1    1    2    0    0 -0.10554624108E+02 -0.38881992712E+02  0.34530275115E+02  0.53061750318E+02  0.00000000000E+00 0. -1.
</event>
<event>
 7    1  0.2766180E-009  0.1001204E+03  0.7561462E-02  0.1280043E+00
         -1   -1    0    0    0  501 -0.00000000000E+00  0.00000000000E+00  0.50619827520E+02  0.50619827520E+02  0.00000000000E+00 0.  1.
          1   -1    0    0  501    0  0.00000000000E+00 -0.00000000000E+00 -0.29225669443E+03  0.29225669443E+03  0.00000000000E+00 0. -1.
         25    2    1    2    0    0  0.37357281787E+02 -0.47988979406E+01 -0.74898860514E+02  0.15058582856E+03  0.12509059330E+03 0.  0.
          5    1    3    3  502    0 -0.20058019587E+02  0.41363664934E+02 -0.59329045952E+02  0.75171038440E+02  0.41800000000E+01 0. -1.
         -5    1    3    3    0  502  0.57415301375E+02 -0.46162562874E+02 -0.15569814562E+02  0.75414790118E+02  0.41800000000E+01 0. -1.
        -11    1    1    2    0    0 -0.18964663946E+02 -0.33109364147E+02 -0.28087213550E+02  0.47379109719E+02  0.00000000000E+00 0.  1.
         11    1    1    2    0    0 -0.18392617841E+02  0.37908262087E+02 -0.13865079284E+03  0.14491158367E+03  0.00000000000E+00 0. -1.
</event>
<event>
 7    1  0.2766180E-009  0.1094426E+03  0.7561462E-02  0.1261606E+00
          2   -1    0    0  501    0  0.00000000000E+00  0.00000000000E+00  0.46634511755E+03  0.46634511755E+03  0.00000000000E+00 0. -1.
         -2   -1    0    0    0  501 -0.00000000000E+00 -0.00000000000E+00 -0.35694140273E+02  0.35694140273E+02  0.00000000000E+00 0.  1.
         25    2    1    2    0    0 -0.22160925437E+02 -0.50426083894E+02  0.32756391241E+03  0.35493427173E+03  0.12508526683E+03 0.  0.
          5    1    3    3  502    0 -0.56742867249E+02 -0.68674337377E+02  0.16368412969E+03  0.18640247936E+03  0.41800000000E+01 0. -1.
         -5    1    3    3    0  502  0.34581941813E+02  0.18248253482E+02  0.16387978272E+03  0.16853179237E+03  0.41800000000E+01 0. -1.
        -11    1    1    2    0    0  0.18616391175E+02  0.69001569126E+02  0.41420820413E+02  0.82604303314E+02  0.00000000000E+00 0.  1.
         11    1    1    2    0    0  0.35445342612E+01 -0.18575485232E+02  0.61666244451E+02  0.64500682783E+02  0.00000000000E+00 0. -1.
</event>
<event>
 7    1  0.2766180E-009  0.1433262E+03  0.7561462E-02  0.1208922E+00
          1   -1    0    0  501    0  0.00000000000E+00  0.00000000000E+00  0.12536135562E+04  0.12536135562E+04  0.00000000000E+00 0. -1.
         -1   -1    0    0    0  501 -0.00000000000E+00 -0.00000000000E+00 -0.16952980384E+02  0.16952980384E+02  0.00000000000E+00 0.  1.
         25    2    1    2    0    0  0.87805419199E+02 -0.39802421421E+02  0.64116698582E+03  0.66033075724E+03  0.12509029080E+03 0.  0.
          5    1    3    3  502    0  0.73087659873E+02  0.35178523981E+02  0.34595885457E+03  0.35536507430E+03  0.41800000000E+01 0. -1.
         -5    1    3    3    0  502  0.14717759327E+02 -0.74980945402E+02  0.29520813126E+03  0.30496568294E+03  0.41800000000E+01 0. -1.
        -11    1    1    2    0    0 -0.13703442697E+02  0.52027540378E+02  0.17485827558E+03  0.18294826000E+03  0.00000000000E+00 0.  1.
         11    1    1    2    0    0 -0.74101976503E+02 -0.12225118957E+02  0.42063531442E+03  0.42728751935E+03  0.00000000000E+00 0. -1.
</event>
<event>
 7    1  0.2766180E-009  0.1206510E+03  0.7561462E-02  0.1242027E+00
         -2   -1    0    0    0  501 -0.00000000000E+00  0.00000000000E+00  0.11920523466E+02  0.11920523466E+02  0.00000000000E+00 0.  1.
          2   -1    0    0  501    0  0.00000000000E+00 -0.00000000000E+00 -0.23024421065E+04  0.23024421065E+04  0.00000000000E+00 0. -1.
         25    2    1    2    0    0  0.43488865596E+02  0.38705283176E+02 -0.19950406803E+04  0.19998062039E+04  0.12509259215E+03 0.  0.
          5    1    3    3  502    0  0.66167326102E+02 -0.23376913905E+02 -0.11711743004E+04  0.11732822804E+04  0.41800000000E+01 0. -1.
         -5    1    3    3    0  502 -0.22678460505E+02  0.62082197081E+02 -0.82386637991E+03  0.82652392349E+03  0.41800000000E+01 0. -1.
        -11    1    1    2    0    0  0.26853534823E+02 -0.13478352465E+02 -0.12236506487E+03  0.12599995007E+03  0.00000000000E+00 0. -1.
         11    1    1    2    0    0 -0.70342400419E+02 -0.25226930711E+02 -0.17311583783E+03  0.18855647599E+03  0.00000000000E+00 0.  1.
</event>
<event>
 7    1  0.2766180E-009  0.1268881E+03  0.7561462E-02  0.1232148E+00
         -2   -1    0    0    0  501 -0.00000000000E+00  0.00000000000E+00  0.11507204909E+02  0.11507204909E+02  0.00000000000E+00 0.  1.
          2   -1    0    0  501    0  0.00000000000E+00 -0.00000000000E+00 -0.16512409859E+04  0.16512409859E+04  0.00000000000E+00 0. -1.
         25    2    1    2    0    0 -0.37792412623E+02  0.69127467637E+02 -0.11026419857E+04  0.11125079157E+04  0.12509052934E+03 0.  0.
          5    1    3    3  502    0 -0.78258265691E+02  0.69552700725E+02 -0.87587431275E+03  0.88211973023E+03  0.41800000000E+01 0.  1.
         -5    1    3    3    0  502  0.40465853068E+02 -0.42523308805E+00 -0.22676767299E+03  0.23038818546E+03  0.41800000000E+01 0.  1.
        -11    1    1    2    0    0  0.60363040766E+02 -0.55142654694E+02 -0.48424230401E+03  0.49109573206E+03  0.00000000000E+00 0. -1.
         11    1    1    2    0    0 -0.22570628142E+02 -0.13984812943E+02 -0.52849491198E+02  0.59144543009E+02  0.00000000000E+00 0.  1.
</event>
<event>
 7    1  0.2766180E-009  0.6947982E+02  0.7561462E-02  0.1361871E+00
         -1   -1    0    0    0  501 -0.00000000000E+00  0.00000000000E+00  0.45436280960E+02  0.45436280960E+02  0.00000000000E+00 0.  1.
          1   -1    0    0  501    0  0.00000000000E+00 -0.00000000000E+00 -0.31326948494E+03  0.31326948494E+03  0.00000000000E+00 0. -1.
         25    2    1    2    0    0  0.54765165059E+02  0.23888754803E+02 -0.11988631025E+03  0.18329743490E+03  0.12512124658E+03 0.  0.
          5    1    3    3  502    0  0.44618323883E+02  0.25759606493E+01  0.14203817675E+02  0.47081325766E+02  0.41800000000E+01 0. -1.
         -5    1    3    3    0  502  0.10146841176E+02  0.21312794153E+02 -0.13409012793E+03  0.13621610914E+03  0.41800000000E+01 0. -1.
        -11    1    1    2    0    0 -0.52031847265E+02 -0.64291876904E+01 -0.14874908832E+03  0.15771790913E+03  0.00000000000E+00 0. -1.
         11    1    1    2    0    0 -0.27333177944E+01 -0.17459567112E+02  0.80219458761E+00  0.17690421874E+02  0.00000000000E+00 0.  1.
</event>
<event>
 7    1  0.2766180E-009  0.1472000E+03  0.7561462E-02  0.1203956E+00
          2   -1    0    0  501    0  0.00000000000E+00  0.00000000000E+00  0.98273670654E+03  0.98273670654E+03  0.00000000000E+00 0. -1.
         -2   -1    0    0    0  501 -0.00000000000E+00 -0.00000000000E+00 -0.23353632442E+02  0.23353632442E+02  0.00000000000E+00 0.  1.
         25    2    1    2    0    0 -0.67832082555E+02 -0.76557440762E+02  0.60085645781E+03  0.62220457592E+03  0.12509123969E+03 0.  0.
          5    1    3    3  502    0 -0.18546170405E+02 -0.10234282026E+03  0.34620302328E+03  0.36151351154E+03  0.41800000000E+01 0. -1.
         -5    1    3    3    0  502 -0.49285912150E+02  0.25785379500E+02  0.25465343453E+03  0.26069106438E+03  0.41800000000E+01 0. -1.
        -11    1    1    2    0    0  0.13999483970E+02  0.79393800479E+02  0.25054391195E+03  0.26319500931E+03  0.00000000000E+00 0. -1.
         11    1    1    2    0    0  0.53832598584E+02 -0.28363597174E+01  0.10798270434E+03  0.12069075376E+03  0.00000000000E+00 0.  1.
</event>
<event>
 7    1  0.2766180E-009  0.1034859E+03  0.7561462E-02  0.1273132E+00
          1   -1    0    0  501    0  0.00000000000E+00  0.00000000000E+00  0.52409088855E+02  0.52409088855E+02  0.00000000000E+00 0. -1.
         -1   -1    0    0    0  501 -0.00000000000E+00 -0.00000000000E+00 -0.31557305505E+03  0.31557305505E+03  0.00000000000E+00 0.  1.
         25    2    1    2    0    0 -0.56585854303E+02 -0.41172594932E+02 -0.14353273184E+03  0.20284593068E+03  0.12509070710E+03 0.  0.
          5    1    3    3  502    0 -0.54686763456E+01 -0.56952285399E+02 -0.13732740007E+03  0.14882794241E+03  0.41800000000E+01 0.  1.
         -5    1    3    3    0  502 -0.51117177958E+02  0.15779690466E+02 -0.62053317709E+01  0.54017988263E+02  0.41800000000E+01 0.  1.
        -11    1    1    2    0    0  0.72291867536E+01 -0.17700208725E+02 -0.72561580276E+02  0.75038266653E+02  0.00000000000E+00 0.  1.
         11    1    1    2    0    0  0.49356667550E+02  0.58872803658E+02 -0.47069654077E+02  0.90097946575E+02  0.00000000000E+00 0. -1.
</event>
<event>
 7    1  0.2766180E-009  0.1547986E+03  0.7561462E-02  0.1194697E+00
         -1   -1    0    0    0  501 -0.00000000000E+00  0.00000000000E+00  0.33177969311E+02  0.33177969311E+02  0.00000000000E+00 0.  1.
          1   -1    0    0  501    0  0.00000000000E+00 -0.00000000000E+00 -0.83809578946E+03  0.83809578946E+03  0.00000000000E+00 0. -1.
         25    2    1    2    0    0  0.61588888079E+02 -0.10992871555E+03 -0.39584397542E+03  0.43383896021E+03  0.12508507858E+03 0.  0.
          5    1    3    3  502    0  0.87199294345E+02 -0.81221815921E+02 -0.36610750509E+03  0.38503620350E+03  0.41800000000E+01 0.  1.
         -5    1    3    3    0  502 -0.25610406266E+02 -0.28706899630E+02 -0.29736470322E+02  0.48802756712E+02  0.41800000000E+01 0.  1.
        -11    1    1    2    0    0  0.20681197954E+02  0.12591519956E+02 -0.37746390456E+02  0.44844713358E+02  0.00000000000E+00 0. -1.
         11    1    1    2    0    0 -0.82270086033E+02  0.97337195594E+02 -0.37132745427E+03  0.39259008520E+03  0.00000000000E+00 0.  1.
</event>
<event>
 7    1  0.2766180E-009  0.1413274E+03  0.7561462E-02  0.1211554E+00
          4   -1    0    0  501    0  0.00000000000E+00  0.00000000000E+00  0.18907643826E+03  0.18907643826E+03  0.00000000000E+00 0. -1.
         -4   -1    0    0    0  501 -0.00000000000E+00 -0.00000000000E+00 -0.15034396047E+03  0.15034396047E+03  0.00000000000E+00 0.  1.
         25    2    1    2    0    0  0.97044277035E+02  0.64244427060E+02  0.76066556352E+02  0.18703678987E+03  0.12510676103E+03 0.  0.
          5    1    3    3  502    0  0.24309185888E+02 -0.26678432359E+02 -0.14849582460E+02  0.39251213623E+02  0.41800000000E+01 0.  1.
         -5    1    3    3    0  502  0.72735091147E+02  0.90922859419E+02  0.90916138812E+02  0.14778557624E+03  0.41800000000E+01 0.  1.
        -11    1    1    2    0    0 -0.50375291959E+02  0.35026811098E-01 -0.51110646581E+02  0.71763287695E+02  0.00000000000E+00 0.  1.
         11    1    1    2    0    0 -0.46668985076E+02 -0.64279453871E+02  0.13776568020E+02  0.80620321163E+02  0.00000000000E+00 0. -1.
</event>
<event>
 7    1  0.2766180E-009  0.9253429E+02  0.7561462E-02  0.1296828E+00
          1   -1    0    0  501    0  0.00000000000E+00  0.00000000000E+00  0.90983399422E+03  0.90983399422E+03  0.00000000000E+00 0. -1.
         -1   -1    0    0    0  501 -0.00000000000E+00 -0.00000000000E+00 -0.27505272845E+02  0.27505272845E+02  0.00000000000E+00 0.  1.
         25    2    1    2    0    0  0.11571867780E+02  0.70582152217E+02  0.75878685933E+03  0.77234759450E+03  0.12509020947E+03 0.  0.
          5    1    3    3  502    0 -0.26952522061E+02  0.22069857574E+02  0.51352517197E+02  0.62193813850E+02  0.41800000000E+01 0.  1.
         -5    1    3    3    0  502  0.38524389841E+02  0.48512294643E+02  0.70743434214E+03  0.71015378065E+03  0.41800000000E+01 0.  1.
        -11    1    1    2    0    0 -0.30404364858E+02 -0.27998865800E+02  0.10366517706E+02  0.42612516681E+02  0.00000000000E+00 0.  1.
         11    1    1    2    0    0  0.18832497078E+02 -0.42583286416E+02  0.11317534434E+03  0.12237915588E+03  0.00000000000E+00 0. -1.
</event>
<event>
 7    1  0.2766180E-009  0.1422734E+03  0.7561462E-02  0.1210302E+00
          2   -1    0    0  501    0  0.00000000000E+00  0.00000000000E+00  0.26217136092E+03  0.26217136092E+03  0.00000000000E+00 0. -1.
         -2   -1    0    0    0  501 -0.00000000000E+00 -0.00000000000E+00 -0.89986701381E+02  0.89986701381E+02  0.00000000000E+00 0.  1.
         25    2    1    2    0    0  0.92712914057E+02  0.23856402503E+02  0.15027971044E+03  0.21770768788E+03  0.12509130114E+03 0.  0.
          5    1    3    3  502    0  0.12322048297E+03  0.27330948086E+02  0.11566522607E+03  0.17124889801E+03  0.41800000000E+01 0.  1.
         -5    1    3    3    0  502 -0.30507568917E+02 -0.34745455827E+01  0.34614484365E+02  0.46458789869E+02  0.41800000000E+01 0.  1.
        -11    1    1    2    0    0 -0.32115198737E+01 -0.36714024580E+02 -0.10627198870E+02  0.38355844621E+02  0.00000000000E+00 0.  1.
         11    1    1    2    0    0 -0.89501394183E+02  0.12857622077E+02  0.32532147975E+02  0.96094529803E+02  0.00000000000E+00 0. -1.
</event>
<event>
 7    1  0.2766180E-009  0.2091360E+03  0.7561462E-02  0.1142252E+00
         -2   -1    0    0    0  501 -0.00000000000E+00  0.00000000000E+00  0.21226844373E+03  0.21226844373E+03  0.00000000000E+00 0.  1.
          2   -1    0    0  501    0  0.00000000000E+00 -0.00000000000E+00 -0.31549579214E+03  0.31549579214E+03  0.00000000000E+00 0. -1.
         25    2    1    2    0    0  0.11744292187E+03 -0.13623875867E+03 -0.20292164375E+03  0.29862613040E+03  0.12508610233E+03 0.  0.
          5    1    3    3  502    0  0.68746650208E+02 -0.15981446425E+01 -0.10324747462E+03  0.12412159118E+03  0.41800000000E+01 0.  1.
         -5    1    3    3    0  502  0.48696271665E+02 -0.13464061402E+03 -0.99674169127E+02  0.17450453922E+03  0.41800000000E+01 0.  1.
        -11    1    1    2    0    0 -0.12607922959E+03  0.80162916543E+02  0.68052071552E+02  0.16417414463E+03  0.00000000000E+00 0. -1.
         11    1    1    2    0    0  0.86363077198E+01  0.56075842122E+02  0.31642223786E+02  0.64963960831E+02  0.00000000000E+00 0.  1.
</event>
<event>
 7    1  0.2766180E-009  0.9418567E+02  0.7561462E-02  0.1293021E+00
         -1   -1    0    0    0  501 -0.00000000000E+00  0.00000000000E+00  0.54537676235E+02  0.54537676235E+02  0.00000000000E+00 0.  1.
          1   -1    0    0  501    0  0.00000000000E+00 -0.00000000000E+00 -0.31873325213E+03  0.31873325213E+03  0.00000000000E+00 0. -1.
         25    2    1    2    0    0 -0.35703648056E+02  0.45663397463E+02 -0.21369789867E+03  0.25430651092E+03  0.12508042710E+03 0.  0.
          5    1    3    3  502    0  0.17973094612E+02  0.11170856911E+02 -0.18138826290E+03  0.18266634745E+03  0.41800000000E+01 0. -1.
         -5    1    3    3    0  502 -0.53676742668E+02  0.34492540552E+02 -0.32309635774E+02  0.71640163463E+02  0.41800000000E+01 0. -1.
        -11    1    1    2    0    0 -0.18276135101E+01  0.23819113540E+02  0.22539432471E+01  0.23995220381E+02  0.00000000000E+00 0.  1.
         11    1    1    2    0    0  0.37531261566E+02 -0.69482511003E+02 -0.52751620472E+02  0.94969197072E+02  0.00000000000E+00 0. -1.
</event>
<event>
 7    1  0.2766180E-009  0.1766583E+03  0.7561462E-02  0.1171077E+00
         -2   -1    0    0    0  501 -0.00000000000E+00  0.00000000000E+00  0.82837700859E+02  0.82837700859E+02  0.00000000000E+00 0.  1.
          2   -1    0    0  501    0  0.00000000000E+00 -0.00000000000E+00 -0.48739879546E+03  0.48739879546E+03  0.00000000000E+00 0. -1.
         25    2    1    2    0    0  0.13136894644E+03 -0.90708080150E+02 -0.14484559132E+03  0.24922799947E+03  0.12509434240E+03 0.  0.
          5    1    3    3  502    0  0.91721875085E+02 -0.99829910738E+02 -0.15611669525E+03  0.20680620973E+03  0.41800000000E+01 0. -1.
         -5    1    3    3    0  502  0.39647071359E+02  0.91218305882E+01  0.11271103934E+02  0.42421789738E+02  0.41800000000E+01 0. -1.
        -11    1    1    2    0    0 -0.55794165357E+02  0.84097740897E+02 -0.90465110815E+02  0.13553359431E+03  0.00000000000E+00 0.  1.
         11    1    1    2    0    0 -0.75574781087E+02  0.66103392523E+01 -0.16925039247E+03  0.18547490254E+03  0.00000000000E+00 0. -1.
</event>
<event>
 7    1  0.2766180E-009  0.2377424E+03  0.7561462E-02  0.1121306E+00
          2   -1    0    0  501    0  0.00000000000E+00  0.00000000000E+00  0.93709732362E+03  0.93709732362E+03  0.00000000000E+00 0. -1.
         -2   -1    0    0    0  501 -0.00000000000E+00 -0.00000000000E+00 -0.64739957720E+02  0.64739957720E+02  0.00000000000E+00 0.  1.
         25    2    1    2    0    0  0.13667570328E+03  0.17374084911E+03  0.45750183517E+03  0.52328028758E+03  0.12509276428E+03 0.  0.
          5    1    3    3  502    0  0.90988693703E+02  0.19599809806E+02  0.16915272119E+03  0.19311450078E+03  0.41800000000E+01 0. -1.
         -5    1    3    3    0  502  0.45687009574E+02  0.15414103931E+03  0.28834911398E+03  0.33016578680E+03  0.41800000000E+01 0. -1.
        -11    1    1    2    0    0 -0.12164762682E+03 -0.14689489446E+03  0.27061677883E+03  0.33107355091E+03  0.00000000000E+00 0.  1.
         11    1    1    2    0    0 -0.15028076457E+02 -0.26845954653E+02  0.14423875191E+03  0.14748344285E+03  0.00000000000E+00 0. -1.
</event>
<event>
 7    1  0.2766180E-009  0.8590265E+02  0.7561462E-02  0.1313089E+00
          1   -1    0    0  501    0  0.00000000000E+00  0.00000000000E+00  0.10626016650E+03  0.10626016650E+03  0.00000000000E+00 0. -1.
         -1   -1    0    0    0  501 -0.00000000000E+00 -0.00000000000E+00 -0.15062091262E+03  0.15062091262E+03  0.00000000000E+00 0.  1.
         25    2    1    2    0    0 -0.30453660754E+02 -0.22771449852E+02  0.29962941486E+02  0.13413115582E+03  0.12508966671E+03 0.  0.
          5    1    3    3  502    0 -0.75087577633E+02  0.90461091056E+01  0.18599922770E+02  0.77996191777E+02  0.41800000000E+01 0.  1.
         -5    1    3    3    0  502  0.44633916879E+02 -0.31817558957E+02  0.11363018716E+02  0.56134964045E+02  0.41800000000E+01 0.  1.
        -11    1    1    2    0    0  0.79882435037E+01  0.15562157787E+02 -0.91759914055E+02  0.93412390059E+02  0.00000000000E+00 0.  1.
         11    1    1    2    0    0  0.22465417251E+02  0.72092920648E+01  0.17436226448E+02  0.29337533248E+02  0.00000000000E+00 0. -1.
</event>
<event>
 7    1  0.2766180E-009  0.5361388E+03  0.7561462E-02  0.1004754E+00
          1   -1    0    0  501    0  0.00000000000E+00  0.00000000000E+00  0.19576357811E+03  0.19576357811E+03  0.00000000000E+00 0. -1.
         -1   -1    0    0    0  501 -0.00000000000E+00 -0.00000000000E+00 -0.15792950644E+04  0.15792950644E+04  0.00000000000E+00 0.  1.
         25    2    1    2    0    0 -0.11390842717E+03 -0.51459924672E+03 -0.47368700359E+03  0.71959292400E+03  0.12508830642E+03 0.  0.
          5    1    3    3  502    0 -0.49932974968E+02 -0.58795236317E+02 -0.39203847188E+02  0.86629070393E+02  0.41800000000E+01 0.  1.
         -5    1    3    3    0  502 -0.63975452199E+02 -0.45580401040E+03 -0.43448315640E+03  0.63296385361E+03  0.41800000000E+01 0.  1.
        -11    1    1    2    0    0  0.12748000190E+03  0.41278609467E+03 -0.74707909541E+03  0.86300097661E+03  0.00000000000E+00 0. -1.
         11    1    1    2    0    0 -0.13571574732E+02  0.10181315205E+03 -0.16276538728E+03  0.19246474188E+03  0.00000000000E+00 0.  1.
</event>
<event>
 7    1  0.2766180E-009  0.5694341E+02  0.7561462E-02  0.1411126E+00
         -1   -1    0    0    0  501 -0.00000000000E+00  0.00000000000E+00  0.62334193822E+02  0.62334193822E+02  0.00000000000E+00 0.  1.
          1   -1    0    0  501    0  0.00000000000E+00 -0.00000000000E+00 -0.39112325665E+03  0.39112325665E+03  0.00000000000E+00 0. -1.
         25    2    1    2    0    0 -0.43801914658E+01 -0.37987741563E+02 -0.32802473882E+03  0.35314318735E+03  0.12509047488E+03 0.  0.
          5    1    3    3  502    0  0.13319812186E+02 -0.31953437844E+01 -0.30932805654E+03  0.30965940416E+03  0.41800000000E+01 0.  1.
         -5    1    3    3    0  502 -0.17700003652E+02 -0.34792397779E+02 -0.18696682280E+02  0.43483783193E+02  0.41800000000E+01 0.  1.
        -11    1    1    2    0    0  0.19570213054E+02  0.40433671509E+02 -0.38753870238E+02  0.59327375545E+02  0.00000000000E+00 0. -1.
         11    1    1    2    0    0 -0.15190021588E+02 -0.24459299454E+01  0.37989546239E+02  0.40986887569E+02  0.00000000000E+00 0.  1.
</event>
<event>
 7    1  0.2766180E-009  0.1036392E+03  0.7561462E-02  0.1272824E+00
          1   -1    0    0  501    0  0.00000000000E+00  0.00000000000E+00  0.61232321706E+03  0.61232321706E+03  0.00000000000E+00 0. -1.
         -1   -1    0    0    0  501 -0.00000000000E+00 -0.00000000000E+00 -0.19002240050E+02  0.19002240050E+02  0.00000000000E+00 0.  1.
         25    2    1    2    0    0  0.67849728610E+01  0.90557454309E+01  0.34325541754E+03  0.36551387375E+03  0.12509223740E+03 0.  0.
          5    1    3    3  502    0 -0.38414230988E+02 -0.36621172647E+02  0.22115782712E+03  0.22747531806E+03  0.41800000000E+01 0.  1.
         -5    1    3    3    0  502  0.45199203849E+02  0.45676918078E+02  0.12209759041E+03  0.13803855570E+03  0.41800000000E+01 0.  1.
        -11    1    1    2    0    0  0.35258055515E+02 -0.26520650601E+02  0.10935654081E+03  0.11792085653E+03  0.00000000000E+00 0.  1.
         11    1    1    2    0    0 -0.42043028376E+02  0.17464905170E+02  0.14070901867E+03  0.14789072683E+03  0.00000000000E+00 0. -1.
</event>
<event>
 7    1  0.2766180E-009  0.1152969E+03  0.7561462E-02  0.1251064E+00
         -2   -1    0    0    0  501 -0.00000000000E+00  0.00000000000E+00  0.96000729774E+02  0.96000729774E+02  0.00000000000E+00 0.  1.
          2   -1    0    0  501    0  0.00000000000E+00 -0.00000000000E+00 -0.20038820632E+03  0.20038820632E+03  0.00000000000E+00 0. -1.
         25    2    1    2    0    0 -0.88665775003E+01  0.75176627121E+02 -0.10906442502E+02  0.14661809914E+03  0.12509106700E+03 0.  0.
          5    1    3    3  502    0  0.52342701949E+02  0.49413535502E+02  0.17610992140E+02  0.74223145866E+02  0.41800000000E+01 0. -1.
         -5    1    3    3    0  502 -0.61209279449E+02  0.25763091620E+02 -0.28517434642E+02  0.72394953271E+02  0.41800000000E+01 0. -1.
        -11    1    1    2    0    0  0.29203175998E+02 -0.27489468313E+02  0.30265884789E+01  0.40220101869E+02  0.00000000000E+00 0.  1.
         11    1    1    2    0    0 -0.20336598498E+02 -0.47687158808E+02 -0.96507622524E+02  0.10955073509E+03  0.00000000000E+00 0. -1.
</event>
<event>
 7    1  0.2766180E-009  0.1419373E+03  0.7561462E-02  0.1210746E+00
         -1   -1    0    0    0  501 -0.00000000000E+00  0.00000000000E+00  0.21204974088E+03  0.21204974088E+03  0.00000000000E+00 0.  1.
          1   -1    0    0  501    0  0.00000000000E+00 -0.00000000000E+00 -0.10627170916E+03  0.10627170916E+03  0.00000000000E+00 0. -1.
         25    2    1    2    0    0  0.15334602249E+01 -0.99961583012E+02  0.82649713952E+02  0.18020278520E+03  0.12508956391E+03 0.  0.
          5    1    3    3  502    0  0.61365159399E+02 -0.55908343942E+02  0.59662193876E+02  0.10231556816E+03  0.41800000000E+01 0. -1.
         -5    1    3    3    0  502 -0.59831699174E+02 -0.44053239070E+02  0.22987520075E+02  0.77887217037E+02  0.41800000000E+01 0. -1.
        -11    1    1    2    0    0 -0.34945867144E+02  0.21430700649E+02  0.32429336082E+02  0.52269976080E+02  0.00000000000E+00 0.  1.
         11    1    1    2    0    0  0.33412406919E+02  0.78530882363E+02 -0.93010183140E+01  0.85848688764E+02  0.00000000000E+00 0. -1.
</event>
<event>
 7    1  0.2766180E-009  0.9053368E+02  0.7561462E-02  0.1301564E+00
          2   -1    0    0  501    0  0.00000000000E+00  0.00000000000E+00  0.13108623100E+03  0.13108623100E+03  0.00000000000E+00 0. -1.
         -2   -1    0    0    0  501 -0.00000000000E+00 -0.00000000000E+00 -0.11641273516E+03  0.11641273516E+03  0.00000000000E+00 0.  1.
         25    2    1    2    0    0 -0.12083067812E+01  0.23656791181E+02 -0.46356401556E+02  0.13549576450E+03  0.12509629274E+03 0.  0.
          5    1    3    3  502    0 -0.48677832540E+02  0.33762372991E+02 -0.60493975749E+02  0.84772771057E+02  0.41800000000E+01 0.  1.
         -5    1    3    3    0  502  0.47469525759E+02 -0.10105581810E+02  0.14137574193E+02  0.50722993440E+02  0.41800000000E+01 0.  1.
        -11    1    1    2    0    0  0.47113534039E+01 -0.48071566536E+02  0.70604077871E+02  0.85545357397E+02  0.00000000000E+00 0. -1.
         11    1    1    2    0    0 -0.35030466228E+01  0.24414775355E+02 -0.95741804807E+01  0.26457844265E+02  0.00000000000E+00 0.  1.
</event>
<event>
 7    1  0.2766180E-009  0.1300772E+03  0.7561462E-02  0.1227341E+00
         -2   -1    0    0    0  501 -0.00000000000E+00  0.00000000000E+00  0.65610911215E+02  0.65610911215E+02  0.00000000000E+00 0.  1.
          2   -1    0    0  501    0  0.00000000000E+00 -0.00000000000E+00 -0.37808459545E+03  0.37808459545E+03  0.00000000000E+00 0. -1.
         25    2    1    2    0    0  0.91742971634E+02 -0.16439447193E+02 -0.26202992064E+03  0.30494970557E+03  0.12509042869E+03 0.  0.
          5    1    3    3  502    0 -0.11632355599E+02 -0.25262156463E+02 -0.14832311024E+03  0.15096590899E+03  0.41800000000E+01 0.  1.
         -5    1    3    3    0  502  0.10337532723E+03  0.88227092698E+01 -0.11370681040E+03  0.15398379659E+03  0.41800000000E+01 0.  1.
        -11    1    1    2    0    0 -0.22754245664E+02  0.47399124991E+02 -0.29470942408E+02  0.60274117099E+02  0.00000000000E+00 0. -1.
         11    1    1    2    0    0 -0.68988725970E+02 -0.30959677798E+02 -0.20972821189E+02  0.78471683995E+02  0.00000000000E+00 0.  1.
</event>
<event>
 7    1  0.3176757E-009  0.2030876E+03  0.7561462E-02  0.1147160E+00
         -1   -1    0    0    0  501 -0.00000000000E+00  0.00000000000E+00  0.10463410789E+03  0.10463410789E+03  0.00000000000E+00 0.  1.
          1   -1    0    0  501    0  0.00000000000E+00 -0.00000000000E+00 -0.50828170327E+03  0.50828170327E+03  0.00000000000E+00 0. -1.
         25    2    1    2    0    0  0.13061319114E+03 -0.15078818970E+03 -0.26007130555E+03  0.35083058052E+03  0.12509247941E+03 0.  0.
          5    1    3    3  502    0  0.29219353318E+02 -0.20149808349E+02 -0.14495481220E+03  0.14929553029E+03  0.41800000000E+01 0. -1.
         -5    1    3    3    0  502  0.10139383783E+03 -0.13063838135E+03 -0.11511649335E+03  0.20153505023E+03  0.41800000000E+01 0. -1.
        -11    1    1    2    0    0 -0.58400766527E+02  0.10305157552E+03 -0.35580125252E+02  0.12367789641E+03  0.00000000000E+00 0.  1.
         11    1    1    2    0    0 -0.72212424616E+02  0.47736614183E+02 -0.10799616458E+03  0.13840733423E+03  0.00000000000E+00 0. -1.
</event>
<event>
 7    1  0.2766180E-009  0.1619108E+03  0.7561462E-02  0.1186556E+00
          1   -1    0    0  501    0  0.00000000000E+00  0.00000000000E+00  0.43446114709E+03  0.43446114709E+03  0.00000000000E+00 0. -1.
         -1   -1    0    0    0  501 -0.00000000000E+00 -0.00000000000E+00 -0.10072937725E+03  0.10072937725E+03  0.00000000000E+00 0.  1.
         25    2    1    2    0    0 -0.12487707758E+03 -0.34594228583E+02  0.17610063075E+02  0.18097000989E+03  0.12509590322E+03 0.  0.
          5    1    3    3  502    0 -0.13806678235E+03  0.32914607354E+01  0.34139147616E+01  0.13821142252E+03  0.41800000000E+01 0.  1.
         -5    1    3    3    0  502  0.13189704769E+02 -0.37885689319E+02  0.14196148313E+02  0.42758587371E+02  0.41800000000E+01 0.  1.
        -11    1    1    2    0    0 -0.41170861085E+01  0.14122921436E+02  0.30868009534E+01  0.15031155912E+02  0.00000000000E+00 0.  1.
         11    1    1    2    0    0  0.12899416369E+03  0.20471307147E+02  0.31303490582E+03  0.33918935853E+03  0.00000000000E+00 0. -1.
</event>
<event>
 7    1  0.2766180E-009  0.1322415E+03  0.7561462E-02  0.1224167E+00
          1   -1    0    0  501    0  0.00000000000E+00  0.00000000000E+00  0.75967649703E+03  0.75967649703E+03  0.00000000000E+00 0. -1.
         -1   -1    0    0    0  501 -0.00000000000E+00 -0.00000000000E+00 -0.38232829972E+02  0.38232829972E+02  0.00000000000E+00 0.  1.
         25    2    1    2    0    0 -0.12306233666E+03 -0.11330575000E+02  0.47552521915E+03  0.50699582735E+03  0.12509122378E+03 0.  0.
          5    1    3    3  502    0 -0.23301539861E+02  0.24595871386E+02  0.20629015780E+02  0.39886681250E+02  0.41800000000E+01 0.  1.
         -5    1    3    3    0  502 -0.99760796801E+02 -0.35926446386E+02  0.45489620337E+03  0.46710914610E+03  0.41800000000E+01 0.  1.
        -11    1    1    2    0    0  0.95727595851E+02  0.34815682076E+01  0.24432212927E+03  0.26242941294E+03  0.00000000000E+00 0.  1.
         11    1    1    2    0    0  0.27334740811E+02  0.78490067927E+01  0.15963186391E+01  0.28484086716E+02  0.00000000000E+00 0. -1.
</event>
<event>
 7    1  0.2766180E-009  0.1867320E+03  0.7561462E-02  0.1161442E+00
         -1   -1    0    0    0  501 -0.00000000000E+00  0.00000000000E+00  0.37751346105E+02  0.37751346105E+02  0.00000000000E+00 0.  1.
          1   -1    0    0  501    0  0.00000000000E+00 -0.00000000000E+00 -0.11691973978E+04  0.11691973978E+04  0.00000000000E+00 0. -1.
         25    2    1    2    0    0  0.15351881700E+03  0.74972493538E+02 -0.44184352048E+03  0.48996161267E+03  0.12509110016E+03 0.  0.
          5    1    3    3  502    0 -0.13339945443E+02  0.14592055645E+02 -0.89673172771E+01  0.22108084754E+02  0.41800000000E+01 0. -1.
         -5    1    3    3    0  502  0.16685876244E+03  0.60380437893E+02 -0.43287620320E+03  0.46785352791E+03  0.41800000000E+01 0. -1.
        -11    1    1    2    0    0 -0.82592942083E+02 -0.62891633184E+02 -0.55234513272E+03  0.56201610053E+03  0.00000000000E+00 0. -1.
         11    1    1    2    0    0 -0.70925874916E+02 -0.12080860354E+02 -0.13725739852E+03  0.15497103074E+03  0.00000000000E+00 0.  1.
</event>
<event>
 7    1  0.2766180E-009  0.7444296E+02  0.7561462E-02  0.1345605E+00
         -2   -1    0    0    0  501 -0.00000000000E+00  0.00000000000E+00  0.27504273659E+02  0.27504273659E+02  0.00000000000E+00 0.  1.
          2   -1    0    0  501    0  0.00000000000E+00 -0.00000000000E+00 -0.48710856997E+03  0.48710856997E+03  0.00000000000E+00 0. -1.
         25    2    1    2    0    0 -0.78859207589E+01 -0.41120493305E+02 -0.26718108917E+03  0.29797137622E+03  0.12509246149E+03 0.  0.
          5    1    3    3  502    0  0.91137925236E+01 -0.63662464870E+02 -0.57539365929E+02  0.86395727203E+02  0.41800000000E+01 0. -1.
         -5    1    3    3    0  502 -0.16999713283E+02  0.22541971564E+02 -0.20964172324E+03  0.21157564902E+03  0.41800000000E+01 0. -1.
        -11    1    1    2    0    0  0.22344008267E+02  0.31148912443E+02 -0.19513971679E+03  0.19886935038E+03  0.00000000000E+00 0. -1.
         11    1    1    2    0    0 -0.14458087508E+02  0.99715808621E+01  0.27165096417E+01  0.17772117035E+02  0.00000000000E+00 0.  1.
</event>
<event>
 7    1  0.2766180E-009  0.1351889E+03  0.7561462E-02  0.1219953E+00
          1   -1    0    0  501    0  0.00000000000E+00  0.00000000000E+00  0.31793294764E+02  0.31793294764E+02  0.00000000000E+00 0. -1.
         -1   -1    0    0    0  501 -0.00000000000E+00 -0.00000000000E+00 -0.66596302771E+03  0.66596302771E+03  0.00000000000E+00 0.  1.
         25    2    1    2    0    0  0.79776687143E+01 -0.95978876154E+02 -0.37558405025E+03  0.40741421464E+03  0.12508947045E+03 0.  0.
          5    1    3    3  502    0  0.18028164519E+02 -0.11531288240E+03 -0.36421884813E+03  0.38248518572E+03  0.41800000000E+01 0.  1.
         -5    1    3    3    0  502 -0.10050495805E+02  0.19334006245E+02 -0.11365202122E+02  0.24929028915E+02  0.41800000000E+01 0.  1.
        -11    1    1    2    0    0 -0.44835565264E+02  0.78966325550E+02 -0.19131518385E+03  0.21177206628E+03  0.00000000000E+00 0.  1.
         11    1    1    2    0    0  0.36857896550E+02  0.17012550604E+02 -0.67270498837E+02  0.78570041555E+02  0.00000000000E+00 0. -1.
</event>
<event>
 7    1  0.2766180E-009  0.7851965E+02  0.7561462E-02  0.1333306E+00
          2   -1    0    0  501    0  0.00000000000E+00  0.00000000000E+00  0.65287466015E+03  0.65287466015E+03  0.00000000000E+00 0. -1.
         -2   -1    0    0    0  501 -0.00000000000E+00 -0.00000000000E+00 -0.24562797916E+02  0.24562797916E+02  0.00000000000E+00 0.  1.
         25    2    1    2    0    0 -0.18989097409E+02  0.37328943106E+02  0.21834447896E+03  0.25510296066E+03  0.12509665555E+03 0.  0.
          5    1    3    3  502    0 -0.30022902915E+02  0.37505968307E+02  0.23205542791E+03  0.23701321984E+03  0.41800000000E+01 0. -1.
         -5    1    3    3    0  502  0.11033805505E+02 -0.17702520133E+00 -0.13710948945E+02  0.18089740817E+02  0.41800000000E+01 0. -1.
        -11    1    1    2    0    0 -0.16353945858E+02 -0.55085754712E+02  0.30040188687E+03  0.30584830480E+03  0.00000000000E+00 0. -1.
         11    1    1    2    0    0  0.35343043267E+02  0.17756811606E+02  0.10956549641E+03  0.11648619261E+03  0.00000000000E+00 0.  1.
</event>
<event>
 7    1  0.2766180E-009  0.1195149E+03  0.7561462E-02  0.1243899E+00
          2   -1    0    0  501    0  0.00000000000E+00  0.00000000000E+00  0.16284487703E+03  0.16284487703E+03  0.00000000000E+00 0. -1.
         -2   -1    0    0    0  501 -0.00000000000E+00 -0.00000000000E+00 -0.94458740622E+02  0.94458740622E+02  0.00000000000E+00 0.  1.
         25    2    1    2    0    0  0.85953590815E+01 -0.43196044354E+02  0.56226698298E+01  0.13273903557E+03  0.12509300021E+03 0.  0.
          5    1    3    3  502    0 -0.39017899866E+02  0.26461320492E+02  0.90676281021E+01  0.48190167789E+02  0.41800000000E+01 0. -1.
         -5    1    3    3    0  502  0.47613258948E+02 -0.69657364846E+02 -0.34449582723E+01  0.84548867777E+02  0.41800000000E+01 0. -1.
        -11    1    1    2    0    0  0.31554978156E+02  0.56676693977E+02  0.43006275457E+02  0.77829968619E+02  0.00000000000E+00 0. -1.
         11    1    1    2    0    0 -0.40150337238E+02 -0.13480649623E+02  0.19757191117E+02  0.46734613461E+02  0.00000000000E+00 0.  1.
</event>
<event>
 7    1  0.2766180E-009  0.1249877E+03  0.7561462E-02  0.1235089E+00
          1   -1    0    0  501    0  0.00000000000E+00  0.00000000000E+00  0.50007315413E+03  0.50007315413E+03  0.00000000000E+00 0. -1.
         -1   -1    0    0    0  501 -0.00000000000E+00 -0.00000000000E+00 -0.52174429081E+02  0.52174429081E+02  0.00000000000E+00 0.  1.
         25    2    1    2    0    0  0.52860898904E+02  0.61299941097E+02  0.90413973258E+02  0.17428269546E+03  0.12509122257E+03 0.  0.
          5    1    3    3  502    0 -0.29628492505E+02 -0.61637723534E+01 -0.52732931580E+01  0.31001930238E+02  0.41800000000E+01 0. -1.
         -5    1    3    3    0  502  0.82489391409E+02  0.67463713450E+02  0.95687266416E+02  0.14328076522E+03  0.41800000000E+01 0. -1.
        -11    1    1    2    0    0 -0.49640904334E+02  0.17263217534E+01  0.86671765108E+02  0.99895918019E+02  0.00000000000E+00 0.  1.
         11    1    1    2    0    0 -0.32199945700E+01 -0.63026262850E+02  0.27081298669E+03  0.27806896974E+03  0.00000000000E+00 0. -1.
</event>
<event>
 7    1  0.2766180E-009  0.6640505E+02  0.7561462E-02  0.1372763E+00
          1   -1    0    0  501    0  0.00000000000E+00  0.00000000000E+00  0.26207287226E+03  0.26207287226E+03  0.00000000000E+00 0. -1.
         -1   -1    0    0    0  501 -0.00000000000E+00 -0.00000000000E+00 -0.58017602042E+02  0.58017602042E+02  0.00000000000E+00 0.  1.
         25    2    1    2    0    0 -0.55898752077E+02 -0.20357502554E+02  0.10370937748E+03  0.17303805136E+03  0.12508970320E+03 0.  0.
          5    1    3    3  502    0 -0.76264316844E+01 -0.16907304712E+02 -0.27325485098E+02  0.33289246743E+02  0.41800000000E+01 0. -1.
         -5    1    3    3    0  502 -0.48272320393E+02 -0.34501978414E+01  0.13103486258E+03  0.13974880462E+03  0.41800000000E+01 0. -1.
        -11    1    1    2    0    0  0.31076293304E+02 -0.28929661943E+01 -0.90461476124E+01  0.32495200346E+02  0.00000000000E+00 0.  1.
         11    1    1    2    0    0  0.24822458773E+02  0.23250468748E+02  0.10939204035E+03  0.11455722259E+03  0.00000000000E+00 0. -1.
</event>
<event>
 7    1  0.2766180E-009  0.1132389E+03  0.7561462E-02  0.1254687E+00
          2   -1    0    0  501    0  0.00000000000E+00  0.00000000000E+00  0.62194816861E+03  0.62194816861E+03  0.00000000000E+00 0.  1.
         -2   -1    0    0    0  501 -0.00000000000E+00 -0.00000000000E+00 -0.26396746691E+02  0.26396746691E+02  0.00000000000E+00 0. -1.
         25    2    1    2    0    0 -0.60749160335E+01  0.40533012787E+02  0.19799408960E+03  0.23776373984E+03  0.12510038662E+03 0.  0.
          5    1    3    3  502    0  0.52548427534E+02 -0.31112158032E+01  0.50328032346E+02  0.72947927592E+02  0.41800000000E+01 0.  1.
         -5    1    3    3    0  502 -0.58623343568E+02  0.43644228591E+02  0.14766605726E+03  0.16481581225E+03  0.41800000000E+01 0.  1.
        -11    1    1    2    0    0 -0.40679173524E+01 -0.69580413917E+02  0.23418992869E+03  0.24434177836E+03  0.00000000000E+00 0. -1.
         11    1    1    2    0    0  0.10142833386E+02  0.29047401130E+02  0.16336740362E+03  0.16623939710E+03  0.00000000000E+00 0.  1.
</event>
<event>
 7    1  0.2766180E-009  0.1889235E+03  0.7561462E-02  0.1159436E+00
          2   -1    0    0  501    0  0.00000000000E+00  0.00000000000E+00  0.13185384420E+03  0.13185384420E+03  0.00000000000E+00 0. -1.
         -2   -1    0    0    0  501 -0.00000000000E+00 -0.00000000000E+00 -0.29917410362E+03  0.29917410362E+03  0.00000000000E+00 0.  1.
         25    2    1    2    0    0  0.15356734093E+03  0.63934337180E+02 -0.99703959323E+02  0.23077493745E+03  0.12508263101E+03 0.  0.
          5    1    3    3  502    0  0.93121625147E+02 -0.11584431155E+02 -0.30712266884E+01  0.93982663021E+02  0.41800000000E+01 0.  1.
         -5    1    3    3    0  502  0.60445715781E+02  0.75518768335E+02 -0.96632732635E+02  0.13679227443E+03  0.41800000000E+01 0.  1.
        -11    1    1    2    0    0 -0.98304660036E+02 -0.82976384014E+02 -0.57602286881E+02  0.14095002640E+03  0.00000000000E+00 0.  1.
         11    1    1    2    0    0 -0.55262680891E+02  0.19042046834E+02 -0.10014013215E+02  0.59302983969E+02  0.00000000000E+00 0. -1.
</event>
<event>
 7    1  0.2766180E-009  0.1328933E+03  0.7561462E-02  0.1223225E+00
          2   -1    0    0  501    0  0.00000000000E+00  0.00000000000E+00  0.88351204797E+02  0.88351204797E+02  0.00000000000E+00 0. -1.
         -2   -1    0    0    0  501 -0.00000000000E+00 -0.00000000000E+00 -0.22836739169E+03  0.22836739169E+03  0.00000000000E+00 0.  1.
         25    2    1    2    0    0  0.59112249804E+02  0.64967916177E+02 -0.11179837589E+03  0.18937180389E+03  0.12509082720E+03 0.  0.
          5    1    3    3  502    0  0.88677104305E+02  0.20078288702E+02 -0.97946193943E+02  0.13370750096E+03  0.41800000000E+01 0.  1.
         -5    1    3    3    0  502 -0.29564854501E+02  0.44889627475E+02 -0.13852181944E+02  0.55664302934E+02  0.41800000000E+01 0.  1.
        -11    1    1    2    0    0 -0.30743755600E+02  0.16286625617E+02 -0.21770502676E+02  0.41041289809E+02  0.00000000000E+00 0. -1.
         11    1    1    2    0    0 -0.28368494204E+02 -0.81254541794E+02 -0.64473083257E+01  0.86305502781E+02  0.00000000000E+00 0.  1.
</event>
<event>
 7    1  0.2766180E-009  0.1051921E+03  0.7561462E-02  0.1269742E+00
         -1   -1    0    0    0  501 -0.00000000000E+00  0.00000000000E+00  0.70256754374E+02  0.70256754374E+02  0.00000000000E+00 0.  1.
          1   -1    0    0  501    0  0.00000000000E+00 -0.00000000000E+00 -0.26715077109E+03  0.26715077109E+03  0.00000000000E+00 0. -1.
         25    2    1    2    0    0  0.11456187225E+02 -0.67773383044E+02 -0.16679839326E+03  0.21953132251E+03  0.12509125427E+03 0.  0.
          5    1    3    3  502    0  0.27396863324E+02 -0.80180952272E+02 -0.45063906860E+02  0.96061445589E+02  0.41800000000E+01 0. -1.
         -5    1    3    3    0  502 -0.15940676099E+02  0.12407569228E+02 -0.12173448640E+03  0.12346987693E+03  0.41800000000E+01 0. -1.
        -11    1    1    2    0    0 -0.12782112934E+02  0.85849469722E+02 -0.50263310185E+01  0.86941232255E+02  0.00000000000E+00 0.  1.
         11    1    1    2    0    0  0.13259257089E+01 -0.18076086678E+02 -0.25069292435E+02  0.30934970693E+02  0.00000000000E+00 0. -1.
</event>
<event>
 7    1  0.2766180E-009  0.1281431E+03  0.7561462E-02  0.1230237E+00
          1   -1    0    0  501    0  0.00000000000E+00  0.00000000000E+00  0.12355023018E+04  0.12355023018E+04  0.00000000000E+00 0. -1.
         -1   -1    0    0    0  501 -0.00000000000E+00 -0.00000000000E+00 -0.15089717260E+02  0.15089717260E+02  0.00000000000E+00 0.  1.
         25    2    1    2    0    0  0.81790888311E+02  0.11531592050E+02  0.67245895383E+03  0.68896198409E+03  0.12507935046E+03 0.  0.
          5    1    3    3  502    0  0.31326263976E+02 -0.49445132981E+02  0.16024805559E+03  0.17065482036E+03  0.41800000000E+01 0.  1.
         -5    1    3    3    0  502  0.50464624335E+02  0.60976725031E+02  0.51221089824E+03  0.51830716373E+03  0.41800000000E+01 0.  1.
        -11    1    1    2    0    0 -0.84652496696E+02  0.19753772306E+02  0.46219292462E+03  0.47029624312E+03  0.00000000000E+00 0. -1.
         11    1    1    2    0    0  0.28616083845E+01 -0.31285364356E+02  0.85760706063E+02  0.91333791829E+02  0.00000000000E+00 0.  1.
</event>
<event>
 7    1  0.2766180E-009  0.7812929E+02  0.7561462E-02  0.1334446E+00
         -1   -1    0    0    0  501 -0.00000000000E+00  0.00000000000E+00  0.56308852104E+02  0.56308852104E+02  0.00000000000E+00 0.  1.
          1   -1    0    0  501    0  0.00000000000E+00 -0.00000000000E+00 -0.28308143554E+03  0.28308143554E+03  0.00000000000E+00 0. -1.
         25    2    1    2    0    0 -0.12301600149E+02  0.47975680091E+02 -0.70922976491E+02  0.15208372631E+03  0.12508555459E+03 0.  0.
          5    1    3    3  502    0 -0.18241933435E+02  0.39880834324E+02  0.28238769567E+02  0.52327331180E+02  0.41800000000E+01 0.  1.
         -5    1    3    3    0  502  0.59403332858E+01  0.80948457668E+01 -0.99161746058E+02  0.99756395127E+02  0.41800000000E+01 0.  1.
        -11    1    1    2    0    0  0.16401047668E+02  0.24092012314E+02 -0.27606938545E+02  0.40144270796E+02  0.00000000000E+00 0. -1.
         11    1    1    2    0    0 -0.40994475190E+01 -0.72067692405E+02 -0.12824266840E+03  0.14716229054E+03  0.00000000000E+00 0.  1.
</event>
<event>
 7    1  0.2766180E-009  0.2881865E+03  0.7561462E-02  0.1091300E+00
          1   -1    0    0  501    0  0.00000000000E+00  0.00000000000E+00  0.10583020348E+04  0.10583020348E+04  0.00000000000E+00 0. -1.
         -1   -1    0    0    0  501 -0.00000000000E+00 -0.00000000000E+00 -0.83034771429E+02  0.83034771429E+02  0.00000000000E+00 0.  1.
         25    2    1    2    0    0 -0.21513177951E+03  0.16733927537E+03  0.41724758775E+03  0.51383099464E+03  0.12507048387E+03 0.  0.
          5    1    3    3  502    0 -0.19733668539E+03  0.91142249691E+02  0.26647083958E+03  0.34390821134E+03  0.41800000000E+01 0.  1.
         -5    1    3    3    0  502 -0.17795094120E+02  0.76197025677E+02  0.15077674817E+03  0.16992278331E+03  0.41800000000E+01 0.  1.
        -11    1    1    2    0    0  0.17670698546E+03 -0.99907065093E+02  0.33886550294E+03  0.39501469523E+03  0.00000000000E+00 0. -1.
         11    1    1    2    0    0  0.38424794049E+02 -0.67432210275E+02  0.21915417268E+03  0.23249111635E+03  0.00000000000E+00 0.  1.
</event>
<event>
 7    1  0.2766180E-009  0.9192572E+02  0.7561462E-02  0.1298254E+00
         -4   -1    0    0    0  501 -0.00000000000E+00  0.00000000000E+00  0.23594899936E+03  0.23594899936E+03  0.00000000000E+00 0.  1.
          4   -1    0    0  501    0  0.00000000000E+00 -0.00000000000E+00 -0.59422068950E+02  0.59422068950E+02  0.00000000000E+00 0. -1.
         25    2    1    2    0    0 -0.25906832308E+01 -0.35128893056E+02  0.14028814881E+03  0.19123046888E+03  0.12509027445E+03 0.  0.
          5    1    3    3  502    0  0.15124266883E+02  0.31496940822E+02  0.36668027399E+00  0.35191015676E+02  0.41800000000E+01 0.  1.
         -5    1    3    3    0  502 -0.17714950114E+02 -0.66625833877E+02  0.13992146854E+03  0.15603945320E+03  0.41800000000E+01 0.  1.
        -11    1    1    2    0    0 -0.31123218830E+02  0.30440249188E+00  0.45169258453E+02  0.54854437564E+02  0.00000000000E+00 0.  1.
         11    1    1    2    0    0  0.33713902061E+02  0.34824490564E+02 -0.89304768536E+01  0.49286161872E+02  0.00000000000E+00 0. -1.
</event>
<event>
 7    1  0.2766180E-009  0.1002179E+03  0.7561462E-02  0.1279838E+00
         -1   -1    0    0    0  501 -0.00000000000E+00  0.00000000000E+00  0.15389267002E+03  0.15389267002E+03  0.00000000000E+00 0.  1.
          1   -1    0    0  501    0  0.00000000000E+00 -0.00000000000E+00 -0.83497876284E+02  0.83497876284E+02  0.00000000000E+00 0. -1.
         25    2    1    2    0    0 -0.20368546184E+02 -0.19116302707E+02  0.54444587381E+02  0.13925424110E+03  0.12508884789E+03 0.  0.
          5    1    3    3  502    0 -0.33263796421E+02  0.48338768676E+02  0.18749971449E+02  0.61742615257E+02  0.41800000000E+01 0. -1.
         -5    1    3    3    0  502  0.12895250236E+02 -0.67455071383E+02  0.35694615932E+02  0.77511625840E+02  0.41800000000E+01 0. -1.
        -11    1    1    2    0    0 -0.22941022078E+02  0.18533125327E+02  0.39138738288E+02  0.49006204333E+02  0.00000000000E+00 0.  1.
         11    1    1    2    0    0  0.43309568262E+02  0.58317738003E+00 -0.23188531932E+02  0.49130100876E+02  0.00000000000E+00 0. -1.
</event>
<event>
 7    1  0.2766180E-009  0.6741251E+02  0.7561462E-02  0.1369120E+00
         -2   -1    0    0    0  501 -0.00000000000E+00  0.00000000000E+00  0.24931047814E+03  0.24931047814E+03  0.00000000000E+00 0.  1.
          2   -1    0    0  501    0  0.00000000000E+00 -0.00000000000E+00 -0.80704317449E+02  0.80704317449E+02  0.00000000000E+00 0. -1.
         25    2    1    2    0    0 -0.49684010923E+02 -0.26309693166E+02  0.17150640827E+03  0.21959438179E+03  0.12508614447E+03 0.  0.
          5    1    3    3  502    0 -0.13809025984E+02  0.98916968911E+01 -0.16929058298E+02  0.24343382691E+02  0.41800000000E+01 0. -1.
         -5    1    3    3    0  502 -0.35874984939E+02 -0.36201390057E+02  0.18843546657E+03  0.19525099910E+03  0.41800000000E+01 0. -1.
        -11    1    1    2    0    0  0.53240466993E+02  0.16466660527E+02  0.38489201817E+02  0.67728257700E+02  0.00000000000E+00 0.  1.
         11    1    1    2    0    0 -0.35564560704E+01  0.98430326395E+01 -0.41389449397E+02  0.42692156103E+02  0.00000000000E+00 0. -1.
</event>
<event>
 7    1  0.2766180E-009  0.1392118E+03  0.7561462E-02  0.1214393E+00
          1   -1    0    0  501    0  0.00000000000E+00  0.00000000000E+00  0.20416680205E+03  0.20416680205E+03  0.00000000000E+00 0. -1.
         -1   -1    0    0    0  501 -0.00000000000E+00 -0.00000000000E+00 -0.19612824975E+03  0.19612824975E+03  0.00000000000E+00 0.  1.
         25    2    1    2    0    0 -0.96966609932E+02  0.77637535079E+02  0.11706506475E+03  0.21161619155E+03  0.12508826023E+03 0.  0.
          5    1    3    3  502    0 -0.19912677323E+02  0.21031433704E+02  0.11202155752E+03  0.11578055826E+03  0.41800000000E+01 0.  1.
         -5    1    3    3    0  502 -0.77053932609E+02  0.56606101376E+02  0.50435072281E+01  0.95835633293E+02  0.41800000000E+01 0.  1.
        -11    1    1    2    0    0 -0.16070119556E+02 -0.22609025531E+02 -0.25991546592E+02  0.38012856670E+02  0.00000000000E+00 0.  1.
         11    1    1    2    0    0  0.11303672949E+03 -0.55028509549E+02 -0.83034965861E+02  0.15066600357E+03  0.00000000000E+00 0. -1.
</event>
<event>
 7    1  0.2766180E-009  0.1201904E+03  0.7561462E-02  0.1242783E+00
          1   -1    0    0  501    0  0.00000000000E+00  0.00000000000E+00  0.50743734683E+03  0.50743734683E+03  0.00000000000E+00 0. -1.
         -1   -1    0    0    0  501 -0.00000000000E+00 -0.00000000000E+00 -0.40799222665E+02  0.40799222665E+02  0.00000000000E+00 0.  1.
         25    2    1    2    0    0 -0.93650606407E+02  0.95356680284E+01  0.33281440855E+03  0.36779520033E+03  0.12508602559E+03 0.  0.
          5    1    3    3  502    0 -0.11370085047E+03  0.28772389500E+02  0.31041991571E+03  0.33186402376E+03  0.41800000000E+01 0. -1.
         -5    1    3    3    0  502  0.20050244063E+02 -0.19236721471E+02  0.22394492842E+02  0.35931176569E+02  0.41800000000E+01 0. -1.
        -11    1    1    2    0    0  0.23027279031E+02 -0.76832579086E+01  0.98514806164E+02  0.10146159404E+03  0.00000000000E+00 0. -1.
         11    1    1    2    0    0  0.70623327376E+02 -0.18524101199E+01  0.35308909448E+02  0.78979775128E+02  0.00000000000E+00 0.  1.
</event>
<event>
 7    1  0.2766180E-009  0.1095335E+03  0.7561462E-02  0.1261436E+00
         -2   -1    0    0    0  501 -0.00000000000E+00  0.00000000000E+00  0.34716760093E+03  0.34716760093E+03  0.00000000000E+00 0.  1.
          2   -1    0    0  501    0  0.00000000000E+00 -0.00000000000E+00 -0.37480595499E+02  0.37480595499E+02  0.00000000000E+00 0. -1.
         25    2    1    2    0    0 -0.29338743801E+02 -0.19753924359E+02  0.19065572610E+03  0.23075623967E+03  0.12509139393E+03 0.  0.
          5    1    3    3  502    0 -0.23532564502E+02 -0.70762563467E+02  0.84590416447E+02  0.11284561549E+03  0.41800000000E+01 0.  1.
         -5    1    3    3    0  502 -0.58061792993E+01  0.51008639108E+02  0.10606530965E+03  0.11791062418E+03  0.41800000000E+01 0.  1.
        -11    1    1    2    0    0  0.30803899697E+02  0.52081077935E+02  0.53340425973E+02  0.80663002414E+02  0.00000000000E+00 0. -1.
         11    1    1    2    0    0 -0.14651558961E+01 -0.32327153576E+02  0.65690853353E+02  0.73228954344E+02  0.00000000000E+00 0.  1.
</event>
<event>
 7    1  0.2766180E-009  0.1314373E+03  0.7561462E-02  0.1225339E+00
          2   -1    0    0  501    0  0.00000000000E+00  0.00000000000E+00  0.11779076348E+03  0.11779076348E+03  0.00000000000E+00 0. -1.
         -2   -1    0    0    0  501 -0.00000000000E+00 -0.00000000000E+00 -0.23701179612E+03  0.23701179612E+03  0.00000000000E+00 0.  1.
         25    2    1    2    0    0  0.32877442530E+02  0.91987844740E+02  0.25911027142E+02  0.16082653933E+03  0.12510437489E+03 0.  0.
          5    1    3    3  502    0 -0.24044113160E+02  0.77924082353E+02  0.51688485654E+02  0.96640850252E+02  0.41800000000E+01 0.  1.
         -5    1    3    3    0  502  0.56921555690E+02  0.14063762387E+02 -0.25777458511E+02  0.64185689074E+02  0.41800000000E+01 0.  1.
        -11    1    1    2    0    0 -0.10803559272E+02  0.11991064732E+02 -0.45533620605E+02  0.48309555284E+02  0.00000000000E+00 0.  1.
         11    1    1    2    0    0 -0.22073883258E+02 -0.10397890947E+03 -0.99598439177E+02  0.14566646499E+03  0.00000000000E+00 0. -1.
</event>
<event>
 7    1  0.4232474E-009  0.1018793E+03  0.7561462E-02  0.1276393E+00
          1   -1    0    0  501    0  0.00000000000E+00  0.00000000000E+00  0.58409250741E+03  0.58409250741E+03  0.00000000000E+00 0. -1.
         -1   -1    0    0    0  501 -0.00000000000E+00 -0.00000000000E+00 -0.29483530230E+02  0.29483530230E+02  0.00000000000E+00 0.  1.
         25    2    1    2    0    0  0.72709207395E+02 -0.10685771958E+02  0.31195208363E+03  0.34403865773E+03  0.12509069097E+03 0.  0.
          5    1    3    3  502    0  0.12983805311E+02 -0.28902956828E+02  0.26206404701E+03  0.26400567655E+03  0.41800000000E+01 0. -1.
         -5    1    3    3    0  502  0.59725402084E+02  0.18217184869E+02  0.49888036619E+02  0.80032981179E+02  0.41800000000E+01 0. -1.
        -11    1    1    2    0    0 -0.64157352876E+02 -0.27706175211E+02  0.10316873037E+03  0.12460973075E+03  0.00000000000E+00 0.  1.
         11    1    1    2    0    0 -0.85518545193E+01  0.38391947170E+02  0.13948816319E+03  0.14492764917E+03  0.00000000000E+00 0. -1.
</event>
<event>
 7    1  0.2766180E-009  0.1642894E+03  0.7561462E-02  0.1183937E+00
         -4   -1    0    0    0  501 -0.00000000000E+00  0.00000000000E+00  0.43144204315E+03  0.43144204315E+03  0.00000000000E+00 0. -1.
          4   -1    0    0  501    0  0.00000000000E+00 -0.00000000000E+00 -0.81173450677E+02  0.81173450677E+02  0.00000000000E+00 0.  1.
         25    2    1    2    0    0 -0.12513900855E+03  0.88697894613E+02  0.18763467081E+03  0.27272432756E+03  0.12507877991E+03 0.  0.
          5    1    3    3  502    0 -0.20180760828E+02  0.55500048861E+02  0.49690863280E+01  0.59411133217E+02  0.41800000000E+01 0. -1.
         -5    1    3    3    0  502 -0.10495824772E+03  0.33197845752E+02  0.18266558448E+03  0.21331319434E+03  0.41800000000E+01 0. -1.
        -11    1    1    2    0    0  0.10109762492E+03 -0.47928631507E+02  0.60198945335E+02  0.12705036994E+03  0.00000000000E+00 0.  1.
         11    1    1    2    0    0  0.24041383626E+02 -0.40769263105E+02  0.10243497633E+03  0.11284079633E+03  0.00000000000E+00 0. -1.
</event>
<event>
 6    1  0.2766180E-009  0.1004701E+03  0.7561462E-02  0.1279311E+00
          1   -1    0    0  501    0  0.00000000000E+00  0.00000000000E+00  0.99327287200E+02  0.99327287200E+02  0.00000000000E+00 0. -1.
         -1   -1    0    0    0  501 -0.00000000000E+00 -0.00000000000E+00 -0.19592387689E+03  0.19592387689E+03  0.00000000000E+00 0.  1.
          5    1    1    2  502    0 -0.12091328483E+02 -0.65289531025E+02 -0.29622325132E+01  0.66597074316E+02  0.41800000000E+01 0. -1.
         -5    1    1    2    0  502  0.55078072805E+02 -0.11816747791E+01 -0.98440292684E+02  0.11288469375E+03  0.41800000000E+01 0. -1.
        -11    1    1    2    0    0 -0.25585460285E+02  0.39465504520E+02 -0.39239302480E+02  0.61252466760E+02  0.00000000000E+00 0.  1.
         11    1    1    2    0    0 -0.17401284037E+02  0.27005701285E+02  0.44045237983E+02  0.54516929269E+02  0.00000000000E+00 0. -1.
</event>
<event>
 7    1  0.2766180E-009  0.7300903E+02  0.7561462E-02  0.1350150E+00
         -1   -1    0    0    0  501 -0.00000000000E+00  0.00000000000E+00  0.20491991204E+02  0.20491991204E+02  0.00000000000E+00 0.  1.
          1   -1    0    0  501    0  0.00000000000E+00 -0.00000000000E+00 -0.77034170282E+03  0.77034170282E+03  0.00000000000E+00 0. -1.
         25    2    1    2    0    0 -0.16833163615E+02  0.33326431410E+01 -0.62475260363E+03  0.63738324283E+03  0.12508845110E+03 0.  0.
          5    1    3    3  502    0 -0.48656366180E+02 -0.10823679448E+02 -0.57106154437E+03  0.57324807358E+03  0.41800000000E+01 0.  1.
         -5    1    3    3    0  502  0.31823202565E+02  0.14156322589E+02 -0.53691059253E+02  0.64135169248E+02  0.41800000000E+01 0.  1.
        -11    1    1    2    0    0 -0.21244416749E+02  0.52527742445E+01  0.53860042585E+00  0.21890796483E+02  0.00000000000E+00 0.  1.
         11    1    1    2    0    0  0.38077580364E+02 -0.85854173855E+01 -0.12563570842E+03  0.13155965471E+03  0.00000000000E+00 0. -1.
</event>
<event>
 7    1  0.2766180E-009  0.1324563E+03  0.7561462E-02  0.1223856E+00
          1   -1    0    0  501    0  0.00000000000E+00  0.00000000000E+00  0.32482335782E+03  0.32482335782E+03  0.00000000000E+00 0. -1.
         -1   -1    0    0    0  501 -0.00000000000E+00 -0.00000000000E+00 -0.57928339307E+02  0.57928339307E+02  0.00000000000E+00 0.  1.
         25    2    1    2    0    0  0.78030164668E+02  0.28910662959E+02  0.15861270500E+03  0.21847508317E+03  0.12509531865E+03 0.  0.
          5    1    3    3  502    0  0.20630956192E+02  0.68955230589E+02  0.11554083113E+03  0.13618963337E+03  0.41800000000E+01 0.  1.
         -5    1    3    3    0  502  0.57399208476E+02 -0.40044567630E+02  0.43071873872E+02  0.82285449802E+02  0.41800000000E+01 0.  1.
        -11    1    1    2    0    0 -0.98316644942E+02 -0.19039417037E+02  0.80494783404E+02  0.12848374305E+03  0.00000000000E+00 0. -1.
         11    1    1    2    0    0  0.20286480274E+02 -0.98712459222E+01  0.27787530103E+02  0.35792870899E+02  0.00000000000E+00 0.  1.
</event>
<event>
 7    1  0.2766180E-009  0.1090540E+03  0.7561462E-02  0.1262332E+00
         -1   -1    0    0    0  501 -0.00000000000E+00  0.00000000000E+00  0.99817027176E+02  0.99817027176E+02  0.00000000000E+00 0.  1.
          1   -1    0    0  501    0  0.00000000000E+00 -0.00000000000E+00 -0.14322164222E+03  0.14322164222E+03  0.00000000000E+00 0. -1.
         25    2    1    2    0    0 -0.12628762135E+02  0.46142707906E+02 -0.11723689536E+02  0.13444185652E+03  0.12509409563E+03 0.  0.
          5    1    3    3  502    0  0.49380725602E+02  0.73659396317E+01  0.20855321183E+02  0.54269051487E+02  0.41800000000E+01 0. -1.
         -5    1    3    3    0  502 -0.62009487737E+02  0.38776768274E+02 -0.32579010719E+02  0.80172805031E+02  0.41800000000E+01 0. -1.
        -11    1    1    2    0    0  0.47297159208E+02 -0.20099991392E+02 -0.39141318384E+02  0.64599332257E+02  0.00000000000E+00 0.  1.
         11    1    1    2    0    0 -0.34668397073E+02 -0.26042716513E+02  0.74603928770E+01  0.43997480620E+02  0.00000000000E+00 0. -1.
</event>
<event>
 7    1  0.2766180E-009  0.1351017E+03  0.7561462E-02  0.1220076E+00
          1   -1    0    0  501    0  0.00000000000E+00  0.00000000000E+00  0.56137185234E+03  0.56137185234E+03  0.00000000000E+00 0. -1.
         -1   -1    0    0    0  501 -0.00000000000E+00 -0.00000000000E+00 -0.53589011145E+02  0.53589011145E+02  0.00000000000E+00 0.  1.
         25    2    1    2    0    0 -0.12558472721E+02  0.95503562714E+02  0.99622286096E+02  0.18668362367E+03  0.12509008647E+03 0.  0.
          5    1    3    3  502    0 -0.13944129353E+02 -0.20852333962E+02  0.57477228078E+02  0.62851911049E+02  0.41800000000E+01 0.  1.
         -5    1    3    3    0  502  0.13856566318E+01  0.11635589668E+03  0.42145058018E+02  0.12383171262E+03  0.41800000000E+01 0.  1.
        -11    1    1    2    0    0  0.43724966879E+02 -0.84748378292E+02  0.27385322330E+03  0.28998232405E+03  0.00000000000E+00 0.  1.
         11    1    1    2    0    0 -0.31166494158E+02 -0.10755184422E+02  0.13430733181E+03  0.13829491577E+03  0.00000000000E+00 0. -1.
</event>
<event>
 7    1  0.2766180E-009  0.8183064E+02  0.7561462E-02  0.1323935E+00
          1   -1    0    0  501    0  0.00000000000E+00  0.00000000000E+00  0.44075610572E+03  0.44075610572E+03  0.00000000000E+00 0. -1.
         -1   -1    0    0    0  501 -0.00000000000E+00 -0.00000000000E+00 -0.29780624067E+02  0.29780624067E+02  0.00000000000E+00 0.  1.
         25    2    1    2    0    0 -0.34359521943E+02  0.22077031227E+02  0.31758808218E+03  0.34376679335E+03  0.12508175812E+03 0.  0.
          5    1    3    3  502    0 -0.25588252702E+02  0.49855329267E+02  0.52028705008E+02  0.76581793381E+02  0.41800000000E+01 0. -1.
         -5    1    3    3    0  502 -0.87712692413E+01 -0.27778298040E+02  0.26555937717E+03  0.26718499997E+03  0.41800000000E+01 0. -1.
        -11    1    1    2    0    0 -0.46493513514E+01 -0.36240841365E+02  0.70427743401E+02  0.79341553371E+02  0.00000000000E+00 0. -1.
         11    1    1    2    0    0  0.39008873294E+02  0.14163810138E+02  0.22959656081E+02  0.47428383071E+02  0.00000000000E+00 0.  1.
</event>
<event>
 7    1  0.2766180E-009  0.1353024E+03  0.7561462E-02  0.1219793E+00
         -2   -1    0    0    0  501 -0.00000000000E+00  0.00000000000E+00  0.84686992759E+02  0.84686992759E+02  0.00000000000E+00 0.  1.
          2   -1    0    0  501    0  0.00000000000E+00 -0.00000000000E+00 -0.23195013553E+03  0.23195013553E+03  0.00000000000E+00 0. -1.
         25    2    1    2    0    0 -0.45806463413E+02  0.75617065188E+02 -0.75697221804E+02  0.17086108506E+03  0.12508904173E+03 0.  0.
          5    1    3    3  502    0 -0.70930003317E+02  0.93945502672E+02 -0.42605540395E+02  0.12525784333E+03  0.41800000000E+01 0.  1.
         -5    1    3    3    0  502  0.25123539904E+02 -0.18328437484E+02 -0.33091681409E+02  0.45603241731E+02  0.41800000000E+01 0.  1.
        -11    1    1    2    0    0 -0.12386185280E+02 -0.59889423293E+02 -0.57353734188E+02  0.83842778064E+02  0.00000000000E+00 0.  1.
         11    1    1    2    0    0  0.58192648693E+02 -0.15727641895E+02 -0.14212186783E+02  0.61933265170E+02  0.00000000000E+00 0. -1.
</event>
<event>
 6    1  0.2766180E-009  0.9512921E+02  0.7561462E-02  0.1290885E+00
          1   -1    0    0  501    0  0.00000000000E+00  0.00000000000E+00  0.36399185871E+03  0.36399185871E+03  0.00000000000E+00 0. -1.
         -1   -1    0    0    0  501 -0.00000000000E+00 -0.00000000000E+00 -0.47922037107E+02  0.47922037107E+02  0.00000000000E+00 0.  1.
          5    1    1    2  502    0  0.27102524483E+02  0.12307796402E+02 -0.48918950412E+01  0.30453763688E+02  0.41800000000E+01 0. -1.
         -5    1    1    2    0  502  0.27229037398E+02 -0.55932263901E+02  0.21435070095E+03  0.22323425817E+03  0.41800000000E+01 0. -1.
        -11    1    1    2    0    0 -0.33990441051E+02 -0.13986286501E+02  0.16676578388E+01  0.36793306125E+02  0.00000000000E+00 0.  1.
         11    1    1    2    0    0 -0.20341120830E+02  0.57610754000E+02  0.10494335786E+03  0.12143256784E+03  0.00000000000E+00 0. -1.
</event>
<event>
 7    1  0.2766180E-009  0.1098882E+03  0.7561462E-02  0.1260777E+00
          2   -1    0    0  501    0  0.00000000000E+00  0.00000000000E+00  0.87298771785E+03  0.87298771785E+03  0.00000000000E+00 0.  1.
         -2   -1    0    0    0  501 -0.00000000000E+00 -0.00000000000E+00 -0.14239375147E+02  0.14239375147E+02  0.00000000000E+00 0. -1.
         25    2    1    2    0    0 -0.81604219005E+01  0.21728769751E+02  0.54890689107E+03  0.56345771456E+03  0.12508832525E+03 0.  0.
          5    1    3    3  502    0  0.22863080867E+02  0.67709833835E+02  0.31243683693E+03  0.32053329240E+03  0.41800000000E+01 0. -1.
         -5    1    3    3    0  502 -0.31023502767E+02 -0.45981064084E+02  0.23647005414E+03  0.24292442216E+03  0.41800000000E+01 0. -1.
        -11    1    1    2    0    0 -0.21350860628E+02 -0.48327687143E+02  0.14886285030E+03  0.15796066851E+03  0.00000000000E+00 0. -1.
         11    1    1    2    0    0  0.29511282529E+02  0.26598917392E+02  0.16097860133E+03  0.16580870993E+03  0.00000000000E+00 0.  1.
</event>
<event>
 7    1  0.2766180E-009  0.7898705E+02  0.7561462E-02  0.1331951E+00
         -2   -1    0    0    0  501 -0.00000000000E+00  0.00000000000E+00  0.12630031057E+02  0.12630031057E+02  0.00000000000E+00 0.  1.
          2   -1    0    0  501    0  0.00000000000E+00 -0.00000000000E+00 -0.13877217207E+04  0.13877217207E+04  0.00000000000E+00 0. -1.
         25    2    1    2    0    0 -0.24287214086E+02 -0.11313752723E+02 -0.11223618420E+04  0.11296289410E+04  0.12509024807E+03 0.  0.
          5    1    3    3  502    0 -0.21435387092E+02 -0.32763161281E+02 -0.10678555730E+03  0.11381356775E+03  0.41800000000E+01 0.  1.
         -5    1    3    3    0  502 -0.28518269939E+01  0.21449408558E+02 -0.10155762847E+04  0.10158153732E+04  0.41800000000E+01 0.  1.
        -11    1    1    2    0    0  0.14683434199E+02  0.52373647936E+02 -0.15564742006E+03  0.16487789909E+03  0.00000000000E+00 0.  1.
         11    1    1    2    0    0  0.96037798876E+01 -0.41059895212E+02 -0.97082427566E+02  0.10584491166E+03  0.00000000000E+00 0. -1.
</event>
<event>
 7    1  0.2766180E-009  0.1047640E+03  0.7561462E-02  0.1270585E+00
         -1   -1    0    0    0  501 -0.00000000000E+00  0.00000000000E+00  0.69079130863E+02  0.69079130863E+02  0.00000000000E+00 0.  1.
          1   -1    0    0  501    0  0.00000000000E+00 -0.00000000000E+00 -0.18887608154E+03  0.18887608154E+03  0.00000000000E+00 0. -1.
         25    2    1    2    0    0 -0.29322034479E+02 -0.18498016139E+02 -0.83653762960E+02  0.15442617271E+03  0.12509009735E+03 0.  0.
          5    1    3    3  502    0  0.18159461127E+02  0.44844426863E+02 -0.45103400715E+02  0.66276525295E+02  0.41800000000E+01 0.  1.
         -5    1    3    3    0  502 -0.47481495606E+02 -0.63342443003E+02 -0.38550362245E+02  0.88149647417E+02  0.41800000000E+01 0.  1.
        -11    1    1    2    0    0  0.43875425978E+02  0.37528216249E+02  0.28035373301E+01  0.57803804730E+02  0.00000000000E+00 0.  1.
         11    1    1    2    0    0 -0.14553391499E+02 -0.19030200110E+02 -0.38946725043E+02  0.45725234957E+02  0.00000000000E+00 0. -1.
</event>
<event>
 7    1  0.2766180E-009  0.7882579E+02  0.7561462E-02  0.1332417E+00
         -1   -1    0    0    0  501 -0.00000000000E+00  0.00000000000E+00  0.16113562817E+03  0.16113562817E+03  0.00000000000E+00 0.  1.
          1   -1    0    0  501    0  0.00000000000E+00 -0.00000000000E+00 -0.94625584115E+02  0.94625584115E+02  0.00000000000E+00 0. -1.
         25    2    1    2    0    0  0.50983240588E+02  0.22791710004E+02  0.41125652614E+02  0.14302490006E+03  0.12508417114E+03 0.  0.
          5    1    3    3  502    0  0.38373236965E+02  0.47984006055E+02 -0.28456564297E+02  0.67839653624E+02  0.41800000000E+01 0. -1.
         -5    1    3    3    0  502  0.12610003623E+02 -0.25192296051E+02  0.69582216912E+02  0.75185246439E+02  0.41800000000E+01 0. -1.
        -11    1    1    2    0    0 -0.16065310755E+02 -0.28002574548E+02 -0.31939219121E+02  0.45413127056E+02  0.00000000000E+00 0. -1.
         11    1    1    2    0    0 -0.34917929833E+02  0.52108645445E+01  0.57323610563E+02  0.67323185167E+02  0.00000000000E+00 0.  1.
</event>
<event>
 7    1  0.2766180E-009  0.1692724E+03  0.7561462E-02  0.1178609E+00
          2   -1    0    0  501    0  0.00000000000E+00  0.00000000000E+00  0.55049435701E+03  0.55049435701E+03  0.00000000000E+00 0. -1.
         -2   -1    0    0    0  501 -0.00000000000E+00 -0.00000000000E+00 -0.56389608604E+02  0.56389608604E+02  0.00000000000E+00 0.  1.
         25    2    1    2    0    0  0.13451061068E+03 -0.23557014456E+02  0.30131604884E+03  0.35367429592E+03  0.12508440747E+03 0.  0.
          5    1    3    3  502    0  0.48858041948E+02 -0.69646830692E+02  0.17065621214E+03  0.19073228471E+03  0.41800000000E+01 0.  1.
         -5    1    3    3    0  502  0.85652568737E+02  0.46089816236E+02  0.13065983669E+03  0.16294201121E+03  0.41800000000E+01 0.  1.
        -11    1    1    2    0    0 -0.13798453985E+03  0.36401570515E+02  0.19284420280E+03  0.23990351003E+03  0.00000000000E+00 0.  1.
         11    1    1    2    0    0  0.34739291605E+01 -0.12844556059E+02 -0.55503236916E-01  0.13306159655E+02  0.00000000000E+00 0. -1.
</event>
<event>
 7    1  0.2766180E-009  0.1095440E+03  0.7561462E-02  0.1261417E+00
         -2   -1    0    0    0  501 -0.00000000000E+00  0.00000000000E+00  0.34437741834E+02  0.34437741834E+02  0.00000000000E+00 0. -1.
          2   -1    0    0  501    0  0.00000000000E+00 -0.00000000000E+00 -0.54401170145E+03  0.54401170145E+03  0.00000000000E+00 0.  1.
         25    2    1    2    0    0 -0.77389814788E+02  0.23421465740E+02 -0.32157536271E+03  0.35439144856E+03  0.12507932052E+03 0.  0.
          5    1    3    3  502    0 -0.59418837539E+02 -0.33566038542E+02 -0.78761170948E+02  0.10429799445E+03  0.41800000000E+01 0.  1.
         -5    1    3    3    0  502 -0.17970977248E+02  0.56987504283E+02 -0.24281419176E+03  0.25009345411E+03  0.41800000000E+01 0.  1.
        -11    1    1    2    0    0  0.44606134766E+02 -0.34305894272E+02 -0.18001320649E+03  0.18860370132E+03  0.00000000000E+00 0.  1.
         11    1    1    2    0    0  0.32783680022E+02  0.10884428531E+02 -0.79853904115E+01  0.35454293396E+02  0.00000000000E+00 0. -1.
</event>
<event>
 7    1  0.2766180E-009  0.1125241E+03  0.7561462E-02  0.1255966E+00
          2   -1    0    0  501    0  0.00000000000E+00  0.00000000000E+00  0.53952681622E+03  0.53952681622E+03  0.00000000000E+00 0. -1.
         -2   -1    0    0    0  501 -0.00000000000E+00 -0.00000000000E+00 -0.33624749513E+02  0.33624749513E+02  0.00000000000E+00 0.  1.
         25    2    1    2    0    0  0.64605657689E+02  0.38006419225E+02  0.33633595642E+03  0.36659094038E+03  0.12509461651E+03 0.  0.
          5    1    3    3  502    0 -0.35141052064E+01  0.61474866122E+02  0.84634864274E+02  0.10474750952E+03  0.41800000000E+01 0.  1.
         -5    1    3    3    0  502  0.68119762895E+02 -0.23468446897E+02  0.25170109214E+03  0.26184343086E+03  0.41800000000E+01 0.  1.
        -11    1    1    2    0    0  0.64828479280E+01 -0.15165718053E+02 -0.45502318124E+01  0.17109381370E+02  0.00000000000E+00 0.  1.
         11    1    1    2    0    0 -0.71088505617E+02 -0.22840701172E+02  0.17411634210E+03  0.18945124398E+03  0.00000000000E+00 0. -1.
</event>
<event>
 7    1  0.2766180E-009  0.1509784E+03  0.7561462E-02  0.1199276E+00
          2   -1    0    0  501    0  0.00000000000E+00  0.00000000000E+00  0.49278068803E+03  0.49278068803E+03  0.00000000000E+00 0. -1.
         -2   -1    0    0    0  501 -0.00000000000E+00 -0.00000000000E+00 -0.69781743620E+02  0.69781743620E+02  0.00000000000E+00 0.  1.
         25    2    1    2    0    0 -0.11708037579E+03  0.51346289514E+02  0.34081612329E+03  0.38489949066E+03  0.12509089565E+03 0.  0.
          5    1    3    3  502    0  0.82455562481E+01 -0.24764504449E+02  0.95328579558E+02  0.98925630445E+02  0.41800000000E+01 0.  1.
         -5    1    3    3    0  502 -0.12532593204E+03  0.76110793963E+02  0.24548754373E+03  0.28597386021E+03  0.41800000000E+01 0.  1.
        -11    1    1    2    0    0  0.10944373614E+03 -0.43174439763E+02  0.26147686255E+02  0.12052246731E+03  0.00000000000E+00 0.  1.
         11    1    1    2    0    0  0.76366396480E+01 -0.81718497509E+01  0.56035134864E+02  0.57140473683E+02  0.00000000000E+00 0. -1.
</event>
<event>
 7    1  0.3499217E-009  0.1320088E+03  0.7561462E-02  0.1224505E+00
         -1   -1    0    0    0  501 -0.00000000000E+00  0.00000000000E+00  0.11393413632E+03  0.11393413632E+03  0.00000000000E+00 0.  1.
          1   -1    0    0  501    0  0.00000000000E+00 -0.00000000000E+00 -0.20808531447E+03  0.20808531447E+03  0.00000000000E+00 0. -1.
         25    2    1    2    0    0  0.10426470773E+03  0.23652349530E+02 -0.70434862594E+02  0.17900102080E+03  0.12509889154E+03 0.  0.
          5    1    3    3  502    0  0.31386265042E+02  0.42983931340E+02  0.23623274311E+02  0.58380197635E+02  0.41800000000E+01 0. -1.
         -5    1    3    3    0  502  0.72878442686E+02 -0.19331581810E+02 -0.94058136905E+02  0.12062082317E+03  0.41800000000E+01 0. -1.
        -11    1    1    2    0    0 -0.97471343193E+02 -0.48843652194E+02 -0.19530556791E+01  0.10904209981E+03  0.00000000000E+00 0.  1.
         11    1    1    2    0    0 -0.67933645351E+01  0.25191302664E+02 -0.21763259882E+02  0.33976330177E+02  0.00000000000E+00 0. -1.
</event>
<event>
 7    1  0.2766180E-009  0.2341927E+03  0.7561462E-02  0.1123723E+00
          2   -1    0    0  501    0  0.00000000000E+00  0.00000000000E+00  0.68699733243E+03  0.68699733243E+03  0.00000000000E+00 0. -1.
         -2   -1    0    0    0  501 -0.00000000000E+00 -0.00000000000E+00 -0.88259450609E+02  0.88259450609E+02  0.00000000000E+00 0.  1.
         25    2    1    2    0    0 -0.12774360725E+02 -0.22056361172E+03  0.30070200138E+03  0.39354820596E+03  0.12508799173E+03 0.  0.
          5    1    3    3  502    0 -0.33984355341E+02 -0.58670130018E+02  0.17414127013E+03  0.18692184176E+03  0.41800000000E+01 0.  1.
         -5    1    3    3    0  502  0.21209994616E+02 -0.16189348171E+03  0.12656073126E+03  0.20662636421E+03  0.41800000000E+01 0.  1.
        -11    1    1    2    0    0  0.47345413572E+02  0.85791188821E+02  0.10338480454E+03  0.14244344167E+03  0.00000000000E+00 0.  1.
         11    1    1    2    0    0 -0.34571052847E+02  0.13477242290E+03  0.19465107590E+03  0.23926513541E+03  0.00000000000E+00 0. -1.
</event>
<event>
 7    1  0.2766180E-009  0.9658618E+02  0.7561462E-02  0.1287643E+00
         -1   -1    0    0    0  501 -0.00000000000E+00  0.00000000000E+00  0.12770972921E+03  0.12770972921E+03  0.00000000000E+00 0.  1.
          1   -1    0    0  501    0  0.00000000000E+00 -0.00000000000E+00 -0.15880378601E+03  0.15880378601E+03  0.00000000000E+00 0. -1.
         25    2    1    2    0    0 -0.54386143494E+02  0.73848013988E+02 -0.11732615393E+02  0.15555408039E+03  0.12509210962E+03 0.  0.
          5    1    3    3  502    0 -0.54455316714E+02  0.76506176397E+02 -0.57055787896E+02  0.10996095615E+03  0.41800000000E+01 0. -1.
         -5    1    3    3    0  502  0.69173220933E-01 -0.26581624091E+01  0.45323172503E+02  0.45593124241E+02  0.41800000000E+01 0. -1.
        -11    1    1    2    0    0  0.25560754260E+02 -0.17662162808E+02  0.35593969146E+02  0.47246532074E+02  0.00000000000E+00 0.  1.
         11    1    1    2    0    0  0.28825389233E+02 -0.56185851179E+02 -0.54955410553E+02  0.83712902747E+02  0.00000000000E+00 0. -1.
</event>
<event>
 7    1  0.2766180E-009  0.1451818E+03  0.7561462E-02  0.1206522E+00
          2   -1    0    0  501    0  0.00000000000E+00  0.00000000000E+00  0.55236130292E+03  0.55236130292E+03  0.00000000000E+00 0. -1.
         -2   -1    0    0    0  501 -0.00000000000E+00 -0.00000000000E+00 -0.46566194113E+02  0.46566194113E+02  0.00000000000E+00 0.  1.
         25    2    1    2    0    0 -0.98542389903E+02 -0.65221928461E+02  0.24348536804E+03  0.29815835104E+03  0.12509506500E+03 0.  0.
          5    1    3    3  502    0  0.89333672883E+01 -0.41542467257E+02  0.16331386246E+02  0.45713982693E+02  0.41800000000E+01 0.  1.
         -5    1    3    3    0  502 -0.10747575719E+03 -0.23679461204E+02  0.22715398179E+03  0.25244436835E+03  0.41800000000E+01 0.  1.
        -11    1    1    2    0    0  0.65193137329E+02  0.10364960272E+01  0.17864686477E+03  0.19017339922E+03  0.00000000000E+00 0.  1.
         11    1    1    2    0    0  0.33349252574E+02  0.64185432434E+02  0.83662876004E+02  0.11059574678E+03  0.00000000000E+00 0. -1.
</event>
<event>
 6    1  0.2766180E-009  0.7219025E+02  0.7561462E-02  0.1352800E+00
          1   -1    0    0  501    0  0.00000000000E+00  0.00000000000E+00  0.91425630436E+03  0.91425630436E+03  0.00000000000E+00 0. -1.
         -1   -1    0    0    0  501 -0.00000000000E+00 -0.00000000000E+00 -0.20464910310E+02  0.20464910310E+02  0.00000000000E+00 0.  1.
          5    1    1    2  502    0  0.64940972523E+01 -0.50326539649E+01 -0.30922310863E+00  0.92232816277E+01  0.41800000000E+01 0. -1.
         -5    1    1    2    0  502  0.14782230456E+02 -0.29828229821E+02  0.71449566905E+03  0.71528300073E+03  0.41800000000E+01 0. -1.
        -11    1    1    2    0    0 -0.70813462668E+01 -0.32248369763E+02  0.26119364201E+02  0.42098978653E+02  0.00000000000E+00 0.  1.
         11    1    1    2    0    0 -0.14194981442E+02  0.67109253549E+02  0.15348558391E+03  0.16811595367E+03  0.00000000000E+00 0. -1.
</event>
<event>
 7    1  0.2766180E-009  0.9989982E+02  0.7561462E-02  0.1280507E+00
          2   -1    0    0  501    0  0.00000000000E+00  0.00000000000E+00  0.28737351543E+03  0.28737351543E+03  0.00000000000E+00 0. -1.
         -2   -1    0    0    0  501 -0.00000000000E+00 -0.00000000000E+00 -0.67987402405E+02  0.67987402405E+02  0.00000000000E+00 0.  1.
         25    2    1    2    0    0 -0.18543009642E+02  0.80495020132E+02  0.16426672204E+03  0.22238353999E+03  0.12509033302E+03 0.  0.
          5    1    3    3  502    0 -0.13675059775E+02  0.91433672350E+02  0.17986709523E+03  0.20227893624E+03  0.41800000000E+01 0.  1.
         -5    1    3    3    0  502 -0.48679498672E+01 -0.10938652217E+02 -0.15600373190E+02  0.20104603749E+02  0.41800000000E+01 0.  1.
        -11    1    1    2    0    0  0.27592868719E+02 -0.21748766453E+02 -0.17404063497E+02  0.39208119983E+02  0.00000000000E+00 0.  1.
         11    1    1    2    0    0 -0.90498590768E+01 -0.58746253679E+02  0.72523454481E+02  0.93769257865E+02  0.00000000000E+00 0. -1.
</event>
<event>
 7    1  0.2766180E-009  0.1303066E+03  0.7561462E-02  0.1227001E+00
          2   -1    0    0  501    0  0.00000000000E+00  0.00000000000E+00  0.29987703803E+03  0.29987703803E+03  0.00000000000E+00 0. -1.
         -2   -1    0    0    0  501 -0.00000000000E+00 -0.00000000000E+00 -0.78373583390E+02  0.78373583390E+02  0.00000000000E+00 0.  1.
         25    2    1    2    0    0 -0.81212495524E+02  0.68782525383E+02  0.87907730837E+02  0.18628220248E+03  0.12508710802E+03 0.  0.
          5    1    3    3  502    0  0.26382553297E+02  0.22830980979E+02  0.53951493689E+02  0.64385781678E+02  0.41800000000E+01 0.  1.
         -5    1    3    3    0  502 -0.10759504882E+03  0.45951544404E+02  0.33956237148E+02  0.12189642080E+03  0.41800000000E+01 0.  1.
        -11    1    1    2    0    0  0.33382884712E+02 -0.15512894847E+02  0.11092453800E+03  0.11687309369E+03  0.00000000000E+00 0. -1.
         11    1    1    2    0    0  0.47829610812E+02 -0.53269630536E+02  0.22671185799E+02  0.75095325243E+02  0.00000000000E+00 0.  1.
</event>
<event>
 7    1  0.2766180E-009  0.1942058E+03  0.7561462E-02  0.1154722E+00
         -2   -1    0    0    0  501 -0.00000000000E+00  0.00000000000E+00  0.37455327101E+02  0.37455327101E+02  0.00000000000E+00 0.  1.
          2   -1    0    0  501    0  0.00000000000E+00 -0.00000000000E+00 -0.12009428688E+04  0.12009428688E+04  0.00000000000E+00 0. -1.
         25    2    1    2    0    0  0.87015056685E+02  0.14706854886E+03 -0.41600121739E+03  0.46679242758E+03  0.12504950789E+03 0.  0.
          5    1    3    3  502    0  0.11420411373E+03  0.13806636671E+03 -0.32302447119E+03  0.36941464859E+03  0.41800000000E+01 0.  1.
         -5    1    3    3    0  502 -0.27189057044E+02  0.90021821476E+01 -0.92976746205E+02  0.97377778991E+02  0.41800000000E+01 0.  1.
        -11    1    1    2    0    0 -0.63675009125E+02 -0.14301667729E+03 -0.71151997780E+03  0.72853891837E+03  0.00000000000E+00 0. -1.
         11    1    1    2    0    0 -0.23340047560E+02 -0.40518715704E+01 -0.35966346507E+02  0.43066849948E+02  0.00000000000E+00 0.  1.
</event>
<event>
 7    1  0.2766180E-009  0.4407039E+03  0.7561462E-02  0.1030531E+00
         -2   -1    0    0    0  501 -0.00000000000E+00  0.00000000000E+00  0.27081262240E+03  0.27081262240E+03  0.00000000000E+00 0. -1.
          2   -1    0    0  501    0  0.00000000000E+00 -0.00000000000E+00 -0.12785129693E+04  0.12785129693E+04  0.00000000000E+00 0.  1.
         25    2    1    2    0    0  0.33580581983E+03  0.26534654930E+03  0.51626769789E+01  0.44592456018E+03  0.12509084813E+03 0.  0.
          5    1    3    3  502    0  0.80068102131E+02  0.13775874145E+03 -0.99020698981E+01  0.15969939015E+03  0.41800000000E+01 0.  1.
         -5    1    3    3    0  502  0.25573771770E+03  0.12758780785E+03  0.15064746877E+02  0.28622517004E+03  0.41800000000E+01 0.  1.
        -11    1    1    2    0    0 -0.19533977424E+03 -0.20542789648E+03 -0.61310943851E+03  0.67547126633E+03  0.00000000000E+00 0. -1.
         11    1    1    2    0    0 -0.14046604559E+03 -0.59918652814E+02 -0.39975358541E+03  0.42792976522E+03  0.00000000000E+00 0.  1.
</event>
<event>
 7    1  0.2766180E-009  0.1135785E+03  0.7561462E-02  0.1254083E+00
         -2   -1    0    0    0  501 -0.00000000000E+00  0.00000000000E+00  0.23716089042E+03  0.23716089042E+03  0.00000000000E+00 0.  1.
          2   -1    0    0  501    0  0.00000000000E+00 -0.00000000000E+00 -0.80439933461E+02  0.80439933461E+02  0.00000000000E+00 0. -1.
         25    2    1    2    0    0  0.81299961797E+02  0.45590908975E+01  0.57638694843E+02  0.16000154667E+03  0.12509119351E+03 0.  0.
          5    1    3    3  502    0  0.17646387296E+02 -0.31596149446E+02 -0.28953624531E+02  0.46534894626E+02  0.41800000000E+01 0. -1.
         -5    1    3    3    0  502  0.63653574501E+02  0.36155240343E+02  0.86592319374E+02  0.11346665204E+03  0.41800000000E+01 0. -1.
        -11    1    1    2    0    0 -0.35346986945E+02  0.40009081767E+02  0.22897383692E+02  0.58089812273E+02  0.00000000000E+00 0. -1.
         11    1    1    2    0    0 -0.45952974852E+02 -0.44568172665E+02  0.76184878422E+02  0.99509464939E+02  0.00000000000E+00 0.  1.
</event>
<event>
 7    1  0.2766180E-009  0.1149364E+03  0.7561462E-02  0.1251692E+00
         -2   -1    0    0    0  501 -0.00000000000E+00  0.00000000000E+00  0.19418008342E+02  0.19418008342E+02  0.00000000000E+00 0.  1.
          2   -1    0    0  501    0  0.00000000000E+00 -0.00000000000E+00 -0.89940691458E+03  0.89940691458E+03  0.00000000000E+00 0. -1.
         25    2    1    2    0    0 -0.66494093422E+01 -0.72354789217E+02 -0.44979479051E+03  0.47248800051E+03  0.12510046716E+03 0.  0.
          5    1    3    3  502    0  0.37679053299E+02 -0.48590524386E+02 -0.89448026634E+02  0.10862399360E+03  0.41800000000E+01 0. -1.
         -5    1    3    3    0  502 -0.44328462641E+02 -0.23764264831E+02 -0.36034676388E+03  0.36386400690E+03  0.41800000000E+01 0. -1.
        -11    1    1    2    0    0  0.40695061376E+02  0.33577084312E+01 -0.12058522549E+03  0.12731126750E+03  0.00000000000E+00 0. -1.
         11    1    1    2    0    0 -0.34045652034E+02  0.68997080786E+02 -0.30960889024E+03  0.31902565492E+03  0.00000000000E+00 0.  1.
</event>
<event>
 7    1  0.2766180E-009  0.1502786E+03  0.7561462E-02  0.1200131E+00
         -2   -1    0    0    0  501 -0.00000000000E+00  0.00000000000E+00  0.53680030762E+02  0.53680030762E+02  0.00000000000E+00 0.  1.
          2   -1    0    0  501    0  0.00000000000E+00 -0.00000000000E+00 -0.48428377036E+03  0.48428377036E+03  0.00000000000E+00 0. -1.
         25    2    1    2    0    0  0.73458243576E+02 -0.91836330905E+02 -0.27064841403E+03  0.32051225132E+03  0.12509002361E+03 0.  0.
          5    1    3    3  502    0  0.31165219132E+02 -0.10881989689E+03 -0.24012493186E+03  0.26550046355E+03  0.41800000000E+01 0.  1.
         -5    1    3    3    0  502  0.42293024445E+02  0.16983565987E+02 -0.30523482167E+02  0.55011787772E+02  0.41800000000E+01 0.  1.
        -11    1    1    2    0    0 -0.55314796336E+02  0.81790287326E+01 -0.34932193524E+02  0.65930883121E+02  0.00000000000E+00 0.  1.
         11    1    1    2    0    0 -0.18143447241E+02  0.83657302173E+02 -0.12502313205E+03  0.15152066668E+03  0.00000000000E+00 0. -1.
</event>
<event>
 7    1  0.2766180E-009  0.1777294E+03  0.7561462E-02  0.1170019E+00
         -1   -1    0    0    0  501 -0.00000000000E+00  0.00000000000E+00  0.96245947305E+02  0.96245947305E+02  0.00000000000E+00 0.  1.
          1   -1    0    0  501    0  0.00000000000E+00 -0.00000000000E+00 -0.45830111855E+03  0.45830111855E+03  0.00000000000E+00 0. -1.
         25    2    1    2    0    0 -0.14397318331E+03 -0.59223702131E+01 -0.33032980331E+03  0.38148242760E+03  0.12509081354E+03 0.  0.
          5    1    3    3  502    0  0.18184402786E+02  0.12118066398E+02 -0.16329289362E+02  0.27597792104E+02  0.41800000000E+01 0. -1.
         -5    1    3    3    0  502 -0.16215758610E+03 -0.18040436611E+02 -0.31400051395E+03  0.35388463550E+03  0.41800000000E+01 0. -1.
        -11    1    1    2    0    0 -0.69483675330E+01 -0.16046914679E+02 -0.12012497118E+01  0.17527871604E+02  0.00000000000E+00 0. -1.
         11    1    1    2    0    0  0.15092155084E+03  0.21969284892E+02 -0.30524118225E+02  0.15553676665E+03  0.00000000000E+00 0.  1.
</event>
<event>
 7    1  0.2766180E-009  0.1035854E+03  0.7561462E-02  0.1272932E+00
          2   -1    0    0  501    0  0.00000000000E+00  0.00000000000E+00  0.11107650323E+03  0.11107650323E+03  0.00000000000E+00 0. -1.
         -2   -1    0    0    0  501 -0.00000000000E+00 -0.00000000000E+00 -0.16928663272E+03  0.16928663272E+03  0.00000000000E+00 0.  1.
         25    2    1    2    0    0 -0.30998824363E+02 -0.61555693267E+02  0.18057491701E+02  0.14395668949E+03  0.12508966767E+03 0.  0.
          5    1    3    3  502    0  0.26288740044E+02  0.98105320598E+01  0.40679230920E+02  0.49594522083E+02  0.41800000000E+01 0.  1.
         -5    1    3    3    0  502 -0.57287564407E+02 -0.71366225327E+02 -0.22621739219E+02  0.94362167411E+02  0.41800000000E+01 0.  1.
        -11    1    1    2    0    0  0.46317381895E+02  0.48499430325E+02 -0.10816098359E+02  0.67929983005E+02  0.00000000000E+00 0. -1.
         11    1    1    2    0    0 -0.15318557532E+02  0.13056262943E+02 -0.65451522828E+02  0.68476463456E+02  0.00000000000E+00 0.  1.
</event>
<event>
 7    1  0.2766180E-009  0.8069216E+02  0.7561462E-02  0.1327099E+00
         -3   -1    0    0    0  501 -0.00000000000E+00  0.00000000000E+00  0.24258194044E+03  0.24258194044E+03  0.00000000000E+00 0.  1.
          3   -1    0    0  501    0  0.00000000000E+00 -0.00000000000E+00 -0.57371632843E+02  0.57371632843E+02  0.00000000000E+00 0. -1.
         25    2    1    2    0    0  0.13964938391E+02 -0.55109724674E+01  0.49191358518E+02  0.13525404287E+03  0.12509386891E+03 0.  0.
          5    1    3    3  502    0 -0.32886562563E+02 -0.36060717068E+02 -0.13820503340E+02  0.50895776104E+02  0.41800000000E+01 0. -1.
         -5    1    3    3    0  502  0.46851500954E+02  0.30549744600E+02  0.63011861858E+02  0.84358266765E+02  0.41800000000E+01 0. -1.
        -11    1    1    2    0    0  0.47335748263E+01 -0.22302201027E+02  0.12829719906E+03  0.13030719930E+03  0.00000000000E+00 0.  1.
         11    1    1    2    0    0 -0.18698513217E+02  0.27813173495E+02  0.77217500165E+01  0.34392331118E+02  0.00000000000E+00 0. -1.
</event>
<event>
 7    1  0.2766180E-009  0.1385155E+03  0.7561462E-02  0.1215340E+00
         -2   -1    0    0    0  501 -0.00000000000E+00  0.00000000000E+00  0.74917217739E+02  0.74917217739E+02  0.00000000000E+00 0.  1.
          2   -1    0    0  501    0  0.00000000000E+00 -0.00000000000E+00 -0.26776551064E+03  0.26776551064E+03  0.00000000000E+00 0. -1.
         25    2    1    2    0    0 -0.72519606780E+02 -0.55319789675E+02 -0.85046336529E+02  0.17664575498E+03  0.12510583878E+03 0.  0.
          5    1    3    3  502    0  0.33520794499E+02  0.62989219565E+00 -0.27630484361E+02  0.43645807291E+02  0.41800000000E+01 0.  1.
         -5    1    3    3    0  502 -0.10604040128E+03 -0.55949681871E+02 -0.57415852168E+02  0.13299994769E+03  0.41800000000E+01 0.  1.
        -11    1    1    2    0    0  0.81284686154E+02  0.69272984767E+02 -0.78953310216E+02  0.13281404977E+03  0.00000000000E+00 0.  1.
         11    1    1    2    0    0 -0.87650793747E+01 -0.13953195092E+02 -0.28848646160E+02  0.33222923637E+02  0.00000000000E+00 0. -1.
</event>
<event>
 7    1  0.2766180E-009  0.1951695E+03  0.7561462E-02  0.1153880E+00
         -2   -1    0    0    0  501 -0.00000000000E+00  0.00000000000E+00  0.20147003880E+03  0.20147003880E+03  0.00000000000E+00 0.  1.
          2   -1    0    0  501    0  0.00000000000E+00 -0.00000000000E+00 -0.20747094621E+03  0.20747094621E+03  0.00000000000E+00 0. -1.
         25    2    1    2    0    0 -0.17277115079E+03 -0.12324245117E+02 -0.21504801832E+02  0.21474125672E+03  0.12509833442E+03 0.  0.
          5    1    3    3  502    0 -0.18555163078E+03  0.69430349279E+01 -0.45807599725E+01  0.18578500796E+03  0.41800000000E+01 0. -1.
         -5    1    3    3    0  502  0.12780479998E+02 -0.19267280045E+02 -0.16924041860E+02  0.28956248759E+02  0.41800000000E+01 0. -1.
        -11    1    1    2    0    0  0.10106847963E+03  0.33290080371E+02  0.42757055771E+02  0.11467882474E+03  0.00000000000E+00 0. -1.
         11    1    1    2    0    0  0.71702671157E+02 -0.20965835254E+02 -0.27253161349E+02  0.79520903556E+02  0.00000000000E+00 0.  1.
</event>
<event>
 7    1  0.2766180E-009  0.2048913E+03  0.7561462E-02  0.1145677E+00
         -2   -1    0    0    0  501 -0.00000000000E+00  0.00000000000E+00  0.73847878133E+02  0.73847878133E+02  0.00000000000E+00 0.  1.
          2   -1    0    0  501    0  0.00000000000E+00 -0.00000000000E+00 -0.66335981531E+03  0.66335981531E+03  0.00000000000E+00 0. -1.
         25    2    1    2    0    0  0.96124857869E+02 -0.16666060590E+03 -0.27648859872E+03  0.35931933930E+03  0.12509475015E+03 0.  0.
          5    1    3    3  502    0  0.89658644657E+02 -0.72424702946E+02 -0.77332777822E+02  0.13885906915E+03  0.41800000000E+01 0. -1.
         -5    1    3    3    0  502  0.64662132121E+01 -0.94235902950E+02 -0.19915582090E+03  0.22046027015E+03  0.41800000000E+01 0. -1.
        -11    1    1    2    0    0  0.41464810048E+00  0.43080429937E+02 -0.12956617440E+03  0.13654116202E+03  0.00000000000E+00 0.  1.
         11    1    1    2    0    0 -0.96539505970E+02  0.12358017596E+03 -0.18345716405E+03  0.24134719212E+03  0.00000000000E+00 0. -1.
</event>
<event>
 7    1  0.2766180E-009  0.1257822E+03  0.7561462E-02  0.1233852E+00
          2   -1    0    0  501    0  0.00000000000E+00  0.00000000000E+00  0.22017208473E+03  0.22017208473E+03  0.00000000000E+00 0. -1.
         -2   -1    0    0    0  501 -0.00000000000E+00 -0.00000000000E+00 -0.84797153596E+02  0.84797153596E+02  0.00000000000E+00 0.  1.
         25    2    1    2    0    0 -0.78392436271E+02 -0.11732620467E+02  0.97540651631E+02  0.17733024731E+03  0.12509520151E+03 0.  0.
          5    1    3    3  502    0 -0.87795838165E+02  0.25501081711E+02  0.10359288800E+03  0.13822942238E+03  0.41800000000E+01 0. -1.
         -5    1    3    3    0  502  0.94034018941E+01 -0.37233702179E+02 -0.60522363651E+01  0.39100824929E+02  0.41800000000E+01 0. -1.
        -11    1    1    2    0    0  0.54581725640E+02 -0.37843248715E+02  0.26361199594E+02  0.71457603453E+02  0.00000000000E+00 0. -1.
         11    1    1    2    0    0  0.23810710630E+02  0.49575869182E+02  0.11473079905E+02  0.56181387562E+02  0.00000000000E+00 0.  1.
</event>
<event>
 7    1  0.2766180E-009  0.1101992E+03  0.7561462E-02  0.1260201E+00
          2   -1    0    0  501    0  0.00000000000E+00  0.00000000000E+00  0.55312327223E+03  0.55312327223E+03  0.00000000000E+00 0.  1.
         -2   -1    0    0    0  501 -0.00000000000E+00 -0.00000000000E+00 -0.43345724460E+02  0.43345724460E+02  0.00000000000E+00 0. -1.
         25    2    1    2    0    0  0.44421049476E+02 -0.84022848834E+02  0.39298169118E+03  0.42321548713E+03  0.12507465842E+03 0.  0.
          5    1    3    3  502    0  0.24137771538E+02 -0.78748196472E+02  0.39328882146E+03  0.40184260594E+03  0.41800000000E+01 0. -1.
         -5    1    3    3    0  502  0.20283277938E+02 -0.52746523616E+01 -0.30713027438E+00  0.21372881192E+02  0.41800000000E+01 0. -1.
        -11    1    1    2    0    0 -0.20690011042E+02  0.89783907858E+02  0.11688474559E+03  0.14883302866E+03  0.00000000000E+00 0.  1.
         11    1    1    2    0    0 -0.23731038434E+02 -0.57610590241E+01 -0.88889007649E-01  0.24420480902E+02  0.00000000000E+00 0. -1.
</event>
<event>
 7    1  0.2766180E-009  0.1149443E+03  0.7561462E-02  0.1251678E+00
         -1   -1    0    0    0  501 -0.00000000000E+00  0.00000000000E+00  0.37657252764E+02  0.37657252764E+02  0.00000000000E+00 0.  1.
          1   -1    0    0  501    0  0.00000000000E+00 -0.00000000000E+00 -0.45199292824E+03  0.45199292824E+03  0.00000000000E+00 0. -1.
         25    2    1    2    0    0 -0.33884161211E+02 -0.42260338101E+02 -0.32112293050E+03  0.34885737185E+03  0.12508979513E+03 0.  0.
          5    1    3    3  502    0 -0.33104733473E+02  0.40707552948E+02 -0.10890538524E+03  0.12095818939E+03  0.41800000000E+01 0. -1.
         -5    1    3    3    0  502 -0.77942773711E+00 -0.82967891050E+02 -0.21221754525E+03  0.22789918246E+03  0.41800000000E+01 0. -1.
        -11    1    1    2    0    0  0.11914653452E+02 -0.22680695904E+02 -0.58682397682E+02  0.64031216850E+02  0.00000000000E+00 0. -1.
         11    1    1    2    0    0  0.21969507758E+02  0.64941034006E+02 -0.34530347301E+02  0.76761592307E+02  0.00000000000E+00 0.  1.
</event>
<event>
 7    1  0.2766180E-009  0.2651885E+03  0.7561462E-02  0.1104065E+00
          1   -1    0    0  501    0  0.00000000000E+00  0.00000000000E+00  0.30924687857E+03  0.30924687857E+03  0.00000000000E+00 0. -1.
         -1   -1    0    0    0  501 -0.00000000000E+00 -0.00000000000E+00 -0.25681768092E+03  0.25681768092E+03  0.00000000000E+00 0.  1.
         25    2    1    2    0    0  0.23782411439E+03  0.48584492320E+02 -0.47821049417E+02  0.27722503281E+03  0.12508438660E+03 0.  0.
          5    1    3    3  502    0  0.94411479871E+02 -0.41788535596E+02 -0.13308905946E+02  0.10418449316E+03  0.41800000000E+01 0. -1.
         -5    1    3    3    0  502  0.14341263452E+03  0.90373027915E+02 -0.34512143472E+02  0.17304053965E+03  0.41800000000E+01 0. -1.
        -11    1    1    2    0    0 -0.72309604653E+02 -0.56519426250E+02 -0.60381940233E+01  0.91975998259E+02  0.00000000000E+00 0.  1.
         11    1    1    2    0    0 -0.16551450974E+03  0.79349339309E+01  0.10628844110E+03  0.19686352842E+03  0.00000000000E+00 0. -1.
</event>
<event>
 7    1  0.2766180E-009  0.1716064E+03  0.7561462E-02  0.1176183E+00
         -1   -1    0    0    0  501 -0.00000000000E+00  0.00000000000E+00  0.23327740599E+03  0.23327740599E+03  0.00000000000E+00 0.  1.
          1   -1    0    0  501    0  0.00000000000E+00 -0.00000000000E+00 -0.16975065293E+03  0.16975065293E+03  0.00000000000E+00 0. -1.
         25    2    1    2    0    0  0.17099785142E+01 -0.15102567805E+03 -0.39579014351E+02  0.20009380713E+03  0.12513733983E+03 0.  0.
          5    1    3    3  502    0  0.52837482361E+02 -0.63500552254E+02 -0.52281216767E+02  0.97851508448E+02  0.41800000000E+01 0.  1.
         -5    1    3    3    0  502 -0.51127503847E+02 -0.87525125793E+02  0.12702202416E+02  0.10224229869E+03  0.41800000000E+01 0.  1.
        -11    1    1    2    0    0 -0.22964463743E+02  0.11457618668E+03  0.10964018487E+03  0.16023744659E+03  0.00000000000E+00 0.  1.
         11    1    1    2    0    0  0.21254485229E+02  0.36449491363E+02 -0.65344174538E+01  0.42696805201E+02  0.00000000000E+00 0. -1.
</event>
<event>
 7    1  0.2766180E-009  0.1132879E+03  0.7561462E-02  0.1254600E+00
         -2   -1    0    0    0  501 -0.00000000000E+00  0.00000000000E+00  0.25775789427E+02  0.25775789427E+02  0.00000000000E+00 0.  1.
          2   -1    0    0  501    0  0.00000000000E+00 -0.00000000000E+00 -0.66202726745E+03  0.66202726745E+03  0.00000000000E+00 0. -1.
         25    2    1    2    0    0  0.60856412149E+02  0.73429586364E+01 -0.27751744780E+03  0.31051635567E+03  0.12508817437E+03 0.  0.
          5    1    3    3  502    0 -0.12277637258E+02  0.30438853635E+02 -0.19498732031E+03  0.19777459814E+03  0.41800000000E+01 0. -1.
         -5    1    3    3    0  502  0.73134049407E+02 -0.23095894999E+02 -0.82530127485E+02  0.11274175753E+03  0.41800000000E+01 0. -1.
        -11    1    1    2    0    0 -0.16245825254E+02 -0.51445856253E+02 -0.17617976091E+03  0.18425501653E+03  0.00000000000E+00 0.  1.
         11    1    1    2    0    0 -0.44610586895E+02  0.44102897617E+02 -0.18255426932E+03  0.19303168467E+03  0.00000000000E+00 0. -1.
</event>
<event>
 7    1  0.2766180E-009  0.1011014E+03  0.7561462E-02  0.1277997E+00
         -2   -1    0    0    0  501 -0.00000000000E+00  0.00000000000E+00  0.27615781477E+02  0.27615781477E+02  0.00000000000E+00 0.  1.
          2   -1    0    0  501    0  0.00000000000E+00 -0.00000000000E+00 -0.65414573365E+03  0.65414573365E+03  0.00000000000E+00 0. -1.
         25    2    1    2    0    0 -0.18190368621E+02  0.47112646460E+02 -0.19535176746E+03  0.23738025324E+03  0.12504631386E+03 0.  0.
          5    1    3    3  502    0 -0.27668488219E+01 -0.24720616945E+02  0.33912061820E+01  0.25450678457E+02  0.41800000000E+01 0. -1.
         -5    1    3    3    0  502 -0.15423519799E+02  0.71833263404E+02 -0.19874297365E+03  0.21192957478E+03  0.41800000000E+01 0. -1.
        -11    1    1    2    0    0 -0.21096949638E+02 -0.58743497887E+02 -0.19718554575E+03  0.20682847792E+03  0.00000000000E+00 0.  1.
         11    1    1    2    0    0  0.39287318259E+02  0.11630851427E+02 -0.23399263896E+03  0.23755278396E+03  0.00000000000E+00 0. -1.
</event>
<event>
 7    1  0.2766180E-009  0.1004139E+03  0.7561462E-02  0.1279428E+00
          1   -1    0    0  501    0  0.00000000000E+00  0.00000000000E+00  0.75221342276E+03  0.75221342276E+03  0.00000000000E+00 0. -1.
         -1   -1    0    0    0  501 -0.00000000000E+00 -0.00000000000E+00 -0.18188988303E+02  0.18188988303E+02  0.00000000000E+00 0.  1.
         25    2    1    2    0    0  0.35207363435E+02  0.20629508399E+02  0.42943229626E+03  0.44913836461E+03  0.12509211979E+03 0.  0.
          5    1    3    3  502    0 -0.23010230425E+02  0.31698287255E+02  0.33678032590E+03  0.33907626345E+03  0.41800000000E+01 0. -1.
         -5    1    3    3    0  502  0.58217593860E+02 -0.11068778856E+02  0.92651970355E+02  0.11006210116E+03  0.41800000000E+01 0. -1.
        -11    1    1    2    0    0  0.29327758875E+02 -0.23271456461E+02  0.11936341843E+03  0.12509717736E+03  0.00000000000E+00 0. -1.
         11    1    1    2    0    0 -0.64535122310E+02  0.26419480623E+01  0.18522871977E+03  0.19616686909E+03  0.00000000000E+00 0.  1.
</event>
<event>
 7    1  0.2766180E-009  0.1628086E+03  0.7561462E-02  0.1185562E+00
         -2   -1    0    0    0  501 -0.00000000000E+00  0.00000000000E+00  0.17598740019E+03  0.17598740019E+03  0.00000000000E+00 0.  1.
          2   -1    0    0  501    0  0.00000000000E+00 -0.00000000000E+00 -0.20078444639E+03  0.20078444639E+03  0.00000000000E+00 0. -1.
         25    2    1    2    0    0  0.57956052727E+02 -0.12390089110E+03  0.55977116905E+02  0.19361725934E+03  0.12507545976E+03 0.  0.
          5    1    3    3  502    0  0.65650895422E+01  0.13192710332E+02 -0.22677096444E+02  0.27365509492E+02  0.41800000000E+01 0.  1.
         -5    1    3    3    0  502  0.51390963184E+02 -0.13709360143E+03  0.78654213349E+02  0.16625174985E+03  0.41800000000E+01 0.  1.
        -11    1    1    2    0    0 -0.38919037603E+02  0.13587642010E+03 -0.64317638678E+02  0.15528635379E+03  0.00000000000E+00 0. -1.
         11    1    1    2    0    0 -0.19037015123E+02 -0.11975529004E+02 -0.16456524422E+02  0.27868233453E+02  0.00000000000E+00 0.  1.
</event>
<event>
 7    1  0.2766180E-009  0.9304984E+02  0.7561462E-02  0.1295630E+00
         -1   -1    0    0    0  501 -0.00000000000E+00  0.00000000000E+00  0.62678266346E+02  0.62678266346E+02  0.00000000000E+00 0. -1.
          1   -1    0    0  501    0  0.00000000000E+00 -0.00000000000E+00 -0.21952644160E+03  0.21952644160E+03  0.00000000000E+00 0.  1.
         25    2    1    2    0    0  0.87982888893E+01 -0.43823241317E+02 -0.13626660356E+03  0.19029907705E+03  0.12508902876E+03 0.  0.
          5    1    3    3  502    0 -0.26129617118E+02  0.35940493967E+02 -0.35289851439E+02  0.56897469293E+02  0.41800000000E+01 0. -1.
         -5    1    3    3    0  502  0.34927906008E+02 -0.79763735284E+02 -0.10097675212E+03  0.13340160776E+03  0.41800000000E+01 0. -1.
        -11    1    1    2    0    0  0.74977415892E+01  0.34933754288E+02 -0.47357880770E+02  0.59324128216E+02  0.00000000000E+00 0.  1.
         11    1    1    2    0    0 -0.16296030479E+02  0.88894870291E+01  0.26776309074E+02  0.32581502676E+02  0.00000000000E+00 0. -1.
</event>
<event>
 7    1  0.2766180E-009  0.8809689E+02  0.7561462E-02  0.1307527E+00
          1   -1    0    0  501    0  0.00000000000E+00  0.00000000000E+00  0.20974150114E+03  0.20974150114E+03  0.00000000000E+00 0. -1.
         -1   -1    0    0    0  501 -0.00000000000E+00 -0.00000000000E+00 -0.63742241840E+02  0.63742241840E+02  0.00000000000E+00 0.  1.
         25    2    1    2    0    0  0.11565654059E+02 -0.33969060509E+02  0.58721858740E+02  0.14277013319E+03  0.12508953918E+03 0.  0.
          5    1    3    3  502    0 -0.81781532310E+01 -0.72968274861E+02  0.54681263891E+01  0.73747027958E+02  0.41800000000E+01 0.  1.
         -5    1    3    3    0  502  0.19743807290E+02  0.38999214352E+02  0.53253732351E+02  0.69023105230E+02  0.41800000000E+01 0.  1.
        -11    1    1    2    0    0  0.16428840002E+02  0.23870903583E+02 -0.86777054646E+01  0.30249452785E+02  0.00000000000E+00 0.  1.
         11    1    1    2    0    0 -0.27994494061E+02  0.10098156926E+02  0.95955106028E+02  0.10046415701E+03  0.00000000000E+00 0. -1.
</event>
<event>
 7    1  0.2766180E-009  0.1054017E+03  0.7561462E-02  0.1269330E+00
         -2   -1    0    0    0  501 -0.00000000000E+00  0.00000000000E+00  0.54851119652E+02  0.54851119652E+02  0.00000000000E+00 0.  1.
          2   -1    0    0  501    0  0.00000000000E+00 -0.00000000000E+00 -0.27129392998E+03  0.27129392998E+03  0.00000000000E+00 0. -1.
         25    2    1    2    0    0  0.85156551750E+01  0.44121514433E+02 -0.16755997577E+03  0.21387673308E+03  0.12509071529E+03 0.  0.
          5    1    3    3  502    0  0.22482903349E+02 -0.40450301221E+02 -0.69031812241E+02  0.83214009116E+02  0.41800000000E+01 0.  1.
         -5    1    3    3    0  502 -0.13967248174E+02  0.84571815654E+02 -0.98528163533E+02  0.13066272396E+03  0.41800000000E+01 0.  1.
        -11    1    1    2    0    0  0.17112726091E+02  0.91471777277E+01 -0.49483615958E+02  0.53152088415E+02  0.00000000000E+00 0. -1.
         11    1    1    2    0    0 -0.25628381266E+02 -0.53268692161E+02  0.60078140260E+00  0.59116228137E+02  0.00000000000E+00 0.  1.
</event>
<event>
 7    1  0.2766180E-009  0.1103157E+03  0.7561462E-02  0.1259986E+00
         -1   -1    0    0    0  501 -0.00000000000E+00  0.00000000000E+00  0.26739402225E+03  0.26739402225E+03  0.00000000000E+00 0.  1.
          1   -1    0    0  501    0  0.00000000000E+00 -0.00000000000E+00 -0.64787253470E+02  0.64787253470E+02  0.00000000000E+00 0. -1.
         25    2    1    2    0    0 -0.21377538185E+02 -0.65474790207E+02  0.75348223286E+02  0.16145903852E+03  0.12509084330E+03 0.  0.
          5    1    3    3  502    0  0.49042381313E+02 -0.15081669059E+02  0.48436862639E+02  0.70683901765E+02  0.41800000000E+01 0.  1.
         -5    1    3    3    0  502 -0.70419919498E+02 -0.50393121148E+02  0.26911360646E+02  0.90775136756E+02  0.41800000000E+01 0.  1.
        -11    1    1    2    0    0  0.31948069831E+02  0.24833172109E+02  0.41833915844E+01  0.40680048771E+02  0.00000000000E+00 0. -1.
         11    1    1    2    0    0 -0.10570531645E+02  0.40641618098E+02  0.12307515391E+03  0.13004218843E+03  0.00000000000E+00 0.  1.
</event>
<event>
 7    1  0.2766180E-009  0.1100519E+03  0.7561462E-02  0.1260474E+00
          1   -1    0    0  501    0  0.00000000000E+00  0.00000000000E+00  0.34254443301E+03  0.34254443301E+03  0.00000000000E+00 0. -1.
         -1   -1    0    0    0  501 -0.00000000000E+00 -0.00000000000E+00 -0.54337955854E+02  0.54337955854E+02  0.00000000000E+00 0.  1.
         25    2    1    2    0    0 -0.77129629316E+02  0.16845583704E+02  0.19103057114E+03  0.24160618922E+03  0.12509243842E+03 0.  0.
          5    1    3    3  502    0 -0.22645407434E+02  0.56011691283E+02  0.31014782290E+02  0.68040525856E+02  0.41800000000E+01 0.  1.
         -5    1    3    3    0  502 -0.54484221882E+02 -0.39166107578E+02  0.16001578885E+03  0.17356566336E+03  0.41800000000E+01 0.  1.
        -11    1    1    2    0    0  0.57582367987E+02 -0.33512225563E+02  0.13807605601E+02  0.68040049512E+02  0.00000000000E+00 0.  1.
         11    1    1    2    0    0  0.19547261329E+02  0.16666641859E+02  0.83368300414E+02  0.87236150134E+02  0.00000000000E+00 0. -1.
</event>
<event>
 7    1  0.2766180E-009  0.8891996E+02  0.7561462E-02  0.1305488E+00
          2   -1    0    0  501    0  0.00000000000E+00  0.00000000000E+00  0.19097555702E+02  0.19097555702E+02  0.00000000000E+00 0. -1.
         -2   -1    0    0    0  501 -0.00000000000E+00 -0.00000000000E+00 -0.11281555400E+04  0.11281555400E+04  0.00000000000E+00 0.  1.
         25    2    1    2    0    0  0.12470544928E+02  0.78030538745E+02 -0.83045732993E+03  0.84353498140E+03  0.12509040143E+03 0.  0.
          5    1    3    3  502    0  0.19960882531E+02  0.38441138240E+02 -0.76711046395E+03  0.76834373443E+03  0.41800000000E+01 0.  1.
         -5    1    3    3    0  502 -0.74903376031E+01  0.39589400505E+02 -0.63346865982E+02  0.75191246961E+02  0.41800000000E+01 0.  1.
        -11    1    1    2    0    0 -0.32276948703E+02 -0.48257113639E+02 -0.65031746610E+02  0.87176134930E+02  0.00000000000E+00 0. -1.
         11    1    1    2    0    0  0.19806403775E+02 -0.29773425106E+02 -0.21356890777E+03  0.21654197939E+03  0.00000000000E+00 0.  1.
</event>
<event>
 7    1  0.2766180E-009  0.7644125E+02  0.7561462E-02  0.1339465E+00
          1   -1    0    0  501    0  0.00000000000E+00  0.00000000000E+00  0.30409488416E+02  0.30409488416E+02  0.00000000000E+00 0. -1.
         -1   -1    0    0    0  501 -0.00000000000E+00 -0.00000000000E+00 -0.40944958405E+03  0.40944958405E+03  0.00000000000E+00 0.  1.
         25    2    1    2    0    0  0.93916702794E+01 -0.15612101477E+02 -0.17714371966E+03  0.21762126966E+03  0.12508868218E+03 0.  0.
          5    1    3    3  502    0  0.29374390616E+02  0.10486813803E+02  0.55433561123E+01  0.31953548861E+02  0.41800000000E+01 0. -1.
         -5    1    3    3    0  502 -0.19982720337E+02 -0.26098915280E+02 -0.18268707577E+03  0.18566772080E+03  0.41800000000E+01 0. -1.
        -11    1    1    2    0    0 -0.22636720306E+02  0.48118475427E+02 -0.85722678230E+02  0.10087708534E+03  0.00000000000E+00 0.  1.
         11    1    1    2    0    0  0.13245050026E+02 -0.32506373950E+02 -0.11617369775E+03  0.12136071747E+03  0.00000000000E+00 0. -1.
</event>
<event>
 7    1  0.2766180E-009  0.1200184E+03  0.7561462E-02  0.1243067E+00
         -1   -1    0    0    0  501 -0.00000000000E+00  0.00000000000E+00  0.25450468913E+02  0.25450468913E+02  0.00000000000E+00 0.  1.
          1   -1    0    0  501    0  0.00000000000E+00 -0.00000000000E+00 -0.69205801760E+03  0.69205801760E+03  0.00000000000E+00 0. -1.
         25    2    1    2    0    0 -0.32124226317E+02 -0.60847424536E+02 -0.30211761699E+03  0.33417070162E+03  0.12514243220E+03 0.  0.
          5    1    3    3  502    0  0.38177483754E+02 -0.13744645436E+02 -0.18604916707E+03  0.19046837142E+03  0.41800000000E+01 0. -1.
         -5    1    3    3    0  502 -0.70301710071E+02 -0.47102779100E+02 -0.11606844992E+03  0.14370233020E+03  0.41800000000E+01 0. -1.
        -11    1    1    2    0    0  0.37115625278E+02 -0.13879981481E+02 -0.81761740304E+02  0.90858162557E+02  0.00000000000E+00 0.  1.
         11    1    1    2    0    0 -0.49913989615E+01  0.74727406017E+02 -0.28272819140E+03  0.29247962234E+03  0.00000000000E+00 0. -1.
</event>
<event>
 7    1  0.2766180E-009  0.9445579E+02  0.7561462E-02  0.1292407E+00
          2   -1    0    0  501    0  0.00000000000E+00  0.00000000000E+00  0.93028613590E+03  0.93028613590E+03  0.00000000000E+00 0. -1.
         -2   -1    0    0    0  501 -0.00000000000E+00 -0.00000000000E+00 -0.21354223442E+02  0.21354223442E+02  0.00000000000E+00 0.  1.
         25    2    1    2    0    0  0.46008439147E+01  0.43134182001E+02  0.76208396286E+03  0.77349963571E+03  0.12509194447E+03 0.  0.
          5    1    3    3  502    0  0.42073719283E+02  0.44705296697E+02  0.68412829891E+03  0.68688992071E+03  0.41800000000E+01 0. -1.
         -5    1    3    3    0  502 -0.37472875369E+02 -0.15711146961E+01  0.77955663951E+02  0.86609714997E+02  0.41800000000E+01 0. -1.
        -11    1    1    2    0    0  0.32765445123E+02 -0.40623769939E+02  0.12332921273E+03  0.13391773516E+03  0.00000000000E+00 0. -1.
         11    1    1    2    0    0 -0.37366289038E+02 -0.25104120619E+01  0.23518736861E+02  0.44222988465E+02  0.00000000000E+00 0.  1.
</event>
<event>
 7    1  0.2766180E-009  0.2451306E+03  0.7561462E-02  0.1116421E+00
         -3   -1    0    0    0  501 -0.00000000000E+00  0.00000000000E+00  0.49129368212E+02  0.49129368212E+02  0.00000000000E+00 0.  1.
          3   -1    0    0  501    0  0.00000000000E+00 -0.00000000000E+00 -0.13831202806E+04  0.13831202806E+04  0.00000000000E+00 0. -1.
         25    2    1    2    0    0  0.17415182403E+03 -0.15037383028E+03 -0.57035537685E+03  0.62761032620E+03  0.12509324128E+03 0.  0.
          5    1    3    3  502    0  0.10052166173E+03 -0.28296472044E+02 -0.14326409428E+03  0.17733405741E+03  0.41800000000E+01 0.  1.
         -5    1    3    3    0  502  0.73630162295E+02 -0.12207735824E+03 -0.42709128257E+03  0.45027626880E+03  0.41800000000E+01 0.  1.
        -11    1    1    2    0    0 -0.48061770281E+02  0.92810128489E+02 -0.21928354164E+03  0.24291752787E+03  0.00000000000E+00 0.  1.
         11    1    1    2    0    0 -0.12609005375E+03  0.57563701791E+02 -0.54435199391E+03  0.56172179475E+03  0.00000000000E+00 0. -1.
</event>
<event>
 7    1  0.2766180E-009  0.1157638E+03  0.7561462E-02  0.1250254E+00
         -1   -1    0    0    0  501 -0.00000000000E+00  0.00000000000E+00  0.28325164463E+02  0.28325164463E+02  0.00000000000E+00 0.  1.
          1   -1    0    0  501    0  0.00000000000E+00 -0.00000000000E+00 -0.56123770298E+03  0.56123770298E+03  0.00000000000E+00 0. -1.
         25    2    1    2    0    0  0.41589507328E+02 -0.45844465401E+02 -0.23863990362E+03  0.27645643117E+03  0.12509097733E+03 0.  0.
          5    1    3    3  502    0  0.55773795725E+02  0.18652967986E+02 -0.17493711515E+03  0.18460529830E+03  0.41800000000E+01 0.  1.
         -5    1    3    3    0  502 -0.14184288398E+02 -0.64497433387E+02 -0.63702788471E+02  0.91851132872E+02  0.41800000000E+01 0.  1.
        -11    1    1    2    0    0 -0.28761919791E+02  0.71854387929E+02 -0.22758900879E+03  0.24038938832E+03  0.00000000000E+00 0.  1.
         11    1    1    2    0    0 -0.12827587536E+02 -0.26009922529E+02 -0.66683626111E+02  0.72717047954E+02  0.00000000000E+00 0. -1.
</event>
<event>
 7    1  0.2766180E-009  0.1573313E+03  0.7561462E-02  0.1191743E+00
         -1   -1    0    0    0  501 -0.00000000000E+00  0.00000000000E+00  0.20892140133E+02  0.20892140133E+02  0.00000000000E+00 0.  1.
          1   -1    0    0  501    0  0.00000000000E+00 -0.00000000000E+00 -0.18462616178E+04  0.18462616178E+04  0.00000000000E+00 0. -1.
         25    2    1    2    0    0  0.12245605806E+03  0.27894898679E+02 -0.14550354060E+04  0.14657930759E+04  0.12509075564E+03 0.  0.
          5    1    3    3  502    0  0.14365939101E+03  0.33037108745E+01 -0.12342061515E+04  0.12425502935E+04  0.41800000000E+01 0.  1.
         -5    1    3    3    0  502 -0.21203332949E+02  0.24591187804E+02 -0.22082925451E+03  0.22324278240E+03  0.41800000000E+01 0.  1.
        -11    1    1    2    0    0 -0.10828241428E+03 -0.15994363881E+01 -0.19107695895E+03  0.21963160902E+03  0.00000000000E+00 0.  1.
         11    1    1    2    0    0 -0.14173643782E+02 -0.26295462291E+02 -0.17925711270E+03  0.18172907299E+03  0.00000000000E+00 0. -1.
</event>
<event>
 7    1  0.2766180E-009  0.1202475E+03  0.7561462E-02  0.1242689E+00
          2   -1    0    0  501    0  0.00000000000E+00  0.00000000000E+00  0.75526174249E+03  0.75526174249E+03  0.00000000000E+00 0. -1.
         -2   -1    0    0    0  501 -0.00000000000E+00 -0.00000000000E+00 -0.25792453579E+02  0.25792453579E+02  0.00000000000E+00 0.  1.
         25    2    1    2    0    0 -0.17448000461E+01 -0.72713406216E+02  0.25632708422E+03  0.29434944905E+03  0.12509092804E+03 0.  0.
          5    1    3    3  502    0 -0.41949375783E+02 -0.74952130493E+02  0.23126656691E+03  0.24673724763E+03  0.41800000000E+01 0. -1.
         -5    1    3    3    0  502  0.40204575737E+02  0.22387242767E+01  0.25060517310E+02  0.47612201424E+02  0.41800000000E+01 0. -1.
        -11    1    1    2    0    0  0.44618222225E+02  0.42015237352E+02  0.26332970297E+03  0.27036752466E+03  0.00000000000E+00 0.  1.
         11    1    1    2    0    0 -0.42873422179E+02  0.30698168865E+02  0.20981250172E+03  0.21633722236E+03  0.00000000000E+00 0. -1.
</event>
<event>
 7    1  0.2766180E-009  0.1680931E+03  0.7561462E-02  0.1179851E+00
          2   -1    0    0  501    0  0.00000000000E+00  0.00000000000E+00  0.12498107538E+03  0.12498107538E+03  0.00000000000E+00 0. -1.
         -2   -1    0    0    0  501 -0.00000000000E+00 -0.00000000000E+00 -0.27562410342E+03  0.27562410342E+03  0.00000000000E+00 0.  1.
         25    2    1    2    0    0 -0.19647423571E+02 -0.13644835145E+03 -0.14295441668E+03  0.23470785854E+03  0.12509052620E+03 0.  0.
          5    1    3    3  502    0  0.70255265889E+01  0.20987661688E+02 -0.36025775790E+02  0.42487279134E+02  0.41800000000E+01 0.  1.
         -5    1    3    3    0  502 -0.26672950160E+02 -0.15743601314E+03 -0.10692864089E+03  0.19222057940E+03  0.41800000000E+01 0.  1.
        -11    1    1    2    0    0  0.44641745227E+02  0.10224625799E+03 -0.33256191705E+02  0.11641802686E+03  0.00000000000E+00 0.  1.
         11    1    1    2    0    0 -0.24994321656E+02  0.34202093459E+02  0.25567580343E+02  0.49479293413E+02  0.00000000000E+00 0. -1.
</event>
<event>
 7    1  0.2767594E-009  0.1320439E+03  0.7561462E-02  0.1224454E+00
          3   -1    0    0  501    0  0.00000000000E+00  0.00000000000E+00  0.13533800425E+03  0.13533800425E+03  0.00000000000E+00 0.  1.
         -3   -1    0    0    0  501 -0.00000000000E+00 -0.00000000000E+00 -0.18317726124E+03  0.18317726124E+03  0.00000000000E+00 0. -1.
         25    2    1    2    0    0 -0.54855163508E+01 -0.11159697273E+03 -0.62337313459E+01  0.16785345580E+03  0.12510774559E+03 0.  0.
          5    1    3    3  502    0 -0.54323628324E+02 -0.55597522984E+02 -0.38374148308E+02  0.86788183611E+02  0.41800000000E+01 0.  1.
         -5    1    3    3    0  502  0.48838111973E+02 -0.55999449744E+02  0.32140416962E+02  0.81065272190E+02  0.41800000000E+01 0.  1.
        -11    1    1    2    0    0  0.46425128218E+01  0.48859730146E+02  0.28359638939E+02  0.56684171300E+02  0.00000000000E+00 0.  1.
         11    1    1    2    0    0  0.84300352898E+00  0.62737242582E+02 -0.69965164585E+02  0.93977638389E+02  0.00000000000E+00 0. -1.
</event>
<event>
 7    1  0.2766180E-009  0.2607667E+03  0.7561462E-02  0.1106683E+00
          3   -1    0    0  501    0  0.00000000000E+00  0.00000000000E+00  0.27334939746E+04  0.27334939746E+04  0.00000000000E+00 0. -1.
         -3   -1    0    0    0  501 -0.00000000000E+00 -0.00000000000E+00 -0.29316579477E+02  0.29316579477E+02  0.00000000000E+00 0.  1.
         25    2    1    2    0    0 -0.16905803270E+02 -0.24310975601E+03  0.18427535943E+04  0.18630014011E+04  0.12508097958E+03 0.  0.
          5    1    3    3  502    0  0.53850260486E+02 -0.99961638039E+02  0.70755765329E+03  0.71662227482E+03  0.41800000000E+01 0. -1.
         -5    1    3    3    0  502 -0.70756063756E+02 -0.14314811797E+03  0.11351959410E+04  0.11463791263E+04  0.41800000000E+01 0. -1.
        -11    1    1    2    0    0 -0.79333815490E+01  0.18254319927E+03  0.49634233299E+03  0.52890516131E+03  0.00000000000E+00 0.  1.
         11    1    1    2    0    0  0.24839184819E+02  0.60566556741E+02  0.36508146779E+03  0.37090399165E+03  0.00000000000E+00 0. -1.
</event>
<event>
 7    1  0.2766180E-009  0.9064651E+02  0.7561462E-02  0.1301294E+00
          2   -1    0    0  501    0  0.00000000000E+00  0.00000000000E+00  0.54722908682E+03  0.54722908682E+03  0.00000000000E+00 0. -1.
         -2   -1    0    0    0  501 -0.00000000000E+00 -0.00000000000E+00 -0.28169992817E+02  0.28169992817E+02  0.00000000000E+00 0.  1.
         25    2    1    2    0    0  0.28734388235E+02  0.45587709902E+02  0.22685358051E+03  0.26461326304E+03  0.12511485772E+03 0.  0.
          5    1    3    3  502    0  0.12945709344E+02 -0.10604876904E+02  0.19910276805E+03  0.19984854127E+03  0.41800000000E+01 0.  1.
         -5    1    3    3    0  502  0.15788678892E+02  0.56192586806E+02  0.27750812468E+02  0.64764721769E+02  0.41800000000E+01 0.  1.
        -11    1    1    2    0    0 -0.57526201556E+02 -0.50221104943E+02  0.20021975418E+03  0.21428806129E+03  0.00000000000E+00 0.  1.
         11    1    1    2    0    0  0.28791813321E+02  0.46333950405E+01  0.91985759305E+02  0.96497755305E+02  0.00000000000E+00 0. -1.
</event>
<event>
 7    1  0.2766180E-009  0.1613665E+03  0.7561462E-02  0.1187163E+00
          1   -1    0    0  501    0  0.00000000000E+00  0.00000000000E+00  0.17587329502E+03  0.17587329502E+03  0.00000000000E+00 0. -1.
         -1   -1    0    0    0  501 -0.00000000000E+00 -0.00000000000E+00 -0.17099424913E+03  0.17099424913E+03  0.00000000000E+00 0.  1.
         25    2    1    2    0    0 -0.24875236081E+02 -0.12381215076E+03  0.50065291331E+02  0.18466977068E+03  0.12509262472E+03 0.  0.
          5    1    3    3  502    0 -0.50436439427E+02 -0.13177533540E+03  0.63075573456E+02  0.15461104038E+03  0.41800000000E+01 0. -1.
         -5    1    3    3    0  502  0.25561203346E+02  0.79631846377E+01 -0.13010282125E+02  0.30058730297E+02  0.41800000000E+01 0. -1.
        -11    1    1    2    0    0 -0.27520949930E+02  0.84792736918E+02 -0.36352870680E+02  0.96274306675E+02  0.00000000000E+00 0.  1.
         11    1    1    2    0    0  0.52396186011E+02  0.39019413839E+02 -0.88333747641E+01  0.65923466797E+02  0.00000000000E+00 0. -1.
</event>
<event>
 7    1  0.2766180E-009  0.1634708E+03  0.7561462E-02  0.1184833E+00
         -1   -1    0    0    0  501 -0.00000000000E+00  0.00000000000E+00  0.14815248573E+03  0.14815248573E+03  0.00000000000E+00 0.  1.
          1   -1    0    0  501    0  0.00000000000E+00 -0.00000000000E+00 -0.31347875219E+03  0.31347875219E+03  0.00000000000E+00 0. -1.
         25    2    1    2    0    0 -0.11941813112E+03  0.40673551555E+02 -0.23092252557E+03  0.29135686020E+03  0.12509428179E+03 0.  0.
          5    1    3    3  502    0 -0.11898757134E+03 -0.10020997851E+02 -0.12006580544E+03  0.16938634115E+03  0.41800000000E+01 0.  1.
         -5    1    3    3    0  502 -0.43055977889E+00  0.50694549406E+02 -0.11085672013E+03  0.12197051906E+03  0.41800000000E+01 0.  1.
        -11    1    1    2    0    0  0.57667604425E+02 -0.67917849893E+02  0.44283168773E+02  0.99495658050E+02  0.00000000000E+00 0. -1.
         11    1    1    2    0    0  0.61750526694E+02  0.27244298338E+02  0.21313090336E+02  0.70778719673E+02  0.00000000000E+00 0.  1.
</event>
<event>
 7    1  0.2766180E-009  0.1185946E+03  0.7561462E-02  0.1245434E+00
          1   -1    0    0  501    0  0.00000000000E+00  0.00000000000E+00  0.22462346278E+03  0.22462346278E+03  0.00000000000E+00 0. -1.
         -1   -1    0    0    0  501 -0.00000000000E+00 -0.00000000000E+00 -0.87061707050E+02  0.87061707050E+02  0.00000000000E+00 0.  1.
         25    2    1    2    0    0 -0.78908239582E+02 -0.27220362864E+02  0.47638893403E+02  0.15775027096E+03  0.12509286708E+03 0.  0.
          5    1    3    3  502    0  0.96684075946E+01  0.38495521066E+02  0.15245407055E+02  0.42723273328E+02  0.41800000000E+01 0.  1.
         -5    1    3    3    0  502 -0.88576647176E+02 -0.65715883930E+02  0.32393486348E+02  0.11502699763E+03  0.41800000000E+01 0.  1.
        -11    1    1    2    0    0  0.64951636130E+02  0.31665891863E+02  0.10316617092E+02  0.72992303236E+02  0.00000000000E+00 0.  1.
         11    1    1    2    0    0  0.13956603452E+02 -0.44455289995E+01  0.79606245233E+02  0.80942595635E+02  0.00000000000E+00 0. -1.
</event>
<event>
 7    1  0.2766180E-009  0.8023258E+02  0.7561462E-02  0.1328393E+00
         -2   -1    0    0    0  501 -0.00000000000E+00  0.00000000000E+00  0.71079842683E+02  0.71079842683E+02  0.00000000000E+00 0.  1.
          2   -1    0    0  501    0  0.00000000000E+00 -0.00000000000E+00 -0.20584481978E+03  0.20584481978E+03  0.00000000000E+00 0. -1.
         25    2    1    2    0    0  0.53992027560E+01  0.14459046957E+02 -0.13703803043E+03  0.18618550358E+03  0.12508958601E+03 0.  0.
          5    1    3    3  502    0 -0.15060863106E+02  0.36867755379E+02 -0.14825330604E+03  0.15356619464E+03  0.41800000000E+01 0. -1.
         -5    1    3    3    0  502  0.20460065862E+02 -0.22408708422E+02  0.11215275616E+02  0.32619308934E+02  0.41800000000E+01 0. -1.
        -11    1    1    2    0    0  0.86893676242E+00 -0.51860259877E+02  0.76792346222E+01  0.52432930969E+02  0.00000000000E+00 0.  1.
         11    1    1    2    0    0 -0.62681395184E+01  0.37401212921E+02 -0.54061812884E+01  0.38306227915E+02  0.00000000000E+00 0. -1.
</event>
<event>
 7    1  0.2766180E-009  0.8869195E+02  0.7561462E-02  0.1306051E+00
          2   -1    0    0  501    0  0.00000000000E+00  0.00000000000E+00  0.13249859044E+03  0.13249859044E+03  0.00000000000E+00 0. -1.
         -2   -1    0    0    0  501 -0.00000000000E+00 -0.00000000000E+00 -0.95932968390E+02  0.95932968390E+02  0.00000000000E+00 0.  1.
         25    2    1    2    0    0 -0.23997092228E+02  0.43321832088E+01  0.39860487897E+02  0.13353506448E+03  0.12509247261E+03 0.  0.
          5    1    3    3  502    0 -0.36736756954E+02  0.54816023279E+02 -0.26732319238E+01  0.66174045430E+02  0.41800000000E+01 0.  1.
         -5    1    3    3    0  502  0.12739664727E+02 -0.50483840070E+02  0.42533719821E+02  0.67361019049E+02  0.41800000000E+01 0.  1.
        -11    1    1    2    0    0 -0.15282905098E+02 -0.11467805116E+02  0.34809021254E+02  0.39708257366E+02  0.00000000000E+00 0. -1.
         11    1    1    2    0    0  0.39279997325E+02  0.71356219071E+01 -0.38103887097E+02  0.55188236988E+02  0.00000000000E+00 0.  1.
</event>
<event>
 7    1  0.2766180E-009  0.7663775E+02  0.7561462E-02  0.1338873E+00
         -2   -1    0    0    0  501 -0.00000000000E+00  0.00000000000E+00  0.24813306934E+03  0.24813306934E+03  0.00000000000E+00 0.  1.
          2   -1    0    0  501    0  0.00000000000E+00 -0.00000000000E+00 -0.59120156260E+02  0.59120156260E+02  0.00000000000E+00 0. -1.
         25    2    1    2    0    0 -0.63210119832E+00  0.50324728374E+02  0.81691225355E+02  0.15765415553E+03  0.12509355945E+03 0.  0.
          5    1    3    3  502    0 -0.64533138891E+01  0.75168872833E+02  0.10045893942E+03  0.12570392043E+03  0.41800000000E+01 0. -1.
         -5    1    3    3    0  502  0.58212126908E+01 -0.24844144459E+02 -0.18767714066E+02  0.31950235091E+02  0.41800000000E+01 0. -1.
        -11    1    1    2    0    0 -0.56705557313E+01 -0.31476738472E+02 -0.76801526489E+01  0.32892628534E+02  0.00000000000E+00 0. -1.
         11    1    1    2    0    0  0.63026569296E+01 -0.18847989902E+02  0.11500184037E+03  0.11670644154E+03  0.00000000000E+00 0.  1.
</event>
<event>
 7    1  0.2766180E-009  0.1446723E+03  0.7561462E-02  0.1207177E+00
          1   -1    0    0  501    0  0.00000000000E+00  0.00000000000E+00  0.13324023839E+03  0.13324023839E+03  0.00000000000E+00 0. -1.
         -1   -1    0    0    0  501 -0.00000000000E+00 -0.00000000000E+00 -0.32080888687E+03  0.32080888687E+03  0.00000000000E+00 0.  1.
         25    2    1    2    0    0 -0.10441911712E+03 -0.56467682641E+02  0.44944137236E+02  0.17821320418E+03  0.12509204399E+03 0.  0.
          5    1    3    3  502    0 -0.10438346384E+03 -0.74860801208E+02  0.70393528007E+02  0.14653589412E+03  0.41800000000E+01 0. -1.
         -5    1    3    3    0  502 -0.35653278897E-01  0.18393118566E+02 -0.25449390772E+02  0.31677310056E+02  0.41800000000E+01 0. -1.
        -11    1    1    2    0    0  0.10438446191E+02  0.46266251334E+02 -0.42846464341E+02  0.63916716733E+02  0.00000000000E+00 0. -1.
         11    1    1    2    0    0  0.93980670931E+02  0.10201431307E+02 -0.18966632137E+03  0.21191920435E+03  0.00000000000E+00 0.  1.
</event>
<event>
 7    1  0.2766180E-009  0.1818572E+03  0.7561462E-02  0.1166018E+00
          1   -1    0    0  501    0  0.00000000000E+00  0.00000000000E+00  0.15459870638E+04  0.15459870638E+04  0.00000000000E+00 0. -1.
         -1   -1    0    0    0  501 -0.00000000000E+00 -0.00000000000E+00 -0.23949640469E+02  0.23949640469E+02  0.00000000000E+00 0.  1.
         25    2    1    2    0    0 -0.85780802384E+02 -0.13468189528E+03  0.80877861817E+03  0.83382745005E+03  0.12509118384E+03 0.  0.
          5    1    3    3  502    0  0.23162170844E+02 -0.45179314761E+02  0.35483913256E+03  0.35847725037E+03  0.41800000000E+01 0. -1.
         -5    1    3    3    0  502 -0.10894297323E+03 -0.89502580521E+02  0.45393948561E+03  0.47535019968E+03  0.41800000000E+01 0. -1.
        -11    1    1    2    0    0  0.18813674141E+01  0.58070340265E+02  0.13789932370E+03  0.14963932451E+03  0.00000000000E+00 0.  1.
         11    1    1    2    0    0  0.83899434970E+02  0.76611555016E+02  0.57535948144E+03  0.58646992969E+03  0.00000000000E+00 0. -1.
</event>
<event>
 7    1  0.2766180E-009  0.1128633E+03  0.7561462E-02  0.1255358E+00
         -1   -1    0    0    0  501 -0.00000000000E+00  0.00000000000E+00  0.13220942202E+03  0.13220942202E+03  0.00000000000E+00 0.  1.
          1   -1    0    0  501    0  0.00000000000E+00 -0.00000000000E+00 -0.19501367695E+03  0.19501367695E+03  0.00000000000E+00 0. -1.
         25    2    1    2    0    0 -0.50101252736E+01 -0.71599470866E+02 -0.12974081843E+03  0.19398878990E+03  0.12508950817E+03 0.  0.
          5    1    3    3  502    0 -0.52319937305E+02 -0.50000824408E+02 -0.12104921856E+03  0.14109515936E+03  0.41800000000E+01 0.  1.
         -5    1    3    3    0  502  0.47309812032E+02 -0.21598646458E+02 -0.86915998745E+01  0.52893630540E+02  0.41800000000E+01 0.  1.
        -11    1    1    2    0    0 -0.18013877208E+02 -0.68731163865E+01 -0.93217788777E+01  0.21415766677E+02  0.00000000000E+00 0. -1.
         11    1    1    2    0    0  0.23024002482E+02  0.78472587252E+02  0.76258342380E+02  0.11181854239E+03  0.00000000000E+00 0.  1.
</event>
<event>
 7    1  0.2766180E-009  0.8931720E+02  0.7561462E-02  0.1304514E+00
         -1   -1    0    0    0  501 -0.00000000000E+00  0.00000000000E+00  0.39765382664E+02  0.39765382664E+02  0.00000000000E+00 0.  1.
          1   -1    0    0  501    0  0.00000000000E+00 -0.00000000000E+00 -0.32422106719E+03  0.32422106719E+03  0.00000000000E+00 0. -1.
         25    2    1    2    0    0  0.99569766530E+01 -0.16058521634E+01 -0.11398388151E+03  0.16953766737E+03  0.12509586431E+03 0.  0.
          5    1    3    3  502    0  0.19502048982E+02 -0.45872873695E+02 -0.35974457407E+01  0.50150418457E+02  0.41800000000E+01 0.  1.
         -5    1    3    3    0  502 -0.95450723294E+01  0.44267021532E+02 -0.11038643577E+03  0.11938724892E+03  0.41800000000E+01 0.  1.
        -11    1    1    2    0    0 -0.31747949463E+02  0.32432735821E+02 -0.47005913391E+02  0.65340420428E+02  0.00000000000E+00 0.  1.
         11    1    1    2    0    0  0.21790972810E+02 -0.30826883658E+02 -0.12346588962E+03  0.12910836205E+03  0.00000000000E+00 0. -1.
</event>
<event>
 7    1  0.2847435E-009  0.1738194E+03  0.7561462E-02  0.1173922E+00
         -1   -1    0    0    0  501 -0.00000000000E+00  0.00000000000E+00  0.54311081653E+02  0.54311081653E+02  0.00000000000E+00 0.  1.
          1   -1    0    0  501    0  0.00000000000E+00 -0.00000000000E+00 -0.66262777983E+03  0.66262777983E+03  0.00000000000E+00 0. -1.
         25    2    1    2    0    0 -0.91845892271E+02  0.12435722118E+03 -0.34856017457E+03  0.40130069340E+03  0.12509062652E+03 0.  0.
          5    1    3    3  502    0 -0.10963762549E+03  0.13116040298E+03 -0.26415906644E+03  0.31467593651E+03  0.41800000000E+01 0.  1.
         -5    1    3    3    0  502  0.17791733223E+02 -0.68031818015E+01 -0.84401108132E+02  0.86624756898E+02  0.41800000000E+01 0.  1.
        -11    1    1    2    0    0  0.49605885407E+02 -0.43788862257E+02 -0.38840876660E+02  0.76725628212E+02  0.00000000000E+00 0.  1.
         11    1    1    2    0    0  0.42240006864E+02 -0.80568358924E+02 -0.22091564695E+03  0.23891253987E+03  0.00000000000E+00 0. -1.
</event>
<event>
 7    1  0.2766180E-009  0.1451188E+03  0.7561462E-02  0.1206603E+00
          2   -1    0    0  501    0  0.00000000000E+00  0.00000000000E+00  0.55856535449E+03  0.55856535449E+03  0.00000000000E+00 0. -1.
         -2   -1    0    0    0  501 -0.00000000000E+00 -0.00000000000E+00 -0.42144041250E+02  0.42144041250E+02  0.00000000000E+00 0.  1.
         25    2    1    2    0    0  0.26807611011E+02 -0.10297613219E+03  0.31161505130E+03  0.35224105572E+03  0.12508832611E+03 0.  0.
          5    1    3    3  502    0 -0.28944740566E+02  0.15586461913E+02  0.63612816379E+02  0.71727251509E+02  0.41800000000E+01 0.  1.
         -5    1    3    3    0  502  0.55752351577E+02 -0.11856259410E+03  0.24800223492E+03  0.28051380421E+03  0.41800000000E+01 0.  1.
        -11    1    1    2    0    0 -0.49720730877E+02  0.70518530878E+02  0.18487440239E+03  0.20401852596E+03  0.00000000000E+00 0. -1.
         11    1    1    2    0    0  0.22913119865E+02  0.32457601311E+02  0.19931859545E+02  0.44449814057E+02  0.00000000000E+00 0.  1.
</event>
<event>
 7    1  0.2766180E-009  0.8533480E+02  0.7561462E-02  0.1314559E+00
          3   -1    0    0  501    0  0.00000000000E+00  0.00000000000E+00  0.14293176312E+04  0.14293176312E+04  0.00000000000E+00 0. -1.
         -3   -1    0    0    0  501 -0.00000000000E+00 -0.00000000000E+00 -0.12444409553E+02  0.12444409553E+02  0.00000000000E+00 0.  1.
         25    2    1    2    0    0 -0.58806584138E+01 -0.24968772394E+02  0.79421609469E+03  0.80441516592E+03  0.12508609978E+03 0.  0.
          5    1    3    3  502    0 -0.85887515269E+01 -0.28119322764E+02  0.79723885500E+03  0.79779178191E+03  0.41800000000E+01 0.  1.
         -5    1    3    3    0  502  0.27080931131E+01  0.31505503704E+01 -0.30227603033E+01  0.66233840140E+01  0.41800000000E+01 0.  1.
        -11    1    1    2    0    0 -0.54050289914E+02  0.46598373370E+02  0.29079260922E+03  0.29942141509E+03  0.00000000000E+00 0. -1.
         11    1    1    2    0    0  0.59930948328E+02 -0.21629600977E+02  0.33186451772E+03  0.33792545972E+03  0.00000000000E+00 0.  1.
</event>
<event>
 7    1  0.2766180E-009  0.9705711E+02  0.7561462E-02  0.1286609E+00
         -2   -1    0    0    0  501 -0.00000000000E+00  0.00000000000E+00  0.82713639218E+02  0.82713639218E+02  0.00000000000E+00 0.  1.
          2   -1    0    0  501    0  0.00000000000E+00 -0.00000000000E+00 -0.17592471528E+03  0.17592471528E+03  0.00000000000E+00 0. -1.
         25    2    1    2    0    0 -0.56436119243E+00 -0.52978331635E+02 -0.64275392087E+02  0.15028629956E+03  0.12509046199E+03 0.  0.
          5    1    3    3  502    0  0.22455311370E+02 -0.78558463634E+02 -0.77968242046E+02  0.11301412471E+03  0.41800000000E+01 0. -1.
         -5    1    3    3    0  502 -0.23019672562E+02  0.25580131998E+02  0.13692849959E+02  0.37272174848E+02  0.41800000000E+01 0. -1.
        -11    1    1    2    0    0  0.26474111018E+02  0.41665560213E+02  0.18840089768E+02  0.52837926194E+02  0.00000000000E+00 0. -1.
         11    1    1    2    0    0 -0.25909749825E+02  0.11312771422E+02 -0.47775773745E+02  0.55514128744E+02  0.00000000000E+00 0.  1.
</event>
<event>
 7    1  0.2766180E-009  0.3224079E+03  0.7561462E-02  0.1074546E+00
         -3   -1    0    0    0  501 -0.00000000000E+00  0.00000000000E+00  0.46335461419E+03  0.46335461419E+03  0.00000000000E+00 0.  1.
          3   -1    0    0  501    0  0.00000000000E+00 -0.00000000000E+00 -0.36618132215E+03  0.36618132215E+03  0.00000000000E+00 0. -1.
         25    2    1    2    0    0 -0.17584516453E+03 -0.26978206509E+03 -0.18509628158E+03  0.39193128348E+03  0.12508242475E+03 0.  0.
          5    1    3    3  502    0 -0.99305311218E+02 -0.15285841021E+03 -0.32918100286E+02  0.18527901159E+03  0.41800000000E+01 0.  1.
         -5    1    3    3    0  502 -0.76539853309E+02 -0.11692365488E+03 -0.15217818129E+03  0.20665227189E+03  0.41800000000E+01 0.  1.
        -11    1    1    2    0    0  0.18674674748E+02  0.41614114080E+02  0.88324386964E+02  0.99406615978E+02  0.00000000000E+00 0.  1.
         11    1    1    2    0    0  0.15717048978E+03  0.22816795101E+03  0.19394518665E+03  0.33819803688E+03  0.00000000000E+00 0. -1.
</event>
<event>
 7    1  0.2766180E-009  0.1287518E+03  0.7561462E-02  0.1229320E+00
         -2   -1    0    0    0  501 -0.00000000000E+00  0.00000000000E+00  0.11519254218E+02  0.11519254218E+02  0.00000000000E+00 0. -1.
          2   -1    0    0  501    0  0.00000000000E+00 -0.00000000000E+00 -0.17457542675E+04  0.17457542675E+04  0.00000000000E+00 0.  1.
         25    2    1    2    0    0  0.27671686999E+02  0.70042097019E+02 -0.12265170214E+04  0.12351762138E+04  0.12507860610E+03 0.  0.
          5    1    3    3  502    0  0.41583723807E+00  0.10293913523E+03 -0.85073871456E+03  0.85695418275E+03  0.41800000000E+01 0. -1.
         -5    1    3    3    0  502  0.27255849761E+02 -0.32897038210E+02 -0.37577830688E+03  0.37822203108E+03  0.41800000000E+01 0. -1.
        -11    1    1    2    0    0  0.29256099182E+02 -0.17536682955E+02 -0.73523957879E+02  0.81050767859E+02  0.00000000000E+00 0. -1.
         11    1    1    2    0    0 -0.56927786181E+02 -0.52505414063E+02 -0.43419403400E+03  0.44104654007E+03  0.00000000000E+00 0.  1.
</event>
<event>
 7    1  0.2766180E-009  0.1005600E+03  0.7561462E-02  0.1279123E+00
          2   -1    0    0  501    0  0.00000000000E+00  0.00000000000E+00  0.52660897785E+03  0.52660897785E+03  0.00000000000E+00 0. -1.
         -2   -1    0    0    0  501 -0.00000000000E+00 -0.00000000000E+00 -0.30567327876E+02  0.30567327876E+02  0.00000000000E+00 0.  1.
         25    2    1    2    0    0  0.53556603003E+02  0.29933712014E+02  0.33183226701E+03  0.35989487610E+03  0.12508929439E+03 0.  0.
          5    1    3    3  502    0  0.92812089277E+02  0.35499157970E+02  0.23740263623E+03  0.25739416897E+03  0.41800000000E+01 0.  1.
         -5    1    3    3    0  502 -0.39255486274E+02 -0.55654459562E+01  0.94429630784E+02  0.10250070713E+03  0.41800000000E+01 0.  1.
        -11    1    1    2    0    0 -0.44789096110E+02 -0.21706775817E+02  0.17449783606E+03  0.18145727330E+03  0.00000000000E+00 0. -1.
         11    1    1    2    0    0 -0.87675068925E+01 -0.82269361966E+01 -0.10288453094E+02  0.15824156324E+02  0.00000000000E+00 0.  1.
</event>
<event>
 7    1  0.2766180E-009  0.1104068E+03  0.7561462E-02  0.1259818E+00
          1   -1    0    0  501    0  0.00000000000E+00  0.00000000000E+00  0.17173336640E+03  0.17173336640E+03  0.00000000000E+00 0. -1.
         -1   -1    0    0    0  501 -0.00000000000E+00 -0.00000000000E+00 -0.85217368131E+02  0.85217368131E+02  0.00000000000E+00 0.  1.
         25    2    1    2    0    0  0.46360126941E+02 -0.61842850497E+01  0.78125169289E+02  0.15472149321E+03  0.12509073360E+03 0.  0.
          5    1    3    3  502    0 -0.63992291800E+01  0.46214972708E+02  0.79686325670E-01  0.46842849896E+02  0.41800000000E+01 0. -1.
         -5    1    3    3    0  502  0.52759356121E+02 -0.52399257757E+02  0.78045482963E+02  0.10787864331E+03  0.41800000000E+01 0. -1.
        -11    1    1    2    0    0 -0.46868141723E+02 -0.34882620882E+02  0.15738287261E+02  0.60507137050E+02  0.00000000000E+00 0. -1.
         11    1    1    2    0    0  0.50801478128E+00  0.41066905931E+02 -0.73474582801E+01  0.41722104273E+02  0.00000000000E+00 0.  1.
</event>
<event>
 7    1  0.2766180E-009  0.1152437E+03  0.7561462E-02  0.1251156E+00
          3   -1    0    0  501    0  0.00000000000E+00  0.00000000000E+00  0.55149487122E+03  0.55149487122E+03  0.00000000000E+00 0. -1.
         -3   -1    0    0    0  501 -0.00000000000E+00 -0.00000000000E+00 -0.34587099582E+02  0.34587099582E+02  0.00000000000E+00 0.  1.
         25    2    1    2    0    0  0.54814549066E+02 -0.69026893532E+02  0.30803367219E+03  0.34395210232E+03  0.12509579796E+03 0.  0.
          5    1    3    3  502    0  0.48771010084E+02  0.52685549001E+01  0.33751928790E+02  0.59691156736E+02  0.41800000000E+01 0. -1.
         -5    1    3    3    0  502  0.60435389822E+01 -0.74295448432E+02  0.27428174340E+03  0.28426094558E+03  0.41800000000E+01 0. -1.
        -11    1    1    2    0    0 -0.50295392820E+02  0.15145364051E+02  0.43690675026E+02  0.68321912118E+02  0.00000000000E+00 0.  1.
         11    1    1    2    0    0 -0.45191562466E+01  0.53881529480E+02  0.16518342443E+03  0.17380795637E+03  0.00000000000E+00 0. -1.
</event>
<event>
 7    1  0.2766180E-009  0.1474476E+03  0.7561462E-02  0.1203645E+00
          4   -1    0    0  501    0  0.00000000000E+00  0.00000000000E+00  0.91998851786E+02  0.91998851786E+02  0.00000000000E+00 0.  1.
         -4   -1    0    0    0  501 -0.00000000000E+00 -0.00000000000E+00 -0.43712989514E+03  0.43712989514E+03  0.00000000000E+00 0. -1.
         25    2    1    2    0    0 -0.59610320797E+02 -0.10685394433E+03 -0.33759401513E+03  0.38024749850E+03  0.12508910946E+03 0.  0.
          5    1    3    3  502    0 -0.62234059734E+02 -0.10123153262E+02 -0.63672479523E+02  0.89706262164E+02  0.41800000000E+01 0.  1.
         -5    1    3    3    0  502  0.26237389365E+01 -0.96730791066E+02 -0.27392153560E+03  0.29054123634E+03  0.41800000000E+01 0.  1.
        -11    1    1    2    0    0  0.69060133009E+02  0.76517334685E+02  0.22115892320E+02  0.10541971908E+03  0.00000000000E+00 0. -1.
         11    1    1    2    0    0 -0.94498122116E+01  0.30336609643E+02 -0.29652920547E+02  0.43461529338E+02  0.00000000000E+00 0.  1.
</event>
<event>
 7    1  0.2766180E-009  0.1011985E+03  0.7561462E-02  0.1277796E+00
         -1   -1    0    0    0  501 -0.00000000000E+00  0.00000000000E+00  0.13729451465E+03  0.13729451465E+03  0.00000000000E+00 0.  1.
          1   -1    0    0  501    0  0.00000000000E+00 -0.00000000000E+00 -0.12427670453E+03  0.12427670453E+03  0.00000000000E+00 0. -1.
         25    2    1    2    0    0 -0.61797944138E+02 -0.10994708983E+02 -0.28100966567E+02  0.14274763113E+03  0.12508937743E+03 0.  0.
          5    1    3    3  502    0 -0.55799631619E+02  0.21151242438E+02  0.36602480241E+02  0.70129793279E+02  0.41800000000E+01 0. -1.
         -5    1    3    3    0  502 -0.59983125190E+01 -0.32145951420E+02 -0.64703446808E+02  0.72617837854E+02  0.41800000000E+01 0. -1.
        -11    1    1    2    0    0  0.78672517083E+02  0.29996409791E+02  0.40431022042E+02  0.93401376263E+02  0.00000000000E+00 0.  1.
         11    1    1    2    0    0 -0.16874572944E+02 -0.19001700809E+02  0.68775465037E+00  0.25422211787E+02  0.00000000000E+00 0. -1.
</event>
<event>
 7    1  0.2766180E-009  0.9577280E+02  0.7561462E-02  0.1289445E+00
         -2   -1    0    0    0  501 -0.00000000000E+00  0.00000000000E+00  0.26415723155E+02  0.26415723155E+02  0.00000000000E+00 0.  1.
          2   -1    0    0  501    0  0.00000000000E+00 -0.00000000000E+00 -0.63668323847E+03  0.63668323847E+03  0.00000000000E+00 0. -1.
         25    2    1    2    0    0 -0.48124081129E+02 -0.23589322372E+01 -0.20434280127E+03  0.24439091517E+03  0.12509775075E+03 0.  0.
          5    1    3    3  502    0 -0.21052844705E+01  0.32880645945E+02 -0.17714054726E+03  0.18022712056E+03  0.41800000000E+01 0.  1.
         -5    1    3    3    0  502 -0.46018796658E+02 -0.35239578182E+02 -0.27202254010E+02  0.64163794616E+02  0.41800000000E+01 0.  1.
        -11    1    1    2    0    0  0.68210485288E+02 -0.19094128103E+02 -0.32453299020E+03  0.33217302382E+03  0.00000000000E+00 0. -1.
         11    1    1    2    0    0 -0.20086404160E+02  0.21453060340E+02 -0.81391723846E+02  0.86535022625E+02  0.00000000000E+00 0.  1.
</event>
<event>
 7    1  0.2766180E-009  0.1578752E+03  0.7561462E-02  0.1191117E+00
         -1   -1    0    0    0  501 -0.00000000000E+00  0.00000000000E+00  0.96768694747E+02  0.96768694747E+02  0.00000000000E+00 0.  1.
          1   -1    0    0  501    0  0.00000000000E+00 -0.00000000000E+00 -0.36923343446E+03  0.36923343446E+03  0.00000000000E+00 0. -1.
         25    2    1    2    0    0 -0.39749290220E+02  0.12724775133E+03 -0.23946190744E+03  0.30126676736E+03  0.12509062197E+03 0.  0.
          5    1    3    3  502    0  0.14896773000E+02  0.81794679291E+02 -0.20681038718E+03  0.22293562311E+03  0.41800000000E+01 0. -1.
         -5    1    3    3    0  502 -0.54646063220E+02  0.45453072042E+02 -0.32651520266E+02  0.78331144247E+02  0.41800000000E+01 0. -1.
        -11    1    1    2    0    0  0.53052007766E+02 -0.13559162213E+03 -0.28125815736E+02  0.14829249823E+03  0.00000000000E+00 0.  1.
         11    1    1    2    0    0 -0.13302717546E+02  0.83438707961E+01 -0.48770165366E+01  0.16442863627E+02  0.00000000000E+00 0. -1.
</event>
<event>
 7    1  0.2766180E-009  0.1135905E+03  0.7561462E-02  0.1254062E+00
          2   -1    0    0  501    0  0.00000000000E+00  0.00000000000E+00  0.23405323454E+03  0.23405323454E+03  0.00000000000E+00 0. -1.
         -2   -1    0    0    0  501 -0.00000000000E+00 -0.00000000000E+00 -0.67447455320E+02  0.67447455320E+02  0.00000000000E+00 0.  1.
         25    2    1    2    0    0  0.38058783238E+02  0.19368165789E+02  0.38647004552E+02  0.13771280585E+03  0.12509048367E+03 0.  0.
          5    1    3    3  502    0 -0.72247173206E+01  0.64194840878E+02  0.35139559309E+01  0.64830505335E+02  0.41800000000E+01 0. -1.
         -5    1    3    3    0  502  0.45283500559E+02 -0.44826675089E+02  0.35133048621E+02  0.72882300511E+02  0.41800000000E+01 0. -1.
        -11    1    1    2    0    0 -0.64862420723E+02 -0.27688538975E+02  0.69874303943E+02  0.99278432523E+02  0.00000000000E+00 0.  1.
         11    1    1    2    0    0  0.26803637484E+02  0.83203731857E+01  0.58084470724E+02  0.64509451490E+02  0.00000000000E+00 0. -1.
</event>
<event>
 7    1  0.2766180E-009  0.1126617E+03  0.7561462E-02  0.1255719E+00
         -1   -1    0    0    0  501 -0.00000000000E+00  0.00000000000E+00  0.29888230422E+03  0.29888230422E+03  0.00000000000E+00 0. -1.
          1   -1    0    0  501    0  0.00000000000E+00 -0.00000000000E+00 -0.65956690094E+02  0.65956690094E+02  0.00000000000E+00 0.  1.
         25    2    1    2    0    0 -0.84211401772E+02  0.30083458550E+02  0.13108898010E+03  0.20206053776E+03  0.12509022963E+03 0.  0.
          5    1    3    3  502    0  0.37529286878E+01  0.26380322442E+02 -0.15429659043E+02  0.31073343304E+02  0.41800000000E+01 0.  1.
         -5    1    3    3    0  502 -0.87964330460E+02  0.37031361081E+01  0.14651863915E+03  0.17098719445E+03  0.41800000000E+01 0.  1.
        -11    1    1    2    0    0 -0.10786647401E+02 -0.53735930013E+01 -0.87642104312E+01  0.14900961324E+02  0.00000000000E+00 0.  1.
         11    1    1    2    0    0  0.94998049173E+02 -0.24709865549E+02  0.11060084446E+03  0.14787749523E+03  0.00000000000E+00 0. -1.
</event>
<event>
 7    1  0.2766180E-009  0.9334312E+02  0.7561462E-02  0.1294952E+00
          1   -1    0    0  501    0  0.00000000000E+00  0.00000000000E+00  0.36871740860E+03  0.36871740860E+03  0.00000000000E+00 0. -1.
         -1   -1    0    0    0  501 -0.00000000000E+00 -0.00000000000E+00 -0.29793789205E+02  0.29793789205E+02  0.00000000000E+00 0.  1.
         25    2    1    2    0    0  0.85100597916E+01 -0.89893363923E+01  0.14779200643E+03  0.19402357520E+03  0.12509772693E+03 0.  0.
          5    1    3    3  502    0 -0.45416260648E+02  0.33019228229E+02  0.55146136471E+02  0.78812910946E+02  0.41800000000E+01 0. -1.
         -5    1    3    3    0  502  0.53926320440E+02 -0.42008564622E+02  0.92645869959E+02  0.11521066426E+03  0.41800000000E+01 0. -1.
        -11    1    1    2    0    0  0.40839579611E+01  0.33813211682E+02  0.49114574585E+02  0.59768331360E+02  0.00000000000E+00 0.  1.
         11    1    1    2    0    0 -0.12594017753E+02 -0.24823875290E+02  0.14201703838E+03  0.14471929124E+03  0.00000000000E+00 0. -1.
</event>
<event>
 7    1  0.2766180E-009  0.1258445E+03  0.7561462E-02  0.1233755E+00
         -1   -1    0    0    0  501 -0.00000000000E+00  0.00000000000E+00  0.14141279295E+03  0.14141279295E+03  0.00000000000E+00 0.  1.
          1   -1    0    0  501    0  0.00000000000E+00 -0.00000000000E+00 -0.36661111574E+03  0.36661111574E+03  0.00000000000E+00 0. -1.
         25    2    1    2    0    0  0.10580711280E+03  0.34162834373E+02 -0.30186932789E+03  0.34515745937E+03  0.12508531594E+03 0.  0.
          5    1    3    3  502    0  0.75985565246E+02  0.47129748276E+01 -0.29214332617E+03  0.30192915342E+03  0.41800000000E+01 0. -1.
         -5    1    3    3    0  502  0.29821547554E+02  0.29449859545E+02 -0.97260017222E+01  0.43228305949E+02  0.41800000000E+01 0. -1.
        -11    1    1    2    0    0 -0.35452837010E+02 -0.49917345801E+02  0.65929283934E+02  0.89973971480E+02  0.00000000000E+00 0.  1.
         11    1    1    2    0    0 -0.70354275791E+02  0.15754511428E+02  0.10741721177E+02  0.72892477844E+02  0.00000000000E+00 0. -1.
</event>
<event>
 7    1  0.2766180E-009  0.1010972E+03  0.7561462E-02  0.1278005E+00
          2   -1    0    0  501    0  0.00000000000E+00  0.00000000000E+00  0.33305518871E+03  0.33305518871E+03  0.00000000000E+00 0. -1.
         -2   -1    0    0    0  501 -0.00000000000E+00 -0.00000000000E+00 -0.64434901927E+02  0.64434901927E+02  0.00000000000E+00 0.  1.
         25    2    1    2    0    0 -0.52810520310E+01 -0.60476451194E+02  0.40525086665E+02  0.14482163154E+03  0.12508289912E+03 0.  0.
          5    1    3    3  502    0  0.33149664779E+02 -0.59065796327E+02  0.69007239130E+02  0.96783986398E+02  0.41800000000E+01 0. -1.
         -5    1    3    3    0  502 -0.38430716810E+02 -0.14106548670E+01 -0.28482152465E+02  0.48037645141E+02  0.41800000000E+01 0. -1.
        -11    1    1    2    0    0 -0.34051094463E+02  0.34746288578E+02  0.55574539732E+02  0.73860077651E+02  0.00000000000E+00 0.  1.
         11    1    1    2    0    0  0.39332146494E+02  0.25730162616E+02  0.17252066038E+03  0.17880838145E+03  0.00000000000E+00 0. -1.
</event>
<event>
 7    1  0.2766180E-009  0.9002734E+02  0.7561462E-02  0.1302785E+00
          2   -1    0    0  501    0  0.00000000000E+00  0.00000000000E+00  0.14093395191E+04  0.14093395191E+04  0.00000000000E+00 0. -1.
         -2   -1    0    0    0  501 -0.00000000000E+00 -0.00000000000E+00 -0.13813019292E+02  0.13813019292E+02  0.00000000000E+00 0.  1.
         25    2    1    2    0    0 -0.23383889678E+01  0.78826858993E+01  0.12009147674E+04  0.12074397383E+04  0.12508732222E+03 0.  0.
          5    1    3    3  502    0 -0.11750536009E+01  0.57947902790E+02  0.33007226612E+03  0.33514849462E+03  0.41800000000E+01 0. -1.
         -5    1    3    3    0  502 -0.11633353669E+01 -0.50065216891E+02  0.87084250132E+03  0.87229124367E+03  0.41800000000E+01 0. -1.
        -11    1    1    2    0    0  0.11702881364E+02 -0.38204384369E+02  0.35442237855E+02  0.53410529313E+02  0.00000000000E+00 0.  1.
         11    1    1    2    0    0 -0.93644923960E+01  0.30321698470E+02  0.15916949457E+03  0.16230227083E+03  0.00000000000E+00 0. -1.
</event>
<event>
 7    1  0.2766180E-009  0.3940944E+02  0.7561462E-02  0.1512603E+00
         -1   -1    0    0    0  501 -0.00000000000E+00  0.00000000000E+00  0.20837556442E+03  0.20837556442E+03  0.00000000000E+00 0.  1.
          1   -1    0    0  501    0  0.00000000000E+00 -0.00000000000E+00 -0.73898138464E+02  0.73898138464E+02  0.00000000000E+00 0. -1.
         25    2    1    2    0    0 -0.17772873657E+02 -0.10297432766E+01  0.14093610709E+03  0.18928233416E+03  0.12509148786E+03 0.  0.
          5    1    3    3  502    0 -0.87052533828E+01  0.16731968106E+02 -0.19563559498E+02  0.27494462231E+02  0.41800000000E+01 0. -1.
         -5    1    3    3    0  502 -0.90676202742E+01 -0.17761711383E+02  0.16049966658E+03  0.16178787192E+03  0.41800000000E+01 0. -1.
        -11    1    1    2    0    0  0.27815212000E+02  0.51173038652E+01  0.37921143718E+02  0.47306299352E+02  0.00000000000E+00 0.  1.
         11    1    1    2    0    0 -0.10042338343E+02 -0.40875605886E+01 -0.44379824844E+02  0.45685069379E+02  0.00000000000E+00 0. -1.
</event>
<event>
 7    1  0.2766180E-009  0.1270341E+03  0.7561462E-02  0.1231924E+00
         -2   -1    0    0    0  501 -0.00000000000E+00  0.00000000000E+00  0.34667354857E+02  0.34667354857E+02  0.00000000000E+00 0.  1.
          2   -1    0    0  501    0  0.00000000000E+00 -0.00000000000E+00 -0.10457603286E+04  0.10457603286E+04  0.00000000000E+00 0. -1.
         25    2    1    2    0    0  0.48005626540E+02  0.58010408845E+02 -0.91796525426E+03  0.92950472353E+03  0.12509626422E+03 0.  0.
          5    1    3    3  502    0  0.45908491059E+02 -0.25142114193E+02 -0.20205438552E+03  0.20876580795E+03  0.41800000000E+01 0. -1.
         -5    1    3    3    0  502  0.20971354808E+01  0.83152523037E+02 -0.71591086873E+03  0.72073891558E+03  0.41800000000E+01 0. -1.
        -11    1    1    2    0    0  0.27520463624E+02 -0.16665137929E+02 -0.19412441127E+02  0.37575864738E+02  0.00000000000E+00 0.  1.
         11    1    1    2    0    0 -0.75526090163E+02 -0.41345270916E+02 -0.73715278328E+02  0.11334709516E+03  0.00000000000E+00 0. -1.
</event>
<event>
 7    1  0.2766180E-009  0.9696865E+02  0.7561462E-02  0.1286803E+00
          2   -1    0    0  501    0  0.00000000000E+00  0.00000000000E+00  0.10923165639E+04  0.10923165639E+04  0.00000000000E+00 0. -1.
         -2   -1    0    0    0  501 -0.00000000000E+00 -0.00000000000E+00 -0.11197235221E+02  0.11197235221E+02  0.00000000000E+00 0.  1.
         25    2    1    2    0    0  0.19981962276E+02  0.27834797233E+01  0.61953066420E+03  0.63235559645E+03  0.12509328482E+03 0.  0.
          5    1    3    3  502    0 -0.32109405390E+02 -0.24626941379E+02  0.46761276863E+03  0.46937903015E+03  0.41800000000E+01 0. -1.
         -5    1    3    3    0  502  0.52091367667E+02  0.27410421102E+02  0.15191789557E+03  0.16297656630E+03  0.41800000000E+01 0. -1.
        -11    1    1    2    0    0  0.33538149910E+02  0.16473702228E+02  0.16708306045E+03  0.17121022006E+03  0.00000000000E+00 0. -1.
         11    1    1    2    0    0 -0.53520112186E+02 -0.19257181951E+02  0.29450560403E+03  0.29994798261E+03  0.00000000000E+00 0.  1.
</event>
<event>
 7    1  0.2766180E-009  0.1159516E+03  0.7561462E-02  0.1249929E+00
         -2   -1    0    0    0  501 -0.00000000000E+00  0.00000000000E+00  0.40740822159E+02  0.40740822159E+02  0.00000000000E+00 0.  1.
          2   -1    0    0  501    0  0.00000000000E+00 -0.00000000000E+00 -0.65329717187E+03  0.65329717187E+03  0.00000000000E+00 0. -1.
         25    2    1    2    0    0  0.82829054702E+01  0.44456402780E+02 -0.56707079170E+03  0.58246024861E+03  0.12508269321E+03 0.  0.
          5    1    3    3  502    0 -0.43326379707E+02  0.61643440443E+02 -0.26648347258E+03  0.27696209576E+03  0.41800000000E+01 0. -1.
         -5    1    3    3    0  502  0.51609285177E+02 -0.17187037663E+02 -0.30058731912E+03  0.30549815285E+03  0.41800000000E+01 0. -1.
        -11    1    1    2    0    0  0.31913737283E+02  0.10678041123E+02 -0.14794247367E+02  0.36761079210E+02  0.00000000000E+00 0.  1.
         11    1    1    2    0    0 -0.40196642753E+02 -0.55134443902E+02 -0.30691310640E+02  0.74816666204E+02  0.00000000000E+00 0. -1.
</event>
<event>
 7    1  0.2766180E-009  0.1769439E+03  0.7561462E-02  0.1170794E+00
         -2   -1    0    0    0  501 -0.00000000000E+00  0.00000000000E+00  0.71294804363E+02  0.71294804363E+02  0.00000000000E+00 0.  1.
          2   -1    0    0  501    0  0.00000000000E+00 -0.00000000000E+00 -0.89854328506E+03  0.89854328506E+03  0.00000000000E+00 0. -1.
         25    2    1    2    0    0  0.15373485449E+03  0.26781615552E+02 -0.74462657019E+03  0.77101758429E+03  0.12509087030E+03 0.  0.
          5    1    3    3  502    0 -0.15960744745E+02 -0.11449155738E+02 -0.15369697678E+03  0.15500342451E+03  0.41800000000E+01 0.  1.
         -5    1    3    3    0  502  0.16969559924E+03  0.38230771290E+02 -0.59092959341E+03  0.61601415977E+03  0.41800000000E+01 0.  1.
        -11    1    1    2    0    0 -0.37126917973E+02  0.82847538442E+01  0.16834748289E+02  0.41598725153E+02  0.00000000000E+00 0.  1.
         11    1    1    2    0    0 -0.11660793652E+03 -0.35066369396E+02 -0.99456658795E+02  0.15722177998E+03  0.00000000000E+00 0. -1.
</event>
<event>
 7    1  0.2766180E-009  0.1721737E+03  0.7561462E-02  0.1175600E+00
          2   -1    0    0  501    0  0.00000000000E+00  0.00000000000E+00  0.23857913725E+03  0.23857913725E+03  0.00000000000E+00 0. -1.
         -2   -1    0    0    0  501 -0.00000000000E+00 -0.00000000000E+00 -0.25984817488E+03  0.25984817488E+03  0.00000000000E+00 0.  1.
         25    2    1    2    0    0  0.62328852077E+02 -0.12090044910E+03 -0.18974757993E+03  0.26486540638E+03  0.12509090702E+03 0.  0.
          5    1    3    3  502    0  0.67513667917E+01 -0.12662842732E+03 -0.11342334140E+03  0.17018421294E+03  0.41800000000E+01 0. -1.
         -5    1    3    3    0  502  0.55577485285E+02  0.57279782261E+01 -0.76324238529E+02  0.94681193445E+02  0.41800000000E+01 0. -1.
        -11    1    1    2    0    0 -0.79407525356E+02  0.63861049623E+02  0.99199841563E+02  0.14221250757E+03  0.00000000000E+00 0.  1.
         11    1    1    2    0    0  0.17078673279E+02  0.57039399474E+02  0.69278700732E+02  0.91349398183E+02  0.00000000000E+00 0. -1.
</event>
<event>
 7    1  0.3154819E-009  0.9527657E+02  0.7561462E-02  0.1290554E+00
          1   -1    0    0  501    0  0.00000000000E+00  0.00000000000E+00  0.57617318407E+03  0.57617318407E+03  0.00000000000E+00 0. -1.
         -1   -1    0    0    0  501 -0.00000000000E+00 -0.00000000000E+00 -0.33518864246E+02  0.33518864246E+02  0.00000000000E+00 0.  1.
         25    2    1    2    0    0 -0.38681057802E+02  0.67697746662E+02  0.21612742287E+03  0.26160785006E+03  0.12509354564E+03 0.  0.
          5    1    3    3  502    0  0.10131244365E+02  0.19167558465E+02 -0.10695819982E+02  0.24533861803E+02  0.41800000000E+01 0.  1.
         -5    1    3    3    0  502 -0.48812302167E+02  0.48530188196E+02  0.22682324286E+03  0.23707398826E+03  0.41800000000E+01 0.  1.
        -11    1    1    2    0    0 -0.93357436716E+01 -0.45797886665E+02  0.58340207722E+02  0.74754146172E+02  0.00000000000E+00 0.  1.
         11    1    1    2    0    0  0.48016801473E+02 -0.21899859996E+02  0.26818668923E+03  0.27333005208E+03  0.00000000000E+00 0. -1.
</event>
<event>
 7    1  0.2766180E-009  0.1153553E+03  0.7561462E-02  0.1250962E+00
          1   -1    0    0  501    0  0.00000000000E+00  0.00000000000E+00  0.10109637716E+03  0.10109637716E+03  0.00000000000E+00 0. -1.
         -1   -1    0    0    0  501 -0.00000000000E+00 -0.00000000000E+00 -0.14253367111E+03  0.14253367111E+03  0.00000000000E+00 0.  1.
         25    2    1    2    0    0 -0.42195193536E+02  0.60421043080E+02 -0.50230073978E+02  0.15362785751E+03  0.12508925400E+03 0.  0.
          5    1    3    3  502    0 -0.80415268251E+02  0.68392030779E+02 -0.40744464721E+02  0.11323280906E+03  0.41800000000E+01 0.  1.
         -5    1    3    3    0  502  0.38220074715E+02 -0.79709876995E+01 -0.94856092564E+01  0.40395048447E+02  0.41800000000E+01 0.  1.
        -11    1    1    2    0    0 -0.23645644563E+01 -0.33816454959E+02  0.16213012858E+02  0.37576662665E+02  0.00000000000E+00 0. -1.
         11    1    1    2    0    0  0.44559757992E+02 -0.26604588121E+02 -0.74202328290E+01  0.52425528101E+02  0.00000000000E+00 0.  1.
</event>
<event>
 7    1  0.2766180E-009  0.1668175E+03  0.7561462E-02  0.1181208E+00
         -2   -1    0    0    0  501 -0.00000000000E+00  0.00000000000E+00  0.20821371971E+03  0.20821371971E+03  0.00000000000E+00 0.  1.
          2   -1    0    0  501    0  0.00000000000E+00 -0.00000000000E+00 -0.19027280189E+03  0.19027280189E+03  0.00000000000E+00 0. -1.
         25    2    1    2    0    0 -0.12299141009E+03 -0.39094932504E+02  0.11466866995E+03  0.21319315313E+03  0.12508843261E+03 0.  0.
          5    1    3    3  502    0 -0.14479067600E+03 -0.48600901391E+02  0.84654545346E+02  0.17467184066E+03  0.41800000000E+01 0. -1.
         -5    1    3    3    0  502  0.21799265911E+02  0.95059688864E+01  0.30014124604E+02  0.38521312471E+02  0.41800000000E+01 0. -1.
        -11    1    1    2    0    0  0.39114173635E+02 -0.28976477245E+02 -0.19196657159E+02  0.52326536851E+02  0.00000000000E+00 0. -1.
         11    1    1    2    0    0  0.83877236456E+02  0.68071409749E+02 -0.77531094976E+02  0.13296683161E+03  0.00000000000E+00 0.  1.
</event>
<event>
 7    1  0.2766180E-009  0.2996388E+03  0.7561462E-02  0.1085421E+00
         -2   -1    0    0    0  501 -0.00000000000E+00  0.00000000000E+00  0.11627582096E+03  0.11627582096E+03  0.00000000000E+00 0.  1.
          2   -1    0    0  501    0  0.00000000000E+00 -0.00000000000E+00 -0.84981744615E+03  0.84981744615E+03  0.00000000000E+00 0. -1.
         25    2    1    2    0    0 -0.21014300254E+03 -0.20660730647E+03 -0.39216992900E+03  0.50625165717E+03  0.12508727581E+03 0.  0.
          5    1    3    3  502    0 -0.19942770318E+03 -0.18241026829E+03 -0.27326057618E+03  0.38436145705E+03  0.41800000000E+01 0.  1.
         -5    1    3    3    0  502 -0.10715299363E+02 -0.24197038185E+02 -0.11890935281E+03  0.12189020011E+03  0.41800000000E+01 0.  1.
        -11    1    1    2    0    0  0.55778403819E+02  0.10026774921E+03 -0.87642876425E+02  0.14438187439E+03  0.00000000000E+00 0.  1.
         11    1    1    2    0    0  0.15436459872E+03  0.10633955727E+03 -0.25372881976E+03  0.31545973556E+03  0.00000000000E+00 0. -1.
</event>
<event>
 7    1  0.2766180E-009  0.2309494E+03  0.7561462E-02  0.1125973E+00
          1   -1    0    0  501    0  0.00000000000E+00  0.00000000000E+00  0.42257210379E+03  0.42257210379E+03  0.00000000000E+00 0. -1.
         -1   -1    0    0    0  501 -0.00000000000E+00 -0.00000000000E+00 -0.15284899863E+03  0.15284899863E+03  0.00000000000E+00 0.  1.
         25    2    1    2    0    0  0.15755162058E+03 -0.13358395601E+03  0.24992778817E+02  0.24277534213E+03  0.12509213127E+03 0.  0.
          5    1    3    3  502    0  0.16975188883E+03 -0.91850053451E+02  0.12475717683E+01  0.19305741352E+03  0.41800000000E+01 0. -1.
         -5    1    3    3    0  502 -0.12200268248E+02 -0.41733902554E+02  0.23745207049E+02  0.49717928612E+02  0.41800000000E+01 0. -1.
        -11    1    1    2    0    0 -0.14754870452E+03  0.74594675793E+02  0.17452381358E+03  0.24040288552E+03  0.00000000000E+00 0.  1.
         11    1    1    2    0    0 -0.10002916063E+02  0.58989280212E+02  0.70206512772E+02  0.92242874767E+02  0.00000000000E+00 0. -1.
</event>
<event>
 7    1  0.2809917E-009  0.1049221E+03  0.7561462E-02  0.1270273E+00
          4   -1    0    0  501    0  0.00000000000E+00  0.00000000000E+00  0.23037382842E+03  0.23037382842E+03  0.00000000000E+00 0. -1.
         -4   -1    0    0    0  501 -0.00000000000E+00 -0.00000000000E+00 -0.90670804048E+02  0.90670804048E+02  0.00000000000E+00 0.  1.
         25    2    1    2    0    0 -0.55101439840E+02  0.55563731003E+02  0.13581733453E+03  0.20054348149E+03  0.12509133756E+03 0.  0.
          5    1    3    3  502    0 -0.32008605159E+02  0.74029865610E+02  0.14775275401E+03  0.16838444265E+03  0.41800000000E+01 0.  1.
         -5    1    3    3    0  502 -0.23092834681E+02 -0.18466134607E+02 -0.11935419486E+02  0.32159038842E+02  0.41800000000E+01 0.  1.
        -11    1    1    2    0    0  0.59076318120E+02 -0.18444059511E+02 -0.31165898720E+02  0.69292914045E+02  0.00000000000E+00 0.  1.
         11    1    1    2    0    0 -0.39748782803E+01 -0.37119671492E+02  0.35051588559E+02  0.51208236930E+02  0.00000000000E+00 0. -1.
</event>
<event>
 7    1  0.2766180E-009  0.1436153E+03  0.7561462E-02  0.1208545E+00
          1   -1    0    0  501    0  0.00000000000E+00  0.00000000000E+00  0.97184201591E+02  0.97184201591E+02  0.00000000000E+00 0. -1.
         -1   -1    0    0    0  501 -0.00000000000E+00 -0.00000000000E+00 -0.23615098400E+03  0.23615098400E+03  0.00000000000E+00 0.  1.
         25    2    1    2    0    0  0.10200829916E+03  0.22901685763E+02 -0.59276069608E+02  0.17346985149E+03  0.12509179285E+03 0.  0.
          5    1    3    3  502    0  0.59838687307E+02  0.71630854753E+02 -0.13699718609E+02  0.94428822619E+02  0.41800000000E+01 0.  1.
         -5    1    3    3    0  502  0.42169611849E+02 -0.48729168990E+02 -0.45576350999E+02  0.79041028867E+02  0.41800000000E+01 0.  1.
        -11    1    1    2    0    0 -0.81601356723E+02 -0.49695695230E+02 -0.82275380991E+02  0.12608600977E+03  0.00000000000E+00 0.  1.
         11    1    1    2    0    0 -0.20406942433E+02  0.26794009467E+02  0.25846681871E+01  0.33779324333E+02  0.00000000000E+00 0. -1.
</event>
<event>
 7    1  0.2766180E-009  0.7230447E+02  0.7561462E-02  0.1352427E+00
         -1   -1    0    0    0  501 -0.00000000000E+00  0.00000000000E+00  0.14064577301E+03  0.14064577301E+03  0.00000000000E+00 0.  1.
          1   -1    0    0  501    0  0.00000000000E+00 -0.00000000000E+00 -0.89323323374E+02  0.89323323374E+02  0.00000000000E+00 0. -1.
         25    2    1    2    0    0  0.29215702677E+02  0.17834221938E+02  0.49621814424E+02  0.13884799520E+03  0.12507927306E+03 0.  0.
          5    1    3    3  502    0  0.31450111995E+02 -0.27584654912E+02 -0.26774797040E+02  0.49843604280E+02  0.41800000000E+01 0. -1.
         -5    1    3    3    0  502 -0.22344093179E+01  0.45418876850E+02  0.76396611464E+02  0.89004390917E+02  0.41800000000E+01 0. -1.
        -11    1    1    2    0    0 -0.25004107145E+02  0.11318427557E+02  0.36411233211E+02  0.45597040259E+02  0.00000000000E+00 0.  1.
         11    1    1    2    0    0 -0.42115955328E+01 -0.29152649495E+02 -0.34710598002E+02  0.45524060926E+02  0.00000000000E+00 0. -1.
</event>
<event>
 7    1  0.2766180E-009  0.1029183E+03  0.7561462E-02  0.1274276E+00
         -1   -1    0    0    0  501 -0.00000000000E+00  0.00000000000E+00  0.15541534017E+03  0.15541534017E+03  0.00000000000E+00 0.  1.
          1   -1    0    0  501    0  0.00000000000E+00 -0.00000000000E+00 -0.86293486562E+02  0.86293486562E+02  0.00000000000E+00 0. -1.
         25    2    1    2    0    0 -0.21881987764E+02 -0.24955588483E+02  0.67801527749E+02  0.14610764003E+03  0.12509513389E+03 0.  0.
          5    1    3    3  502    0 -0.24226797712E+02  0.39011041036E+02 -0.80073759235E+01  0.46801597401E+02  0.41800000000E+01 0. -1.
         -5    1    3    3    0  502  0.23448099475E+01 -0.63966629519E+02  0.75808903672E+02  0.99306042625E+02  0.41800000000E+01 0. -1.
        -11    1    1    2    0    0  0.21736066183E+01 -0.33664574571E+02  0.12161155192E+01  0.33756585783E+02  0.00000000000E+00 0.  1.
         11    1    1    2    0    0  0.19708381146E+02  0.58620163054E+02  0.10421034341E+00  0.61844600926E+02  0.00000000000E+00 0. -1.
</event>
<event>
 7    1  0.2766180E-009  0.1331857E+03  0.7561462E-02  0.1222804E+00
          1   -1    0    0  501    0  0.00000000000E+00  0.00000000000E+00  0.96902667767E+02  0.96902667767E+02  0.00000000000E+00 0. -1.
         -1   -1    0    0    0  501 -0.00000000000E+00 -0.00000000000E+00 -0.25185219262E+03  0.25185219262E+03  0.00000000000E+00 0.  1.
         25    2    1    2    0    0 -0.10097626290E+03 -0.89955407323E+01 -0.13334900385E+03  0.20906133708E+03  0.12509020911E+03 0.  0.
          5    1    3    3  502    0 -0.45159448457E+02  0.56074074454E+02 -0.81315921427E+02  0.10868959972E+03  0.41800000000E+01 0.  1.
         -5    1    3    3    0  502 -0.55816814438E+02 -0.65069615187E+02 -0.52033082418E+02  0.10037173736E+03  0.41800000000E+01 0.  1.
        -11    1    1    2    0    0  0.64139040029E+02 -0.13102865295E+02  0.30455747059E+02  0.72201482420E+02  0.00000000000E+00 0. -1.
         11    1    1    2    0    0  0.36837222867E+02  0.22098406028E+02 -0.52056268062E+02  0.67492040879E+02  0.00000000000E+00 0.  1.
</event>
<event>
 7    1  0.2766180E-009  0.1079838E+03  0.7561462E-02  0.1264350E+00
         -2   -1    0    0    0  501 -0.00000000000E+00  0.00000000000E+00  0.28579030787E+03  0.28579030787E+03  0.00000000000E+00 0.  1.
          2   -1    0    0  501    0  0.00000000000E+00 -0.00000000000E+00 -0.89753809414E+02  0.89753809414E+02  0.00000000000E+00 0. -1.
         25    2    1    2    0    0 -0.64759439658E+02  0.22451387180E+01 -0.88348190536E+01  0.14115789266E+03  0.12509464801E+03 0.  0.
          5    1    3    3  502    0 -0.88455944100E+02 -0.35700238737E+02 -0.11371226477E+02  0.96154762150E+02  0.41800000000E+01 0. -1.
         -5    1    3    3    0  502  0.23696504442E+02  0.37945377455E+02  0.25364074231E+01  0.45003130509E+02  0.41800000000E+01 0. -1.
        -11    1    1    2    0    0  0.13551976979E+02  0.16206164544E+02 -0.12857092842E+01  0.21164803274E+02  0.00000000000E+00 0. -1.
         11    1    1    2    0    0  0.51207462679E+02 -0.18451303262E+02  0.20615702680E+03  0.21322142135E+03  0.00000000000E+00 0.  1.
</event>
<event>
 7    1  0.2766180E-009  0.7089635E+02  0.7561462E-02  0.1357071E+00
          1   -1    0    0  501    0  0.00000000000E+00  0.00000000000E+00  0.10679667593E+03  0.10679667593E+03  0.00000000000E+00 0. -1.
         -1   -1    0    0    0  501 -0.00000000000E+00 -0.00000000000E+00 -0.11904867461E+03  0.11904867461E+03  0.00000000000E+00 0.  1.
         25    2    1    2    0    0  0.24786849223E+02  0.15533112215E+02 -0.21469754478E+02  0.13024634974E+03  0.12508995081E+03 0.  0.
          5    1    3    3  502    0  0.21706217413E+02  0.30584251541E+02 -0.69807267164E+02  0.79354163505E+02  0.41800000000E+01 0. -1.
         -5    1    3    3    0  502  0.30806318103E+01 -0.15051139325E+02  0.48337512686E+02  0.50892186237E+02  0.41800000000E+01 0. -1.
        -11    1    1    2    0    0 -0.45104305743E+02  0.18295526652E+02  0.22955206946E+02  0.53815111427E+02  0.00000000000E+00 0. -1.
         11    1    1    2    0    0  0.20317456519E+02 -0.33828638867E+02 -0.13737451152E+02  0.41783889373E+02  0.00000000000E+00 0.  1.
</event>
<event>
 7    1  0.2766180E-009  0.2249151E+03  0.7561462E-02  0.1130271E+00
          2   -1    0    0  501    0  0.00000000000E+00  0.00000000000E+00  0.51618974577E+02  0.51618974577E+02  0.00000000000E+00 0. -1.
         -2   -1    0    0    0  501 -0.00000000000E+00 -0.00000000000E+00 -0.13092510566E+04  0.13092510566E+04  0.00000000000E+00 0.  1.
         25    2    1    2    0    0 -0.17222579738E+03 -0.10587617199E+03 -0.32735250994E+03  0.40457225813E+03  0.12509019628E+03 0.  0.
          5    1    3    3  502    0 -0.11910118442E+02 -0.69264144903E+02 -0.71060165604E+02  0.10003195602E+03  0.41800000000E+01 0.  1.
         -5    1    3    3    0  502 -0.16031567893E+03 -0.36612027087E+02 -0.25629234434E+03  0.30454030210E+03  0.41800000000E+01 0.  1.
        -11    1    1    2    0    0  0.70735781239E+02  0.86270998330E+02 -0.36587421614E+03  0.38250513452E+03  0.00000000000E+00 0.  1.
         11    1    1    2    0    0  0.10149001614E+03  0.19605173660E+02 -0.56440535592E+03  0.57379263851E+03  0.00000000000E+00 0. -1.
</event>
<event>
 7    1  0.2766180E-009  0.1635878E+03  0.7561462E-02  0.1184705E+00
          2   -1    0    0  501    0  0.00000000000E+00  0.00000000000E+00  0.67149988769E+03  0.67149988769E+03  0.00000000000E+00 0. -1.
         -2   -1    0    0    0  501 -0.00000000000E+00 -0.00000000000E+00 -0.64713920518E+02  0.64713920518E+02  0.00000000000E+00 0.  1.
         25    2    1    2    0    0  0.10137563187E+03 -0.10390849346E+03  0.13606686803E+03  0.23502220889E+03  0.12508897771E+03 0.  0.
          5    1    3    3  502    0  0.43291054482E+02  0.15638073237E+02  0.76357142928E+02  0.89255534332E+02  0.41800000000E+01 0.  1.
         -5    1    3    3    0  502  0.58084577388E+02 -0.11954656670E+03  0.59709725104E+02  0.14576667456E+03  0.41800000000E+01 0.  1.
        -11    1    1    2    0    0 -0.11929794600E+01  0.11896403882E+02  0.80172013951E+00  0.11982920366E+02  0.00000000000E+00 0.  1.
         11    1    1    2    0    0 -0.10018265241E+03  0.92012089583E+02  0.46991737900E+03  0.48920867895E+03  0.00000000000E+00 0. -1.
</event>
<event>
 7    1  0.2766180E-009  0.9388389E+02  0.7561462E-02  0.1293710E+00
         -2   -1    0    0    0  501 -0.00000000000E+00  0.00000000000E+00  0.43372700211E+02  0.43372700211E+02  0.00000000000E+00 0. -1.
          2   -1    0    0  501    0  0.00000000000E+00 -0.00000000000E+00 -0.45204794435E+03  0.45204794435E+03  0.00000000000E+00 0.  1.
         25    2    1    2    0    0  0.55619837105E+01 -0.87451810054E+02 -0.18920806840E+03  0.24316342862E+03  0.12509998052E+03 0.  0.
          5    1    3    3  502    0 -0.37476408195E+01 -0.37376592595E+02 -0.18829491642E+03  0.19205078088E+03  0.41800000000E+01 0.  1.
         -5    1    3    3    0  502  0.93096245301E+01 -0.50075217459E+02 -0.91315197453E+00  0.51112647740E+02  0.41800000000E+01 0.  1.
        -11    1    1    2    0    0 -0.23985148267E+02  0.29289926613E+02 -0.16867651645E+03  0.17287265353E+03  0.00000000000E+00 0.  1.
         11    1    1    2    0    0  0.18423164556E+02  0.58161883441E+02 -0.50790659297E+02  0.79384562413E+02  0.00000000000E+00 0. -1.
</event>
<event>
 7    1  0.2766180E-009  0.2187894E+03  0.7561462E-02  0.1134789E+00
          1   -1    0    0  501    0  0.00000000000E+00  0.00000000000E+00  0.20958589369E+03  0.20958589369E+03  0.00000000000E+00 0. -1.
         -1   -1    0    0    0  501 -0.00000000000E+00 -0.00000000000E+00 -0.27754476067E+03  0.27754476067E+03  0.00000000000E+00 0.  1.
         25    2    1    2    0    0  0.21333187997E+03  0.46762453079E+01 -0.60723895910E+02  0.25471199787E+03  0.12513373662E+03 0.  0.
          5    1    3    3  502    0  0.88958748399E+02 -0.31080897698E+02  0.27240468402E+02  0.98179410454E+02  0.41800000000E+01 0. -1.
         -5    1    3    3    0  502  0.12437313157E+03  0.35757143006E+02 -0.87964364312E+02  0.15653258741E+03  0.41800000000E+01 0. -1.
        -11    1    1    2    0    0 -0.19512991435E+03 -0.63846724982E+00 -0.35720964587E+02  0.19837358298E+03  0.00000000000E+00 0.  1.
         11    1    1    2    0    0 -0.18201965624E+02 -0.40377780581E+01  0.28485993513E+02  0.34045073515E+02  0.00000000000E+00 0. -1.
</event>
<event>
 7    1  0.2766180E-009  0.2564076E+03  0.7561462E-02  0.1109321E+00
         -1   -1    0    0    0  501 -0.00000000000E+00  0.00000000000E+00  0.30595363754E+03  0.30595363754E+03  0.00000000000E+00 0.  1.
          1   -1    0    0  501    0  0.00000000000E+00 -0.00000000000E+00 -0.22966854911E+03  0.22966854911E+03  0.00000000000E+00 0. -1.
         25    2    1    2    0    0  0.19399826962E+03 -0.13662854833E+03  0.18250986017E+01  0.26823806161E+03  0.12508252427E+03 0.  0.
          5    1    3    3  502    0  0.27856832207E+02  0.17201040586E+02  0.23834123677E+02  0.40711383535E+02  0.41800000000E+01 0. -1.
         -5    1    3    3    0  502  0.16614143741E+03 -0.15382958892E+03 -0.22009025076E+02  0.22752667807E+03  0.41800000000E+01 0. -1.
        -11    1    1    2    0    0 -0.10911202442E+03  0.22990650390E+02  0.11181797556E+02  0.11206710701E+03  0.00000000000E+00 0. -1.
         11    1    1    2    0    0 -0.84886245201E+02  0.11363789794E+03  0.63278192271E+02  0.15531701803E+03  0.00000000000E+00 0.  1.
</event>
<event>
 7    1  0.2766180E-009  0.8696238E+02  0.7561462E-02  0.1310379E+00
         -3   -1    0    0    0  501 -0.00000000000E+00  0.00000000000E+00  0.14635770955E+02  0.14635770955E+02  0.00000000000E+00 0.  1.
          3   -1    0    0  501    0  0.00000000000E+00 -0.00000000000E+00 -0.81816595606E+03  0.81816595606E+03  0.00000000000E+00 0. -1.
         25    2    1    2    0    0 -0.72565046864E+01 -0.17430511543E+02 -0.46340783851E+03  0.48036504408E+03  0.12508905303E+03 0.  0.
          5    1    3    3  502    0 -0.19551888690E+02  0.28452117020E+02 -0.35094433990E+02  0.49405374316E+02  0.41800000000E+01 0. -1.
         -5    1    3    3    0  502  0.12295384003E+02 -0.45882628563E+02 -0.42831340452E+03  0.43095966977E+03  0.41800000000E+01 0. -1.
        -11    1    1    2    0    0  0.39931688343E+01  0.54302439797E+02 -0.17796676044E+03  0.18610982829E+03  0.00000000000E+00 0.  1.
         11    1    1    2    0    0  0.32633358522E+01 -0.36871928254E+02 -0.16215558615E+03  0.16632685464E+03  0.00000000000E+00 0. -1.
</event>
<event>
 7    1  0.2766180E-009  0.1161107E+03  0.7561462E-02  0.1249655E+00
          2   -1    0    0  501    0  0.00000000000E+00  0.00000000000E+00  0.11279346926E+03  0.11279346926E+03  0.00000000000E+00 0. -1.
         -2   -1    0    0    0  501 -0.00000000000E+00 -0.00000000000E+00 -0.16091905312E+03  0.16091905312E+03  0.00000000000E+00 0.  1.
         25    2    1    2    0    0 -0.11803188111E+02  0.82741266358E+02 -0.32354555091E+02  0.15388392876E+03  0.12509202168E+03 0.  0.
          5    1    3    3  502    0 -0.34924684253E+01  0.10161553165E+03  0.14245109722E+02  0.10275363331E+03  0.41800000000E+01 0.  1.
         -5    1    3    3    0  502 -0.83107196857E+01 -0.18874265290E+02 -0.46599664813E+02  0.51130295448E+02  0.41800000000E+01 0.  1.
        -11    1    1    2    0    0 -0.23700207912E+02 -0.66075502487E+02 -0.32294433962E+02  0.77269672893E+02  0.00000000000E+00 0.  1.
         11    1    1    2    0    0  0.35503396023E+02 -0.16665763871E+02  0.16523405195E+02  0.42558920731E+02  0.00000000000E+00 0. -1.
</event>
<event>
 7    1  0.2766180E-009  0.8974502E+02  0.7561462E-02  0.1303470E+00
          2   -1    0    0  501    0  0.00000000000E+00  0.00000000000E+00  0.51018398809E+02  0.51018398809E+02  0.00000000000E+00 0. -1.
         -2   -1    0    0    0  501 -0.00000000000E+00 -0.00000000000E+00 -0.25071963422E+03  0.25071963422E+03  0.00000000000E+00 0.  1.
         25    2    1    2    0    0  0.31067474606E+00  0.21578915116E+02 -0.14673649936E+03  0.19402178263E+03  0.12508839194E+03 0.  0.
          5    1    3    3  502    0 -0.54714956771E+02 -0.26866317677E+00 -0.28754707383E+02  0.61952435554E+02  0.41800000000E+01 0.  1.
         -5    1    3    3    0  502  0.55025631517E+02  0.21847578293E+02 -0.11798179197E+03  0.13206934708E+03  0.41800000000E+01 0.  1.
        -11    1    1    2    0    0 -0.28765016915E+02  0.12365490617E+01 -0.63526030651E+02  0.69746052375E+02  0.00000000000E+00 0.  1.
         11    1    1    2    0    0  0.28454342169E+02 -0.22815464178E+02  0.10561294598E+02  0.37970198018E+02  0.00000000000E+00 0. -1.
</event>
<event>
 7    1  0.2766180E-009  0.1970749E+03  0.7561462E-02  0.1152231E+00
         -1   -1    0    0    0  501 -0.00000000000E+00  0.00000000000E+00  0.13623273649E+04  0.13623273649E+04  0.00000000000E+00 0.  1.
          1   -1    0    0  501    0  0.00000000000E+00 -0.00000000000E+00 -0.30752317928E+02  0.30752317928E+02  0.00000000000E+00 0. -1.
         25    2    1    2    0    0 -0.11884098439E+03 -0.12275131552E+03  0.60019456499E+03  0.63645282787E+03  0.12509045220E+03 0.  0.
          5    1    3    3  502    0  0.11171028919E+02 -0.68798863867E+02  0.23054853572E+03  0.24089038021E+03  0.41800000000E+01 0.  1.
         -5    1    3    3    0  502 -0.13001201331E+03 -0.53952451657E+02  0.36964602927E+03  0.39556244766E+03  0.41800000000E+01 0.  1.
        -11    1    1    2    0    0  0.12483546506E+02  0.57240897699E+02  0.13275921541E+03  0.14511157287E+03  0.00000000000E+00 0. -1.
         11    1    1    2    0    0  0.10635743788E+03  0.65510417825E+02  0.59862126659E+03  0.61151528211E+03  0.00000000000E+00 0.  1.
</event>
<event>
 7    1  0.2766180E-009  0.8515560E+02  0.7561462E-02  0.1315026E+00
          2   -1    0    0  501    0  0.00000000000E+00  0.00000000000E+00  0.39735893147E+02  0.39735893147E+02  0.00000000000E+00 0. -1.
         -2   -1    0    0    0  501 -0.00000000000E+00 -0.00000000000E+00 -0.29964494619E+03  0.29964494619E+03  0.00000000000E+00 0.  1.
         25    2    1    2    0    0 -0.15846730131E+01  0.33594503732E+02 -0.15546595145E+03  0.20235669414E+03  0.12508983865E+03 0.  0.
          5    1    3    3  502    0 -0.51092827617E+02 -0.22776676189E+01 -0.22661258645E+02  0.56095185597E+02  0.41800000000E+01 0.  1.
         -5    1    3    3    0  502  0.49508154604E+02  0.35872171351E+02 -0.13280469281E+03  0.14626150854E+03  0.41800000000E+01 0.  1.
        -11    1    1    2    0    0 -0.57127099228E+01  0.11071282472E+02  0.86797962898E+01  0.15183781277E+02  0.00000000000E+00 0. -1.
         11    1    1    2    0    0  0.72973829359E+01 -0.44665786204E+02 -0.11312289788E+03  0.12184036392E+03  0.00000000000E+00 0.  1.
</event>
<event>
 7    1  0.2766180E-009  0.2693813E+03  0.7561462E-02  0.1101634E+00
          2   -1    0    0  501    0  0.00000000000E+00  0.00000000000E+00  0.13695351348E+04  0.13695351348E+04  0.00000000000E+00 0. -1.
         -2   -1    0    0    0  501 -0.00000000000E+00 -0.00000000000E+00 -0.59122790586E+02  0.59122790586E+02  0.00000000000E+00 0.  1.
         25    2    1    2    0    0 -0.28643304345E+02 -0.25876389679E+03  0.68523504987E+03  0.74362259769E+03  0.12509316954E+03 0.  0.
          5    1    3    3  502    0  0.25473691332E+02 -0.11677910612E+03  0.43218114043E+03  0.44842421782E+03  0.41800000000E+01 0. -1.
         -5    1    3    3    0  502 -0.54116995678E+02 -0.14198479066E+03  0.25305390944E+03  0.29519837988E+03  0.41800000000E+01 0. -1.
        -11    1    1    2    0    0  0.45040020038E+02  0.22685751543E+03  0.44709120723E+03  0.50337211216E+03  0.00000000000E+00 0. -1.
         11    1    1    2    0    0 -0.16396715693E+02  0.31906381361E+02  0.17808608714E+03  0.18166321557E+03  0.00000000000E+00 0.  1.
</event>
<event>
 7    1  0.3801758E-009  0.1301783E+03  0.7561462E-02  0.1227191E+00
         -2   -1    0    0    0  501 -0.00000000000E+00  0.00000000000E+00  0.27722347358E+02  0.27722347358E+02  0.00000000000E+00 0.  1.
          2   -1    0    0  501    0  0.00000000000E+00 -0.00000000000E+00 -0.79077078190E+03  0.79077078190E+03  0.00000000000E+00 0. -1.
         25    2    1    2    0    0 -0.10025493173E+03 -0.58788606509E+01 -0.42828511084E+03  0.45734020493E+03  0.12508522912E+03 0.  0.
          5    1    3    3  502    0 -0.57924097633E+02  0.48203070261E+02 -0.12229042117E+03  0.14370510283E+03  0.41800000000E+01 0. -1.
         -5    1    3    3    0  502 -0.42330834096E+02 -0.54081930912E+02 -0.30599468967E+03  0.31363510211E+03  0.41800000000E+01 0. -1.
        -11    1    1    2    0    0  0.19946628606E+02 -0.23264600842E+02 -0.24185529920E+02  0.39039076611E+02  0.00000000000E+00 0.  1.
         11    1    1    2    0    0  0.80308303122E+02  0.29143461493E+02 -0.31057779379E+03  0.32211384772E+03  0.00000000000E+00 0. -1.
</event>
<event>
 7    1  0.2766180E-009  0.1368000E+03  0.7561462E-02  0.1217701E+00
         -1   -1    0    0    0  501 -0.00000000000E+00  0.00000000000E+00  0.76876264256E+02  0.76876264256E+02  0.00000000000E+00 0.  1.
          1   -1    0    0  501    0  0.00000000000E+00 -0.00000000000E+00 -0.33361504769E+03  0.33361504769E+03  0.00000000000E+00 0. -1.
         25    2    1    2    0    0 -0.77367894700E+01  0.88391172210E+02 -0.23439222877E+03  0.28010775949E+03  0.12509109793E+03 0.  0.
          5    1    3    3  502    0  0.30873994517E+02 -0.15089492466E+02 -0.22993257876E+02  0.41557894894E+02  0.41800000000E+01 0.  1.
         -5    1    3    3    0  502 -0.38610783987E+02  0.10348066468E+03 -0.21139897089E+03  0.23854986459E+03  0.41800000000E+01 0.  1.
        -11    1    1    2    0    0  0.36937262980E+02 -0.16988939357E+01 -0.64293926960E+01  0.37531116789E+02  0.00000000000E+00 0.  1.
         11    1    1    2    0    0 -0.29200473510E+02 -0.86692278274E+02 -0.15917161973E+02  0.92852435675E+02  0.00000000000E+00 0. -1.
</event>
<event>
 7    1  0.2766180E-009  0.8596776E+02  0.7561462E-02  0.1312921E+00
         -1   -1    0    0    0  501 -0.00000000000E+00  0.00000000000E+00  0.19885865397E+03  0.19885865397E+03  0.00000000000E+00 0.  1.
          1   -1    0    0  501    0  0.00000000000E+00 -0.00000000000E+00 -0.63388105494E+02  0.63388105494E+02  0.00000000000E+00 0. -1.
         25    2    1    2    0    0 -0.14623748775E+02  0.14145389991E+02  0.10911283095E+03  0.16723038044E+03  0.12508574730E+03 0.  0.
          5    1    3    3  502    0  0.17678024474E+02 -0.32095816557E+02 -0.74906688241E+01  0.37632917894E+02  0.41800000000E+01 0. -1.
         -5    1    3    3    0  502 -0.32301773249E+02  0.46241206548E+02  0.11660349978E+03  0.12959746254E+03  0.41800000000E+01 0. -1.
        -11    1    1    2    0    0  0.28042154971E+02  0.24717431960E+02 -0.11518264957E+02  0.39115014071E+02  0.00000000000E+00 0. -1.
         11    1    1    2    0    0 -0.13418406196E+02 -0.38862821951E+02  0.37875982481E+02  0.55901364954E+02  0.00000000000E+00 0.  1.
</event>
<event>
 7    1  0.2766180E-009  0.1294141E+03  0.7561462E-02  0.1228328E+00
         -3   -1    0    0    0  501 -0.00000000000E+00  0.00000000000E+00  0.33370842883E+03  0.33370842883E+03  0.00000000000E+00 0.  1.
          3   -1    0    0  501    0  0.00000000000E+00 -0.00000000000E+00 -0.18168637738E+03  0.18168637738E+03  0.00000000000E+00 0. -1.
         25    2    1    2    0    0 -0.92680550912E+02  0.33177685742E+02 -0.12923259268E+03  0.20503452258E+03  0.12509056356E+03 0.  0.
          5    1    3    3  502    0 -0.72904658467E+02  0.78336579284E+02 -0.10485383163E+03  0.14987830826E+03  0.41800000000E+01 0.  1.
         -5    1    3    3    0  502 -0.19775892445E+02 -0.45158893542E+02 -0.24378761059E+02  0.55156214325E+02  0.41800000000E+01 0.  1.
        -11    1    1    2    0    0  0.44531373678E+02 -0.13727301576E+01  0.22640289591E+03  0.23074487839E+03  0.00000000000E+00 0.  1.
         11    1    1    2    0    0  0.48149177233E+02 -0.31804955585E+02  0.54851748224E+02  0.79615405238E+02  0.00000000000E+00 0. -1.
</event>
<event>
 7    1  0.2766180E-009  0.3468578E+03  0.7561462E-02  0.1063912E+00
          2   -1    0    0  501    0  0.00000000000E+00  0.00000000000E+00  0.12677290446E+04  0.12677290446E+04  0.00000000000E+00 0.  1.
         -2   -1    0    0    0  501 -0.00000000000E+00 -0.00000000000E+00 -0.10438691425E+03  0.10438691425E+03  0.00000000000E+00 0. -1.
         25    2    1    2    0    0 -0.10443804234E+03  0.31743442478E+03  0.76572812217E+03  0.84478346121E+03  0.12509044937E+03 0.  0.
          5    1    3    3  502    0  0.90127269640E+01  0.12470157572E+03  0.19378398705E+03  0.23065432637E+03  0.41800000000E+01 0. -1.
         -5    1    3    3    0  502 -0.11345076930E+03  0.19273284906E+03  0.57194413512E+03  0.61412913484E+03  0.41800000000E+01 0. -1.
        -11    1    1    2    0    0  0.11652682779E+03 -0.24264569404E+03  0.32934751345E+03  0.42535305224E+03  0.00000000000E+00 0.  1.
         11    1    1    2    0    0 -0.12088785458E+02 -0.74788730735E+02  0.68266494688E+02  0.10197944536E+03  0.00000000000E+00 0. -1.
</event>
<event>
 7    1  0.2766180E-009  0.1257527E+03  0.7561462E-02  0.1233898E+00
          1   -1    0    0  501    0  0.00000000000E+00  0.00000000000E+00  0.49282501893E+02  0.49282501893E+02  0.00000000000E+00 0. -1.
         -1   -1    0    0    0  501 -0.00000000000E+00 -0.00000000000E+00 -0.44451654585E+03  0.44451654585E+03  0.00000000000E+00 0.  1.
         25    2    1    2    0    0  0.54732722397E+02  0.77625697764E+02 -0.15796964676E+03  0.22276695902E+03  0.12509711779E+03 0.  0.
          5    1    3    3  502    0 -0.33528582773E+02  0.55930636587E+02 -0.55496077018E+02  0.85730326817E+02  0.41800000000E+01 0.  1.
         -5    1    3    3    0  502  0.88261305170E+02  0.21695061177E+02 -0.10247356974E+03  0.13703663220E+03  0.41800000000E+01 0.  1.
        -11    1    1    2    0    0 -0.33551154730E+02 -0.42345460228E+02 -0.34427315009E+02  0.64062922228E+02  0.00000000000E+00 0. -1.
         11    1    1    2    0    0 -0.21181567667E+02 -0.35280237536E+02 -0.20283708219E+03  0.20696916649E+03  0.00000000000E+00 0.  1.
</event>
<event>
 7    1  0.2766180E-009  0.1636763E+03  0.7561462E-02  0.1184608E+00
          1   -1    0    0  501    0  0.00000000000E+00  0.00000000000E+00  0.23429674154E+03  0.23429674154E+03  0.00000000000E+00 0. -1.
         -1   -1    0    0    0  501 -0.00000000000E+00 -0.00000000000E+00 -0.13342262235E+03  0.13342262235E+03  0.00000000000E+00 0.  1.
         25    2    1    2    0    0  0.10364014105E+03 -0.93949388673E+02  0.42772591866E+02  0.19246433681E+03  0.12508101319E+03 0.  0.
          5    1    3    3  502    0 -0.15390175205E+02 -0.25039721423E+01 -0.23353032525E+02  0.28389503297E+02  0.41800000000E+01 0. -1.
         -5    1    3    3    0  502  0.11903031625E+03 -0.91445416530E+02  0.66125624391E+02  0.16407483351E+03  0.41800000000E+01 0. -1.
        -11    1    1    2    0    0  0.30494192635E+01 -0.10987024085E+02 -0.54919109360E+01  0.12656016033E+02  0.00000000000E+00 0.  1.
         11    1    1    2    0    0 -0.10668956031E+03  0.10493641276E+03  0.63593438259E+02  0.16259901104E+03  0.00000000000E+00 0. -1.
</event>
<event>
 7    1  0.2766180E-009  0.1124925E+03  0.7561462E-02  0.1256023E+00
          2   -1    0    0  501    0  0.00000000000E+00  0.00000000000E+00  0.80270637005E+02  0.80270637005E+02  0.00000000000E+00 0. -1.
         -2   -1    0    0    0  501 -0.00000000000E+00 -0.00000000000E+00 -0.23459349067E+03  0.23459349067E+03  0.00000000000E+00 0.  1.
         25    2    1    2    0    0 -0.42495363764E+02  0.62195385273E+02 -0.13099925440E+03  0.19617490642E+03  0.12509863054E+03 0.  0.
          5    1    3    3  502    0  0.44131437911E+02  0.16316130843E+02 -0.51614839269E+02  0.69966877668E+02  0.41800000000E+01 0.  1.
         -5    1    3    3    0  502 -0.86626801675E+02  0.45879254430E+02 -0.79384415134E+02  0.12620802875E+03  0.41800000000E+01 0.  1.
        -11    1    1    2    0    0  0.88546019976E+01 -0.35785016058E+02 -0.54476192788E+02  0.65777100358E+02  0.00000000000E+00 0.  1.
         11    1    1    2    0    0  0.33640761766E+02 -0.26410369215E+02  0.31152593527E+02  0.52912120896E+02  0.00000000000E+00 0. -1.
</event>
<event>
 7    1  0.2766180E-009  0.1356617E+03  0.7561462E-02  0.1219289E+00
         -2   -1    0    0    0  501 -0.00000000000E+00  0.00000000000E+00  0.82726099960E+02  0.82726099960E+02  0.00000000000E+00 0.  1.
          2   -1    0    0  501    0  0.00000000000E+00 -0.00000000000E+00 -0.31050203624E+03  0.31050203624E+03  0.00000000000E+00 0. -1.
         25    2    1    2    0    0  0.80455098906E+02  0.38992325700E+02 -0.28187587804E+02  0.15631830527E+03  0.12508975999E+03 0.  0.
          5    1    3    3  502    0  0.10385983462E+03  0.61607747887E+02 -0.24609671826E+02  0.12331053562E+03  0.41800000000E+01 0.  1.
         -5    1    3    3    0  502 -0.23404735718E+02 -0.22615422187E+02 -0.35779159786E+01  0.33007769653E+02  0.41800000000E+01 0.  1.
        -11    1    1    2    0    0 -0.89708694871E+02 -0.13700684570E+02 -0.10608049244E+03  0.13960096550E+03  0.00000000000E+00 0.  1.
         11    1    1    2    0    0  0.92535959657E+01 -0.25291641131E+02 -0.93507856032E+02  0.97308865419E+02  0.00000000000E+00 0. -1.
</event>
<event>
 7    1  0.2766180E-009  0.9618406E+02  0.7561462E-02  0.1288531E+00
          1   -1    0    0  501    0  0.00000000000E+00  0.00000000000E+00  0.70284810128E+02  0.70284810128E+02  0.00000000000E+00 0. -1.
         -1   -1    0    0    0  501 -0.00000000000E+00 -0.00000000000E+00 -0.15510922323E+03  0.15510922323E+03  0.00000000000E+00 0.  1.
         25    2    1    2    0    0 -0.45409295679E+01 -0.46560371735E+01 -0.51490218585E+02  0.13542878959E+03  0.12508963073E+03 0.  0.
          5    1    3    3  502    0 -0.13303203224E+01 -0.59868831460E+02 -0.41546645939E+00  0.60030756658E+02  0.41800000000E+01 0.  1.
         -5    1    3    3    0  502 -0.32106092455E+01  0.55212794287E+02 -0.51074752126E+02  0.75398032928E+02  0.41800000000E+01 0.  1.
        -11    1    1    2    0    0  0.39672190951E+02  0.11014785787E+02 -0.76925528650E-01  0.41172978497E+02  0.00000000000E+00 0. -1.
         11    1    1    2    0    0 -0.35131261383E+02 -0.63587486140E+01 -0.33257268992E+02  0.48792265279E+02  0.00000000000E+00 0.  1.
</event>
<event>
 7    1  0.3383787E-009  0.2329588E+03  0.7561462E-02  0.1124574E+00
          2   -1    0    0  501    0  0.00000000000E+00  0.00000000000E+00  0.98134844820E+03  0.98134844820E+03  0.00000000000E+00 0.  1.
         -2   -1    0    0    0  501 -0.00000000000E+00 -0.00000000000E+00 -0.58799259429E+02  0.58799259429E+02  0.00000000000E+00 0. -1.
         25    2    1    2    0    0 -0.19853072834E+03 -0.67921867932E+02  0.38393628037E+03  0.45506329479E+03  0.12509078561E+03 0.  0.
          5    1    3    3  502    0 -0.11671883157E+03  0.25983764953E+02  0.19108559711E+03  0.22545425147E+03  0.41800000000E+01 0.  1.
         -5    1    3    3    0  502 -0.81811896768E+02 -0.93905632884E+02  0.19285068326E+03  0.22960904332E+03  0.41800000000E+01 0.  1.
        -11    1    1    2    0    0  0.86576179859E+02  0.67365330894E+02  0.19556941780E+03  0.22423407392E+03  0.00000000000E+00 0. -1.
         11    1    1    2    0    0  0.11195454848E+03  0.55653703761E+00  0.34304349060E+03  0.36085033892E+03  0.00000000000E+00 0.  1.
</event>
<event>
 7    1  0.2766180E-009  0.1355955E+03  0.7561462E-02  0.1219381E+00
          2   -1    0    0  501    0  0.00000000000E+00  0.00000000000E+00  0.64246816720E+03  0.64246816720E+03  0.00000000000E+00 0. -1.
         -2   -1    0    0    0  501 -0.00000000000E+00 -0.00000000000E+00 -0.52929108620E+02  0.52929108620E+02  0.00000000000E+00 0.  1.
         25    2    1    2    0    0 -0.44442066162E+01  0.81423554962E+02  0.54567751945E+03  0.56573898462E+03  0.12508835764E+03 0.  0.
          5    1    3    3  502    0  0.48713432955E+02  0.82458500247E+02  0.33939598395E+03  0.35267479232E+03  0.41800000000E+01 0. -1.
         -5    1    3    3    0  502 -0.53157639571E+02 -0.10349452850E+01  0.20628153549E+03  0.21306419230E+03  0.41800000000E+01 0. -1.
        -11    1    1    2    0    0 -0.42525913509E+02 -0.49215890720E+02  0.24515136242E+02  0.69510064913E+02  0.00000000000E+00 0. -1.
         11    1    1    2    0    0  0.46970120125E+02 -0.32207664242E+02  0.19346402893E+02  0.60148226286E+02  0.00000000000E+00 0.  1.
</event>
<event>
 7    1  0.2766180E-009  0.9269529E+02  0.7561462E-02  0.1296453E+00
          2   -1    0    0  501    0  0.00000000000E+00  0.00000000000E+00  0.27725187911E+03  0.27725187911E+03  0.00000000000E+00 0. -1.
         -2   -1    0    0    0  501 -0.00000000000E+00 -0.00000000000E+00 -0.47216580229E+02  0.47216580229E+02  0.00000000000E+00 0.  1.
         25    2    1    2    0    0  0.47312083842E+01 -0.52040824137E+01  0.79769183178E+02  0.14852563480E+03  0.12508906748E+03 0.  0.
          5    1    3    3  502    0  0.20301904637E+02  0.56459220887E+02  0.27661072670E+02  0.66199836074E+02  0.41800000000E+01 0.  1.
         -5    1    3    3    0  502 -0.15570696252E+02 -0.61663303300E+02  0.52108110507E+02  0.82325798729E+02  0.41800000000E+01 0.  1.
        -11    1    1    2    0    0  0.25977578987E+02  0.14075967742E+02  0.86818514977E+01  0.30795162336E+02  0.00000000000E+00 0.  1.
         11    1    1    2    0    0 -0.30708787371E+02 -0.88718853281E+01  0.14158426421E+03  0.14514766220E+03  0.00000000000E+00 0. -1.
</event>
<event>
 7    1  0.2766180E-009  0.1871481E+03  0.7561462E-02  0.1161059E+00
          2   -1    0    0  501    0  0.00000000000E+00  0.00000000000E+00  0.81278278175E+03  0.81278278175E+03  0.00000000000E+00 0. -1.
         -2   -1    0    0    0  501 -0.00000000000E+00 -0.00000000000E+00 -0.44565106200E+02  0.44565106200E+02  0.00000000000E+00 0.  1.
         25    2    1    2    0    0  0.15618755452E+03  0.12761592833E+01  0.38881792273E+03  0.43729031993E+03  0.12508903266E+03 0.  0.
          5    1    3    3  502    0  0.10219640769E+03 -0.54868806110E+02  0.17795986555E+03  0.21246618030E+03  0.41800000000E+01 0. -1.
         -5    1    3    3    0  502  0.53991146832E+02  0.56144965393E+02  0.21085805719E+03  0.22482413962E+03  0.41800000000E+01 0. -1.
        -11    1    1    2    0    0 -0.13808498363E+03 -0.34550424014E+02  0.29488791622E+03  0.32744477036E+03  0.00000000000E+00 0.  1.
         11    1    1    2    0    0 -0.18102570890E+02  0.33274264731E+02  0.84511836592E+02  0.92612797660E+02  0.00000000000E+00 0. -1.
</event>
<event>
 7    1  0.2766180E-009  0.1143651E+03  0.7561462E-02  0.1252693E+00
         -2   -1    0    0    0  501 -0.00000000000E+00  0.00000000000E+00  0.25112786197E+02  0.25112786197E+02  0.00000000000E+00 0.  1.
          2   -1    0    0  501    0  0.00000000000E+00 -0.00000000000E+00 -0.10409602384E+04  0.10409602384E+04  0.00000000000E+00 0. -1.
         25    2    1    2    0    0  0.79276740622E+02 -0.24395673032E+02 -0.82424355401E+03  0.83779662080E+03  0.12508313653E+03 0.  0.
          5    1    3    3  502    0  0.86937987437E+02  0.62265353954E+01 -0.76976458158E+03  0.77469475722E+03  0.41800000000E+01 0.  1.
         -5    1    3    3    0  502 -0.76612468154E+01 -0.30622208428E+02 -0.54478972421E+02  0.63101863585E+02  0.41800000000E+01 0.  1.
        -11    1    1    2    0    0 -0.53442184237E+02 -0.20980270472E+02 -0.45920120326E+02  0.73517999537E+02  0.00000000000E+00 0. -1.
         11    1    1    2    0    0 -0.25834556385E+02  0.45375943504E+02 -0.14568377785E+03  0.15475840423E+03  0.00000000000E+00 0.  1.
</event>
<event>
 7    1  0.2766180E-009  0.1074378E+03  0.7561462E-02  0.1265390E+00
         -4   -1    0    0    0  501 -0.00000000000E+00  0.00000000000E+00  0.24912117506E+02  0.24912117506E+02  0.00000000000E+00 0.  1.
          4   -1    0    0  501    0  0.00000000000E+00 -0.00000000000E+00 -0.52760724974E+03  0.52760724974E+03  0.00000000000E+00 0. -1.
         25    2    1    2    0    0 -0.25446537734E+02  0.26829211844E+02 -0.24735563146E+03  0.27964224579E+03  0.12509054450E+03 0.  0.
          5    1    3    3  502    0 -0.32799130031E+02  0.69719479847E+02 -0.20385685093E+03  0.21797173411E+03  0.41800000000E+01 0.  1.
         -5    1    3    3    0  502  0.73525922974E+01 -0.42890268003E+02 -0.43498780537E+02  0.61670511681E+02  0.41800000000E+01 0.  1.
        -11    1    1    2    0    0  0.38303063786E+02 -0.52675601068E+02 -0.20181937940E+03  0.21206816249E+03  0.00000000000E+00 0.  1.
         11    1    1    2    0    0 -0.12856526052E+02  0.25846389225E+02 -0.53520121374E+02  0.60808958962E+02  0.00000000000E+00 0. -1.
</event>
<event>
 7    1  0.2766180E-009  0.1006949E+03  0.7561462E-02  0.1278841E+00
          2   -1    0    0  501    0  0.00000000000E+00  0.00000000000E+00  0.23616425500E+03  0.23616425500E+03  0.00000000000E+00 0. -1.
         -2   -1    0    0    0  501 -0.00000000000E+00 -0.00000000000E+00 -0.59012978838E+02  0.59012978838E+02  0.00000000000E+00 0.  1.
         25    2    1    2    0    0  0.41514904526E+02 -0.13715751586E+02  0.13767402705E+03  0.19108391879E+03  0.12508923678E+03 0.  0.
          5    1    3    3  502    0 -0.26043921500E+02 -0.45039758318E+02  0.30316141327E+02  0.60360637019E+02  0.41800000000E+01 0.  1.
         -5    1    3    3    0  502  0.67558826026E+02  0.31324006732E+02  0.10735788572E+03  0.13072328177E+03  0.41800000000E+01 0.  1.
        -11    1    1    2    0    0 -0.23826041835E+02 -0.23461985910E+02  0.51319911811E+02  0.61252578727E+02  0.00000000000E+00 0. -1.
         11    1    1    2    0    0 -0.17688862691E+02  0.37177737496E+02 -0.11842662694E+02  0.42840736319E+02  0.00000000000E+00 0.  1.
</event>
<event>
 7    1  0.2766180E-009  0.1159025E+03  0.7561462E-02  0.1250014E+00
          2   -1    0    0  501    0  0.00000000000E+00  0.00000000000E+00  0.62532226991E+02  0.62532226991E+02  0.00000000000E+00 0. -1.
         -2   -1    0    0    0  501 -0.00000000000E+00 -0.00000000000E+00 -0.29301451667E+03  0.29301451667E+03  0.00000000000E+00 0.  1.
         25    2    1    2    0    0 -0.56728060405E+02  0.50106394047E+02 -0.88886418476E+02  0.17108819747E+03  0.12506659172E+03 0.  0.
          5    1    3    3  502    0  0.26253416812E+02  0.26153234604E+02 -0.74659577112E+02  0.83455128237E+02  0.41800000000E+01 0. -1.
         -5    1    3    3    0  502 -0.82981477218E+02  0.23953159443E+02 -0.14226841364E+02  0.87633069236E+02  0.41800000000E+01 0. -1.
        -11    1    1    2    0    0 -0.13884448566E+02  0.84977851814E+01 -0.58293171660E+02  0.60523418006E+02  0.00000000000E+00 0.  1.
         11    1    1    2    0    0  0.70612508971E+02 -0.58604179228E+02 -0.83302699545E+02  0.12393512818E+03  0.00000000000E+00 0. -1.
</event>
<event>
 7    1  0.2766180E-009  0.8104733E+02  0.7561462E-02  0.1326105E+00
          2   -1    0    0  501    0  0.00000000000E+00  0.00000000000E+00  0.74160378379E+02  0.74160378379E+02  0.00000000000E+00 0.  1.
         -2   -1    0    0    0  501 -0.00000000000E+00 -0.00000000000E+00 -0.18335269278E+03  0.18335269278E+03  0.00000000000E+00 0. -1.
         25    2    1    2    0    0 -0.18221330817E+02  0.16010184608E+02 -0.10662785938E+03  0.16614974295E+03  0.12509154159E+03 0.  0.
          5    1    3    3  502    0  0.18736075289E+02 -0.21601564092E+02  0.15690804800E+02  0.32883762615E+02  0.41800000000E+01 0.  1.
         -5    1    3    3    0  502 -0.36957406106E+02  0.37611748701E+02 -0.12231866418E+03  0.13326598033E+03  0.41800000000E+01 0.  1.
        -11    1    1    2    0    0  0.17230081950E+02  0.29830307957E+02 -0.22731687381E+02  0.41272904041E+02  0.00000000000E+00 0. -1.
         11    1    1    2    0    0  0.99124886657E+00 -0.45840492566E+02  0.20167232358E+02  0.50090424174E+02  0.00000000000E+00 0.  1.
</event>
<event>
 7    1  0.2986904E-009  0.9928574E+02  0.7561462E-02  0.1281805E+00
          2   -1    0    0  501    0  0.00000000000E+00  0.00000000000E+00  0.33193124627E+03  0.33193124627E+03  0.00000000000E+00 0. -1.
         -2   -1    0    0    0  501 -0.00000000000E+00 -0.00000000000E+00 -0.38982597878E+02  0.38982597878E+02  0.00000000000E+00 0.  1.
         25    2    1    2    0    0 -0.21736933196E+02  0.19678426363E+02  0.13811793886E+03  0.18864005271E+03  0.12509504275E+03 0.  0.
          5    1    3    3  502    0  0.38233313982E+02 -0.26406660194E+02  0.82096732447E+02  0.94426923487E+02  0.41800000000E+01 0.  1.
         -5    1    3    3    0  502 -0.59970247178E+02  0.46085086557E+02  0.56021206412E+02  0.94213129220E+02  0.41800000000E+01 0.  1.
        -11    1    1    2    0    0 -0.12867722686E+02 -0.35764657530E+02  0.13296828419E+03  0.13829408381E+03  0.00000000000E+00 0. -1.
         11    1    1    2    0    0  0.34604655882E+02  0.16086231167E+02  0.21862425341E+02  0.43979707635E+02  0.00000000000E+00 0.  1.
</event>
<event>
 7    1  0.2766180E-009  0.1481758E+03  0.7561462E-02  0.1202733E+00
          1   -1    0    0  501    0  0.00000000000E+00  0.00000000000E+00  0.90894756295E+03  0.90894756295E+03  0.00000000000E+00 0. -1.
         -1   -1    0    0    0  501 -0.00000000000E+00 -0.00000000000E+00 -0.27452606153E+02  0.27452606153E+02  0.00000000000E+00 0.  1.
         25    2    1    2    0    0  0.10564337148E+02 -0.93180521216E+02  0.30990143311E+03  0.34710392939E+03  0.12509206530E+03 0.  0.
          5    1    3    3  502    0  0.65679315136E+02 -0.58280545207E+02  0.21067817833E+03  0.22828307342E+03  0.41800000000E+01 0. -1.
         -5    1    3    3    0  502 -0.55114977989E+02 -0.34899976009E+02  0.99223254778E+02  0.11882085597E+03  0.41800000000E+01 0. -1.
        -11    1    1    2    0    0 -0.59357079239E+02  0.57368686787E+02  0.34786545407E+03  0.35752594761E+03  0.00000000000E+00 0.  1.
         11    1    1    2    0    0  0.48792742091E+02  0.35811834430E+02  0.22372806961E+03  0.23177029210E+03  0.00000000000E+00 0. -1.
</event>
<event>
 7    1  0.2766180E-009  0.1059666E+03  0.7561462E-02  0.1268227E+00
          1   -1    0    0  501    0  0.00000000000E+00  0.00000000000E+00  0.17928655721E+02  0.17928655721E+02  0.00000000000E+00 0. -1.
         -1   -1    0    0    0  501 -0.00000000000E+00 -0.00000000000E+00 -0.76890326442E+03  0.76890326442E+03  0.00000000000E+00 0.  1.
         25    2    1    2    0    0 -0.35155045897E+02 -0.26592636762E+02 -0.46669126649E+03  0.48517170372E+03  0.12509115991E+03 0.  0.
          5    1    3    3  502    0 -0.68831380181E+02  0.12109876984E+02 -0.16684644078E+03  0.18094091638E+03  0.41800000000E+01 0.  1.
         -5    1    3    3    0  502  0.33676334284E+02 -0.38702513745E+02 -0.29984482571E+03  0.30423078734E+03  0.41800000000E+01 0.  1.
        -11    1    1    2    0    0 -0.24597125962E+01  0.47397902766E+02 -0.21459671556E+03  0.21978253275E+03  0.00000000000E+00 0.  1.
         11    1    1    2    0    0  0.37614758494E+02 -0.20805266005E+02 -0.69686626649E+02  0.81877683673E+02  0.00000000000E+00 0. -1.
</event>
<event>
 7    1  0.2766180E-009  0.1317930E+03  0.7561462E-02  0.1224819E+00
         -2   -1    0    0    0  501 -0.00000000000E+00  0.00000000000E+00  0.17476306685E+02  0.17476306685E+02  0.00000000000E+00 0. -1.
          2   -1    0    0  501    0  0.00000000000E+00 -0.00000000000E+00 -0.19775348338E+04  0.19775348338E+04  0.00000000000E+00 0.  1.
         25    2    1    2    0    0  0.10015892874E+03  0.79929720376E+01 -0.16425235234E+04  0.16503412162E+04  0.12508759397E+03 0.  0.
          5    1    3    3  502    0 -0.96829480214E+01 -0.27237990669E+02 -0.12220896596E+03  0.12565099037E+03  0.41800000000E+01 0.  1.
         -5    1    3    3    0  502  0.10984187676E+03  0.35230962706E+02 -0.15203145575E+04  0.15246902258E+04  0.41800000000E+01 0.  1.
        -11    1    1    2    0    0 -0.79444828753E+02  0.22057464972E+02 -0.28170958453E+03  0.29352734556E+03  0.00000000000E+00 0.  1.
         11    1    1    2    0    0 -0.20714099986E+02 -0.30050437009E+02 -0.35825419118E+02  0.51142578715E+02  0.00000000000E+00 0. -1.
</event>
<event>
 7    1  0.2766180E-009  0.1118767E+03  0.7561462E-02  0.1257134E+00
          1   -1    0    0  501    0  0.00000000000E+00  0.00000000000E+00  0.47664465141E+03  0.47664465141E+03  0.00000000000E+00 0. -1.
         -1   -1    0    0    0  501 -0.00000000000E+00 -0.00000000000E+00 -0.38019454474E+02  0.38019454474E+02  0.00000000000E+00 0.  1.
         25    2    1    2    0    0  0.28870714651E+02 -0.62866849066E+02  0.17807324860E+03  0.22834986826E+03  0.12509125306E+03 0.  0.
          5    1    3    3  502    0  0.45921432994E+02 -0.88097316317E+02  0.86631231781E+02  0.13188008898E+03  0.41800000000E+01 0. -1.
         -5    1    3    3    0  502 -0.17050718343E+02  0.25230467251E+02  0.91442016821E+02  0.96469779279E+02  0.41800000000E+01 0. -1.
        -11    1    1    2    0    0 -0.13534378292E+02 -0.11431520760E+02  0.31867056685E+01  0.18000393208E+02  0.00000000000E+00 0.  1.
         11    1    1    2    0    0 -0.15336336359E+02  0.74298369826E+02  0.25736524266E+03  0.26831384441E+03  0.00000000000E+00 0. -1.
</event>
<event>
 7    1  0.2766180E-009  0.5489569E+02  0.7561462E-02  0.1420593E+00
         -2   -1    0    0    0  501 -0.00000000000E+00  0.00000000000E+00  0.23127151543E+03  0.23127151543E+03  0.00000000000E+00 0.  1.
          2   -1    0    0  501    0  0.00000000000E+00 -0.00000000000E+00 -0.13466212067E+03  0.13466212067E+03  0.00000000000E+00 0. -1.
         25    2    1    2    0    0 -0.14010432206E+02 -0.25492599573E+02 -0.90134873640E+02  0.15689806321E+03  0.12508613811E+03 0.  0.
          5    1    3    3  502    0 -0.11841438525E+02 -0.20478345721E+02 -0.12197774081E+03  0.12432064979E+03  0.41800000000E+01 0. -1.
         -5    1    3    3    0  502 -0.21689936813E+01 -0.50142538517E+01  0.31842867173E+02  0.32577413419E+02  0.41800000000E+01 0. -1.
        -11    1    1    2    0    0 -0.29124743329E+02  0.68993233911E+00  0.20810952442E+02  0.35802547705E+02  0.00000000000E+00 0.  1.
         11    1    1    2    0    0  0.43135175535E+02  0.24802667233E+02  0.16593331596E+03  0.17323302519E+03  0.00000000000E+00 0. -1.
</event>
<event>
 6    1  0.2766180E-009  0.1161227E+03  0.7561462E-02  0.1249634E+00
          1   -1    0    0  501    0  0.00000000000E+00  0.00000000000E+00  0.48090081795E+02  0.48090081795E+02  0.00000000000E+00 0. -1.
         -1   -1    0    0    0  501 -0.00000000000E+00 -0.00000000000E+00 -0.37639148841E+03  0.37639148841E+03  0.00000000000E+00 0.  1.
          5    1    1    2  502    0  0.20803824455E+02 -0.22383428508E+02 -0.80053389714E+02  0.85789478308E+02  0.41800000000E+01 0.  1.
         -5    1    1    2    0  502 -0.10626258126E+03  0.25817940595E+02 -0.87063157865E+02  0.13984193967E+03  0.41800000000E+01 0.  1.
        -11    1    1    2    0    0  0.55058047058E+02 -0.18443077215E+02 -0.34136867994E+02  0.67356227622E+02  0.00000000000E+00 0. -1.
         11    1    1    2    0    0  0.30400709750E+02  0.15008565128E+02 -0.12704799104E+03  0.13149392460E+03  0.00000000000E+00 0.  1.
</event>
<event>
 7    1  0.2766180E-009  0.1142573E+03  0.7561462E-02  0.1252883E+00
         -2   -1    0    0    0  501 -0.00000000000E+00  0.00000000000E+00  0.12023932963E+02  0.12023932963E+02  0.00000000000E+00 0. -1.
          2   -1    0    0  501    0  0.00000000000E+00 -0.00000000000E+00 -0.14907686212E+04  0.14907686212E+04  0.00000000000E+00 0.  1.
         25    2    1    2    0    0  0.46210399361E+02  0.45265068562E+02 -0.10491618854E+04  0.10585681114E+04  0.12506581148E+03 0.  0.
          5    1    3    3  502    0 -0.34317939185E+02  0.32874557554E+02 -0.20522152836E+03  0.21069362968E+03  0.41800000000E+01 0.  1.
         -5    1    3    3    0  502  0.80528338546E+02  0.12390511009E+02 -0.84394035707E+03  0.84787448173E+03  0.41800000000E+01 0.  1.
        -11    1    1    2    0    0 -0.34900043148E+02 -0.66536113272E+02 -0.39497211442E+03  0.40205477058E+03  0.00000000000E+00 0.  1.
         11    1    1    2    0    0 -0.11310356213E+02  0.21271044710E+02 -0.34610688394E+02  0.42169672181E+02  0.00000000000E+00 0. -1.
</event>
<event>
 7    1  0.2766180E-009  0.1020691E+03  0.7561462E-02  0.1276004E+00
          2   -1    0    0  501    0  0.00000000000E+00  0.00000000000E+00  0.10956692324E+04  0.10956692324E+04  0.00000000000E+00 0. -1.
         -2   -1    0    0    0  501 -0.00000000000E+00 -0.00000000000E+00 -0.15927746232E+02  0.15927746232E+02  0.00000000000E+00 0.  1.
         25    2    1    2    0    0 -0.56354693853E+02 -0.50782131849E+02  0.56777597284E+03  0.58631969773E+03  0.12508619498E+03 0.  0.
          5    1    3    3  502    0 -0.38421245463E+02 -0.67272784752E+01  0.38740797575E+02  0.55134110815E+02  0.41800000000E+01 0. -1.
         -5    1    3    3    0  502 -0.17933448390E+02 -0.44054853373E+02  0.52903517527E+03  0.53118558692E+03  0.41800000000E+01 0. -1.
        -11    1    1    2    0    0  0.56621252370E+02 -0.90396952326E+01  0.27068585601E+03  0.27669209413E+03  0.00000000000E+00 0. -1.
         11    1    1    2    0    0 -0.26655851676E+00  0.59821827081E+02  0.24127965733E+03  0.24858518679E+03  0.00000000000E+00 0.  1.
</event>
<event>
 7    1  0.2766180E-009  0.1820232E+03  0.7561462E-02  0.1165859E+00
         -3   -1    0    0    0  501 -0.00000000000E+00  0.00000000000E+00  0.84567699296E+02  0.84567699296E+02  0.00000000000E+00 0.  1.
          3   -1    0    0  501    0  0.00000000000E+00 -0.00000000000E+00 -0.44816050855E+03  0.44816050855E+03  0.00000000000E+00 0. -1.
         25    2    1    2    0    0  0.33036921370E+02 -0.14285850814E+03 -0.11703223486E+03  0.22548494416E+03  0.12508766736E+03 0.  0.
          5    1    3    3  502    0  0.27642830167E+02  0.92376761741E+01  0.56220068610E+01  0.29975658156E+02  0.41800000000E+01 0. -1.
         -5    1    3    3    0  502  0.53940912031E+01 -0.15209618431E+03 -0.12265424172E+03  0.19550928600E+03  0.41800000000E+01 0. -1.
        -11    1    1    2    0    0 -0.60725945873E+02  0.33109977034E+02 -0.10912820214E+03  0.12920091169E+03  0.00000000000E+00 0. -1.
         11    1    1    2    0    0  0.27689024503E+02  0.10974853110E+03 -0.13743237226E+03  0.17804235199E+03  0.00000000000E+00 0.  1.
</event>
<event>
 6    1  0.2766180E-009  0.1196878E+03  0.7561462E-02  0.1243613E+00
         -3   -1    0    0    0  501 -0.00000000000E+00  0.00000000000E+00  0.63559930118E+02  0.63559930118E+02  0.00000000000E+00 0.  1.
          3   -1    0    0  501    0  0.00000000000E+00 -0.00000000000E+00 -0.38767380205E+03  0.38767380205E+03  0.00000000000E+00 0. -1.
          5    1    1    2  502    0  0.14007712193E+02 -0.21657521278E+02 -0.94784051923E+02  0.98319647720E+02  0.41800000000E+01 0.  1.
         -5    1    1    2    0  502 -0.42980627854E+02 -0.68731842011E+02  0.74722248595E+01  0.81515072357E+02  0.41800000000E+01 0.  1.
        -11    1    1    2    0    0 -0.12489196460E+02  0.89742401615E+02 -0.15091794232E+03  0.17602813409E+03  0.00000000000E+00 0.  1.
         11    1    1    2    0    0  0.41462112121E+02  0.64696167381E+00 -0.85884102546E+02  0.95370878003E+02  0.00000000000E+00 0. -1.
</event>
<event>
 7    1  0.2766180E-009  0.1286083E+03  0.7561462E-02  0.1229535E+00
          1   -1    0    0  501    0  0.00000000000E+00  0.00000000000E+00  0.14307957227E+03  0.14307957227E+03  0.00000000000E+00 0. -1.
         -1   -1    0    0    0  501 -0.00000000000E+00 -0.00000000000E+00 -0.12170734806E+03  0.12170734806E+03  0.00000000000E+00 0.  1.
         25    2    1    2    0    0  0.54606157265E+02  0.51318010033E+02  0.60304758590E+01  0.14593990247E+03  0.12508684154E+03 0.  0.
          5    1    3    3  502    0  0.37865300670E+02 -0.35906791559E+02 -0.15225433754E+02  0.54519399372E+02  0.41800000000E+01 0.  1.
         -5    1    3    3    0  502  0.16740856595E+02  0.87224801593E+02  0.21255909613E+02  0.91420503093E+02  0.41800000000E+01 0.  1.
        -11    1    1    2    0    0 -0.39889704205E+02 -0.76790573138E+02  0.20627746410E+02  0.88957768331E+02  0.00000000000E+00 0. -1.
         11    1    1    2    0    0 -0.14716453059E+02  0.25472563104E+02 -0.52859980611E+01  0.29889249526E+02  0.00000000000E+00 0.  1.
</event>
<event>
 7    1  0.2766180E-009  0.1318015E+03  0.7561462E-02  0.1224807E+00
          2   -1    0    0  501    0  0.00000000000E+00  0.00000000000E+00  0.42496692207E+03  0.42496692207E+03  0.00000000000E+00 0. -1.
         -2   -1    0    0    0  501 -0.00000000000E+00 -0.00000000000E+00 -0.50855222921E+02  0.50855222921E+02  0.00000000000E+00 0.  1.
         25    2    1    2    0    0  0.87867726713E+02  0.15371068687E+02  0.13330359995E+03  0.20340771184E+03  0.12509132794E+03 0.  0.
          5    1    3    3  502    0  0.46557711434E+02 -0.45226980642E+02  0.10731571148E+03  0.12548798589E+03  0.41800000000E+01 0. -1.
         -5    1    3    3    0  502  0.41310015278E+02  0.60598049329E+02  0.25987888466E+02  0.77919725947E+02  0.41800000000E+01 0. -1.
        -11    1    1    2    0    0 -0.10104193454E+03  0.46345349349E+01  0.21240501716E+03  0.23525909710E+03  0.00000000000E+00 0.  1.
         11    1    1    2    0    0  0.13174207831E+02 -0.20005603622E+02  0.28403082036E+02  0.37155336055E+02  0.00000000000E+00 0. -1.
</event>
<event>
 7    1  0.2766180E-009  0.1164554E+03  0.7561462E-02  0.1249062E+00
         -2   -1    0    0    0  501 -0.00000000000E+00  0.00000000000E+00  0.45486559816E+02  0.45486559816E+02  0.00000000000E+00 0.  1.
          2   -1    0    0  501    0  0.00000000000E+00 -0.00000000000E+00 -0.40076863636E+03  0.40076863636E+03  0.00000000000E+00 0. -1.
         25    2    1    2    0    0 -0.47977833512E+02 -0.62575046448E+02 -0.19943906587E+03  0.24827782744E+03  0.12509368351E+03 0.  0.
          5    1    3    3  502    0 -0.47177229881E+02  0.20046685168E+02 -0.29548026659E+02  0.59313732684E+02  0.41800000000E+01 0.  1.
         -5    1    3    3    0  502 -0.80060363091E+00 -0.82621731616E+02 -0.16989103921E+03  0.18896409475E+03  0.41800000000E+01 0.  1.
        -11    1    1    2    0    0  0.13506627442E+02 -0.11052361112E+02  0.46562119278E+01  0.18062778871E+02  0.00000000000E+00 0.  1.
         11    1    1    2    0    0  0.34471206069E+02  0.73627407560E+02 -0.16049922260E+03  0.17991458987E+03  0.00000000000E+00 0. -1.
</event>
<event>
 7    1  0.2766180E-009  0.1105947E+03  0.7561462E-02  0.1259472E+00
          2   -1    0    0  501    0  0.00000000000E+00  0.00000000000E+00  0.58375705669E+03  0.58375705669E+03  0.00000000000E+00 0. -1.
         -2   -1    0    0    0  501 -0.00000000000E+00 -0.00000000000E+00 -0.39448046220E+02  0.39448046220E+02  0.00000000000E+00 0.  1.
         25    2    1    2    0    0 -0.95842648399E+02  0.17743401433E+02  0.20699668759E+03  0.26076212132E+03  0.12509441913E+03 0.  0.
          5    1    3    3  502    0 -0.46618279668E+01 -0.55936599228E-02  0.15321481819E+03  0.15334270633E+03  0.41800000000E+01 0.  1.
         -5    1    3    3    0  502 -0.91180820432E+02  0.17748995093E+02  0.53781869397E+02  0.10741941499E+03  0.41800000000E+01 0.  1.
        -11    1    1    2    0    0 -0.65850861923E+01  0.13360856660E+02  0.96750459620E+01  0.17761823251E+02  0.00000000000E+00 0.  1.
         11    1    1    2    0    0  0.10242773459E+03 -0.31104258092E+02  0.32763727692E+03  0.34468115834E+03  0.00000000000E+00 0. -1.
</event>
<event>
 7    1  0.2766180E-009  0.1465835E+03  0.7561462E-02  0.1204735E+00
         -1   -1    0    0    0  501 -0.00000000000E+00  0.00000000000E+00  0.13459814150E+03  0.13459814150E+03  0.00000000000E+00 0.  1.
          1   -1    0    0  501    0  0.00000000000E+00 -0.00000000000E+00 -0.19532478889E+03  0.19532478889E+03  0.00000000000E+00 0. -1.
         25    2    1    2    0    0 -0.93598965771E+02 -0.59025420828E+02  0.15199311547E+02  0.16770096686E+03  0.12509128074E+03 0.  0.
          5    1    3    3  502    0  0.20405514095E+02  0.53327135067E+01  0.28881010570E+02  0.36005666365E+02  0.41800000000E+01 0.  1.
         -5    1    3    3    0  502 -0.11400447987E+03 -0.64358134335E+02 -0.13681699023E+02  0.13169530050E+03  0.41800000000E+01 0.  1.
        -11    1    1    2    0    0  0.18424940697E+02  0.62767868724E+02 -0.50957986271E+02  0.82921650663E+02  0.00000000000E+00 0. -1.
         11    1    1    2    0    0  0.75174025074E+02 -0.37424478959E+01 -0.24967972669E+02  0.79300312870E+02  0.00000000000E+00 0.  1.
</event>
<event>
 7    1  0.2766180E-009  0.1082778E+03  0.7561462E-02  0.1263793E+00
         -1   -1    0    0    0  501 -0.00000000000E+00  0.00000000000E+00  0.56313851149E+02  0.56313851149E+02  0.00000000000E+00 0.  1.
          1   -1    0    0  501    0  0.00000000000E+00 -0.00000000000E+00 -0.38191467080E+03  0.38191467080E+03  0.00000000000E+00 0. -1.
         25    2    1    2    0    0 -0.59206394790E+02  0.76799213512E+02 -0.14088864041E+03  0.21189673441E+03  0.12508837147E+03 0.  0.
          5    1    3    3  502    0 -0.47751094911E+02  0.11743724412E+02  0.70254908288E+01  0.49848892161E+02  0.41800000000E+01 0. -1.
         -5    1    3    3    0  502 -0.11455299879E+02  0.65055489099E+02 -0.14791413123E+03  0.16204784224E+03  0.41800000000E+01 0. -1.
        -11    1    1    2    0    0  0.19920259103E+02 -0.48984022106E+02 -0.23103034676E+02  0.57706163931E+02  0.00000000000E+00 0.  1.
         11    1    1    2    0    0  0.39286135687E+02 -0.27815191405E+02 -0.16160914457E+03  0.16862562362E+03  0.00000000000E+00 0. -1.
</event>
<event>
 7    1  0.2766180E-009  0.1024910E+03  0.7561462E-02  0.1275143E+00
         -2   -1    0    0    0  501 -0.00000000000E+00  0.00000000000E+00  0.16615597661E+02  0.16615597661E+02  0.00000000000E+00 0. -1.
          2   -1    0    0  501    0  0.00000000000E+00 -0.00000000000E+00 -0.17534484204E+04  0.17534484204E+04  0.00000000000E+00 0.  1.
         25    2    1    2    0    0 -0.50887344974E+02 -0.31072710347E+02 -0.15290937283E+04  0.15353599410E+04  0.12508990034E+03 0.  0.
          5    1    3    3  502    0  0.40870361692E+02 -0.27197263706E+01 -0.36891354625E+03  0.37120406838E+03  0.41800000000E+01 0. -1.
         -5    1    3    3    0  502 -0.91757706665E+02 -0.28352983977E+02 -0.11601801821E+04  0.11641558726E+04  0.41800000000E+01 0. -1.
        -11    1    1    2    0    0  0.41995760536E+02  0.37821539170E+02 -0.21438728011E+03  0.22171156624E+03  0.00000000000E+00 0.  1.
         11    1    1    2    0    0  0.88915844376E+01 -0.67488288230E+01  0.66481857144E+01  0.12992510827E+02  0.00000000000E+00 0. -1.
</event>
<event>
 7    1  0.2766180E-009  0.1227775E+03  0.7561462E-02  0.1238584E+00
          1   -1    0    0  501    0  0.00000000000E+00  0.00000000000E+00  0.20858848630E+03  0.20858848630E+03  0.00000000000E+00 0. -1.
         -1   -1    0    0    0  501 -0.00000000000E+00 -0.00000000000E+00 -0.84480348963E+02  0.84480348963E+02  0.00000000000E+00 0.  1.
         25    2    1    2    0    0  0.20406038821E+02 -0.55603336786E+02  0.16137300854E+02  0.13934097989E+03  0.12508940289E+03 0.  0.
          5    1    3    3  502    0  0.87746349316E+01 -0.94968195023E+02  0.12338437483E+01  0.95472231850E+02  0.41800000000E+01 0.  1.
         -5    1    3    3    0  502  0.11631403890E+02  0.39364858237E+02  0.14903457106E+02  0.43868748035E+02  0.41800000000E+01 0.  1.
        -11    1    1    2    0    0  0.35644001188E+02  0.32397219078E+02  0.55819775093E+02  0.73728704831E+02  0.00000000000E+00 0. -1.
         11    1    1    2    0    0 -0.56050040009E+02  0.23206117708E+02  0.52151061387E+02  0.79999150545E+02  0.00000000000E+00 0.  1.
</event>
<event>
 7    1  0.2766180E-009  0.2199008E+03  0.7561462E-02  0.1133957E+00
         -1   -1    0    0    0  501 -0.00000000000E+00  0.00000000000E+00  0.19701461292E+03  0.19701461292E+03  0.00000000000E+00 0.  1.
          1   -1    0    0  501    0  0.00000000000E+00 -0.00000000000E+00 -0.28034163853E+03  0.28034163853E+03  0.00000000000E+00 0. -1.
         25    2    1    2    0    0 -0.20550441912E+03 -0.25098048752E+02 -0.26230845435E+02  0.24330464604E+03  0.12508842953E+03 0.  0.
          5    1    3    3  502    0 -0.17349241677E+03  0.12484351353E+02  0.20504649198E+02  0.17519529315E+03  0.41800000000E+01 0.  1.
         -5    1    3    3    0  502 -0.32012002358E+02 -0.37582400105E+02 -0.46735494633E+02  0.68109352891E+02  0.41800000000E+01 0.  1.
        -11    1    1    2    0    0  0.19174618971E+03  0.48774236389E+01 -0.24598667709E+02  0.19337912241E+03  0.00000000000E+00 0.  1.
         11    1    1    2    0    0  0.13758229413E+02  0.20220625113E+02 -0.32497512467E+02  0.40672482996E+02  0.00000000000E+00 0. -1.
</event>
<event>
 7    1  0.2766180E-009  0.1375973E+03  0.7561462E-02  0.1216599E+00
         -1   -1    0    0    0  501 -0.00000000000E+00  0.00000000000E+00  0.70988115258E+03  0.70988115258E+03  0.00000000000E+00 0.  1.
          1   -1    0    0  501    0  0.00000000000E+00 -0.00000000000E+00 -0.31233316821E+02  0.31233316821E+02  0.00000000000E+00 0. -1.
         25    2    1    2    0    0  0.88536911633E+00  0.98184417377E+02  0.42496385374E+03  0.45374227431E+03  0.12508721287E+03 0.  0.
          5    1    3    3  502    0  0.50757843465E+02  0.26417497468E+02  0.83945486089E+02  0.10167870908E+03  0.41800000000E+01 0. -1.
         -5    1    3    3    0  502 -0.49872474349E+02  0.71766919909E+02  0.34101836765E+03  0.35206356523E+03  0.41800000000E+01 0. -1.
        -11    1    1    2    0    0 -0.76543611394E+01 -0.11340819228E+03  0.18873217314E+03  0.22031759008E+03  0.00000000000E+00 0. -1.
         11    1    1    2    0    0  0.67689920231E+01  0.15223774906E+02  0.64951808882E+02  0.67054605006E+02  0.00000000000E+00 0.  1.
</event>
<event>
 7    1  0.2766180E-009  0.2077551E+03  0.7561462E-02  0.1143356E+00
         -2   -1    0    0    0  501 -0.00000000000E+00  0.00000000000E+00  0.37039498260E+02  0.37039498260E+02  0.00000000000E+00 0.  1.
          2   -1    0    0  501    0  0.00000000000E+00 -0.00000000000E+00 -0.15025443549E+04  0.15025443549E+04  0.00000000000E+00 0. -1.
         25    2    1    2    0    0  0.20228050791E+03  0.35383417236E+02 -0.88370984468E+03  0.91583836700E+03  0.12508970699E+03 0.  0.
          5    1    3    3  502    0  0.50600432585E+02  0.14203993583E+02 -0.68940477712E+02  0.86789510188E+02  0.41800000000E+01 0.  1.
         -5    1    3    3    0  502  0.15168007532E+03  0.21179423652E+02 -0.81476936696E+03  0.82904885681E+03  0.41800000000E+01 0.  1.
        -11    1    1    2    0    0 -0.17835589013E+03 -0.44753961729E+02 -0.56197564371E+03  0.59129549699E+03  0.00000000000E+00 0. -1.
         11    1    1    2    0    0 -0.23924617781E+02  0.93705444934E+01 -0.19819368279E+02  0.32449989199E+02  0.00000000000E+00 0.  1.
</event>
<event>
 7    1  0.2766180E-009  0.1139882E+03  0.7561462E-02  0.1253358E+00
          1   -1    0    0  501    0  0.00000000000E+00  0.00000000000E+00  0.76191812122E+03  0.76191812122E+03  0.00000000000E+00 0. -1.
         -1   -1    0    0    0  501 -0.00000000000E+00 -0.00000000000E+00 -0.22162759554E+02  0.22162759554E+02  0.00000000000E+00 0.  1.
         25    2    1    2    0    0  0.18228077805E+02  0.58650706341E+02  0.29885903803E+03  0.32975292037E+03  0.12509234871E+03 0.  0.
          5    1    3    3  502    0 -0.33647517353E+01  0.85432581750E+02  0.11902366193E+03  0.14660884038E+03  0.41800000000E+01 0. -1.
         -5    1    3    3    0  502  0.21592829541E+02 -0.26781875409E+02  0.17983537611E+03  0.18314407999E+03  0.41800000000E+01 0. -1.
        -11    1    1    2    0    0 -0.32172396651E+01  0.23748221557E+02  0.13798794006E+03  0.14005356211E+03  0.00000000000E+00 0. -1.
         11    1    1    2    0    0 -0.15010838140E+02 -0.82398927898E+02  0.30290838357E+03  0.31427439829E+03  0.00000000000E+00 0.  1.
</event>
<event>
 7    1  0.2766180E-009  0.1515794E+03  0.7561462E-02  0.1198546E+00
         -2   -1    0    0    0  501 -0.00000000000E+00  0.00000000000E+00  0.62925153524E+02  0.62925153524E+02  0.00000000000E+00 0.  1.
          2   -1    0    0  501    0  0.00000000000E+00 -0.00000000000E+00 -0.55201407645E+03  0.55201407645E+03  0.00000000000E+00 0. -1.
         25    2    1    2    0    0  0.97413354653E+02 -0.71627236915E+02 -0.11016643989E+03  0.20592173892E+03  0.12508914961E+03 0.  0.
          5    1    3    3  502    0 -0.16779607253E+02 -0.53776859171E+02 -0.22538783493E+02  0.60819198969E+02  0.41800000000E+01 0.  1.
         -5    1    3    3    0  502  0.11419296191E+03 -0.17850377743E+02 -0.87627656400E+02  0.14510253995E+03  0.41800000000E+01 0.  1.
        -11    1    1    2    0    0 -0.74244191568E+02  0.77280676101E+02 -0.36705457236E+03  0.38237881998E+03  0.00000000000E+00 0. -1.
         11    1    1    2    0    0 -0.23169163085E+02 -0.56534391867E+01 -0.11867910674E+02  0.26638671071E+02  0.00000000000E+00 0.  1.
</event>
<event>
 7    1  0.2766180E-009  0.1873679E+03  0.7561462E-02  0.1160857E+00
         -2   -1    0    0    0  501 -0.00000000000E+00  0.00000000000E+00  0.79944020387E+02  0.79944020387E+02  0.00000000000E+00 0. -1.
          2   -1    0    0  501    0  0.00000000000E+00 -0.00000000000E+00 -0.50859823160E+03  0.50859823160E+03  0.00000000000E+00 0.  1.
         25    2    1    2    0    0 -0.13911731843E+03 -0.66924828792E+02 -0.11996430284E+03  0.23210246641E+03  0.12509020729E+03 0.  0.
          5    1    3    3  502    0 -0.11857326789E+03 -0.10149597126E+03 -0.10830912418E+03  0.19002471108E+03  0.41800000000E+01 0.  1.
         -5    1    3    3    0  502 -0.20544050540E+02  0.34571142466E+02 -0.11655178662E+02  0.42077755330E+02  0.41800000000E+01 0.  1.
        -11    1    1    2    0    0  0.10276254198E+03  0.88735861217E+02 -0.23179445325E+03  0.26863146066E+03  0.00000000000E+00 0. -1.
         11    1    1    2    0    0  0.36354776452E+02 -0.21811032426E+02 -0.76895455126E+02  0.87808324921E+02  0.00000000000E+00 0.  1.
</event>
<event>
 7    1  0.2766180E-009  0.1817249E+03  0.7561462E-02  0.1166144E+00
         -2   -1    0    0    0  501 -0.00000000000E+00  0.00000000000E+00  0.46277991777E+03  0.46277991777E+03  0.00000000000E+00 0. -1.
          2   -1    0    0  501    0  0.00000000000E+00 -0.00000000000E+00 -0.82399532447E+02  0.82399532447E+02  0.00000000000E+00 0.  1.
         25    2    1    2    0    0 -0.91668275743E+02 -0.12005858219E+03  0.28470740029E+03  0.34572210161E+03  0.12509329248E+03 0.  0.
          5    1    3    3  502    0 -0.10437059903E+03 -0.47235054747E+02  0.21686129250E+03  0.24529709522E+03  0.41800000000E+01 0.  1.
         -5    1    3    3    0  502  0.12702323284E+02 -0.72823527440E+02  0.67846107797E+02  0.10042500639E+03  0.41800000000E+01 0.  1.
        -11    1    1    2    0    0  0.10780201196E+03  0.89087998442E+02  0.72269180397E+02  0.15741912109E+03  0.00000000000E+00 0. -1.
         11    1    1    2    0    0 -0.16133736217E+02  0.30970583745E+02  0.23403804632E+02  0.42038227521E+02  0.00000000000E+00 0.  1.
</event>
<event>
 7    1  0.2766180E-009  0.1067095E+03  0.7561462E-02  0.1266788E+00
          2   -1    0    0  501    0  0.00000000000E+00  0.00000000000E+00  0.16846029550E+03  0.16846029550E+03  0.00000000000E+00 0. -1.
         -2   -1    0    0    0  501 -0.00000000000E+00 -0.00000000000E+00 -0.10677474445E+03  0.10677474445E+03  0.00000000000E+00 0.  1.
         25    2    1    2    0    0  0.58790041895E+02  0.19717733069E+02 -0.13771455265E+02  0.14029261436E+03  0.12508919474E+03 0.  0.
          5    1    3    3  502    0 -0.25976589989E+02 -0.25815489532E+02  0.14967802400E+02  0.39783542274E+02  0.41800000000E+01 0.  1.
         -5    1    3    3    0  502  0.84766631884E+02  0.45533222600E+02 -0.28739257664E+02  0.10050907209E+03  0.41800000000E+01 0.  1.
        -11    1    1    2    0    0 -0.76561542694E+01  0.16091603799E+02 -0.16175320382E+02  0.24066520323E+02  0.00000000000E+00 0.  1.
         11    1    1    2    0    0 -0.51133887626E+02 -0.35809336867E+02  0.91632326697E+02  0.11087590526E+03  0.00000000000E+00 0. -1.
</event>
<event>
 7    1  0.2766180E-009  0.7671605E+02  0.7561462E-02  0.1338638E+00
          1   -1    0    0  501    0  0.00000000000E+00  0.00000000000E+00  0.14242403971E+04  0.14242403971E+04  0.00000000000E+00 0. -1.
         -1   -1    0    0    0  501 -0.00000000000E+00 -0.00000000000E+00 -0.22535270777E+02  0.22535270777E+02  0.00000000000E+00 0.  1.
         25    2    1    2    0    0  0.12323912632E+02 -0.31494127169E+01  0.13177211099E+04  0.13237063230E+04  0.12509080039E+03 0.  0.
          5    1    3    3  502    0  0.40919485324E+02 -0.52408500607E+02  0.82523162672E+03  0.82791652076E+03  0.41800000000E+01 0. -1.
         -5    1    3    3    0  502 -0.28595572692E+02  0.49259087890E+02  0.49248948319E+03  0.49578980220E+03  0.41800000000E+01 0. -1.
        -11    1    1    2    0    0 -0.14180241221E+02 -0.94001286016E+01  0.10067617056E+03  0.10210354048E+03  0.00000000000E+00 0. -1.
         11    1    1    2    0    0  0.18563285887E+01  0.12549541319E+02 -0.16692154178E+02  0.20965804402E+02  0.00000000000E+00 0.  1.
</event>
<event>
 7    1  0.2766180E-009  0.1123649E+03  0.7561462E-02  0.1256252E+00
         -2   -1    0    0    0  501 -0.00000000000E+00  0.00000000000E+00  0.31318757290E+02  0.31318757290E+02  0.00000000000E+00 0.  1.
          2   -1    0    0  501    0  0.00000000000E+00 -0.00000000000E+00 -0.42537806395E+03  0.42537806395E+03  0.00000000000E+00 0. -1.
         25    2    1    2    0    0  0.20437761882E+02 -0.34737927868E+02 -0.21695262099E+03  0.25366303675E+03  0.12510823600E+03 0.  0.
          5    1    3    3  502    0  0.36723251542E+02  0.37901589200E+02 -0.60764908462E+02  0.80591402569E+02  0.41800000000E+01 0.  1.
         -5    1    3    3    0  502 -0.16285489660E+02 -0.72639517068E+02 -0.15618771253E+03  0.17307163418E+03  0.41800000000E+01 0.  1.
        -11    1    1    2    0    0 -0.35693486848E+01 -0.30060784499E+02 -0.75560584819E+02  0.81398974152E+02  0.00000000000E+00 0.  1.
         11    1    1    2    0    0 -0.16868413197E+02  0.64798712367E+02 -0.10154610085E+03  0.12163481034E+03  0.00000000000E+00 0. -1.
</event>
<event>
 7    1  0.2766180E-009  0.1376193E+03  0.7561462E-02  0.1216569E+00
          1   -1    0    0  501    0  0.00000000000E+00  0.00000000000E+00  0.50312377162E+03  0.50312377162E+03  0.00000000000E+00 0. -1.
         -1   -1    0    0    0  501 -0.00000000000E+00 -0.00000000000E+00 -0.37755822294E+02  0.37755822294E+02  0.00000000000E+00 0.  1.
         25    2    1    2    0    0  0.68995508028E+02 -0.49437493643E+02  0.24513228081E+03  0.28799609455E+03  0.12508984560E+03 0.  0.
          5    1    3    3  502    0  0.98128869902E+02 -0.56142795124E+01  0.15900134157E+03  0.18697511670E+03  0.41800000000E+01 0. -1.
         -5    1    3    3    0  502 -0.29133361874E+02 -0.43823214130E+02  0.86130939244E+02  0.10102097785E+03  0.41800000000E+01 0. -1.
        -11    1    1    2    0    0  0.20339638376E+02 -0.28821069198E+01  0.31219742353E+02  0.37372178719E+02  0.00000000000E+00 0.  1.
         11    1    1    2    0    0 -0.89335146404E+02  0.52319600563E+02  0.18901592616E+03  0.21551132065E+03  0.00000000000E+00 0. -1.
</event>
<event>
 7    1  0.2766180E-009  0.1106132E+03  0.7561462E-02  0.1259438E+00
          1   -1    0    0  501    0  0.00000000000E+00  0.00000000000E+00  0.32847261707E+02  0.32847261707E+02  0.00000000000E+00 0. -1.
         -1   -1    0    0    0  501 -0.00000000000E+00 -0.00000000000E+00 -0.50850755909E+03  0.50850755909E+03  0.00000000000E+00 0.  1.
         25    2    1    2    0    0  0.71374792258E+02 -0.39040958572E+01 -0.23844009878E+03  0.27858678323E+03  0.12508921675E+03 0.  0.
          5    1    3    3  502    0  0.12253927496E+02 -0.52392358646E+02 -0.16046879768E+03  0.16930099058E+03  0.41800000000E+01 0. -1.
         -5    1    3    3    0  502  0.59120864762E+02  0.48488262788E+02 -0.77971301108E+02  0.10928579265E+03  0.41800000000E+01 0. -1.
        -11    1    1    2    0    0 -0.11708453332E+02  0.24830504518E+02 -0.16286864554E+03  0.16516609075E+03  0.00000000000E+00 0.  1.
         11    1    1    2    0    0 -0.59666338926E+02 -0.20926408661E+02 -0.74351553062E+02  0.97601946820E+02  0.00000000000E+00 0. -1.
</event>
<event>
 7    1  0.2766180E-009  0.9455590E+02  0.7561462E-02  0.1292179E+00
          1   -1    0    0  501    0  0.00000000000E+00  0.00000000000E+00  0.62851067789E+03  0.62851067789E+03  0.00000000000E+00 0. -1.
         -1   -1    0    0    0  501 -0.00000000000E+00 -0.00000000000E+00 -0.22945455841E+02  0.22945455841E+02  0.00000000000E+00 0.  1.
         25    2    1    2    0    0 -0.33075543553E+02  0.46665164756E+00  0.44367607809E+03  0.46215688117E+03  0.12508521573E+03 0.  0.
          5    1    3    3  502    0  0.10644835647E+02  0.48183856909E+02  0.91332947143E+02  0.10389502503E+03  0.41800000000E+01 0. -1.
         -5    1    3    3    0  502 -0.43720379200E+02 -0.47717205261E+02  0.35234313095E+03  0.35826185613E+03  0.41800000000E+01 0. -1.
        -11    1    1    2    0    0 -0.94389172360E+01 -0.24249790303E+02  0.12634220395E+03  0.12899417812E+03  0.00000000000E+00 0. -1.
         11    1    1    2    0    0  0.42514460789E+02  0.23783138656E+02  0.35546940008E+02  0.60305074450E+02  0.00000000000E+00 0.  1.
</event>
<event>
 7    1  0.2766180E-009  0.1117498E+03  0.7561462E-02  0.1257363E+00
         -1   -1    0    0    0  501 -0.00000000000E+00  0.00000000000E+00  0.27112298634E+02  0.27112298634E+02  0.00000000000E+00 0.  1.
          1   -1    0    0  501    0  0.00000000000E+00 -0.00000000000E+00 -0.91440935070E+03  0.91440935070E+03  0.00000000000E+00 0. -1.
         25    2    1    2    0    0  0.55267867037E+02 -0.24499926852E+02 -0.75792162867E+03  0.77054620300E+03  0.12506587147E+03 0.  0.
          5    1    3    3  502    0 -0.15500271465E+02  0.39244404302E+02 -0.28198122132E+03  0.28515129889E+03  0.41800000000E+01 0.  1.
         -5    1    3    3    0  502  0.70768138502E+02 -0.63744331154E+02 -0.47594040735E+03  0.48539490411E+03  0.41800000000E+01 0.  1.
        -11    1    1    2    0    0 -0.53218359733E+02 -0.74585542282E+01 -0.12811215017E+03  0.13892640809E+03  0.00000000000E+00 0. -1.
         11    1    1    2    0    0 -0.20495073036E+01  0.31958481080E+02 -0.12632732252E+01  0.32049038244E+02  0.00000000000E+00 0.  1.
</event>
<event>
 7    1  0.2766180E-009  0.1098118E+03  0.7561462E-02  0.1260919E+00
         -2   -1    0    0    0  501 -0.00000000000E+00  0.00000000000E+00  0.43535655644E+03  0.43535655644E+03  0.00000000000E+00 0.  1.
          2   -1    0    0  501    0  0.00000000000E+00 -0.00000000000E+00 -0.51661612806E+02  0.51661612806E+02  0.00000000000E+00 0. -1.
         25    2    1    2    0    0 -0.78362046955E+02  0.53740825311E+01  0.99365058739E+02  0.17797840571E+03  0.12503362281E+03 0.  0.
          5    1    3    3  502    0 -0.12062369579E+02 -0.40650187382E+02 -0.82472293272E+01  0.43398475614E+02  0.41800000000E+01 0. -1.
         -5    1    3    3    0  502 -0.66299677377E+02  0.46024269913E+02  0.10761228807E+03  0.13457993009E+03  0.41800000000E+01 0. -1.
        -11    1    1    2    0    0  0.35065461283E+01 -0.19679161779E+02  0.66108823577E+01  0.21053955438E+02  0.00000000000E+00 0. -1.
         11    1    1    2    0    0  0.74855500827E+02  0.14305079248E+02  0.27771900254E+03  0.28798580810E+03  0.00000000000E+00 0.  1.
</event>
<event>
 7    1  0.2766180E-009  0.1945198E+03  0.7561462E-02  0.1154447E+00
         -2   -1    0    0    0  501 -0.00000000000E+00  0.00000000000E+00  0.14958608223E+03  0.14958608223E+03  0.00000000000E+00 0.  1.
          2   -1    0    0  501    0  0.00000000000E+00 -0.00000000000E+00 -0.30316363206E+03  0.30316363206E+03  0.00000000000E+00 0. -1.
         25    2    1    2    0    0  0.16566995185E+03  0.76332254159E+02 -0.94371152583E+02  0.24047060415E+03  0.12508817309E+03 0.  0.
          5    1    3    3  502    0  0.37748503626E+01 -0.18110753841E+02 -0.41584662444E+02  0.45705639155E+02  0.41800000000E+01 0.  1.
         -5    1    3    3    0  502  0.16189510149E+03  0.94443008000E+02 -0.52786490138E+02  0.19476496499E+03  0.41800000000E+01 0.  1.
        -11    1    1    2    0    0 -0.13030693721E+03 -0.63729144130E+02 -0.34938884694E+01  0.14509827343E+03  0.00000000000E+00 0.  1.
         11    1    1    2    0    0 -0.35363014646E+02 -0.12603110028E+02 -0.55712508783E+02  0.67180836718E+02  0.00000000000E+00 0. -1.
</event>
<event>
 7    1  0.2766180E-009  0.1178579E+03  0.7561462E-02  0.1246673E+00
         -3   -1    0    0    0  501 -0.00000000000E+00  0.00000000000E+00  0.10774631626E+03  0.10774631626E+03  0.00000000000E+00 0.  1.
          3   -1    0    0  501    0  0.00000000000E+00 -0.00000000000E+00 -0.18188079423E+03  0.18188079423E+03  0.00000000000E+00 0. -1.
         25    2    1    2    0    0  0.82821093967E+02  0.21117979068E+02 -0.22085837645E+02  0.15309992600E+03  0.12508597232E+03 0.  0.
          5    1    3    3  502    0  0.45358602902E+02  0.45679049762E+02  0.40389951239E+02  0.76110439530E+02  0.41800000000E+01 0. -1.
         -5    1    3    3    0  502  0.37462491065E+02 -0.24561070694E+02 -0.62475788884E+02  0.76989486471E+02  0.41800000000E+01 0. -1.
        -11    1    1    2    0    0  0.15457395899E+02  0.14972704005E+02 -0.87010820928E+01  0.23212535036E+02  0.00000000000E+00 0.  1.
         11    1    1    2    0    0 -0.98278489866E+02 -0.36090683073E+02 -0.43347558241E+02  0.11331464945E+03  0.00000000000E+00 0. -1.
</event>
<event>
 7    1  0.2766180E-009  0.6010744E+02  0.7561462E-02  0.1397381E+00
         -2   -1    0    0    0  501 -0.00000000000E+00  0.00000000000E+00  0.14829169711E+03  0.14829169711E+03  0.00000000000E+00 0.  1.
          2   -1    0    0  501    0  0.00000000000E+00 -0.00000000000E+00 -0.13200257817E+03  0.13200257817E+03  0.00000000000E+00 0. -1.
         25    2    1    2    0    0 -0.56894164448E+01  0.76233258980E+01  0.98496000076E+02  0.15949769234E+03  0.12509023653E+03 0.  0.
          5    1    3    3  502    0 -0.30362348772E+02  0.15083638517E+02  0.12056340910E+03  0.12530920312E+03  0.41800000000E+01 0.  1.
         -5    1    3    3    0  502  0.24672932327E+02 -0.74603126187E+01 -0.22067409024E+02  0.34188489218E+02  0.41800000000E+01 0.  1.
        -11    1    1    2    0    0 -0.18534659511E+02  0.17180288156E+02  0.60393425254E+01  0.25984025139E+02  0.00000000000E+00 0.  1.
         11    1    1    2    0    0  0.24224075956E+02 -0.24803614054E+02 -0.88246223658E+02  0.94812557797E+02  0.00000000000E+00 0. -1.
</event>
<event>
 7    1  0.2766180E-009  0.1119382E+03  0.7561462E-02  0.1257022E+00
         -2   -1    0    0    0  501 -0.00000000000E+00  0.00000000000E+00  0.14946631290E+02  0.14946631290E+02  0.00000000000E+00 0. -1.
          2   -1    0    0  501    0  0.00000000000E+00 -0.00000000000E+00 -0.97529771777E+03  0.97529771777E+03  0.00000000000E+00 0.  1.
         25    2    1    2    0    0 -0.46888591678E+02  0.34125238694E+01 -0.44117596367E+03  0.46097112177E+03  0.12509180162E+03 0.  0.
          5    1    3    3  502    0 -0.71361946874E+02 -0.32202531547E+02 -0.18177995402E+03  0.19796705428E+03  0.41800000000E+01 0. -1.
         -5    1    3    3    0  502  0.24473355197E+02  0.35615055416E+02 -0.25939600966E+03  0.26300406748E+03  0.41800000000E+01 0. -1.
        -11    1    1    2    0    0 -0.16371938187E+02  0.27225785304E+02 -0.13197610579E+03  0.13574599901E+03  0.00000000000E+00 0.  1.
         11    1    1    2    0    0  0.63260529865E+02 -0.30638309173E+02 -0.38719901701E+03  0.39352722829E+03  0.00000000000E+00 0. -1.
</event>
<event>
 7    1  0.2766180E-009  0.1134040E+03  0.7561462E-02  0.1254393E+00
         -1   -1    0    0    0  501 -0.00000000000E+00  0.00000000000E+00  0.16945974015E+03  0.16945974015E+03  0.00000000000E+00 0.  1.
          1   -1    0    0  501    0  0.00000000000E+00 -0.00000000000E+00 -0.15666378628E+03  0.15666378628E+03  0.00000000000E+00 0. -1.
         25    2    1    2    0    0 -0.31484990894E+02  0.89265783329E+02 -0.64134854460E+02  0.16947011317E+03  0.12508858852E+03 0.  0.
          5    1    3    3  502    0 -0.39417751590E+02  0.59732388493E+02  0.24386371614E+02  0.75722420035E+02  0.41800000000E+01 0.  1.
         -5    1    3    3    0  502  0.79327606966E+01  0.29533394836E+02 -0.88521226074E+02  0.93747693137E+02  0.41800000000E+01 0.  1.
        -11    1    1    2    0    0  0.58956597323E+02 -0.61611162398E+02  0.19887016455E+02  0.87563172187E+02  0.00000000000E+00 0. -1.
         11    1    1    2    0    0 -0.27471606429E+02 -0.27654620931E+02  0.57043791874E+02  0.69090241062E+02  0.00000000000E+00 0.  1.
</event>
<event>
 7    1  0.2766180E-009  0.8755374E+02  0.7561462E-02  0.1308886E+00
          3   -1    0    0  501    0  0.00000000000E+00  0.00000000000E+00  0.45640163441E+02  0.45640163441E+02  0.00000000000E+00 0. -1.
         -3   -1    0    0    0  501 -0.00000000000E+00 -0.00000000000E+00 -0.38502178022E+03  0.38502178022E+03  0.00000000000E+00 0.  1.
         25    2    1    2    0    0  0.31692140475E+02  0.26782134553E+01 -0.29109327018E+03  0.31842489776E+03  0.12509020336E+03 0.  0.
          5    1    3    3  502    0  0.93453313718E+01 -0.57070777063E+02 -0.19145040196E+03  0.20003784048E+03  0.41800000000E+01 0. -1.
         -5    1    3    3    0  502  0.22346809104E+02  0.59748990518E+02 -0.99642868225E+02  0.11838705729E+03  0.41800000000E+01 0. -1.
        -11    1    1    2    0    0  0.57954533928E+01 -0.13069282896E+02  0.25265348527E+02  0.29029834164E+02  0.00000000000E+00 0. -1.
         11    1    1    2    0    0 -0.37487593868E+02  0.10391069441E+02 -0.73553695125E+02  0.83207211735E+02  0.00000000000E+00 0.  1.
</event>
<event>
 7    1  0.2766180E-009  0.1072950E+03  0.7561462E-02  0.1265663E+00
          2   -1    0    0  501    0  0.00000000000E+00  0.00000000000E+00  0.11998978764E+04  0.11998978764E+04  0.00000000000E+00 0. -1.
         -2   -1    0    0    0  501 -0.00000000000E+00 -0.00000000000E+00 -0.11844518230E+02  0.11844518230E+02  0.00000000000E+00 0.  1.
         25    2    1    2    0    0  0.45640539226E+02  0.12540134850E+02  0.80219862514E+03  0.81327249854E+03  0.12509679813E+03 0.  0.
          5    1    3    3  502    0  0.69166677211E+02 -0.30549275499E+02  0.33342596240E+03  0.34191758111E+03  0.41800000000E+01 0. -1.
         -5    1    3    3    0  502 -0.23526137986E+02  0.43089410349E+02  0.46877266274E+03  0.47135491743E+03  0.41800000000E+01 0. -1.
        -11    1    1    2    0    0  0.14158855523E+02 -0.24790892345E+02  0.54349450463E+02  0.61391565371E+02  0.00000000000E+00 0.  1.
         11    1    1    2    0    0 -0.59799394749E+02  0.12250757495E+02  0.33150528262E+03  0.33707833077E+03  0.00000000000E+00 0. -1.
</event>
<event>
 7    1  0.2766180E-009  0.1498435E+03  0.7561462E-02  0.1200665E+00
         -1   -1    0    0    0  501 -0.00000000000E+00  0.00000000000E+00  0.73445860206E+02  0.73445860206E+02  0.00000000000E+00 0.  1.
          1   -1    0    0  501    0  0.00000000000E+00 -0.00000000000E+00 -0.32686510450E+03  0.32686510450E+03  0.00000000000E+00 0. -1.
         25    2    1    2    0    0 -0.79587637098E+01 -0.10656016013E+03 -0.10229697165E+03  0.19372987763E+03  0.12509270735E+03 0.  0.
          5    1    3    3  502    0  0.32897781322E+01  0.28451362285E+02 -0.19449552413E+02  0.34872053927E+02  0.41800000000E+01 0. -1.
         -5    1    3    3    0  502 -0.11248541842E+02 -0.13501152242E+03 -0.82847419237E+02  0.15885782371E+03  0.41800000000E+01 0. -1.
        -11    1    1    2    0    0  0.36615733615E+02  0.15544876963E+02 -0.73508750346E+02  0.83581645864E+02  0.00000000000E+00 0. -1.
         11    1    1    2    0    0 -0.28656969905E+02  0.91015283167E+02 -0.77613522299E+02  0.12299944121E+03  0.00000000000E+00 0.  1.
</event>
<event>
 7    1  0.2766180E-009  0.7020502E+02  0.7561462E-02  0.1359397E+00
         -2   -1    0    0    0  501 -0.00000000000E+00  0.00000000000E+00  0.18172795756E+03  0.18172795756E+03  0.00000000000E+00 0.  1.
          2   -1    0    0  501    0  0.00000000000E+00 -0.00000000000E+00 -0.60011491219E+02  0.60011491219E+02  0.00000000000E+00 0. -1.
         25    2    1    2    0    0  0.82599906719E+01 -0.12585023941E+02  0.79325063072E+02  0.14888464682E+03  0.12509021606E+03 0.  0.
          5    1    3    3  502    0  0.11260983700E+00  0.44781682823E+02 -0.62970328088E+01  0.45415160681E+02  0.41800000000E+01 0.  1.
         -5    1    3    3    0  502  0.81473808349E+01 -0.57366706765E+02  0.85622095880E+02  0.10346948614E+03  0.41800000000E+01 0.  1.
        -11    1    1    2    0    0 -0.68869240638E+01 -0.11398667485E+02  0.61019343127E+02  0.62455740962E+02  0.00000000000E+00 0.  1.
         11    1    1    2    0    0 -0.13730666081E+01  0.23983691426E+02 -0.18627939855E+02  0.30399060998E+02  0.00000000000E+00 0. -1.
</event>
<event>
 7    1  0.2766180E-009  0.1327658E+03  0.7561462E-02  0.1223409E+00
         -2   -1    0    0    0  501 -0.00000000000E+00  0.00000000000E+00  0.16484578914E+03  0.16484578914E+03  0.00000000000E+00 0.  1.
          2   -1    0    0  501    0  0.00000000000E+00 -0.00000000000E+00 -0.14806849320E+03  0.14806849320E+03  0.00000000000E+00 0. -1.
         25    2    1    2    0    0 -0.28354930792E+02  0.10719061688E+03  0.28898538668E+00  0.16715785908E+03  0.12509131021E+03 0.  0.
          5    1    3    3  502    0 -0.25406183044E+02  0.64329033216E+01 -0.48352218197E+02  0.55156738361E+02  0.41800000000E+01 0.  1.
         -5    1    3    3    0  502 -0.29487477475E+01  0.10075771356E+03  0.48641203584E+02  0.11200112072E+03  0.41800000000E+01 0.  1.
        -11    1    1    2    0    0  0.49608488685E+02 -0.29848882039E+02  0.28706810850E+02  0.64622278649E+02  0.00000000000E+00 0.  1.
         11    1    1    2    0    0 -0.21253557893E+02 -0.77341734846E+02 -0.12218500296E+02  0.81134144610E+02  0.00000000000E+00 0. -1.
</event>
<event>
 7    1  0.2766180E-009  0.2311329E+03  0.7561462E-02  0.1125845E+00
         -2   -1    0    0    0  501 -0.00000000000E+00  0.00000000000E+00  0.18025150736E+03  0.18025150736E+03  0.00000000000E+00 0.  1.
          2   -1    0    0  501    0  0.00000000000E+00 -0.00000000000E+00 -0.50510543706E+03  0.50510543706E+03  0.00000000000E+00 0. -1.
         25    2    1    2    0    0 -0.48822243758E+02  0.20644624989E+03  0.43940099535E+02  0.25016301577E+03  0.12508851478E+03 0.  0.
          5    1    3    3  502    0  0.37933065171E+02  0.26505664077E+02  0.77989155137E+01  0.47114362403E+02  0.41800000000E+01 0.  1.
         -5    1    3    3    0  502 -0.86755308929E+02  0.17994058581E+03  0.36141184021E+02  0.20304865336E+03  0.41800000000E+01 0.  1.
        -11    1    1    2    0    0  0.54779818637E+02 -0.15891030266E+03 -0.20806945553E+03  0.26748123513E+03  0.00000000000E+00 0.  1.
         11    1    1    2    0    0 -0.59575748783E+01 -0.47535947230E+02 -0.16072457370E+03  0.16771269352E+03  0.00000000000E+00 0. -1.
</event>
<event>
 7    1  0.2766180E-009  0.1397701E+03  0.7561462E-02  0.1213639E+00
         -1   -1    0    0    0  501 -0.00000000000E+00  0.00000000000E+00  0.58932271110E+02  0.58932271110E+02  0.00000000000E+00 0.  1.
          1   -1    0    0  501    0  0.00000000000E+00 -0.00000000000E+00 -0.35684422147E+03  0.35684422147E+03  0.00000000000E+00 0. -1.
         25    2    1    2    0    0 -0.11225656759E+03  0.56561042823E+01 -0.15069492002E+03  0.22581011621E+03  0.12509085171E+03 0.  0.
          5    1    3    3  502    0 -0.63443484346E+02  0.64417675270E+02 -0.94737416875E+02  0.13102428458E+03  0.41800000000E+01 0.  1.
         -5    1    3    3    0  502 -0.48813083247E+02 -0.58761570987E+02 -0.55957503143E+02  0.94785831637E+02  0.41800000000E+01 0.  1.
        -11    1    1    2    0    0  0.74709195582E+02 -0.62664156806E+01 -0.12658178145E+03  0.14711790939E+03  0.00000000000E+00 0. -1.
         11    1    1    2    0    0  0.37547372011E+02  0.61031139821E+00 -0.20635248896E+02  0.42848466973E+02  0.00000000000E+00 0.  1.
</event>
<event>
 7    1  0.2766180E-009  0.1296826E+03  0.7561462E-02  0.1227928E+00
         -2   -1    0    0    0  501 -0.00000000000E+00  0.00000000000E+00  0.11228217825E+02  0.11228217825E+02  0.00000000000E+00 0.  1.
          2   -1    0    0  501    0  0.00000000000E+00 -0.00000000000E+00 -0.23914504541E+04  0.23914504541E+04  0.00000000000E+00 0. -1.
         25    2    1    2    0    0 -0.33432401627E+02  0.10514112030E+03 -0.16776940311E+04  0.16859646991E+04  0.12508926370E+03 0.  0.
          5    1    3    3  502    0  0.27212427308E+01  0.57184288644E+02 -0.23122663011E+03  0.23824498925E+03  0.41800000000E+01 0.  1.
         -5    1    3    3    0  502 -0.36153644358E+02  0.47956831652E+02 -0.14464674010E+04  0.14477197099E+04  0.41800000000E+01 0.  1.
        -11    1    1    2    0    0 -0.30241250899E+02 -0.23930866804E+02 -0.20508020174E+03  0.20867464817E+03  0.00000000000E+00 0. -1.
         11    1    1    2    0    0  0.63673652525E+02 -0.81210253492E+02 -0.49744800337E+03  0.50803932461E+03  0.00000000000E+00 0.  1.
</event>
<event>
 7    1  0.2766180E-009  0.1163400E+03  0.7561462E-02  0.1249260E+00
         -1   -1    0    0    0  501 -0.00000000000E+00  0.00000000000E+00  0.13357611880E+03  0.13357611880E+03  0.00000000000E+00 0.  1.
          1   -1    0    0  501    0  0.00000000000E+00 -0.00000000000E+00 -0.13429222509E+03  0.13429222509E+03  0.00000000000E+00 0. -1.
         25    2    1    2    0    0  0.27797805324E+02  0.71604129874E+02 -0.18849160406E+02  0.14800340643E+03  0.12509935281E+03 0.  0.
          5    1    3    3  502    0 -0.22447492690E+01 -0.31430225545E+02 -0.24972523046E+02  0.40422732272E+02  0.41800000000E+01 0.  1.
         -5    1    3    3    0  502  0.30042554593E+02  0.10303435542E+03  0.61233626401E+01  0.10758067416E+03  0.41800000000E+01 0.  1.
        -11    1    1    2    0    0  0.14382135166E+02 -0.34241138848E+02  0.44240197503E+02  0.57762414048E+02  0.00000000000E+00 0.  1.
         11    1    1    2    0    0 -0.42179940491E+02 -0.37362991027E+02 -0.26107143384E+02  0.62102523410E+02  0.00000000000E+00 0. -1.
</event>
<event>
 7    1  0.2766180E-009  0.1355637E+03  0.7561462E-02  0.1219426E+00
         -2   -1    0    0    0  501 -0.00000000000E+00  0.00000000000E+00  0.28637095903E+03  0.28637095903E+03  0.00000000000E+00 0.  1.
          2   -1    0    0  501    0  0.00000000000E+00 -0.00000000000E+00 -0.79721722749E+02  0.79721722749E+02  0.00000000000E+00 0. -1.
         25    2    1    2    0    0  0.10557456538E+03 -0.57576717115E+01  0.12993621697E+03  0.20906968427E+03  0.12509025847E+03 0.  0.
          5    1    3    3  502    0  0.53905945133E+01  0.48834167039E+02  0.45204767030E+02  0.66893779545E+02  0.41800000000E+01 0.  1.
         -5    1    3    3    0  502  0.10018397086E+03 -0.54591838750E+02  0.84731449940E+02  0.14217590473E+03  0.41800000000E+01 0.  1.
        -11    1    1    2    0    0 -0.95601953482E+02  0.11255785572E+02  0.95150921918E+02  0.13535185318E+03  0.00000000000E+00 0.  1.
         11    1    1    2    0    0 -0.99726118939E+01 -0.54981138603E+01 -0.18437902604E+02  0.21671144327E+02  0.00000000000E+00 0. -1.
</event>
<event>
 7    1  0.2766180E-009  0.1593499E+03  0.7561462E-02  0.1189433E+00
          1   -1    0    0  501    0  0.00000000000E+00  0.00000000000E+00  0.55376781690E+03  0.55376781690E+03  0.00000000000E+00 0. -1.
         -1   -1    0    0    0  501 -0.00000000000E+00 -0.00000000000E+00 -0.70664702689E+02  0.70664702689E+02  0.00000000000E+00 0.  1.
         25    2    1    2    0    0  0.82415239933E+02 -0.12332026988E+03  0.13877472057E+03  0.23857288812E+03  0.12513368506E+03 0.  0.
          5    1    3    3  502    0 -0.41877548531E+01 -0.30142269470E+02 -0.18801199155E+02  0.36014596890E+02  0.41800000000E+01 0. -1.
         -5    1    3    3    0  502  0.86602994786E+02 -0.93178000414E+02  0.15757591973E+03  0.20255829123E+03  0.41800000000E+01 0. -1.
        -11    1    1    2    0    0 -0.21966587777E+02  0.87984783116E+02  0.26481121661E+03  0.27990861630E+03  0.00000000000E+00 0. -1.
         11    1    1    2    0    0 -0.60448652156E+02  0.35335486767E+02  0.79517177027E+02  0.10595101517E+03  0.00000000000E+00 0.  1.
</event>
<event>
 7    1  0.2766180E-009  0.1071598E+03  0.7561462E-02  0.1265922E+00
         -2   -1    0    0    0  501 -0.00000000000E+00  0.00000000000E+00  0.66843675953E+02  0.66843675953E+02  0.00000000000E+00 0.  1.
          2   -1    0    0  501    0  0.00000000000E+00 -0.00000000000E+00 -0.25835680538E+03  0.25835680538E+03  0.00000000000E+00 0. -1.
         25    2    1    2    0    0 -0.23393627511E+01 -0.70497913914E+02 -0.75016518132E+02  0.16202132510E+03  0.12509197940E+03 0.  0.
          5    1    3    3  502    0  0.29234223519E+02 -0.91612345294E+02 -0.25687632321E+02  0.99623232679E+02  0.41800000000E+01 0.  1.
         -5    1    3    3    0  502 -0.31573586270E+02  0.21114431380E+02 -0.49328885810E+02  0.62398092420E+02  0.41800000000E+01 0.  1.
        -11    1    1    2    0    0 -0.13164894184E+02  0.78781917820E+01  0.11947257611E+02  0.19445238724E+02  0.00000000000E+00 0.  1.
         11    1    1    2    0    0  0.15504256935E+02  0.62619722132E+02 -0.12844386891E+03  0.14373391751E+03  0.00000000000E+00 0. -1.
</event>
<event>
 7    1  0.2766180E-009  0.9962836E+02  0.7561462E-02  0.1281079E+00
          2   -1    0    0  501    0  0.00000000000E+00  0.00000000000E+00  0.82848502158E+03  0.82848502158E+03  0.00000000000E+00 0.  1.
         -2   -1    0    0    0  501 -0.00000000000E+00 -0.00000000000E+00 -0.18391188622E+02  0.18391188622E+02  0.00000000000E+00 0. -1.
         25    2    1    2    0    0  0.21734193831E+02  0.12335516169E+02  0.63139278347E+03  0.64414953486E+03  0.12508891283E+03 0.  0.
          5    1    3    3  502    0 -0.22074219016E+02  0.47444508901E+02  0.13957882921E+03  0.14912402400E+03  0.41800000000E+01 0.  1.
         -5    1    3    3    0  502  0.43808412847E+02 -0.35108992731E+02  0.49181395426E+03  0.49502551086E+03  0.41800000000E+01 0.  1.
        -11    1    1    2    0    0 -0.54162418447E+02  0.37005367872E+01  0.13787629690E+03  0.14817940070E+03  0.00000000000E+00 0.  1.
         11    1    1    2    0    0  0.32428224616E+02 -0.16036052956E+02  0.40824752590E+02  0.54547274636E+02  0.00000000000E+00 0. -1.
</event>
<event>
 7    1  0.2766180E-009  0.1047372E+03  0.7561462E-02  0.1270638E+00
         -1   -1    0    0    0  501 -0.00000000000E+00  0.00000000000E+00  0.24617125778E+03  0.24617125778E+03  0.00000000000E+00 0.  1.
          1   -1    0    0  501    0  0.00000000000E+00 -0.00000000000E+00 -0.82328650814E+02  0.82328650814E+02  0.00000000000E+00 0. -1.
         25    2    1    2    0    0  0.67223545278E+02 -0.63067872985E+02  0.90478839870E+02  0.17981124945E+03  0.12509637613E+03 0.  0.
          5    1    3    3  502    0  0.80483232405E+02 -0.39102522240E+02  0.11293532787E+03  0.14414721165E+03  0.41800000000E+01 0.  1.
         -5    1    3    3    0  502 -0.13259687127E+02 -0.23965350745E+02 -0.22456488002E+02  0.35664037803E+02  0.41800000000E+01 0.  1.
        -11    1    1    2    0    0 -0.13052635267E+02  0.13142896599E+02 -0.21629821506E+02  0.28477292652E+02  0.00000000000E+00 0. -1.
         11    1    1    2    0    0 -0.54170910010E+02  0.49924976386E+02  0.94993588604E+02  0.12021136649E+03  0.00000000000E+00 0.  1.
</event>
<event>
 7    1  0.2766180E-009  0.1097418E+03  0.7561462E-02  0.1261049E+00
          2   -1    0    0  501    0  0.00000000000E+00  0.00000000000E+00  0.12612561678E+03  0.12612561678E+03  0.00000000000E+00 0. -1.
         -2   -1    0    0    0  501 -0.00000000000E+00 -0.00000000000E+00 -0.10196509369E+03  0.10196509369E+03  0.00000000000E+00 0.  1.
         25    2    1    2    0    0  0.82246891175E+01  0.21409771471E+02  0.32988429192E+02  0.13138812256E+03  0.12509427830E+03 0.  0.
          5    1    3    3  502    0 -0.57953041481E+02  0.13712300701E+02  0.85915230173E+01  0.60314748405E+02  0.41800000000E+01 0.  1.
         -5    1    3    3    0  502  0.66177730598E+02  0.76974707705E+01  0.24396906175E+02  0.71073374159E+02  0.41800000000E+01 0.  1.
        -11    1    1    2    0    0  0.11864406311E+02  0.32979287820E+02 -0.15531750168E+02  0.38335790399E+02  0.00000000000E+00 0.  1.
         11    1    1    2    0    0 -0.20089095429E+02 -0.54389059291E+02  0.67038440648E+01  0.58366797505E+02  0.00000000000E+00 0. -1.
</event>
<event>
 7    1  0.2766180E-009  0.2811345E+03  0.7561462E-02  0.1095071E+00
          1   -1    0    0  501    0  0.00000000000E+00  0.00000000000E+00  0.49776485016E+03  0.49776485016E+03  0.00000000000E+00 0. -1.
         -1   -1    0    0    0  501 -0.00000000000E+00 -0.00000000000E+00 -0.18642997391E+03  0.18642997391E+03  0.00000000000E+00 0.  1.
         25    2    1    2    0    0 -0.17559953774E+03 -0.19358193550E+03  0.28425856844E+03  0.40590607662E+03  0.12509055082E+03 0.  0.
          5    1    3    3  502    0  0.12267863332E+02 -0.53165690796E+02  0.45185444169E+02  0.70966808532E+02  0.41800000000E+01 0.  1.
         -5    1    3    3    0  502 -0.18786740108E+03 -0.14041624470E+03  0.23907312427E+03  0.33493926809E+03  0.41800000000E+01 0.  1.
        -11    1    1    2    0    0  0.15133265319E+03  0.11316166903E+03  0.40408438777E+02  0.19323554845E+03  0.00000000000E+00 0.  1.
         11    1    1    2    0    0  0.24266884550E+02  0.80420266462E+02 -0.13332130959E+02  0.85053198996E+02  0.00000000000E+00 0. -1.
</event>
<event>
 7    1  0.2766180E-009  0.7163003E+02  0.7561462E-02  0.1354636E+00
         -2   -1    0    0    0  501 -0.00000000000E+00  0.00000000000E+00  0.94302497684E+02  0.94302497684E+02  0.00000000000E+00 0.  1.
          2   -1    0    0  501    0  0.00000000000E+00 -0.00000000000E+00 -0.16656257363E+03  0.16656257363E+03  0.00000000000E+00 0. -1.
         25    2    1    2    0    0 -0.33959951865E+02 -0.25708113633E+01  0.15423464069E+02  0.13055733471E+03  0.12508975577E+03 0.  0.
          5    1    3    3  502    0  0.27320423066E+01 -0.93544712315E+01  0.66402249287E+02  0.67243596703E+02  0.41800000000E+01 0. -1.
         -5    1    3    3    0  502 -0.36691994171E+02  0.67836598681E+01 -0.50978785218E+02  0.63313738002E+02  0.41800000000E+01 0. -1.
        -11    1    1    2    0    0  0.50967236175E+02  0.32668600930E+02 -0.45285947533E+02  0.75602339210E+02  0.00000000000E+00 0.  1.
         11    1    1    2    0    0 -0.17007284310E+02 -0.30097789567E+02 -0.42397592487E+02  0.54705397404E+02  0.00000000000E+00 0. -1.
</event>
<event>
 7    1  0.2793378E-009  0.1275143E+03  0.7561462E-02  0.1231191E+00
         -1   -1    0    0    0  501 -0.00000000000E+00  0.00000000000E+00  0.76091915275E+02  0.76091915275E+02  0.00000000000E+00 0.  1.
          1   -1    0    0  501    0  0.00000000000E+00 -0.00000000000E+00 -0.25741167745E+03  0.25741167745E+03  0.00000000000E+00 0. -1.
         25    2    1    2    0    0  0.86974974462E+02 -0.15332199402E+02 -0.10426442963E+03  0.18525698899E+03  0.12509739471E+03 0.  0.
          5    1    3    3  502    0  0.89585716351E+02  0.39517543605E+02 -0.64325705580E+02  0.11722843352E+03  0.41800000000E+01 0. -1.
         -5    1    3    3    0  502 -0.26107418883E+01 -0.54849743007E+02 -0.39938724052E+02  0.68028555475E+02  0.41800000000E+01 0. -1.
        -11    1    1    2    0    0 -0.33260434638E+02 -0.18903590547E+02  0.10779205779E+02  0.39746616524E+02  0.00000000000E+00 0.  1.
         11    1    1    2    0    0 -0.53714539825E+02  0.34235789949E+02 -0.87834538327E+02  0.10849998721E+03  0.00000000000E+00 0. -1.
</event>
<event>
 7    1  0.2766180E-009  0.1514510E+03  0.7561462E-02  0.1198701E+00
         -2   -1    0    0    0  501 -0.00000000000E+00  0.00000000000E+00  0.11529960157E+03  0.11529960157E+03  0.00000000000E+00 0.  1.
          2   -1    0    0  501    0  0.00000000000E+00 -0.00000000000E+00 -0.24355230007E+03  0.24355230007E+03  0.00000000000E+00 0. -1.
         25    2    1    2    0    0 -0.10863946015E+03 -0.45746065568E+02 -0.12166913017E+03  0.21058428668E+03  0.12508848765E+03 0.  0.
          5    1    3    3  502    0 -0.13461747713E+03 -0.43650864051E+02 -0.84114526725E+02  0.16468147767E+03  0.41800000000E+01 0. -1.
         -5    1    3    3    0  502  0.25978016976E+02 -0.20952015167E+01 -0.37554603444E+02  0.45902809013E+02  0.41800000000E+01 0. -1.
        -11    1    1    2    0    0  0.96216924560E+01  0.33857605232E+02  0.25545288044E+02  0.43491104137E+02  0.00000000000E+00 0. -1.
         11    1    1    2    0    0  0.99017767698E+02  0.11888460335E+02 -0.32128856370E+02  0.10477651083E+03  0.00000000000E+00 0.  1.
</event>
<event>
 7    1  0.2766180E-009  0.9133511E+02  0.7561462E-02  0.1299650E+00
         -2   -1    0    0    0  501 -0.00000000000E+00  0.00000000000E+00  0.72595868521E+02  0.72595868521E+02  0.00000000000E+00 0.  1.
          2   -1    0    0  501    0  0.00000000000E+00 -0.00000000000E+00 -0.17426662317E+03  0.17426662317E+03  0.00000000000E+00 0. -1.
         25    2    1    2    0    0  0.18199264518E+02 -0.19635680576E+02 -0.33823494605E+02  0.13231956824E+03  0.12509063183E+03 0.  0.
          5    1    3    3  502    0  0.14230677147E+02 -0.56847217036E+02  0.23878862788E+02  0.63417590185E+02  0.41800000000E+01 0. -1.
         -5    1    3    3    0  502  0.39685873719E+01  0.37211536460E+02 -0.57702357393E+02  0.68901978057E+02  0.41800000000E+01 0. -1.
        -11    1    1    2    0    0 -0.39989361754E+02 -0.17148330905E+02 -0.13835240977E+02  0.45657728800E+02  0.00000000000E+00 0.  1.
         11    1    1    2    0    0  0.21790097235E+02  0.36784011481E+02 -0.54012019062E+02  0.68885194645E+02  0.00000000000E+00 0. -1.
</event>
<event>
 7    1  0.2766180E-009  0.1360929E+03  0.7561462E-02  0.1218685E+00
          1   -1    0    0  501    0  0.00000000000E+00  0.00000000000E+00  0.10810458617E+03  0.10810458617E+03  0.00000000000E+00 0. -1.
         -1   -1    0    0    0  501 -0.00000000000E+00 -0.00000000000E+00 -0.19555020082E+03  0.19555020082E+03  0.00000000000E+00 0.  1.
         25    2    1    2    0    0  0.70819223261E+02 -0.52716800684E+02 -0.78635098983E+01  0.15330800856E+03  0.12508831777E+03 0.  0.
          5    1    3    3  502    0 -0.15301831207E+02 -0.56227025847E+02 -0.27864532506E+02  0.64726571403E+02  0.41800000000E+01 0. -1.
         -5    1    3    3    0  502  0.86121054468E+02  0.35102251630E+01  0.20001022608E+02  0.88581437157E+02  0.41800000000E+01 0. -1.
        -11    1    1    2    0    0 -0.29065614919E+01  0.59179426092E+02 -0.34226295655E+02  0.68425813013E+02  0.00000000000E+00 0. -1.
         11    1    1    2    0    0 -0.67912661769E+02 -0.64626254077E+01 -0.45355809104E+02  0.81920965419E+02  0.00000000000E+00 0.  1.
</event>
<event>
 6    1  0.2766180E-009  0.1007456E+03  0.7561462E-02  0.1278736E+00
         -3   -1    0    0    0  501 -0.00000000000E+00  0.00000000000E+00  0.13384859352E+04  0.13384859352E+04  0.00000000000E+00 0.  1.
          3   -1    0    0  501    0  0.00000000000E+00 -0.00000000000E+00 -0.11354889951E+02  0.11354889951E+02  0.00000000000E+00 0. -1.
          5    1    1    2  502    0  0.50625344166E+02  0.59145787756E+02  0.31795272771E+03  0.32737220276E+03  0.41800000000E+01 0. -1.
         -5    1    1    2    0  502 -0.19623190081E+02 -0.18203586995E+02  0.59908195727E+03  0.59969417547E+03  0.41800000000E+01 0. -1.
        -11    1    1    2    0    0 -0.45070056115E+02 -0.58556081364E+02  0.36444754643E+03  0.37186306448E+03  0.00000000000E+00 0.  1.
         11    1    1    2    0    0  0.14067902031E+02  0.17613880603E+02  0.45648813854E+02  0.50911382457E+02  0.00000000000E+00 0. -1.
</event>
<event>
 7    1  0.2766180E-009  0.1533534E+03  0.7561462E-02  0.1196412E+00
          1   -1    0    0  501    0  0.00000000000E+00  0.00000000000E+00  0.85417968116E+03  0.85417968116E+03  0.00000000000E+00 0. -1.
         -1   -1    0    0    0  501 -0.00000000000E+00 -0.00000000000E+00 -0.30288074567E+02  0.30288074567E+02  0.00000000000E+00 0.  1.
         25    2    1    2    0    0 -0.10882693278E+03 -0.22950688014E+02  0.36698992202E+03  0.40335959021E+03  0.12508925122E+03 0.  0.
          5    1    3    3  502    0  0.15517688705E+02 -0.27741306594E+02  0.14815758401E+03  0.15158667770E+03  0.41800000000E+01 0. -1.
         -5    1    3    3    0  502 -0.12434462148E+03  0.47906185802E+01  0.21883233801E+03  0.25177291251E+03  0.41800000000E+01 0. -1.
        -11    1    1    2    0    0  0.73927110851E+01  0.45609979511E+02  0.12235934553E+03  0.13079270563E+03  0.00000000000E+00 0.  1.
         11    1    1    2    0    0  0.10143422169E+03 -0.22659291496E+02  0.33454233904E+03  0.35031545988E+03  0.00000000000E+00 0. -1.
</event>
<event>
 7    1  0.2766180E-009  0.1362079E+03  0.7561462E-02  0.1218524E+00
          2   -1    0    0  501    0  0.00000000000E+00  0.00000000000E+00  0.16413671378E+03  0.16413671378E+03  0.00000000000E+00 0. -1.
         -2   -1    0    0    0  501 -0.00000000000E+00 -0.00000000000E+00 -0.13748855256E+03  0.13748855256E+03  0.00000000000E+00 0.  1.
         25    2    1    2    0    0  0.40917147048E+02  0.82385377079E+02 -0.34951613587E+02  0.15915863954E+03  0.12509314118E+03 0.  0.
          5    1    3    3  502    0  0.43047244564E+02  0.11028116004E+03 -0.58931480244E+01  0.11860523225E+03  0.41800000000E+01 0.  1.
         -5    1    3    3    0  502 -0.21300975160E+01 -0.27895782957E+02 -0.29058465562E+02  0.40553407293E+02  0.41800000000E+01 0.  1.
        -11    1    1    2    0    0  0.16150199678E+01 -0.83115506087E+02  0.54332960255E+02  0.99311964091E+02  0.00000000000E+00 0. -1.
         11    1    1    2    0    0 -0.42532167016E+02  0.73012900797E+00  0.72668145520E+01  0.43154662705E+02  0.00000000000E+00 0.  1.
</event>
<event>
 7    1  0.2766180E-009  0.8808769E+02  0.7561462E-02  0.1307550E+00
          1   -1    0    0  501    0  0.00000000000E+00  0.00000000000E+00  0.29335654540E+03  0.29335654540E+03  0.00000000000E+00 0. -1.
         -1   -1    0    0    0  501 -0.00000000000E+00 -0.00000000000E+00 -0.44278040366E+02  0.44278040366E+02  0.00000000000E+00 0.  1.
         25    2    1    2    0    0 -0.10261280706E+02  0.51669413129E+01  0.90648349674E+02  0.15491274224E+03  0.12509533662E+03 0.  0.
          5    1    3    3  502    0 -0.46068257175E+02 -0.15027443090E+02  0.10118676686E+03  0.11226906320E+03  0.41800000000E+01 0.  1.
         -5    1    3    3    0  502  0.35806976469E+02  0.20194384403E+02 -0.10538417182E+02  0.42643679039E+02  0.41800000000E+01 0.  1.
        -11    1    1    2    0    0 -0.35870904067E+02 -0.15279564563E+02  0.43222022278E+02  0.58209364037E+02  0.00000000000E+00 0.  1.
         11    1    1    2    0    0  0.46132184773E+02  0.10112623251E+02  0.11520813308E+03  0.12451247949E+03  0.00000000000E+00 0. -1.
</event>
<event>
 7    1  0.2766180E-009  0.1057083E+03  0.7561462E-02  0.1268730E+00
         -2   -1    0    0    0  501 -0.00000000000E+00  0.00000000000E+00  0.79029489866E+03  0.79029489866E+03  0.00000000000E+00 0.  1.
          2   -1    0    0  501    0  0.00000000000E+00 -0.00000000000E+00 -0.26966664518E+02  0.26966664518E+02  0.00000000000E+00 0. -1.
         25    2    1    2    0    0  0.71959104166E+02  0.25960142001E+02  0.24388000988E+03  0.28456313229E+03  0.12508667153E+03 0.  0.
          5    1    3    3  502    0  0.37380205780E+02  0.42775063289E+02  0.24850619527E+02  0.62145084395E+02  0.41800000000E+01 0. -1.
         -5    1    3    3    0  502  0.34578898385E+02 -0.16814921288E+02  0.21902939035E+03  0.22241804790E+03  0.41800000000E+01 0. -1.
        -11    1    1    2    0    0 -0.16420648493E+02 -0.51933526453E+02  0.29711262336E+03  0.30206396645E+03  0.00000000000E+00 0. -1.
         11    1    1    2    0    0 -0.55538455673E+02  0.25973384452E+02  0.22233560091E+03  0.23063446444E+03  0.00000000000E+00 0.  1.
</event>
<event>
 7    1  0.2766180E-009  0.9967579E+02  0.7561462E-02  0.1280979E+00
          2   -1    0    0  501    0  0.00000000000E+00  0.00000000000E+00  0.51843946253E+03  0.51843946253E+03  0.00000000000E+00 0. -1.
         -2   -1    0    0    0  501 -0.00000000000E+00 -0.00000000000E+00 -0.30067826172E+02  0.30067826172E+02  0.00000000000E+00 0.  1.
         25    2    1    2    0    0  0.35258743393E+02 -0.41400789755E+02  0.23045703532E+03  0.26780041837E+03  0.12509762017E+03 0.  0.
          5    1    3    3  502    0  0.42384520885E+01  0.20212230981E+02  0.18243020095E+03  0.18364299436E+03  0.41800000000E+01 0. -1.
         -5    1    3    3    0  502  0.31020291305E+02 -0.61613020736E+02  0.48026834370E+02  0.84157424013E+02  0.41800000000E+01 0. -1.
        -11    1    1    2    0    0  0.23316105274E+02  0.44795182735E+02  0.14347474801E+03  0.15210276946E+03  0.00000000000E+00 0. -1.
         11    1    1    2    0    0 -0.58574848667E+02 -0.33943929798E+01  0.11443985302E+03  0.12860410087E+03  0.00000000000E+00 0.  1.
</event>
<event>
 7    1  0.2766180E-009  0.5201768E+02  0.7561462E-02  0.1434753E+00
         -2   -1    0    0    0  501 -0.00000000000E+00  0.00000000000E+00  0.58505568820E+02  0.58505568820E+02  0.00000000000E+00 0.  1.
          2   -1    0    0  501    0  0.00000000000E+00 -0.00000000000E+00 -0.20093329829E+03  0.20093329829E+03  0.00000000000E+00 0. -1.
         25    2    1    2    0    0 -0.82425182185E+01 -0.45128525622E+01 -0.75750033470E+02  0.14653987385E+03  0.12509021590E+03 0.  0.
          5    1    3    3  502    0  0.87394780241E+01  0.17116023308E+02  0.30731126300E+02  0.36485767823E+02  0.41800000000E+01 0.  1.
         -5    1    3    3    0  502 -0.16981996243E+02 -0.21628875870E+02 -0.10648115977E+03  0.11005410603E+03  0.41800000000E+01 0.  1.
        -11    1    1    2    0    0 -0.11761655361E+02 -0.21038154818E+02  0.12628493285E+02  0.27210647505E+02  0.00000000000E+00 0.  1.
         11    1    1    2    0    0  0.20004173580E+02  0.25551007381E+02 -0.79306189282E+02  0.85688345749E+02  0.00000000000E+00 0. -1.
</event>
<event>
 7    1  0.2766180E-009  0.1165448E+03  0.7561462E-02  0.1248908E+00
          1   -1    0    0  501    0  0.00000000000E+00  0.00000000000E+00  0.33032638659E+03  0.33032638659E+03  0.00000000000E+00 0. -1.
         -1   -1    0    0    0  501 -0.00000000000E+00 -0.00000000000E+00 -0.48660089185E+02  0.48660089185E+02  0.00000000000E+00 0.  1.
         25    2    1    2    0    0 -0.48588728085E+02 -0.42028624096E+02  0.18869085076E+03  0.23532548646E+03  0.12508628092E+03 0.  0.
          5    1    3    3  502    0 -0.52788190639E+02  0.34431233858E+02  0.97538268304E+02  0.11620365364E+03  0.41800000000E+01 0.  1.
         -5    1    3    3    0  502  0.41994625534E+01 -0.76459857954E+02  0.91152582460E+02  0.11912183282E+03  0.41800000000E+01 0.  1.
        -11    1    1    2    0    0 -0.15672777126E+02 -0.13102016575E+01 -0.69528201190E+01  0.17195763398E+02  0.00000000000E+00 0.  1.
         11    1    1    2    0    0  0.64261505211E+02  0.43338825754E+02  0.99928266761E+02  0.12646522592E+03  0.00000000000E+00 0. -1.
</event>
<event>
 7    1  0.2766180E-009  0.1346049E+03  0.7561462E-02  0.1220779E+00
          4   -1    0    0  501    0  0.00000000000E+00  0.00000000000E+00  0.41681038891E+02  0.41681038891E+02  0.00000000000E+00 0. -1.
         -4   -1    0    0    0  501 -0.00000000000E+00 -0.00000000000E+00 -0.46556399660E+03  0.46556399660E+03  0.00000000000E+00 0.  1.
         25    2    1    2    0    0 -0.35099025715E+01 -0.86022721609E+02 -0.19539722086E+03  0.24746591931E+03  0.12508828583E+03 0.  0.
          5    1    3    3  502    0  0.33946733863E+02 -0.10095945633E+03 -0.16642746510E+03  0.19763796726E+03  0.41800000000E+01 0. -1.
         -5    1    3    3    0  502 -0.37456636434E+02  0.14936734724E+02 -0.28969755762E+02  0.49827952056E+02  0.41800000000E+01 0. -1.
        -11    1    1    2    0    0 -0.40077357221E+02  0.57105400240E+02 -0.15039384103E+03  0.16578760122E+03  0.00000000000E+00 0. -1.
         11    1    1    2    0    0  0.43587259792E+02  0.28917321368E+02 -0.78091895814E+02  0.93991514953E+02  0.00000000000E+00 0.  1.
</event>
<event>
 7    1  0.2766180E-009  0.9098980E+02  0.7561462E-02  0.1300472E+00
          1   -1    0    0  501    0  0.00000000000E+00  0.00000000000E+00  0.13014380639E+03  0.13014380639E+03  0.00000000000E+00 0. -1.
         -1   -1    0    0    0  501 -0.00000000000E+00 -0.00000000000E+00 -0.10831676039E+03  0.10831676039E+03  0.00000000000E+00 0.  1.
         25    2    1    2    0    0  0.19795557478E+02  0.17676801864E+02  0.51413008217E+02  0.13783262653E+03  0.12510076780E+03 0.  0.
          5    1    3    3  502    0 -0.40489136222E+02  0.79410582853E+01  0.63109616967E+02  0.75516400287E+02  0.41800000000E+01 0.  1.
         -5    1    3    3    0  502  0.60284693699E+02  0.97357435787E+01 -0.11696608749E+02  0.62316226247E+02  0.41800000000E+01 0.  1.
        -11    1    1    2    0    0 -0.41094377255E+02  0.11963212780E+02 -0.44002758650E+02  0.61384925436E+02  0.00000000000E+00 0.  1.
         11    1    1    2    0    0  0.21298819777E+02 -0.29640014644E+02  0.14416796438E+02  0.39243014812E+02  0.00000000000E+00 0. -1.
</event>
<event>
 7    1  0.2766180E-009  0.8815793E+02  0.7561462E-02  0.1307375E+00
          2   -1    0    0  501    0  0.00000000000E+00  0.00000000000E+00  0.22693430151E+02  0.22693430151E+02  0.00000000000E+00 0. -1.
         -2   -1    0    0    0  501 -0.00000000000E+00 -0.00000000000E+00 -0.61625260816E+03  0.61625260816E+03  0.00000000000E+00 0.  1.
         25    2    1    2    0    0 -0.19604736151E+02 -0.43197949145E+02 -0.33786343005E+03  0.36338617708E+03  0.12508959924E+03 0.  0.
          5    1    3    3  502    0 -0.19274567178E+02  0.19454366055E+02 -0.98274745212E+01  0.29394437466E+02  0.41800000000E+01 0. -1.
         -5    1    3    3    0  502 -0.33016897285E+00 -0.62652315200E+02 -0.32803595553E+03  0.33399173962E+03  0.41800000000E+01 0. -1.
        -11    1    1    2    0    0 -0.27274926326E+02  0.16127358123E+02 -0.17840397114E+03  0.18119599942E+03  0.00000000000E+00 0.  1.
         11    1    1    2    0    0  0.46879662477E+02  0.27070591023E+02 -0.77291776810E+02  0.94363861804E+02  0.00000000000E+00 0. -1.
</event>
<event>
 7    1  0.2766180E-009  0.9081558E+02  0.7561462E-02  0.1300889E+00
         -4   -1    0    0    0  501 -0.00000000000E+00  0.00000000000E+00  0.36407888512E+03  0.36407888512E+03  0.00000000000E+00 0.  1.
          4   -1    0    0  501    0  0.00000000000E+00 -0.00000000000E+00 -0.33573731372E+02  0.33573731372E+02  0.00000000000E+00 0. -1.
         25    2    1    2    0    0  0.19667564491E+02 -0.89947860980E+01  0.22143020595E+03  0.25523727015E+03  0.12508800381E+03 0.  0.
          5    1    3    3  502    0 -0.28637548997E+02  0.36502922602E+02  0.37963338049E+02  0.60093760132E+02  0.41800000000E+01 0. -1.
         -5    1    3    3    0  502  0.48305113487E+02 -0.45497708700E+02  0.18346686790E+03  0.19514351002E+03  0.41800000000E+01 0. -1.
        -11    1    1    2    0    0  0.60948644665E+01  0.32871693732E+02  0.65863262263E+01  0.34074555241E+02  0.00000000000E+00 0. -1.
         11    1    1    2    0    0 -0.25762428957E+02 -0.23876907634E+02  0.10248862157E+03  0.10834079110E+03  0.00000000000E+00 0.  1.
</event>
<event>
 7    1  0.2766180E-009  0.1607451E+03  0.7561462E-02  0.1187858E+00
         -1   -1    0    0    0  501 -0.00000000000E+00  0.00000000000E+00  0.13641548063E+03  0.13641548063E+03  0.00000000000E+00 0.  1.
          1   -1    0    0  501    0  0.00000000000E+00 -0.00000000000E+00 -0.25748751036E+03  0.25748751036E+03  0.00000000000E+00 0. -1.
         25    2    1    2    0    0 -0.14263000986E+02  0.13517062420E+03  0.92715426470E+01  0.18495085602E+03  0.12508527810E+03 0.  0.
          5    1    3    3  502    0  0.19003553819E+02  0.14766085662E+03  0.71448023997E+01  0.14910863234E+03  0.41800000000E+01 0. -1.
         -5    1    3    3    0  502 -0.33266554805E+02 -0.12490232425E+02  0.21267402473E+01  0.35842223685E+02  0.41800000000E+01 0. -1.
        -11    1    1    2    0    0  0.64242723862E+01 -0.11428689453E+03 -0.48840071277E+02  0.12445126797E+03  0.00000000000E+00 0.  1.
         11    1    1    2    0    0  0.78387285994E+01 -0.20883729668E+02 -0.81503501102E+02  0.84500866994E+02  0.00000000000E+00 0. -1.
</event>
<event>
 7    1  0.2766180E-009  0.1640977E+03  0.7561462E-02  0.1184147E+00
          2   -1    0    0  501    0  0.00000000000E+00  0.00000000000E+00  0.14947368147E+04  0.14947368147E+04  0.00000000000E+00 0. -1.
         -2   -1    0    0    0  501 -0.00000000000E+00 -0.00000000000E+00 -0.25248583078E+02  0.25248583078E+02  0.00000000000E+00 0.  1.
         25    2    1    2    0    0  0.14709402546E+03 -0.51353198058E+02  0.61260427455E+03  0.64436415392E+03  0.12508941754E+03 0.  0.
          5    1    3    3  502    0  0.31938841837E+02 -0.17475975820E+02  0.24409418543E+02  0.44031709737E+02  0.41800000000E+01 0. -1.
         -5    1    3    3    0  502  0.11515518362E+03 -0.33877222238E+02  0.58819485601E+03  0.60033244418E+03  0.41800000000E+01 0. -1.
        -11    1    1    2    0    0 -0.64691147977E+01  0.28188169676E+02  0.66891130943E+02  0.72875549774E+02  0.00000000000E+00 0.  1.
         11    1    1    2    0    0 -0.14062491066E+03  0.23165028382E+02  0.78999282612E+03  0.80274569408E+03  0.00000000000E+00 0. -1.
</event>
<event>
 7    1  0.2766180E-009  0.7518255E+02  0.7561462E-02  0.1343307E+00
         -1   -1    0    0    0  501 -0.00000000000E+00  0.00000000000E+00  0.53977282385E+02  0.53977282385E+02  0.00000000000E+00 0.  1.
          1   -1    0    0  501    0  0.00000000000E+00 -0.00000000000E+00 -0.41868549924E+03  0.41868549924E+03  0.00000000000E+00 0. -1.
         25    2    1    2    0    0  0.21453042285E+02 -0.48086927299E+02 -0.33361707628E+03  0.36016789642E+03  0.12509186395E+03 0.  0.
          5    1    3    3  502    0 -0.74033827345E+01  0.38947569386E+01 -0.27952243086E+03  0.27967881751E+03  0.41800000000E+01 0.  1.
         -5    1    3    3    0  502  0.28856425019E+02 -0.51981684237E+02 -0.54094645415E+02  0.80489078909E+02  0.41800000000E+01 0.  1.
        -11    1    1    2    0    0  0.16647112613E+02 -0.37654033929E+01 -0.43710065590E+02  0.46924135101E+02  0.00000000000E+00 0.  1.
         11    1    1    2    0    0 -0.38100154898E+02  0.51852330692E+02  0.12618925012E+02  0.65570750109E+02  0.00000000000E+00 0. -1.
</event>
<event>
 7    1  0.2766180E-009  0.7519179E+02  0.7561462E-02  0.1343278E+00
         -1   -1    0    0    0  501 -0.00000000000E+00  0.00000000000E+00  0.17803192581E+03  0.17803192581E+03  0.00000000000E+00 0.  1.
          1   -1    0    0  501    0  0.00000000000E+00 -0.00000000000E+00 -0.26922466982E+03  0.26922466982E+03  0.00000000000E+00 0. -1.
         25    2    1    2    0    0 -0.59501838529E+02 -0.38713009583E+02  0.13276809388E+03  0.19574007932E+03  0.12509055121E+03 0.  0.
          5    1    3    3  502    0 -0.38884958974E+02 -0.10919484173E+02  0.15102713553E+03  0.15639035532E+03  0.41800000000E+01 0. -1.
         -5    1    3    3    0  502 -0.20616879555E+02 -0.27793525410E+02 -0.18259041651E+02  0.39349724006E+02  0.41800000000E+01 0. -1.
        -11    1    1    2    0    0  0.17459528888E+02  0.25400100524E+02 -0.90436304095E+01  0.32121449323E+02  0.00000000000E+00 0.  1.
         11    1    1    2    0    0  0.42042309641E+02  0.13312909059E+02 -0.21491720748E+03  0.21939506699E+03  0.00000000000E+00 0. -1.
</event>
<event>
 7    1  0.2766180E-009  0.1269351E+03  0.7561462E-02  0.1232076E+00
         -2   -1    0    0    0  501 -0.00000000000E+00  0.00000000000E+00  0.31250578781E+02  0.31250578781E+02  0.00000000000E+00 0.  1.
          2   -1    0    0  501    0  0.00000000000E+00 -0.00000000000E+00 -0.75873790964E+03  0.75873790964E+03  0.00000000000E+00 0. -1.
         25    2    1    2    0    0  0.88575500729E+02 -0.42359631463E+02 -0.50475968419E+03  0.52921540839E+03  0.12508657796E+03 0.  0.
          5    1    3    3  502    0  0.61749092647E+02  0.85246019028E+01 -0.84879593283E+02  0.10539277507E+03  0.41800000000E+01 0.  1.
         -5    1    3    3    0  502  0.26826408083E+02 -0.50884233365E+02 -0.41988009091E+03  0.42382263332E+03  0.41800000000E+01 0.  1.
        -11    1    1    2    0    0 -0.10591089614E+03  0.46854893601E+02 -0.17554332567E+03  0.21030444161E+03  0.00000000000E+00 0.  1.
         11    1    1    2    0    0  0.17335395410E+02 -0.44952621387E+01 -0.47184321004E+02  0.50468638424E+02  0.00000000000E+00 0. -1.
</event>
<event>
 7    1  0.2766180E-009  0.7432471E+02  0.7561462E-02  0.1345975E+00
          1   -1    0    0  501    0  0.00000000000E+00  0.00000000000E+00  0.86498001547E+03  0.86498001547E+03  0.00000000000E+00 0. -1.
         -1   -1    0    0    0  501 -0.00000000000E+00 -0.00000000000E+00 -0.18733676316E+02  0.18733676316E+02  0.00000000000E+00 0.  1.
         25    2    1    2    0    0 -0.16693861102E+02  0.27225498103E+02  0.67358677723E+03  0.68584793819E+03  0.12509330560E+03 0.  0.
          5    1    3    3  502    0 -0.20695128872E+02  0.44734282994E+02  0.66247372021E+03  0.66431795610E+03  0.41800000000E+01 0.  1.
         -5    1    3    3    0  502  0.40012677694E+01 -0.17508784891E+02  0.11113057027E+02  0.21529982085E+02  0.41800000000E+01 0.  1.
        -11    1    1    2    0    0  0.40835958497E+02  0.42705389715E+01  0.32997057104E+02  0.52674650326E+02  0.00000000000E+00 0.  1.
         11    1    1    2    0    0 -0.24142097395E+02 -0.31496037075E+02  0.13966250481E+03  0.14519110327E+03  0.00000000000E+00 0. -1.
</event>
<event>
 7    1  0.2766180E-009  0.1149543E+03  0.7561462E-02  0.1251661E+00
         -1   -1    0    0    0  501 -0.00000000000E+00  0.00000000000E+00  0.62789008282E+02  0.62789008282E+02  0.00000000000E+00 0.  1.
          1   -1    0    0  501    0  0.00000000000E+00 -0.00000000000E+00 -0.46027600760E+03  0.46027600760E+03  0.00000000000E+00 0. -1.
         25    2    1    2    0    0 -0.43044162300E+02 -0.62678949988E+02 -0.48359084127E+02  0.15416704763E+03  0.12508967534E+03 0.  0.
          5    1    3    3  502    0  0.15979246505E+02  0.87814716360E+01 -0.57949887619E+02  0.60894272621E+02  0.41800000000E+01 0.  1.
         -5    1    3    3    0  502 -0.59023408805E+02 -0.71460421624E+02  0.95908034924E+01  0.93272775006E+02  0.41800000000E+01 0.  1.
        -11    1    1    2    0    0 -0.24765133715E+02 -0.18287445481E+01 -0.90973316466E+02  0.94301646132E+02  0.00000000000E+00 0. -1.
         11    1    1    2    0    0  0.67809296015E+02  0.64507694536E+02 -0.25815459872E+03  0.27459632212E+03  0.00000000000E+00 0.  1.
</event>
<event>
 7    1  0.2766180E-009  0.1221873E+03  0.7561462E-02  0.1239532E+00
          1   -1    0    0  501    0  0.00000000000E+00  0.00000000000E+00  0.16824962841E+04  0.16824962841E+04  0.00000000000E+00 0. -1.
         -1   -1    0    0    0  501 -0.00000000000E+00 -0.00000000000E+00 -0.12527476841E+02  0.12527476841E+02  0.00000000000E+00 0.  1.
         25    2    1    2    0    0  0.61015358262E+02 -0.16159444627E+02  0.11792389479E+04  0.11875337838E+04  0.12509192530E+03 0.  0.
          5    1    3    3  502    0  0.87793150357E+02 -0.41326687342E+02  0.98716693950E+03  0.99193324936E+03  0.41800000000E+01 0.  1.
         -5    1    3    3    0  502 -0.26777792095E+02  0.25167242716E+02  0.19207200837E+03  0.19560053440E+03  0.41800000000E+01 0.  1.
        -11    1    1    2    0    0 -0.83834444880E+02  0.29227453887E+01  0.45717319555E+03  0.46480542953E+03  0.00000000000E+00 0. -1.
         11    1    1    2    0    0  0.22819086619E+02  0.13236699238E+02  0.33556663812E+02  0.42684547638E+02  0.00000000000E+00 0.  1.
</event>
<event>
 7    1  0.2766180E-009  0.1656604E+03  0.7561462E-02  0.1182450E+00
         -3   -1    0    0    0  501 -0.00000000000E+00  0.00000000000E+00  0.24217027418E+03  0.24217027418E+03  0.00000000000E+00 0.  1.
          3   -1    0    0  501    0  0.00000000000E+00 -0.00000000000E+00 -0.11654304946E+03  0.11654304946E+03  0.00000000000E+00 0. -1.
         25    2    1    2    0    0  0.67238949204E+02 -0.10754148204E+03  0.57425421897E+02  0.18716736540E+03  0.12509075481E+03 0.  0.
          5    1    3    3  502    0 -0.36982609200E+02 -0.31935274925E+02  0.20510745706E+02  0.53157673549E+02  0.41800000000E+01 0. -1.
         -5    1    3    3    0  502  0.10422155840E+03 -0.75606207115E+02  0.36914676192E+02  0.13400969185E+03  0.41800000000E+01 0. -1.
        -11    1    1    2    0    0  0.42591880634E+01  0.74619046446E+02  0.52353316572E+02  0.91252465893E+02  0.00000000000E+00 0.  1.
         11    1    1    2    0    0 -0.71498137268E+02  0.32922435594E+02  0.15848486250E+02  0.80293492355E+02  0.00000000000E+00 0. -1.
</event>
<event>
 7    1  0.2766180E-009  0.8466521E+02  0.7561462E-02  0.1316310E+00
          4   -1    0    0  501    0  0.00000000000E+00  0.00000000000E+00  0.27489557911E+03  0.27489557911E+03  0.00000000000E+00 0. -1.
         -4   -1    0    0    0  501 -0.00000000000E+00 -0.00000000000E+00 -0.65584731830E+02  0.65584731830E+02  0.00000000000E+00 0.  1.
         25    2    1    2    0    0 -0.30424790758E+02  0.73564531957E+02  0.12578654844E+03  0.19444188066E+03  0.12509188995E+03 0.  0.
          5    1    3    3  502    0 -0.73762595924E+01  0.52995257296E+02  0.14716237187E+03  0.15664336116E+03  0.41800000000E+01 0. -1.
         -5    1    3    3    0  502 -0.23048531166E+02  0.20569274661E+02 -0.21375823428E+02  0.37798519497E+02  0.41800000000E+01 0. -1.
        -11    1    1    2    0    0 -0.55211847539E+01 -0.11717717837E+02  0.72514005683E+02  0.73661858601E+02  0.00000000000E+00 0. -1.
         11    1    1    2    0    0  0.35945975512E+02 -0.61846814120E+02  0.11010293151E+02  0.72376571676E+02  0.00000000000E+00 0.  1.
</event>
<event>
 7    1  0.2766180E-009  0.1153376E+03  0.7561462E-02  0.1250993E+00
          2   -1    0    0  501    0  0.00000000000E+00  0.00000000000E+00  0.32101042523E+02  0.32101042523E+02  0.00000000000E+00 0. -1.
         -2   -1    0    0    0  501 -0.00000000000E+00 -0.00000000000E+00 -0.43266289816E+03  0.43266289816E+03  0.00000000000E+00 0.  1.
         25    2    1    2    0    0 -0.41346103184E+02 -0.26261030416E+02 -0.21887979834E+03  0.25681840896E+03  0.12509271399E+03 0.  0.
          5    1    3    3  502    0 -0.15078922280E+02 -0.73640249491E+02 -0.15923846847E+03  0.17613807789E+03  0.41800000000E+01 0.  1.
         -5    1    3    3    0  502 -0.26267180904E+02  0.47379219076E+02 -0.59641329872E+02  0.80680331071E+02  0.41800000000E+01 0.  1.
        -11    1    1    2    0    0 -0.89657282103E+01  0.46107987780E+02 -0.89107189153E+02  0.10072944941E+03  0.00000000000E+00 0.  1.
         11    1    1    2    0    0  0.50311831394E+02 -0.19846957364E+02 -0.92574868142E+02  0.10721608231E+03  0.00000000000E+00 0. -1.
</event>
<event>
 7    1  0.2766180E-009  0.1163236E+03  0.7561462E-02  0.1249288E+00
          1   -1    0    0  501    0  0.00000000000E+00  0.00000000000E+00  0.96424353216E+03  0.96424353216E+03  0.00000000000E+00 0. -1.
         -1   -1    0    0    0  501 -0.00000000000E+00 -0.00000000000E+00 -0.20480862974E+02  0.20480862974E+02  0.00000000000E+00 0.  1.
         25    2    1    2    0    0  0.16322284816E+02  0.79055550853E+02  0.65976187720E+03  0.67635487501E+03  0.12511588726E+03 0.  0.
          5    1    3    3  502    0 -0.71760416061E+01 -0.31245221893E+02  0.21905907938E+03  0.22143195822E+03  0.41800000000E+01 0.  1.
         -5    1    3    3    0  502  0.23498326423E+02  0.11030077275E+03  0.44070279782E+03  0.45492291679E+03  0.41800000000E+01 0.  1.
        -11    1    1    2    0    0  0.42618633036E+01 -0.57503144415E+02  0.26879807504E+03  0.27491304123E+03  0.00000000000E+00 0. -1.
         11    1    1    2    0    0 -0.20584148120E+02 -0.21552406438E+02  0.15202716952E+02  0.33456478891E+02  0.00000000000E+00 0.  1.
</event>
<event>
 7    1  0.2766180E-009  0.1485370E+03  0.7561462E-02  0.1202282E+00
          1   -1    0    0  501    0  0.00000000000E+00  0.00000000000E+00  0.64176875703E+02  0.64176875703E+02  0.00000000000E+00 0. -1.
         -1   -1    0    0    0  501 -0.00000000000E+00 -0.00000000000E+00 -0.41623371725E+03  0.41623371725E+03  0.00000000000E+00 0.  1.
         25    2    1    2    0    0  0.73392119678E+02 -0.97888745850E+02 -0.19101735484E+03  0.25904260196E+03  0.12508728947E+03 0.  0.
          5    1    3    3  502    0 -0.26134378520E+02 -0.29899745711E+02 -0.10082203818E+03  0.10844148798E+03  0.41800000000E+01 0.  1.
         -5    1    3    3    0  502  0.99526498199E+02 -0.67989000139E+02 -0.90195316665E+02  0.15060111398E+03  0.41800000000E+01 0.  1.
        -11    1    1    2    0    0 -0.84078889419E+02  0.90600256428E+02 -0.16646884541E+03  0.20733919697E+03  0.00000000000E+00 0.  1.
         11    1    1    2    0    0  0.10686769741E+02  0.72884894218E+01  0.54293587033E+01  0.14028794014E+02  0.00000000000E+00 0. -1.
</event>
<event>
 7    1  0.2766180E-009  0.1613631E+03  0.7561462E-02  0.1187166E+00
          1   -1    0    0  501    0  0.00000000000E+00  0.00000000000E+00  0.27133240662E+03  0.27133240662E+03  0.00000000000E+00 0. -1.
         -1   -1    0    0    0  501 -0.00000000000E+00 -0.00000000000E+00 -0.13138630841E+03  0.13138630841E+03  0.00000000000E+00 0.  1.
         25    2    1    2    0    0 -0.22289366249E+02 -0.13216049340E+03  0.29910948349E+01  0.18335449033E+03  0.12508681230E+03 0.  0.
          5    1    3    3  502    0  0.28884468158E+01 -0.12468106031E+03 -0.41513373305E+02  0.13150871640E+03  0.41800000000E+01 0.  1.
         -5    1    3    3    0  502 -0.25177813065E+02 -0.74794330904E+01  0.44504468140E+02  0.51845773931E+02  0.41800000000E+01 0.  1.
        -11    1    1    2    0    0  0.65366653673E+02  0.88376229034E+02  0.89173237590E+02  0.14154512910E+03  0.00000000000E+00 0. -1.
         11    1    1    2    0    0 -0.43077287424E+02  0.43784264366E+02  0.47781765788E+02  0.77819095598E+02  0.00000000000E+00 0.  1.
</event>
<event>
 7    1  0.2766180E-009  0.1197164E+03  0.7561462E-02  0.1243566E+00
          1   -1    0    0  501    0  0.00000000000E+00  0.00000000000E+00  0.72719235198E+03  0.72719235198E+03  0.00000000000E+00 0. -1.
         -1   -1    0    0    0  501 -0.00000000000E+00 -0.00000000000E+00 -0.23531182667E+02  0.23531182667E+02  0.00000000000E+00 0.  1.
         25    2    1    2    0    0 -0.56575689013E+02 -0.48434178291E+02  0.35436319824E+03  0.38310055755E+03  0.12508430244E+03 0.  0.
          5    1    3    3  502    0 -0.52228699985E+02  0.33715213052E+02  0.17398747916E+03  0.18480711025E+03  0.41800000000E+01 0.  1.
         -5    1    3    3    0  502 -0.43469890283E+01 -0.82149391343E+02  0.18037571908E+03  0.19829344731E+03  0.41800000000E+01 0.  1.
        -11    1    1    2    0    0  0.31641856005E+02  0.59567534225E+02  0.32208501443E+03  0.32907180782E+03  0.00000000000E+00 0.  1.
         11    1    1    2    0    0  0.24933833008E+02 -0.11133355934E+02  0.27212956650E+02  0.38551169274E+02  0.00000000000E+00 0. -1.
</event>
<event>
 7    1  0.2766180E-009  0.1020746E+03  0.7561462E-02  0.1275993E+00
         -2   -1    0    0    0  501 -0.00000000000E+00  0.00000000000E+00  0.47740260294E+02  0.47740260294E+02  0.00000000000E+00 0. -1.
          2   -1    0    0  501    0  0.00000000000E+00 -0.00000000000E+00 -0.30284375251E+03  0.30284375251E+03  0.00000000000E+00 0.  1.
         25    2    1    2    0    0 -0.16117275271E+01  0.26981008841E+02 -0.81839119371E+02  0.15190789497E+03  0.12509114513E+03 0.  0.
          5    1    3    3  502    0  0.57106622570E+02  0.21560823329E+02 -0.15632413197E+02  0.63149664974E+02  0.41800000000E+01 0.  1.
         -5    1    3    3    0  502 -0.58718350097E+02  0.54201855114E+01 -0.66206706173E+02  0.88758229993E+02  0.41800000000E+01 0.  1.
        -11    1    1    2    0    0  0.32181314855E+02 -0.39383257173E+02 -0.14978511312E+03  0.15818425359E+03  0.00000000000E+00 0.  1.
         11    1    1    2    0    0 -0.30569587328E+02  0.12402248332E+02 -0.23479259727E+02  0.40491864249E+02  0.00000000000E+00 0. -1.
</event>
<event>
 7    1  0.2766180E-009  0.1234115E+03  0.7561462E-02  0.1237573E+00
          2   -1    0    0  501    0  0.00000000000E+00  0.00000000000E+00  0.24103315561E+03  0.24103315561E+03  0.00000000000E+00 0. -1.
         -2   -1    0    0    0  501 -0.00000000000E+00 -0.00000000000E+00 -0.77288163902E+02  0.77288163902E+02  0.00000000000E+00 0.  1.
         25    2    1    2    0    0 -0.81433436382E+02  0.27431554393E+01  0.10576210645E+03  0.18295274647E+03  0.12508858787E+03 0.  0.
          5    1    3    3  502    0 -0.10024414131E+03  0.32446529259E+02  0.49525525240E+02  0.11649856299E+03  0.41800000000E+01 0. -1.
         -5    1    3    3    0  502  0.18810704925E+02 -0.29703373820E+02  0.56236581210E+02  0.66454183482E+02  0.41800000000E+01 0. -1.
        -11    1    1    2    0    0  0.96726807915E-01 -0.22311677088E+02  0.45644661601E+02  0.50806056954E+02  0.00000000000E+00 0.  1.
         11    1    1    2    0    0  0.81336709574E+02  0.19568521649E+02  0.12338223653E+02  0.84562516086E+02  0.00000000000E+00 0. -1.
</event>
<event>
 7    1  0.2766180E-009  0.3641123E+03  0.7561462E-02  0.1056967E+00
         -1   -1    0    0    0  501 -0.00000000000E+00  0.00000000000E+00  0.98221664010E+03  0.98221664010E+03  0.00000000000E+00 0.  1.
          1   -1    0    0  501    0  0.00000000000E+00 -0.00000000000E+00 -0.14604427583E+03  0.14604427583E+03  0.00000000000E+00 0. -1.
         25    2    1    2    0    0 -0.39802137271E+02  0.35263355117E+03  0.31409683748E+03  0.49014185607E+03  0.12509030424E+03 0.  0.
          5    1    3    3  502    0 -0.69255814267E+02  0.30625227146E+03  0.29757995457E+03  0.43261775662E+03  0.41800000000E+01 0.  1.
         -5    1    3    3    0  502  0.29453676997E+02  0.46381279710E+02  0.16516882910E+02  0.57524099447E+02  0.41800000000E+01 0.  1.
        -11    1    1    2    0    0  0.82392957498E+01 -0.27741406505E+03  0.34210809689E+03  0.44052741054E+03  0.00000000000E+00 0.  1.
         11    1    1    2    0    0  0.31562841521E+02 -0.75219486114E+02  0.17996742990E+03  0.19759164932E+03  0.00000000000E+00 0. -1.
</event>
<event>
 7    1  0.2766180E-009  0.1222345E+03  0.7561462E-02  0.1239456E+00
          2   -1    0    0  501    0  0.00000000000E+00  0.00000000000E+00  0.99601831849E+03  0.99601831849E+03  0.00000000000E+00 0. -1.
         -2   -1    0    0    0  501 -0.00000000000E+00 -0.00000000000E+00 -0.18689815923E+02  0.18689815923E+02  0.00000000000E+00 0.  1.
         25    2    1    2    0    0 -0.76027816300E+01 -0.79553422984E+02  0.40371147262E+03  0.43013500462E+03  0.12508644883E+03 0.  0.
          5    1    3    3  502    0 -0.52208341299E+02 -0.17360606925E+02  0.78110632512E+02  0.95633910750E+02  0.41800000000E+01 0. -1.
         -5    1    3    3    0  502  0.44605559669E+02 -0.62192816059E+02  0.32560084011E+03  0.33450109387E+03  0.41800000000E+01 0. -1.
        -11    1    1    2    0    0  0.27061492918E+02  0.87525695866E+02  0.46851521111E+03  0.47738828524E+03  0.00000000000E+00 0. -1.
         11    1    1    2    0    0 -0.19458711288E+02 -0.79722728819E+01  0.10510181883E+03  0.10718484455E+03  0.00000000000E+00 0.  1.
</event>
<event>
 7    1  0.2766180E-009  0.1322141E+03  0.7561462E-02  0.1224207E+00
         -2   -1    0    0    0  501 -0.00000000000E+00  0.00000000000E+00  0.32333134239E+02  0.32333134239E+02  0.00000000000E+00 0. -1.
          2   -1    0    0  501    0  0.00000000000E+00 -0.00000000000E+00 -0.62827242015E+03  0.62827242015E+03  0.00000000000E+00 0.  1.
         25    2    1    2    0    0  0.81838815843E+02  0.41369470971E+02 -0.30497599937E+03  0.34215239190E+03  0.12509546029E+03 0.  0.
          5    1    3    3  502    0 -0.40456379509E+01 -0.31620263959E+02 -0.26368968234E+02  0.41581283831E+02  0.41800000000E+01 0. -1.
         -5    1    3    3    0  502  0.85884453794E+02  0.72989734930E+02 -0.27860703113E+03  0.30057110807E+03  0.41800000000E+01 0. -1.
        -11    1    1    2    0    0 -0.96738550136E+02 -0.32024263143E+02 -0.18653375179E+03  0.21255291358E+03  0.00000000000E+00 0. -1.
         11    1    1    2    0    0  0.14899734293E+02 -0.93452078287E+01 -0.10442953476E+03  0.10590024892E+03  0.00000000000E+00 0.  1.
</event>
<event>
 7    1  0.2766180E-009  0.9071819E+02  0.7561462E-02  0.1301122E+00
          3   -1    0    0  501    0  0.00000000000E+00  0.00000000000E+00  0.23520645620E+03  0.23520645620E+03  0.00000000000E+00 0. -1.
         -3   -1    0    0    0  501 -0.00000000000E+00 -0.00000000000E+00 -0.71303423867E+02  0.71303423867E+02  0.00000000000E+00 0.  1.
         25    2    1    2    0    0 -0.31713005275E+02 -0.13410976161E+02  0.16521871108E+03  0.21007331319E+03  0.12509198790E+03 0.  0.
          5    1    3    3  502    0 -0.57734292441E+02  0.39754599935E+02  0.83975036433E+02  0.10946668847E+03  0.41800000000E+01 0.  1.
         -5    1    3    3    0  502  0.26021287166E+02 -0.53165576096E+02  0.81243674650E+02  0.10060662472E+03  0.41800000000E+01 0.  1.
        -11    1    1    2    0    0  0.19352872449E+02 -0.12588547543E+02  0.39938341177E+02  0.46131077347E+02  0.00000000000E+00 0. -1.
         11    1    1    2    0    0  0.12360132826E+02  0.25999523704E+02 -0.41254019930E+02  0.50305489528E+02  0.00000000000E+00 0.  1.
</event>
<event>
 7    1  0.2766180E-009  0.2738716E+03  0.7561462E-02  0.1099084E+00
          1   -1    0    0  501    0  0.00000000000E+00  0.00000000000E+00  0.18873943377E+04  0.18873943377E+04  0.00000000000E+00 0. -1.
         -1   -1    0    0    0  501 -0.00000000000E+00 -0.00000000000E+00 -0.44915478452E+02  0.44915478452E+02  0.00000000000E+00 0.  1.
         25    2    1    2    0    0 -0.35600207216E+02 -0.26246618433E+03  0.11161115949E+04  0.11539100226E+04  0.12508946972E+03 0.  0.
          5    1    3    3  502    0  0.30509964338E+02 -0.64043648481E+02  0.15826713616E+03  0.17348892075E+03  0.41800000000E+01 0. -1.
         -5    1    3    3    0  502 -0.66110171554E+02 -0.19842253585E+03  0.95784445871E+03  0.98042110187E+03  0.41800000000E+01 0. -1.
        -11    1    1    2    0    0 -0.80006423979E+01  0.42650103047E+02  0.22618475352E+03  0.23030975727E+03  0.00000000000E+00 0.  1.
         11    1    1    2    0    0  0.43600849614E+02  0.21981608129E+03  0.50018251086E+03  0.54809003626E+03  0.00000000000E+00 0. -1.
</event>
<event>
 7    1  0.2766180E-009  0.1402560E+03  0.7561462E-02  0.1212985E+00
          2   -1    0    0  501    0  0.00000000000E+00  0.00000000000E+00  0.87151903642E+03  0.87151903642E+03  0.00000000000E+00 0. -1.
         -2   -1    0    0    0  501 -0.00000000000E+00 -0.00000000000E+00 -0.31693989747E+02  0.31693989747E+02  0.00000000000E+00 0.  1.
         25    2    1    2    0    0  0.10806101049E+03  0.63280374132E+02  0.42431761251E+03  0.45975542439E+03  0.12509207101E+03 0.  0.
          5    1    3    3  502    0  0.85095875528E+02  0.50711436000E+02  0.12633431381E+03  0.16059510895E+03  0.41800000000E+01 0.  1.
         -5    1    3    3    0  502  0.22965134966E+02  0.12568938133E+02  0.29798329869E+03  0.29916031543E+03  0.41800000000E+01 0.  1.
        -11    1    1    2    0    0 -0.46072257693E+02 -0.78500930250E+02  0.23660554297E+03  0.25350982613E+03  0.00000000000E+00 0.  1.
         11    1    1    2    0    0 -0.61988752800E+02  0.15220556118E+02  0.17890189119E+03  0.18994777565E+03  0.00000000000E+00 0. -1.
</event>
<event>
 7    1  0.2766180E-009  0.1279790E+03  0.7561462E-02  0.1230486E+00
          2   -1    0    0  501    0  0.00000000000E+00  0.00000000000E+00  0.57735296975E+02  0.57735296975E+02  0.00000000000E+00 0.  1.
         -2   -1    0    0    0  501 -0.00000000000E+00 -0.00000000000E+00 -0.36481474953E+03  0.36481474953E+03  0.00000000000E+00 0. -1.
         25    2    1    2    0    0  0.51814867516E+02 -0.77191367511E+02 -0.13304930037E+03  0.20491902683E+03  0.12508558475E+03 0.  0.
          5    1    3    3  502    0  0.74325796289E+02 -0.67527509524E+02 -0.14572287299E+03  0.17702236200E+03  0.41800000000E+01 0. -1.
         -5    1    3    3    0  502 -0.22510928773E+02 -0.96638579875E+01  0.12673572618E+02  0.27896664825E+02  0.41800000000E+01 0. -1.
        -11    1    1    2    0    0 -0.32476062591E+02 -0.15447600435E+02 -0.51357283549E+02  0.62696838629E+02  0.00000000000E+00 0.  1.
         11    1    1    2    0    0 -0.19338804926E+02  0.92638967946E+02 -0.12267286864E+03  0.15493418105E+03  0.00000000000E+00 0. -1.
</event>
<event>
 7    1  0.2766180E-009  0.2269503E+03  0.7561462E-02  0.1128805E+00
         -1   -1    0    0    0  501 -0.00000000000E+00  0.00000000000E+00  0.47884109264E+02  0.47884109264E+02  0.00000000000E+00 0.  1.
          1   -1    0    0  501    0  0.00000000000E+00 -0.00000000000E+00 -0.11630196638E+04  0.11630196638E+04  0.00000000000E+00 0. -1.
         25    2    1    2    0    0  0.13488507464E+03  0.15852565666E+03 -0.63614055473E+03  0.68091599923E+03  0.12508966965E+03 0.  0.
          5    1    3    3  502    0 -0.88859038906E+01  0.48968539768E+02 -0.65829598625E+02  0.82631020991E+02  0.41800000000E+01 0. -1.
         -5    1    3    3    0  502  0.14377097853E+03  0.10955711689E+03 -0.57031095611E+03  0.59828497824E+03  0.41800000000E+01 0. -1.
        -11    1    1    2    0    0 -0.10838392123E+03 -0.65980812852E+02 -0.22423259406E+03  0.25764471329E+03  0.00000000000E+00 0.  1.
         11    1    1    2    0    0 -0.26501153411E+02 -0.92544843805E+02 -0.25476240570E+03  0.27234306050E+03  0.00000000000E+00 0. -1.
</event>
<event>
 7    1  0.2766180E-009  0.9584062E+02  0.7561462E-02  0.1289294E+00
          1   -1    0    0  501    0  0.00000000000E+00  0.00000000000E+00  0.15633946632E+04  0.15633946632E+04  0.00000000000E+00 0. -1.
         -1   -1    0    0    0  501 -0.00000000000E+00 -0.00000000000E+00 -0.96919782763E+01  0.96919782763E+01  0.00000000000E+00 0.  1.
         25    2    1    2    0    0 -0.52851327027E+01 -0.22801913285E+02  0.12352543555E+04  0.12417926546E+04  0.12509122433E+03 0.  0.
          5    1    3    3  502    0  0.48827755005E+02 -0.28806889766E+02  0.92683930789E+03  0.92858093972E+03  0.41800000000E+01 0. -1.
         -5    1    3    3    0  502 -0.54112887708E+02  0.60049764804E+01  0.30841504762E+03  0.31321171491E+03  0.41800000000E+01 0. -1.
        -11    1    1    2    0    0  0.72399514192E+00 -0.28608515151E+02  0.47349254004E+02  0.55325610370E+02  0.00000000000E+00 0.  1.
         11    1    1    2    0    0  0.45611375607E+01  0.51410428436E+02  0.27109907539E+03  0.27596837646E+03  0.00000000000E+00 0. -1.
</event>
<event>
 7    1  0.2766180E-009  0.1498697E+03  0.7561462E-02  0.1200633E+00
         -1   -1    0    0    0  501 -0.00000000000E+00  0.00000000000E+00  0.19677833866E+03  0.19677833866E+03  0.00000000000E+00 0. -1.
          1   -1    0    0  501    0  0.00000000000E+00 -0.00000000000E+00 -0.12073486940E+03  0.12073486940E+03  0.00000000000E+00 0.  1.
         25    2    1    2    0    0  0.45416410313E+02 -0.11209615374E+03  0.58588733089E+02  0.18359038811E+03  0.12507834725E+03 0.  0.
          5    1    3    3  502    0  0.60777503982E+02 -0.18534354181E+00  0.22200218174E+02  0.64840276291E+02  0.41800000000E+01 0. -1.
         -5    1    3    3    0  502 -0.15361093669E+02 -0.11191081020E+03  0.36388514916E+02  0.11875011182E+03  0.41800000000E+01 0. -1.
        -11    1    1    2    0    0 -0.11986220640E+02  0.40044640600E+01 -0.11550659563E+02  0.17120833916E+02  0.00000000000E+00 0.  1.
         11    1    1    2    0    0 -0.33430189673E+02  0.10809168968E+03  0.29005395729E+02  0.11680198604E+03  0.00000000000E+00 0. -1.
</event>
<event>
 7    1  0.2766180E-009  0.1746644E+03  0.7561462E-02  0.1173069E+00
         -3   -1    0    0    0  501 -0.00000000000E+00  0.00000000000E+00  0.32452829538E+03  0.32452829538E+03  0.00000000000E+00 0.  1.
          3   -1    0    0  501    0  0.00000000000E+00 -0.00000000000E+00 -0.10939539975E+03  0.10939539975E+03  0.00000000000E+00 0. -1.
         25    2    1    2    0    0  0.12303089491E+03  0.74294197974E+02  0.17637588832E+03  0.25963946545E+03  0.12509184260E+03 0.  0.
          5    1    3    3  502    0  0.13595968361E+03  0.87830614161E+02  0.12424415984E+03  0.20409148930E+03  0.41800000000E+01 0.  1.
         -5    1    3    3    0  502 -0.12928788697E+02 -0.13536416187E+02  0.52131728477E+02  0.55547976150E+02  0.41800000000E+01 0.  1.
        -11    1    1    2    0    0 -0.64490611077E+02 -0.87033377087E+02  0.13103684900E+02  0.10911257582E+03  0.00000000000E+00 0.  1.
         11    1    1    2    0    0 -0.58540283834E+02  0.12739179113E+02  0.25653322413E+02  0.65171653859E+02  0.00000000000E+00 0. -1.
</event>
<event>
 7    1  0.2766180E-009  0.1053716E+03  0.7561462E-02  0.1269389E+00
          2   -1    0    0  501    0  0.00000000000E+00  0.00000000000E+00  0.10062910144E+03  0.10062910144E+03  0.00000000000E+00 0. -1.
         -2   -1    0    0    0  501 -0.00000000000E+00 -0.00000000000E+00 -0.13371844891E+03  0.13371844891E+03  0.00000000000E+00 0.  1.
         25    2    1    2    0    0 -0.24621813452E+01  0.31988752260E+02 -0.44950395327E+02  0.13674316336E+03  0.12509521205E+03 0.  0.
          5    1    3    3  502    0 -0.38931532646E+02 -0.28642073632E+02 -0.44549586605E+02  0.65864790919E+02  0.41800000000E+01 0.  1.
         -5    1    3    3    0  502  0.36469351301E+02  0.60630825892E+02 -0.40080872204E+00  0.70878372444E+02  0.41800000000E+01 0.  1.
        -11    1    1    2    0    0  0.42061593827E+02 -0.27926610905E+01 -0.10682333726E+02  0.43486651803E+02  0.00000000000E+00 0.  1.
         11    1    1    2    0    0 -0.39599412482E+02 -0.29196091170E+02  0.22543381581E+02  0.54117735185E+02  0.00000000000E+00 0. -1.
</event>
<event>
 7    1  0.2766180E-009  0.1078849E+03  0.7561462E-02  0.1264538E+00
         -2   -1    0    0    0  501 -0.00000000000E+00  0.00000000000E+00  0.24842267898E+02  0.24842267898E+02  0.00000000000E+00 0.  1.
          2   -1    0    0  501    0  0.00000000000E+00 -0.00000000000E+00 -0.62834196745E+03  0.62834196745E+03  0.00000000000E+00 0. -1.
         25    2    1    2    0    0 -0.51982061980E+02  0.23394047340E+02 -0.29352521042E+03  0.32412044505E+03  0.12509035747E+03 0.  0.
          5    1    3    3  502    0 -0.59748235529E+01 -0.42533763190E+02 -0.17902586685E+03  0.18415361232E+03  0.41800000000E+01 0.  1.
         -5    1    3    3    0  502 -0.46007238427E+02  0.65927810530E+02 -0.11449934357E+03  0.13996683274E+03  0.41800000000E+01 0.  1.
        -11    1    1    2    0    0  0.40834108923E+01 -0.40909328022E+02 -0.23383459501E+03  0.23742128209E+03  0.00000000000E+00 0. -1.
         11    1    1    2    0    0  0.47898651088E+02  0.17515280682E+02 -0.76139894122E+02  0.91642508206E+02  0.00000000000E+00 0.  1.
</event>
<event>
 7    1  0.2766180E-009  0.2536566E+03  0.7561462E-02  0.1111015E+00
         -2   -1    0    0    0  501 -0.00000000000E+00  0.00000000000E+00  0.69135149003E+02  0.69135149003E+02  0.00000000000E+00 0.  1.
          2   -1    0    0  501    0  0.00000000000E+00 -0.00000000000E+00 -0.11682793331E+04  0.11682793331E+04  0.00000000000E+00 0. -1.
         25    2    1    2    0    0  0.23992120754E+02 -0.23967676973E+03 -0.78954287299E+03  0.83489290242E+03  0.12509050489E+03 0.  0.
          5    1    3    3  502    0  0.20597556936E+02 -0.24335275792E+03 -0.79129929956E+03  0.82814061488E+03  0.41800000000E+01 0. -1.
         -5    1    3    3    0  502  0.33945638186E+01  0.36759881853E+01  0.17564265696E+01  0.67522875347E+01  0.41800000000E+01 0. -1.
        -11    1    1    2    0    0  0.18667064627E+02  0.69316046854E+01 -0.16739926727E+02  0.26014065275E+02  0.00000000000E+00 0.  1.
         11    1    1    2    0    0 -0.42659185382E+02  0.23274516505E+03 -0.29286138441E+03  0.37650751444E+03  0.00000000000E+00 0. -1.
</event>
<event>
 7    1  0.2766180E-009  0.9721761E+02  0.7561462E-02  0.1286258E+00
         -4   -1    0    0    0  501 -0.00000000000E+00  0.00000000000E+00  0.49685632383E+02  0.49685632383E+02  0.00000000000E+00 0.  1.
          4   -1    0    0  501    0  0.00000000000E+00 -0.00000000000E+00 -0.25422205994E+03  0.25422205994E+03  0.00000000000E+00 0. -1.
         25    2    1    2    0    0 -0.69353348372E+01 -0.20344172915E+02 -0.83077814949E+02  0.15169969924E+03  0.12509552819E+03 0.  0.
          5    1    3    3  502    0 -0.54296298791E+02 -0.14004787851E+02 -0.53413608106E+00  0.56231484477E+02  0.41800000000E+01 0.  1.
         -5    1    3    3    0  502  0.47360963953E+02 -0.63393850640E+01 -0.82543678868E+02  0.95468214766E+02  0.41800000000E+01 0.  1.
        -11    1    1    2    0    0 -0.33249862353E+02  0.34233150210E+02 -0.77772904271E+02  0.91247392064E+02  0.00000000000E+00 0. -1.
         11    1    1    2    0    0  0.40185197190E+02 -0.13888977294E+02 -0.43685708341E+02  0.60960601020E+02  0.00000000000E+00 0.  1.
</event>
<event>
 7    1  0.2766180E-009  0.1861678E+03  0.7561462E-02  0.1161964E+00
          2   -1    0    0  501    0  0.00000000000E+00  0.00000000000E+00  0.15100980701E+04  0.15100980701E+04  0.00000000000E+00 0. -1.
         -2   -1    0    0    0  501 -0.00000000000E+00 -0.00000000000E+00 -0.27291883485E+02  0.27291883485E+02  0.00000000000E+00 0.  1.
         25    2    1    2    0    0 -0.16045416032E+03 -0.60566707571E+02  0.78506682825E+03  0.81325994698E+03  0.12509177794E+03 0.  0.
          5    1    3    3  502    0 -0.71379282326E+02 -0.54161702447E+02  0.61127133566E+03  0.61781761885E+03  0.41800000000E+01 0. -1.
         -5    1    3    3    0  502 -0.89074877994E+02 -0.64050051237E+01  0.17379549259E+03  0.19544232813E+03  0.41800000000E+01 0. -1.
        -11    1    1    2    0    0  0.70992285227E+02  0.74254372520E+02  0.34548058874E+03  0.36043092763E+03  0.00000000000E+00 0. -1.
         11    1    1    2    0    0  0.89461875093E+02 -0.13687664949E+02  0.35225876959E+03  0.36369907894E+03  0.00000000000E+00 0.  1.
</event>
<event>
 7    1  0.2766180E-009  0.1363578E+03  0.7561462E-02  0.1218316E+00
         -2   -1    0    0    0  501 -0.00000000000E+00  0.00000000000E+00  0.56258514425E+02  0.56258514425E+02  0.00000000000E+00 0.  1.
          2   -1    0    0  501    0  0.00000000000E+00 -0.00000000000E+00 -0.67348219720E+03  0.67348219720E+03  0.00000000000E+00 0. -1.
         25    2    1    2    0    0  0.62929266569E+02  0.10070876947E+03 -0.12001319107E+03  0.21012699793E+03  0.12509132820E+03 0.  0.
          5    1    3    3  502    0  0.23744484322E+02  0.73543208287E+02 -0.13862992609E+03  0.15877069260E+03  0.41800000000E+01 0.  1.
         -5    1    3    3    0  502  0.39184782247E+02  0.27165561178E+02  0.18616735027E+02  0.51356305328E+02  0.41800000000E+01 0.  1.
        -11    1    1    2    0    0 -0.37882301469E+02 -0.11327074562E+03 -0.43980889153E+03  0.45573807351E+03  0.00000000000E+00 0.  1.
         11    1    1    2    0    0 -0.25046965100E+02  0.12561976159E+02 -0.57401600174E+02  0.63875640179E+02  0.00000000000E+00 0. -1.
</event>
<event>
 7    1  0.2766180E-009  0.8913184E+02  0.7561462E-02  0.1304968E+00
          2   -1    0    0  501    0  0.00000000000E+00  0.00000000000E+00  0.82872520127E+02  0.82872520127E+02  0.00000000000E+00 0. -1.
         -2   -1    0    0    0  501 -0.00000000000E+00 -0.00000000000E+00 -0.19186106930E+03  0.19186106930E+03  0.00000000000E+00 0.  1.
         25    2    1    2    0    0 -0.46728352101E+02  0.42616147781E+02 -0.72801503247E+02  0.15794647863E+03  0.12508939322E+03 0.  0.
          5    1    3    3  502    0 -0.41394533153E+02  0.12195749382E+02 -0.10471733042E+03  0.11333770497E+03  0.41800000000E+01 0. -1.
         -5    1    3    3    0  502 -0.53338189480E+01  0.30420398399E+02  0.31915827174E+02  0.44608773661E+02  0.41800000000E+01 0. -1.
        -11    1    1    2    0    0  0.69691874190E+02 -0.40682612456E+02 -0.44663737819E+02  0.92232758607E+02  0.00000000000E+00 0.  1.
         11    1    1    2    0    0 -0.22963522089E+02 -0.19335353251E+01  0.84766918977E+01  0.24554352183E+02  0.00000000000E+00 0. -1.
</event>
<event>
 6    1  0.2766180E-009  0.1134823E+03  0.7561462E-02  0.1254254E+00
         -1   -1    0    0    0  501 -0.00000000000E+00  0.00000000000E+00  0.14145772164E+03  0.14145772164E+03  0.00000000000E+00 0.  1.
          1   -1    0    0  501    0  0.00000000000E+00 -0.00000000000E+00 -0.17732399206E+03  0.17732399206E+03  0.00000000000E+00 0. -1.
          5    1    1    2  502    0  0.29814308986E+02  0.13467686661E+02  0.64269807482E+02  0.72238162754E+02  0.41800000000E+01 0.  1.
         -5    1    1    2    0  502 -0.85218353231E+02  0.33941613918E+01  0.13985459090E+02  0.86526028020E+02  0.41800000000E+01 0.  1.
        -11    1    1    2    0    0  0.23523328458E+02 -0.54446433751E+02 -0.81952973790E+02  0.10116348671E+03  0.00000000000E+00 0.  1.
         11    1    1    2    0    0  0.31880715787E+02  0.37584585698E+02 -0.32168563200E+02  0.58854036221E+02  0.00000000000E+00 0. -1.
</event>
<event>
 7    1  0.2766180E-009  0.1563281E+03  0.7561462E-02  0.1192906E+00
          1   -1    0    0  501    0  0.00000000000E+00  0.00000000000E+00  0.82377394390E+02  0.82377394390E+02  0.00000000000E+00 0. -1.
         -1   -1    0    0    0  501 -0.00000000000E+00 -0.00000000000E+00 -0.37622170406E+03  0.37622170406E+03  0.00000000000E+00 0.  1.
         25    2    1    2    0    0 -0.55500631082E+02 -0.12558651347E+03 -0.13267575690E+03  0.22825969423E+03  0.12508932457E+03 0.  0.
          5    1    3    3  502    0  0.13645366464E+02  0.11547560778E+02 -0.51123285757E+02  0.54319471025E+02  0.41800000000E+01 0. -1.
         -5    1    3    3    0  502 -0.69145997546E+02 -0.13713407425E+03 -0.81552471144E+02  0.17394022320E+03  0.41800000000E+01 0. -1.
        -11    1    1    2    0    0 -0.20511691934E+00  0.30191670461E+02  0.51982331334E+01  0.30636590311E+02  0.00000000000E+00 0. -1.
         11    1    1    2    0    0  0.55705748001E+02  0.95394843012E+02 -0.16636678590E+03  0.19970281392E+03  0.00000000000E+00 0.  1.
</event>
<event>
 7    1  0.2766180E-009  0.7088294E+02  0.7561462E-02  0.1357116E+00
          1   -1    0    0  501    0  0.00000000000E+00  0.00000000000E+00  0.47948209410E+03  0.47948209410E+03  0.00000000000E+00 0. -1.
         -1   -1    0    0    0  501 -0.00000000000E+00 -0.00000000000E+00 -0.28155857850E+02  0.28155857850E+02  0.00000000000E+00 0.  1.
         25    2    1    2    0    0  0.32694089406E+02 -0.36472358212E+02  0.22737475043E+03  0.26409072489E+03  0.12508196290E+03 0.  0.
          5    1    3    3  502    0  0.15410571211E+02  0.17756511635E+01  0.22082163239E+03  0.22140529437E+03  0.41800000000E+01 0. -1.
         -5    1    3    3    0  502  0.17283518195E+02 -0.38248009375E+02  0.65531180341E+01  0.42685430516E+02  0.41800000000E+01 0. -1.
        -11    1    1    2    0    0 -0.61863556071E+01 -0.20108293764E+02  0.12327706807E+03  0.12505938584E+03  0.00000000000E+00 0. -1.
         11    1    1    2    0    0 -0.26507733799E+02  0.56580651976E+02  0.10067441776E+03  0.11848784123E+03  0.00000000000E+00 0.  1.
</event>
<event>
 7    1  0.2766180E-009  0.1840140E+03  0.7561462E-02  0.1163974E+00
          1   -1    0    0  501    0  0.00000000000E+00  0.00000000000E+00  0.76896179017E+03  0.76896179017E+03  0.00000000000E+00 0. -1.
         -1   -1    0    0    0  501 -0.00000000000E+00 -0.00000000000E+00 -0.62238409238E+02  0.62238409238E+02  0.00000000000E+00 0.  1.
         25    2    1    2    0    0  0.13281941468E+03 -0.92861042125E+02  0.55342811649E+03  0.59007835782E+03  0.12508244558E+03 0.  0.
          5    1    3    3  502    0  0.39276022715E+02 -0.93984505105E+02  0.37448551112E+03  0.38811411157E+03  0.41800000000E+01 0.  1.
         -5    1    3    3    0  502  0.93543391966E+02  0.11234629798E+01  0.17894260536E+03  0.20196424625E+03  0.41800000000E+01 0.  1.
        -11    1    1    2    0    0 -0.54182407172E+01  0.29790894670E+02 -0.22967453778E+01  0.30366589816E+02  0.00000000000E+00 0.  1.
         11    1    1    2    0    0 -0.12740117396E+03  0.63070147456E+02  0.15559200982E+03  0.21075525177E+03  0.00000000000E+00 0. -1.
</event>
<event>
 7    1  0.2766180E-009  0.9788429E+02  0.7561462E-02  0.1284809E+00
          2   -1    0    0  501    0  0.00000000000E+00  0.00000000000E+00  0.30563718843E+03  0.30563718843E+03  0.00000000000E+00 0. -1.
         -2   -1    0    0    0  501 -0.00000000000E+00 -0.00000000000E+00 -0.40643812042E+02  0.40643812042E+02  0.00000000000E+00 0.  1.
         25    2    1    2    0    0 -0.16328284755E+02 -0.87753003350E+01  0.14886132298E+03  0.19534748003E+03  0.12512923597E+03 0.  0.
          5    1    3    3  502    0 -0.29337062784E+00 -0.66288698102E+02  0.72527393861E+02  0.98346188654E+02  0.41800000000E+01 0.  1.
         -5    1    3    3    0  502 -0.16034914127E+02  0.57513397767E+02  0.76333929117E+02  0.97001291374E+02  0.41800000000E+01 0.  1.
        -11    1    1    2    0    0  0.34956432588E+02 -0.16043810039E+02  0.91420030415E+01  0.39533937818E+02  0.00000000000E+00 0.  1.
         11    1    1    2    0    0 -0.18628147833E+02  0.24819110374E+02  0.10699005036E+03  0.11139958262E+03  0.00000000000E+00 0. -1.
</event>
<event>
 7    1  0.2766180E-009  0.6715134E+02  0.7561462E-02  0.1370057E+00
          3   -1    0    0  501    0  0.00000000000E+00  0.00000000000E+00  0.12307964867E+03  0.12307964867E+03  0.00000000000E+00 0. -1.
         -3   -1    0    0    0  501 -0.00000000000E+00 -0.00000000000E+00 -0.10100830930E+03  0.10100830930E+03  0.00000000000E+00 0.  1.
         25    2    1    2    0    0 -0.62232239821E+01  0.14065912343E+02 -0.68766869948E+01  0.12622168050E+03  0.12509214762E+03 0.  0.
          5    1    3    3  502    0  0.19191876355E+02 -0.17047625327E+01 -0.61074126308E+02  0.64177532187E+02  0.41800000000E+01 0. -1.
         -5    1    3    3    0  502 -0.25415100337E+02  0.15770674876E+02  0.54197439314E+02  0.62044148309E+02  0.41800000000E+01 0. -1.
        -11    1    1    2    0    0 -0.31462035250E+02  0.16806391174E+02 -0.82030690988E+01  0.36600611867E+02  0.00000000000E+00 0.  1.
         11    1    1    2    0    0  0.37685259232E+02 -0.30872303517E+02  0.37151095460E+02  0.61265665603E+02  0.00000000000E+00 0. -1.
</event>
<event>
 7    1  0.2766180E-009  0.1099041E+03  0.7561462E-02  0.1260748E+00
          1   -1    0    0  501    0  0.00000000000E+00  0.00000000000E+00  0.73061546264E+02  0.73061546264E+02  0.00000000000E+00 0. -1.
         -1   -1    0    0    0  501 -0.00000000000E+00 -0.00000000000E+00 -0.18133926061E+03  0.18133926061E+03  0.00000000000E+00 0.  1.
         25    2    1    2    0    0 -0.21563988266E+02 -0.10979275425E+02 -0.27587655976E+02  0.13040205826E+03  0.12513220192E+03 0.  0.
          5    1    3    3  502    0  0.12167105401E+02 -0.62590781393E+02 -0.24793692086E+02  0.68540819490E+02  0.41800000000E+01 0. -1.
         -5    1    3    3    0  502 -0.33731093667E+02  0.51611505968E+02 -0.27939638904E+01  0.61861238772E+02  0.41800000000E+01 0. -1.
        -11    1    1    2    0    0 -0.16039078505E+02  0.42257833624E+02 -0.40610745283E+02  0.60763551363E+02  0.00000000000E+00 0.  1.
         11    1    1    2    0    0  0.37603066771E+02 -0.31278558199E+02 -0.40079313091E+02  0.63235197251E+02  0.00000000000E+00 0. -1.
</event>
<event>
 7    1  0.2766180E-009  0.1088215E+03  0.7561462E-02  0.1262768E+00
         -2   -1    0    0    0  501 -0.00000000000E+00  0.00000000000E+00  0.11642673164E+03  0.11642673164E+03  0.00000000000E+00 0.  1.
          2   -1    0    0  501    0  0.00000000000E+00 -0.00000000000E+00 -0.18788076254E+03  0.18788076254E+03  0.00000000000E+00 0. -1.
         25    2    1    2    0    0  0.96018851761E+02  0.17567773971E+02 -0.42195903339E+02  0.16417036315E+03  0.12507264810E+03 0.  0.
          5    1    3    3  502    0 -0.81830869158E+01  0.11237090682E+02 -0.56846410398E+02  0.58670451623E+02  0.41800000000E+01 0. -1.
         -5    1    3    3    0  502  0.10420193868E+03  0.63306832882E+01  0.14650507059E+02  0.10549991153E+03  0.41800000000E+01 0. -1.
        -11    1    1    2    0    0 -0.60404323185E+02 -0.39947479311E+01  0.31631963446E+02  0.68302425886E+02  0.00000000000E+00 0.  1.
         11    1    1    2    0    0 -0.35614528577E+02 -0.13573026039E+02 -0.60890091000E+02  0.71834705147E+02  0.00000000000E+00 0. -1.
</event>
<event>
 7    1  0.2766180E-009  0.2715182E+03  0.7561462E-02  0.1100414E+00
         -1   -1    0    0    0  501 -0.00000000000E+00  0.00000000000E+00  0.16517372381E+03  0.16517372381E+03  0.00000000000E+00 0.  1.
          1   -1    0    0  501    0  0.00000000000E+00 -0.00000000000E+00 -0.51794517413E+03  0.51794517413E+03  0.00000000000E+00 0. -1.
         25    2    1    2    0    0  0.20144597253E+03 -0.14654506246E+03 -0.27530145696E+03  0.39178548715E+03  0.12509612528E+03 0.  0.
          5    1    3    3  502    0 -0.14998739083E+02 -0.89219374758E+01 -0.39342776260E+02  0.43242219950E+02  0.41800000000E+01 0. -1.
         -5    1    3    3    0  502  0.21644471162E+03 -0.13762312498E+03 -0.23595868070E+03  0.34854326720E+03  0.41800000000E+01 0. -1.
        -11    1    1    2    0    0 -0.55447092412E+02 -0.79316126905E+01  0.17282765511E+02  0.58617271520E+02  0.00000000000E+00 0.  1.
         11    1    1    2    0    0 -0.14599888012E+03  0.15447667515E+03 -0.94752758868E+02  0.23271613927E+03  0.00000000000E+00 0. -1.
</event>
<event>
 7    1  0.2766180E-009  0.7187246E+02  0.7561462E-02  0.1353839E+00
          1   -1    0    0  501    0  0.00000000000E+00  0.00000000000E+00  0.23209071927E+03  0.23209071927E+03  0.00000000000E+00 0. -1.
         -1   -1    0    0    0  501 -0.00000000000E+00 -0.00000000000E+00 -0.54947302760E+02  0.54947302760E+02  0.00000000000E+00 0.  1.
         25    2    1    2    0    0 -0.15503331729E+02  0.22859466250E+02  0.11354199774E+03  0.17117927411E+03  0.12509056775E+03 0.  0.
          5    1    3    3  502    0 -0.43979828740E+02  0.28511643531E+02 -0.13554158754E+01  0.52597040839E+02  0.41800000000E+01 0. -1.
         -5    1    3    3    0  502  0.28476497011E+02 -0.56521772810E+01  0.11489741362E+03  0.11858223327E+03  0.41800000000E+01 0. -1.
        -11    1    1    2    0    0 -0.20919223838E+02 -0.10205586599E+02 -0.15428068501E+02  0.27924777913E+02  0.00000000000E+00 0.  1.
         11    1    1    2    0    0  0.36422555567E+02 -0.12653879651E+02  0.79029487269E+02  0.87933970013E+02  0.00000000000E+00 0. -1.
</event>
<event>
 7    1  0.2766180E-009  0.9290909E+02  0.7561462E-02  0.1295956E+00
          3   -1    0    0  501    0  0.00000000000E+00  0.00000000000E+00  0.10568857391E+03  0.10568857391E+03  0.00000000000E+00 0. -1.
         -3   -1    0    0    0  501 -0.00000000000E+00 -0.00000000000E+00 -0.15442065608E+03  0.15442065608E+03  0.00000000000E+00 0.  1.
         25    2    1    2    0    0 -0.60382592960E+02  0.28426243643E+02 -0.24470749909E+02  0.14386494687E+03  0.12507676233E+03 0.  0.
          5    1    3    3  502    0 -0.52210574640E+02 -0.18369504453E+02  0.36521517346E+02  0.66443031443E+02  0.41800000000E+01 0. -1.
         -5    1    3    3    0  502 -0.81720183197E+01  0.46795748096E+02 -0.60992267255E+02  0.77421915426E+02  0.41800000000E+01 0. -1.
        -11    1    1    2    0    0  0.54005039937E+02 -0.41480241173E+02 -0.51496747480E+02  0.85376049027E+02  0.00000000000E+00 0.  1.
         11    1    1    2    0    0  0.63775530231E+01  0.13053997531E+02  0.27235415221E+02  0.30868234098E+02  0.00000000000E+00 0. -1.
</event>
<event>
 7    1  0.3353862E-009  0.1688759E+03  0.7561462E-02  0.1179025E+00
         -1   -1    0    0    0  501 -0.00000000000E+00  0.00000000000E+00  0.14480820732E+03  0.14480820732E+03  0.00000000000E+00 0.  1.
          1   -1    0    0  501    0  0.00000000000E+00 -0.00000000000E+00 -0.22747570461E+03  0.22747570461E+03  0.00000000000E+00 0. -1.
         25    2    1    2    0    0 -0.22456013575E+01  0.14153349591E+03 -0.96851141244E+01  0.18916421796E+03  0.12511005848E+03 0.  0.
          5    1    3    3  502    0  0.16674899721E+02  0.16037545826E+03 -0.29986384715E+01  0.16132205096E+03  0.41800000000E+01 0.  1.
         -5    1    3    3    0  502 -0.18920501079E+02 -0.18841962359E+02 -0.66864756529E+01  0.27842167000E+02  0.41800000000E+01 0.  1.
        -11    1    1    2    0    0  0.25016594820E+02 -0.68244699197E+02  0.60749123744E+01  0.72938834274E+02  0.00000000000E+00 0.  1.
         11    1    1    2    0    0 -0.22770993463E+02 -0.73288796709E+02 -0.79057295536E+02  0.11018085970E+03  0.00000000000E+00 0. -1.
</event>
<event>
 7    1  0.2766180E-009  0.1250783E+03  0.7561462E-02  0.1234947E+00
         -4   -1    0    0    0  501 -0.00000000000E+00  0.00000000000E+00  0.78970351217E+03  0.78970351217E+03  0.00000000000E+00 0.  1.
          4   -1    0    0  501    0  0.00000000000E+00 -0.00000000000E+00 -0.19889618010E+02  0.19889618010E+02  0.00000000000E+00 0. -1.
         25    2    1    2    0    0  0.36395813782E+02 -0.50932056631E+02  0.43863355743E+03  0.46039425665E+03  0.12507895187E+03 0.  0.
          5    1    3    3  502    0  0.54975951226E+02  0.25561126730E+02  0.20522183523E+03  0.21403083999E+03  0.41800000000E+01 0.  1.
         -5    1    3    3    0  502 -0.18580137445E+02 -0.76493183361E+02  0.23341172220E+03  0.24636341666E+03  0.41800000000E+01 0.  1.
        -11    1    1    2    0    0 -0.56415148664E+02  0.63150621152E+00  0.17854249845E+03  0.18724447002E+03  0.00000000000E+00 0.  1.
         11    1    1    2    0    0  0.20019334882E+02  0.50300550420E+02  0.15263783829E+03  0.16195440352E+03  0.00000000000E+00 0. -1.
</event>
<event>
 7    1  0.2766180E-009  0.2019856E+03  0.7561462E-02  0.1148074E+00
          2   -1    0    0  501    0  0.00000000000E+00  0.00000000000E+00  0.94427771677E+03  0.94427771677E+03  0.00000000000E+00 0. -1.
         -2   -1    0    0    0  501 -0.00000000000E+00 -0.00000000000E+00 -0.47277468360E+02  0.47277468360E+02  0.00000000000E+00 0.  1.
         25    2    1    2    0    0 -0.99285696595E+02 -0.14648374500E+03  0.55486214269E+03  0.59568001007E+03  0.12509012715E+03 0.  0.
          5    1    3    3  502    0 -0.15530300890E+02 -0.11907979427E+03  0.39760965518E+03  0.41536983272E+03  0.41800000000E+01 0.  1.
         -5    1    3    3    0  502 -0.83755395705E+02 -0.27403950731E+02  0.15725248751E+03  0.18031017734E+03  0.41800000000E+01 0.  1.
        -11    1    1    2    0    0  0.95158107085E+02  0.67911615916E+02  0.23987620119E+03  0.26684760598E+03  0.00000000000E+00 0. -1.
         11    1    1    2    0    0  0.41275895101E+01  0.78572129086E+02  0.10226190453E+03  0.12902756908E+03  0.00000000000E+00 0.  1.
</event>
<event>
 7    1  0.2766180E-009  0.1213302E+03  0.7561462E-02  0.1240919E+00
         -1   -1    0    0    0  501 -0.00000000000E+00  0.00000000000E+00  0.32355248817E+02  0.32355248817E+02  0.00000000000E+00 0.  1.
          1   -1    0    0  501    0  0.00000000000E+00 -0.00000000000E+00 -0.47978817561E+03  0.47978817561E+03  0.00000000000E+00 0. -1.
         25    2    1    2    0    0 -0.14866138318E+02  0.59148335953E+02 -0.24133531592E+03  0.27858583062E+03  0.12509117714E+03 0.  0.
          5    1    3    3  502    0 -0.57071865546E+02 -0.99557554311E+01 -0.10021200642E+03  0.11582846599E+03  0.41800000000E+01 0.  1.
         -5    1    3    3    0  502  0.42205727228E+02  0.69104091384E+02 -0.14112330950E+03  0.16275736463E+03  0.41800000000E+01 0.  1.
        -11    1    1    2    0    0  0.31338981070E+02  0.96190550636E+01 -0.10635003995E+03  0.11128786525E+03  0.00000000000E+00 0. -1.
         11    1    1    2    0    0 -0.16472842752E+02 -0.68767391017E+02 -0.99747570915E+02  0.12226972855E+03  0.00000000000E+00 0.  1.
</event>
<event>
 7    1  0.2766180E-009  0.2582782E+03  0.7561462E-02  0.1108182E+00
          2   -1    0    0  501    0  0.00000000000E+00  0.00000000000E+00  0.14906618481E+04  0.14906618481E+04  0.00000000000E+00 0. -1.
         -2   -1    0    0    0  501 -0.00000000000E+00 -0.00000000000E+00 -0.55866828127E+02  0.55866828127E+02  0.00000000000E+00 0.  1.
         25    2    1    2    0    0 -0.32315082580E+02 -0.24248500334E+03  0.10204275030E+04  0.10567680362E+04  0.12507258669E+03 0.  0.
          5    1    3    3  502    0 -0.18815519802E+02 -0.48456780750E+01  0.19219265344E+02  0.27647006018E+02  0.41800000000E+01 0. -1.
         -5    1    3    3    0  502 -0.13499562779E+02 -0.23763932527E+03  0.10012082377E+04  0.10291210302E+04  0.41800000000E+01 0. -1.
        -11    1    1    2    0    0  0.61096990899E+02  0.16081741733E+03  0.30604431663E+03  0.35108148307E+03  0.00000000000E+00 0.  1.
         11    1    1    2    0    0 -0.28781908319E+02  0.81667586014E+02  0.10832320029E+03  0.13867915695E+03  0.00000000000E+00 0. -1.
</event>
<event>
 7    1  0.3042531E-009  0.1047664E+03  0.7561462E-02  0.1270581E+00
         -2   -1    0    0    0  501 -0.00000000000E+00  0.00000000000E+00  0.10331762201E+03  0.10331762201E+03  0.00000000000E+00 0. -1.
          2   -1    0    0  501    0  0.00000000000E+00 -0.00000000000E+00 -0.15187061589E+03  0.15187061589E+03  0.00000000000E+00 0.  1.
         25    2    1    2    0    0 -0.36903560574E+02 -0.48398018271E+02 -0.15041570489E+02  0.13992205055E+03  0.12509072880E+03 0.  0.
          5    1    3    3  502    0  0.34696542371E+02  0.15580059134E+02  0.11963305627E+02  0.40089666706E+02  0.41800000000E+01 0. -1.
         -5    1    3    3    0  502 -0.71600102945E+02 -0.63978077405E+02 -0.27004876116E+02  0.99832383845E+02  0.41800000000E+01 0. -1.
        -11    1    1    2    0    0  0.47074597188E+02  0.36939528531E+02  0.17224422878E+02  0.62267384817E+02  0.00000000000E+00 0. -1.
         11    1    1    2    0    0 -0.10171036614E+02  0.11458489741E+02 -0.50735846269E+02  0.52998802530E+02  0.00000000000E+00 0.  1.
</event>
<event>
 7    1  0.2766180E-009  0.1076192E+03  0.7561462E-02  0.1265043E+00
          1   -1    0    0  501    0  0.00000000000E+00  0.00000000000E+00  0.46680091045E+02  0.46680091045E+02  0.00000000000E+00 0. -1.
         -1   -1    0    0    0  501 -0.00000000000E+00 -0.00000000000E+00 -0.29605714781E+03  0.29605714781E+03  0.00000000000E+00 0.  1.
         25    2    1    2    0    0  0.33132130561E+02  0.28161382858E+02 -0.16600941643E+03  0.21236538239E+03  0.12509647370E+03 0.  0.
          5    1    3    3  502    0  0.20007453770E+02 -0.40545579113E+02 -0.18447869100E+02  0.49010595450E+02  0.41800000000E+01 0. -1.
         -5    1    3    3    0  502  0.13124676790E+02  0.68706961971E+02 -0.14756154733E+03  0.16335478694E+03  0.41800000000E+01 0. -1.
        -11    1    1    2    0    0  0.18481402920E+02 -0.42369468392E+02 -0.44979088189E+02  0.64496918376E+02  0.00000000000E+00 0.  1.
         11    1    1    2    0    0 -0.51613533480E+02  0.14208085534E+02 -0.38388552143E+02  0.65874938091E+02  0.00000000000E+00 0. -1.
</event>
<event>
 7    1  0.2766180E-009  0.2827843E+03  0.7561462E-02  0.1094178E+00
         -1   -1    0    0    0  501 -0.00000000000E+00  0.00000000000E+00  0.55091283375E+03  0.55091283375E+03  0.00000000000E+00 0.  1.
          1   -1    0    0  501    0  0.00000000000E+00 -0.00000000000E+00 -0.15399764482E+03  0.15399764482E+03  0.00000000000E+00 0. -1.
         25    2    1    2    0    0 -0.54646486671E+01 -0.26887992117E+03  0.16066746687E+03  0.33732476465E+03  0.12509071725E+03 0.  0.
          5    1    3    3  502    0 -0.53610337683E+02 -0.17230984584E+03  0.61452555673E+02  0.19067941756E+03  0.41800000000E+01 0. -1.
         -5    1    3    3    0  502  0.48145689016E+02 -0.96570075323E+02  0.99214911201E+02  0.14664534709E+03  0.41800000000E+01 0. -1.
        -11    1    1    2    0    0 -0.29081428441E+02  0.81381517792E+02  0.44580116889E+02  0.97242314555E+02  0.00000000000E+00 0.  1.
         11    1    1    2    0    0  0.34546077108E+02  0.18749840337E+03  0.19166760516E+03  0.27034339936E+03  0.00000000000E+00 0. -1.
</event>
<event>
 7    1  0.2766180E-009  0.1135887E+03  0.7561462E-02  0.1254065E+00
         -2   -1    0    0    0  501 -0.00000000000E+00  0.00000000000E+00  0.35136978172E+02  0.35136978172E+02  0.00000000000E+00 0.  1.
          2   -1    0    0  501    0  0.00000000000E+00 -0.00000000000E+00 -0.54792384965E+03  0.54792384965E+03  0.00000000000E+00 0. -1.
         25    2    1    2    0    0  0.38614207696E+02 -0.16603690368E+02 -0.44188966625E+03  0.46117338052E+03  0.12509064788E+03 0.  0.
          5    1    3    3  502    0 -0.42607720127E+02 -0.22666201056E+02 -0.20472013670E+03  0.21037343286E+03  0.41800000000E+01 0.  1.
         -5    1    3    3    0  502  0.81221927822E+02  0.60625106885E+01 -0.23716952956E+03  0.25079994766E+03  0.41800000000E+01 0.  1.
        -11    1    1    2    0    0 -0.13586073631E+02 -0.36243319178E+02 -0.16684496511E+02  0.42148926505E+02  0.00000000000E+00 0.  1.
         11    1    1    2    0    0 -0.25028134064E+02  0.52847009546E+02 -0.54212708712E+02  0.79738520795E+02  0.00000000000E+00 0. -1.
</event>
<event>
 7    1  0.2766180E-009  0.1108667E+03  0.7561462E-02  0.1258973E+00
         -1   -1    0    0    0  501 -0.00000000000E+00  0.00000000000E+00  0.16162782117E+02  0.16162782117E+02  0.00000000000E+00 0.  1.
          1   -1    0    0  501    0  0.00000000000E+00 -0.00000000000E+00 -0.11052686983E+04  0.11052686983E+04  0.00000000000E+00 0. -1.
         25    2    1    2    0    0  0.33881219902E+02  0.26325867789E+02 -0.86927266427E+03  0.87927396722E+03  0.12508699458E+03 0.  0.
          5    1    3    3  502    0  0.78599763607E+02  0.33413163810E+02 -0.62274405211E+03  0.62858729640E+03  0.41800000000E+01 0. -1.
         -5    1    3    3    0  502 -0.44718543705E+02 -0.70872960207E+01 -0.24652861216E+03  0.25068667082E+03  0.41800000000E+01 0. -1.
        -11    1    1    2    0    0 -0.51037021323E+02  0.86811384317E+01 -0.68377778123E+02  0.85765145899E+02  0.00000000000E+00 0. -1.
         11    1    1    2    0    0  0.17155801421E+02 -0.35007006221E+02 -0.15145547378E+03  0.15639236728E+03  0.00000000000E+00 0.  1.
</event>
<event>
 7    1  0.2766180E-009  0.1909362E+03  0.7561462E-02  0.1157620E+00
         -1   -1    0    0    0  501 -0.00000000000E+00  0.00000000000E+00  0.48783627891E+02  0.48783627891E+02  0.00000000000E+00 0. -1.
          1   -1    0    0  501    0  0.00000000000E+00 -0.00000000000E+00 -0.89034993233E+03  0.89034993233E+03  0.00000000000E+00 0.  1.
         25    2    1    2    0    0  0.16924482706E+02 -0.16663498057E+03 -0.30578988187E+03  0.37041820777E+03  0.12509413228E+03 0.  0.
          5    1    3    3  502    0 -0.45023334395E+02 -0.12724811768E+03 -0.18579700169E+03  0.22968931697E+03  0.41800000000E+01 0. -1.
         -5    1    3    3    0  502  0.61947817101E+02 -0.39386862886E+02 -0.11999288018E+03  0.14072889080E+03  0.41800000000E+01 0. -1.
        -11    1    1    2    0    0 -0.30393539351E+02  0.79135237324E+02 -0.38184323699E+03  0.39113988631E+03  0.00000000000E+00 0.  1.
         11    1    1    2    0    0  0.13469056645E+02  0.87499743246E+02 -0.15393318557E+03  0.17757546614E+03  0.00000000000E+00 0. -1.
</event>
<event>
 7    1  0.2766180E-009  0.1143156E+03  0.7561462E-02  0.1252780E+00
          2   -1    0    0  501    0  0.00000000000E+00  0.00000000000E+00  0.50614866143E+02  0.50614866143E+02  0.00000000000E+00 0. -1.
         -2   -1    0    0    0  501 -0.00000000000E+00 -0.00000000000E+00 -0.33905028463E+03  0.33905028463E+03  0.00000000000E+00 0.  1.
         25    2    1    2    0    0  0.14645671708E+02  0.56671839113E+02 -0.14228887586E+03  0.19828917494E+03  0.12508508967E+03 0.  0.
          5    1    3    3  502    0 -0.35692358916E+02  0.12271967992E+02 -0.12240484439E+03  0.12815991578E+03  0.41800000000E+01 0. -1.
         -5    1    3    3    0  502  0.50338030624E+02  0.44399871121E+02 -0.19884031468E+02  0.70129259158E+02  0.41800000000E+01 0. -1.
        -11    1    1    2    0    0  0.40948249895E+02 -0.53970620188E+02 -0.84895758730E+02  0.10861342856E+03  0.00000000000E+00 0. -1.
         11    1    1    2    0    0 -0.55593921603E+02 -0.27012189248E+01 -0.61250783894E+02  0.82762547269E+02  0.00000000000E+00 0.  1.
</event>
<event>
 7    1  0.2766180E-009  0.1428604E+03  0.7561462E-02  0.1209531E+00
         -3   -1    0    0    0  501 -0.00000000000E+00  0.00000000000E+00  0.71401232865E+02  0.71401232865E+02  0.00000000000E+00 0.  1.
          3   -1    0    0  501    0  0.00000000000E+00 -0.00000000000E+00 -0.36833405925E+03  0.36833405925E+03  0.00000000000E+00 0. -1.
         25    2    1    2    0    0  0.10973204297E+02  0.12264643286E+03 -0.16956862357E+03  0.24405449985E+03  0.12508605875E+03 0.  0.
          5    1    3    3  502    0  0.54431041906E+02  0.37673860400E+02 -0.11832155038E+03  0.13564482948E+03  0.41800000000E+01 0. -1.
         -5    1    3    3    0  502 -0.43457837609E+02  0.84972572459E+02 -0.51247073188E+02  0.10840967037E+03  0.41800000000E+01 0. -1.
        -11    1    1    2    0    0  0.71144043697E-01 -0.72983204652E+02 -0.12500357278E+03  0.14474959907E+03  0.00000000000E+00 0. -1.
         11    1    1    2    0    0 -0.11044348341E+02 -0.49663228207E+02 -0.23606300413E+01  0.50931193197E+02  0.00000000000E+00 0.  1.
</event>
<event>
 7    1  0.2766180E-009  0.8172625E+02  0.7561462E-02  0.1324223E+00
         -2   -1    0    0    0  501 -0.00000000000E+00  0.00000000000E+00  0.53023830490E+03  0.53023830490E+03  0.00000000000E+00 0. -1.
          2   -1    0    0  501    0  0.00000000000E+00 -0.00000000000E+00 -0.27825885656E+02  0.27825885656E+02  0.00000000000E+00 0.  1.
         25    2    1    2    0    0 -0.12840063395E+02  0.51491519158E+02  0.30515277576E+03  0.33403816481E+03  0.12508810985E+03 0.  0.
          5    1    3    3  502    0 -0.15132090023E+02 -0.51849185083E+01 -0.61068390428E+01  0.17624681883E+02  0.41800000000E+01 0. -1.
         -5    1    3    3    0  502  0.22920266275E+01  0.56676437666E+02  0.31125961480E+03  0.31641348293E+03  0.41800000000E+01 0. -1.
        -11    1    1    2    0    0 -0.26257333026E+02 -0.42449030179E+02  0.47211596524E+02  0.68704457986E+02  0.00000000000E+00 0.  1.
         11    1    1    2    0    0  0.39097396422E+02 -0.90424889786E+01  0.15004804696E+03  0.15532156776E+03  0.00000000000E+00 0. -1.
</event>
<event>
 7    1  0.3219835E-009  0.9124284E+02  0.7561462E-02  0.1299870E+00
          1   -1    0    0  501    0  0.00000000000E+00  0.00000000000E+00  0.53800430098E+03  0.53800430098E+03  0.00000000000E+00 0. -1.
         -1   -1    0    0    0  501 -0.00000000000E+00 -0.00000000000E+00 -0.28868855454E+02  0.28868855454E+02  0.00000000000E+00 0.  1.
         25    2    1    2    0    0  0.40606251006E+02  0.26341076451E+02  0.19862687472E+03  0.23966979916E+03  0.12508500045E+03 0.  0.
          5    1    3    3  502    0  0.49257329298E+02  0.40395978234E+02  0.30622284452E+02  0.70804775631E+02  0.41800000000E+01 0. -1.
         -5    1    3    3    0  502 -0.86510782924E+01 -0.14054901783E+02  0.16800459027E+03  0.16886502353E+03  0.41800000000E+01 0. -1.
        -11    1    1    2    0    0  0.22534409394E+02 -0.30980721518E+02  0.90695067777E+02  0.98454050357E+02  0.00000000000E+00 0.  1.
         11    1    1    2    0    0 -0.63140660400E+02  0.46396450670E+01  0.21981350303E+03  0.22874930692E+03  0.00000000000E+00 0. -1.
</event>
<event>
 7    1  0.3061710E-009  0.7549726E+02  0.7561462E-02  0.1342338E+00
         -1   -1    0    0    0  501 -0.00000000000E+00  0.00000000000E+00  0.65593357532E+02  0.65593357532E+02  0.00000000000E+00 0.  1.
          1   -1    0    0  501    0  0.00000000000E+00 -0.00000000000E+00 -0.19225775295E+03  0.19225775295E+03  0.00000000000E+00 0. -1.
         25    2    1    2    0    0  0.31632327255E+00 -0.28565877620E+02 -0.73478361302E+02  0.14786049977E+03  0.12509016104E+03 0.  0.
          5    1    3    3  502    0 -0.11407003136E+01  0.32581846663E+02 -0.79725612416E+02  0.86235280508E+02  0.41800000000E+01 0. -1.
         -5    1    3    3    0  502  0.14570235861E+01 -0.61147724283E+02  0.62472511134E+01  0.61625219263E+02  0.41800000000E+01 0. -1.
        -11    1    1    2    0    0 -0.16960679913E+02 -0.63719640914E+01  0.20132816748E+02  0.27084993994E+02  0.00000000000E+00 0.  1.
         11    1    1    2    0    0  0.16644356640E+02  0.34937841712E+02 -0.73318850862E+02  0.82905616717E+02  0.00000000000E+00 0. -1.
</event>
<event>
 7    1  0.2766180E-009  0.7868337E+02  0.7561462E-02  0.1332830E+00
         -1   -1    0    0    0  501 -0.00000000000E+00  0.00000000000E+00  0.28737100813E+02  0.28737100813E+02  0.00000000000E+00 0.  1.
          1   -1    0    0  501    0  0.00000000000E+00 -0.00000000000E+00 -0.57612881131E+03  0.57612881131E+03  0.00000000000E+00 0. -1.
         25    2    1    2    0    0  0.26782087048E+02 -0.17535917904E+02 -0.45138747066E+03  0.46949225627E+03  0.12509013317E+03 0.  0.
          5    1    3    3  502    0  0.45365598613E+02  0.95005582332E+01 -0.42401597155E+03  0.42656220493E+03  0.41800000000E+01 0. -1.
         -5    1    3    3    0  502 -0.18583511566E+02 -0.27036476137E+02 -0.27371499119E+02  0.42930051340E+02  0.41800000000E+01 0. -1.
        -11    1    1    2    0    0  0.11236080210E+02  0.34383236660E+02 -0.84972526189E+02  0.92351430247E+02  0.00000000000E+00 0. -1.
         11    1    1    2    0    0 -0.38018167257E+02 -0.16847318756E+02 -0.11031713646E+02  0.43022225615E+02  0.00000000000E+00 0.  1.
</event>
<event>
 7    1  0.2766180E-009  0.1705646E+03  0.7561462E-02  0.1177260E+00
         -2   -1    0    0    0  501 -0.00000000000E+00  0.00000000000E+00  0.24869347555E+02  0.24869347555E+02  0.00000000000E+00 0.  1.
          2   -1    0    0  501    0  0.00000000000E+00 -0.00000000000E+00 -0.14062359436E+04  0.14062359436E+04  0.00000000000E+00 0. -1.
         25    2    1    2    0    0 -0.74916824338E+02 -0.12576767470E+03 -0.88124097047E+03  0.90203187443E+03  0.12508323586E+03 0.  0.
          5    1    3    3  502    0 -0.98445040582E+02 -0.12622584621E+03 -0.64480709111E+03  0.66439299170E+03  0.41800000000E+01 0. -1.
         -5    1    3    3    0  502  0.23528216244E+02  0.45817151068E+00 -0.23643387935E+03  0.23763888273E+03  0.41800000000E+01 0. -1.
        -11    1    1    2    0    0  0.12657486649E+02  0.76941748318E+02 -0.13896093477E+03  0.15934360983E+03  0.00000000000E+00 0.  1.
         11    1    1    2    0    0  0.62259337689E+02  0.48825926386E+02 -0.36116469084E+03  0.36972980692E+03  0.00000000000E+00 0. -1.
</event>
<event>
 7    1  0.2766180E-009  0.1960384E+03  0.7561462E-02  0.1153125E+00
          1   -1    0    0  501    0  0.00000000000E+00  0.00000000000E+00  0.30700329833E+03  0.30700329833E+03  0.00000000000E+00 0. -1.
         -1   -1    0    0    0  501 -0.00000000000E+00 -0.00000000000E+00 -0.15525885748E+03  0.15525885748E+03  0.00000000000E+00 0.  1.
         25    2    1    2    0    0 -0.13943949390E+03 -0.11598452466E+03  0.24722841436E+02  0.22170833366E+03  0.12509030300E+03 0.  0.
          5    1    3    3  502    0  0.11012361081E+02 -0.37834598749E+02 -0.22629219749E+02  0.45632038586E+02  0.41800000000E+01 0.  1.
         -5    1    3    3    0  502 -0.15045185498E+03 -0.78149925910E+02  0.47352061185E+02  0.17607629507E+03  0.41800000000E+01 0.  1.
        -11    1    1    2    0    0  0.84887447992E+02  0.84979004795E+02  0.28014442943E+02  0.12333741969E+03  0.00000000000E+00 0.  1.
         11    1    1    2    0    0  0.54552045910E+02  0.31005519864E+02  0.99007156470E+02  0.11721640247E+03  0.00000000000E+00 0. -1.
</event>
<event>
 7    1  0.2766180E-009  0.9142496E+02  0.7561462E-02  0.1299437E+00
         -1   -1    0    0    0  501 -0.00000000000E+00  0.00000000000E+00  0.17875371075E+03  0.17875371075E+03  0.00000000000E+00 0.  1.
          1   -1    0    0  501    0  0.00000000000E+00 -0.00000000000E+00 -0.98480988081E+02  0.98480988081E+02  0.00000000000E+00 0. -1.
         25    2    1    2    0    0  0.67285330443E+02  0.34410059650E+02  0.41832914879E+02  0.15201136756E+03  0.12508435234E+03 0.  0.
          5    1    3    3  502    0  0.22647124281E+02 -0.20919056431E+02 -0.35284756446E+02  0.47042380867E+02  0.41800000000E+01 0. -1.
         -5    1    3    3    0  502  0.44638206162E+02  0.55329116080E+02  0.77117671326E+02  0.10496898669E+03  0.41800000000E+01 0. -1.
        -11    1    1    2    0    0 -0.28324011616E+02  0.32726861689E+00 -0.28603642283E+02  0.40255746058E+02  0.00000000000E+00 0. -1.
         11    1    1    2    0    0 -0.38961318827E+02 -0.34737328267E+02  0.67043450070E+02  0.84967585214E+02  0.00000000000E+00 0.  1.
</event>
<event>
 7    1  0.2766180E-009  0.3803765E+03  0.7561462E-02  0.1050795E+00
          1   -1    0    0  501    0  0.00000000000E+00  0.00000000000E+00  0.93805391305E+02  0.93805391305E+02  0.00000000000E+00 0. -1.
         -1   -1    0    0    0  501 -0.00000000000E+00 -0.00000000000E+00 -0.16718431493E+04  0.16718431493E+04  0.00000000000E+00 0.  1.
         25    2    1    2    0    0 -0.36174213755E+03  0.77990106608E+02 -0.59938898427E+03  0.71544007819E+03  0.12509004842E+03 0.  0.
          5    1    3    3  502    0 -0.31173685821E+03  0.23762763300E+02 -0.52176043912E+03  0.60827293702E+03  0.41800000000E+01 0. -1.
         -5    1    3    3    0  502 -0.50005279345E+02  0.54227343309E+02 -0.77628545152E+02  0.10716714117E+03  0.41800000000E+01 0. -1.
        -11    1    1    2    0    0  0.33454245693E+03 -0.86784078807E+02 -0.94406299633E+03  0.10053382878E+04  0.00000000000E+00 0.  1.
         11    1    1    2    0    0  0.27199680620E+02  0.87939721984E+01 -0.34585777351E+02  0.44870174591E+02  0.00000000000E+00 0. -1.
</event>
<event>
 7    1  0.2766180E-009  0.1035898E+03  0.7561462E-02  0.1272923E+00
         -1   -1    0    0    0  501 -0.00000000000E+00  0.00000000000E+00  0.11766971453E+03  0.11766971453E+03  0.00000000000E+00 0.  1.
          1   -1    0    0  501    0  0.00000000000E+00 -0.00000000000E+00 -0.97826032697E+02  0.97826032697E+02  0.00000000000E+00 0. -1.
         25    2    1    2    0    0  0.20974193692E+02 -0.11093062279E+02  0.24372900869E+02  0.12963467503E+03  0.12509251713E+03 0.  0.
          5    1    3    3  502    0  0.24237897677E+02 -0.64188122928E+02 -0.46443311846E+01  0.68895812797E+02  0.41800000000E+01 0. -1.
         -5    1    3    3    0  502 -0.32637039852E+01  0.53095060649E+02  0.29017232054E+02  0.60738862231E+02  0.41800000000E+01 0. -1.
        -11    1    1    2    0    0 -0.46147617477E+02 -0.15290538227E+02  0.26810690364E+01  0.48688718296E+02  0.00000000000E+00 0.  1.
         11    1    1    2    0    0  0.25173423785E+02  0.26383600507E+02 -0.72102880702E+01  0.37172353905E+02  0.00000000000E+00 0. -1.
</event>
<event>
 7    1  0.2766180E-009  0.2140947E+03  0.7561462E-02  0.1138364E+00
         -3   -1    0    0    0  501 -0.00000000000E+00  0.00000000000E+00  0.22229691809E+03  0.22229691809E+03  0.00000000000E+00 0.  1.
          3   -1    0    0  501    0  0.00000000000E+00 -0.00000000000E+00 -0.32777036147E+03  0.32777036147E+03  0.00000000000E+00 0. -1.
         25    2    1    2    0    0 -0.19918290666E+03  0.53483432380E+02 -0.19366172669E+03  0.30933198647E+03  0.12508839126E+03 0.  0.
          5    1    3    3  502    0 -0.11370419635E+03  0.70266948693E+01 -0.28346961060E+02  0.11746932072E+03  0.41800000000E+01 0.  1.
         -5    1    3    3    0  502 -0.85478710308E+02  0.46456737510E+02 -0.16531476563E+03  0.19186266575E+03  0.41800000000E+01 0.  1.
        -11    1    1    2    0    0  0.99578920173E+02 -0.61249785631E+02  0.77490455137E+02  0.14025786331E+03  0.00000000000E+00 0. -1.
         11    1    1    2    0    0  0.99603986487E+02  0.77663532513E+01  0.10697828176E+02  0.10047742978E+03  0.00000000000E+00 0.  1.
</event>
<event>
 7    1  0.2766180E-009  0.1126725E+03  0.7561462E-02  0.1255699E+00
          1   -1    0    0  501    0  0.00000000000E+00  0.00000000000E+00  0.78929634939E+02  0.78929634939E+02  0.00000000000E+00 0. -1.
         -1   -1    0    0    0  501 -0.00000000000E+00 -0.00000000000E+00 -0.24804097745E+03  0.24804097745E+03  0.00000000000E+00 0.  1.
         25    2    1    2    0    0 -0.13003995944E+02  0.82120331919E+02 -0.12543504479E+03  0.19569030058E+03  0.12509152830E+03 0.  0.
          5    1    3    3  502    0  0.11975380425E+02 -0.12309313696E+02  0.15941263111E+02  0.23801790050E+02  0.41800000000E+01 0. -1.
         -5    1    3    3    0  502 -0.24979376368E+02  0.94429645615E+02 -0.14137630790E+03  0.17188851053E+03  0.41800000000E+01 0. -1.
        -11    1    1    2    0    0 -0.14921756286E+02  0.70202321900E+01  0.13884431867E+02  0.21557363450E+02  0.00000000000E+00 0. -1.
         11    1    1    2    0    0  0.27925752229E+02 -0.89140564109E+02 -0.57560729585E+02  0.10972294836E+03  0.00000000000E+00 0.  1.
</event>
<event>
 7    1  0.2766180E-009  0.7388534E+02  0.7561462E-02  0.1347358E+00
          2   -1    0    0  501    0  0.00000000000E+00  0.00000000000E+00  0.69017250534E+03  0.69017250534E+03  0.00000000000E+00 0. -1.
         -2   -1    0    0    0  501 -0.00000000000E+00 -0.00000000000E+00 -0.34207218514E+02  0.34207218514E+02  0.00000000000E+00 0.  1.
         25    2    1    2    0    0  0.11940354562E+02  0.73558409833E+01  0.61012597530E+03  0.62297523255E+03  0.12509098360E+03 0.  0.
          5    1    3    3  502    0 -0.22648038777E+02 -0.29263863384E+02  0.50456098745E+03  0.50593336500E+03  0.41800000000E+01 0. -1.
         -5    1    3    3    0  502  0.34588393339E+02  0.36619704368E+02  0.10556498784E+03  0.11704186755E+03  0.41800000000E+01 0. -1.
        -11    1    1    2    0    0 -0.29943863824E+02 -0.21688946531E+02 -0.12228267325E+02  0.38943239517E+02  0.00000000000E+00 0.  1.
         11    1    1    2    0    0  0.18003509262E+02  0.14333105548E+02  0.58067578851E+02  0.62461251781E+02  0.00000000000E+00 0. -1.
</event>
<event>
 7    1  0.2766180E-009  0.9536003E+02  0.7561462E-02  0.1290367E+00
          1   -1    0    0  501    0  0.00000000000E+00  0.00000000000E+00  0.22873551071E+03  0.22873551071E+03  0.00000000000E+00 0. -1.
         -1   -1    0    0    0  501 -0.00000000000E+00 -0.00000000000E+00 -0.69447291487E+02  0.69447291487E+02  0.00000000000E+00 0.  1.
         25    2    1    2    0    0  0.48290945951E+02 -0.32966894719E+02  0.10577577900E+03  0.17393866065E+03  0.12508921071E+03 0.  0.
          5    1    3    3  502    0  0.11864657491E+02 -0.60658868209E+02  0.37723950240E+01  0.62064255042E+02  0.41800000000E+01 0.  1.
         -5    1    3    3    0  502  0.36426288461E+02  0.27691973489E+02  0.10200338397E+03  0.11187440560E+03  0.41800000000E+01 0.  1.
        -11    1    1    2    0    0 -0.91805299157E+01  0.41742385665E+02  0.69089581907E+02  0.81240871602E+02  0.00000000000E+00 0. -1.
         11    1    1    2    0    0 -0.39110416036E+02 -0.87754909459E+01 -0.15577141678E+02  0.43003269954E+02  0.00000000000E+00 0.  1.
</event>
<event>
 7    1  0.2766180E-009  0.1199573E+03  0.7561462E-02  0.1243168E+00
          2   -1    0    0  501    0  0.00000000000E+00  0.00000000000E+00  0.29822529479E+03  0.29822529479E+03  0.00000000000E+00 0. -1.
         -2   -1    0    0    0  501 -0.00000000000E+00 -0.00000000000E+00 -0.12377517445E+03  0.12377517445E+03  0.00000000000E+00 0.  1.
         25    2    1    2    0    0 -0.73424202144E+02  0.34114493956E+02  0.21441332585E+03  0.26110318312E+03  0.12508751245E+03 0.  0.
          5    1    3    3  502    0 -0.92505732849E+02  0.73365044204E+01  0.79773747027E+02  0.12244369327E+03  0.41800000000E+01 0.  1.
         -5    1    3    3    0  502  0.19081530705E+02  0.26777989536E+02  0.13463957883E+03  0.13865948985E+03  0.41800000000E+01 0.  1.
        -11    1    1    2    0    0  0.29859035884E+02  0.26030983375E+02  0.36814633955E+02  0.54078566851E+02  0.00000000000E+00 0. -1.
         11    1    1    2    0    0  0.43565166260E+02 -0.60145477332E+02 -0.76777839463E+02  0.10681871927E+03  0.00000000000E+00 0.  1.
</event>
<event>
 7    1  0.2766180E-009  0.9175882E+02  0.7561462E-02  0.1298648E+00
         -1   -1    0    0    0  501 -0.00000000000E+00  0.00000000000E+00  0.11216516930E+02  0.11216516930E+02  0.00000000000E+00 0.  1.
          1   -1    0    0  501    0  0.00000000000E+00 -0.00000000000E+00 -0.11939269169E+04  0.11939269169E+04  0.00000000000E+00 0. -1.
         25    2    1    2    0    0 -0.30164822652E+02 -0.18287575550E+02 -0.71468805461E+03  0.72641092046E+03  0.12509779379E+03 0.  0.
          5    1    3    3  502    0 -0.30765480611E+02 -0.48700329989E+02 -0.66824195761E+03  0.67073319826E+03  0.41800000000E+01 0. -1.
         -5    1    3    3    0  502  0.60065795942E+00  0.30412754439E+02 -0.46446097005E+02  0.55677722202E+02  0.41800000000E+01 0. -1.
        -11    1    1    2    0    0 -0.84763108156E+01 -0.31165762014E+02 -0.91904352065E+02  0.97414385464E+02  0.00000000000E+00 0.  1.
         11    1    1    2    0    0  0.38641133467E+02  0.49453337564E+02 -0.37611799331E+03  0.38131812792E+03  0.00000000000E+00 0. -1.
</event>
<event>
 7    1  0.2766180E-009  0.1080552E+03  0.7561462E-02  0.1264214E+00
          2   -1    0    0  501    0  0.00000000000E+00  0.00000000000E+00  0.29448460862E+03  0.29448460862E+03  0.00000000000E+00 0. -1.
         -2   -1    0    0    0  501 -0.00000000000E+00 -0.00000000000E+00 -0.52769010683E+02  0.52769010683E+02  0.00000000000E+00 0.  1.
         25    2    1    2    0    0  0.56373152542E+02 -0.24521834747E+02  0.14375954839E+03  0.20023504391E+03  0.12509201553E+03 0.  0.
          5    1    3    3  502    0  0.88726407178E+02 -0.12508836473E+02  0.55764635116E+02  0.10562203014E+03  0.41800000000E+01 0. -1.
         -5    1    3    3    0  502 -0.32353254635E+02 -0.12012998274E+02  0.87994913275E+02  0.94613013774E+02  0.41800000000E+01 0. -1.
        -11    1    1    2    0    0 -0.41031593599E+02  0.48282469319E+02  0.23856255146E+02  0.67704574635E+02  0.00000000000E+00 0.  1.
         11    1    1    2    0    0 -0.15341558943E+02 -0.23760634573E+02  0.74099794399E+02  0.79314000757E+02  0.00000000000E+00 0. -1.
</event>
<event>
 7    1  0.2766180E-009  0.7052747E+02  0.7561462E-02  0.1358308E+00
          1   -1    0    0  501    0  0.00000000000E+00  0.00000000000E+00  0.43575531287E+02  0.43575531287E+02  0.00000000000E+00 0. -1.
         -1   -1    0    0    0  501 -0.00000000000E+00 -0.00000000000E+00 -0.24638133782E+03  0.24638133782E+03  0.00000000000E+00 0.  1.
         25    2    1    2    0    0 -0.85920483101E-02 -0.63317247212E-01 -0.12092891788E+03  0.17398454297E+03  0.12508722528E+03 0.  0.
          5    1    3    3  502    0 -0.45002554794E+02  0.14619524853E+02 -0.38804909042E+01  0.47660162133E+02  0.41800000000E+01 0.  1.
         -5    1    3    3    0  502  0.44993962746E+02 -0.14682842100E+02 -0.11704842698E+03  0.12632438084E+03  0.41800000000E+01 0.  1.
        -11    1    1    2    0    0 -0.56809714389E+01 -0.22275095989E+02 -0.88940083947E+02  0.91862897136E+02  0.00000000000E+00 0.  1.
         11    1    1    2    0    0  0.56895634872E+01  0.22338413236E+02  0.70631953031E+01  0.24109428995E+02  0.00000000000E+00 0. -1.
</event>
<event>
 7    1  0.2766180E-009  0.1141038E+03  0.7561462E-02  0.1253154E+00
         -1   -1    0    0    0  501 -0.00000000000E+00  0.00000000000E+00  0.51059184307E+02  0.51059184307E+02  0.00000000000E+00 0.  1.
          1   -1    0    0  501    0  0.00000000000E+00 -0.00000000000E+00 -0.44381487998E+03  0.44381487998E+03  0.00000000000E+00 0. -1.
         25    2    1    2    0    0 -0.41214184086E+02 -0.81613689593E+02 -0.12866775499E+03  0.20139968018E+03  0.12508811576E+03 0.  0.
          5    1    3    3  502    0 -0.52130304432E+02 -0.67205953879E+02 -0.15039409088E+03  0.17282958037E+03  0.41800000000E+01 0.  1.
         -5    1    3    3    0  502  0.10916120345E+02 -0.14407735713E+02  0.21726335897E+02  0.28570099812E+02  0.41800000000E+01 0.  1.
        -11    1    1    2    0    0 -0.22930553404E+02  0.45335818515E+02 -0.75525471351E+02  0.91023313181E+02  0.00000000000E+00 0.  1.
         11    1    1    2    0    0  0.64144737490E+02  0.36277871078E+02 -0.18856246933E+03  0.20245107093E+03  0.00000000000E+00 0. -1.
</event>
<event>
 7    1  0.2766180E-009  0.1586221E+03  0.7561462E-02  0.1190261E+00
          2   -1    0    0  501    0  0.00000000000E+00  0.00000000000E+00  0.38946436643E+04  0.38946436643E+04  0.00000000000E+00 0. -1.
         -2   -1    0    0    0  501 -0.00000000000E+00 -0.00000000000E+00 -0.11757590582E+02  0.11757590582E+02  0.00000000000E+00 0.  1.
         25    2    1    2    0    0 -0.14471301322E+03 -0.40925359989E+02  0.31427114548E+04  0.31487933991E+04  0.12509132995E+03 0.  0.
          5    1    3    3  502    0 -0.11413319734E+03 -0.14406158313E+02  0.11671885405E+04  0.11728514337E+04  0.41800000000E+01 0. -1.
         -5    1    3    3    0  502 -0.30579815878E+02 -0.26519201675E+02  0.19755229143E+04  0.19759419654E+04  0.41800000000E+01 0. -1.
        -11    1    1    2    0    0  0.10659048146E+03  0.56043994434E+02  0.53747264067E+03  0.55079878315E+03  0.00000000000E+00 0.  1.
         11    1    1    2    0    0  0.38122531758E+02 -0.15118634446E+02  0.20270197823E+03  0.20680907261E+03  0.00000000000E+00 0. -1.
</event>
<event>
 7    1  0.2766180E-009  0.1046979E+03  0.7561462E-02  0.1270716E+00
          1   -1    0    0  501    0  0.00000000000E+00  0.00000000000E+00  0.90175282021E+03  0.90175282021E+03  0.00000000000E+00 0. -1.
         -1   -1    0    0    0  501 -0.00000000000E+00 -0.00000000000E+00 -0.14458776470E+02  0.14458776470E+02  0.00000000000E+00 0.  1.
         25    2    1    2    0    0 -0.30412293710E+02 -0.12301174577E+02  0.58970839909E+03  0.60372281163E+03  0.12509600639E+03 0.  0.
          5    1    3    3  502    0  0.17626948169E+02 -0.56269719680E+02  0.36404909724E+03  0.36881731013E+03  0.41800000000E+01 0. -1.
         -5    1    3    3    0  502 -0.48039241879E+02  0.43968545103E+02  0.22565930185E+03  0.23490550149E+03  0.41800000000E+01 0. -1.
        -11    1    1    2    0    0  0.43332678347E+02  0.37111108145E+02  0.25660886012E+03  0.26287461356E+03  0.00000000000E+00 0. -1.
         11    1    1    2    0    0 -0.12920384638E+02 -0.24809933569E+02  0.40976784520E+02  0.49614171489E+02  0.00000000000E+00 0.  1.
</event>
<event>
 7    1  0.2766180E-009  0.7261517E+02  0.7561462E-02  0.1351419E+00
          2   -1    0    0  501    0  0.00000000000E+00  0.00000000000E+00  0.53540064967E+02  0.53540064967E+02  0.00000000000E+00 0. -1.
         -2   -1    0    0    0  501 -0.00000000000E+00 -0.00000000000E+00 -0.26790829756E+03  0.26790829756E+03  0.00000000000E+00 0.  1.
         25    2    1    2    0    0  0.40446584287E+02 -0.33242854401E+02 -0.12274024975E+03  0.18290401529E+03  0.12509075246E+03 0.  0.
          5    1    3    3  502    0  0.89298722675E+01  0.16125712170E+02  0.20627198308E+02  0.27977400196E+02  0.41800000000E+01 0. -1.
         -5    1    3    3    0  502  0.31516712020E+02 -0.49368566571E+02 -0.14336744806E+03  0.15492661509E+03  0.41800000000E+01 0. -1.
        -11    1    1    2    0    0 -0.22333229083E+02 -0.70604660874E+01  0.11687311501E+02  0.26176641358E+02  0.00000000000E+00 0. -1.
         11    1    1    2    0    0 -0.18113355204E+02  0.40303320488E+02 -0.10331529435E+03  0.11236770589E+03  0.00000000000E+00 0.  1.
</event>
<event>
 7    1  0.2766180E-009  0.1736831E+03  0.7561462E-02  0.1174061E+00
         -1   -1    0    0    0  501 -0.00000000000E+00  0.00000000000E+00  0.62842706753E+02  0.62842706753E+02  0.00000000000E+00 0.  1.
          1   -1    0    0  501    0  0.00000000000E+00 -0.00000000000E+00 -0.60605907706E+03  0.60605907706E+03  0.00000000000E+00 0. -1.
         25    2    1    2    0    0 -0.11572854036E+03  0.92711039448E+02 -0.39532481420E+03  0.44035951573E+03  0.12508542074E+03 0.  0.
          5    1    3    3  502    0 -0.10928543429E+03  0.25765197678E+02 -0.32069843260E+03  0.33981187241E+03  0.41800000000E+01 0. -1.
         -5    1    3    3    0  502 -0.64431060694E+01  0.66945841770E+02 -0.74626381602E+02  0.10054764332E+03  0.41800000000E+01 0. -1.
        -11    1    1    2    0    0  0.12571536674E+03 -0.72612710485E+02 -0.14619752755E+03  0.20603561882E+03  0.00000000000E+00 0. -1.
         11    1    1    2    0    0 -0.99868263832E+01 -0.20098328963E+02 -0.16940285543E+01  0.22506649263E+02  0.00000000000E+00 0.  1.
</event>
<event>
 7    1  0.2766180E-009  0.1537397E+03  0.7561462E-02  0.1195952E+00
         -1   -1    0    0    0  501 -0.00000000000E+00  0.00000000000E+00  0.94453531804E+02  0.94453531804E+02  0.00000000000E+00 0.  1.
          1   -1    0    0  501    0  0.00000000000E+00 -0.00000000000E+00 -0.33610079655E+03  0.33610079655E+03  0.00000000000E+00 0. -1.
         25    2    1    2    0    0 -0.67736376722E+02  0.11880157996E+03 -0.17347160727E+03  0.25385481857E+03  0.12509131965E+03 0.  0.
          5    1    3    3  502    0 -0.74120581898E+02  0.10360217932E+03 -0.63171350745E+02  0.14225106037E+03  0.41800000000E+01 0. -1.
         -5    1    3    3    0  502  0.63842051765E+01  0.15199400639E+02 -0.11030025652E+03  0.11160375820E+03  0.41800000000E+01 0. -1.
        -11    1    1    2    0    0 -0.52654701937E+01  0.12066232976E+02 -0.53754915116E+01  0.14220234301E+02  0.00000000000E+00 0.  1.
         11    1    1    2    0    0  0.73001846916E+02 -0.13086781294E+03 -0.62800165971E+02  0.16247927549E+03  0.00000000000E+00 0. -1.
</event>
<event>
 7    1  0.2766180E-009  0.1680795E+03  0.7561462E-02  0.1179866E+00
          2   -1    0    0  501    0  0.00000000000E+00  0.00000000000E+00  0.66182154330E+03  0.66182154330E+03  0.00000000000E+00 0. -1.
         -2   -1    0    0    0  501 -0.00000000000E+00 -0.00000000000E+00 -0.62208592057E+02  0.62208592057E+02  0.00000000000E+00 0.  1.
         25    2    1    2    0    0  0.15410591896E+03  0.36548514091E+02  0.43016695358E+03  0.47515785560E+03  0.12508777577E+03 0.  0.
          5    1    3    3  502    0  0.71940083495E+01 -0.15623786473E+02  0.11601861309E+00  0.17701477910E+02  0.41800000000E+01 0.  1.
         -5    1    3    3    0  502  0.14691191061E+03  0.52172300564E+02  0.43005093497E+03  0.45745637769E+03  0.41800000000E+01 0.  1.
        -11    1    1    2    0    0 -0.85169406585E+02 -0.38658285623E+02  0.39043083681E+02  0.10135409833E+03  0.00000000000E+00 0.  1.
         11    1    1    2    0    0 -0.68936512377E+02  0.21097715322E+01  0.13040291398E+03  0.14751818142E+03  0.00000000000E+00 0. -1.
</event>
<event>
 7    1  0.2766180E-009  0.7385666E+02  0.7561462E-02  0.1347449E+00
         -1   -1    0    0    0  501 -0.00000000000E+00  0.00000000000E+00  0.33414066090E+02  0.33414066090E+02  0.00000000000E+00 0.  1.
          1   -1    0    0  501    0  0.00000000000E+00 -0.00000000000E+00 -0.37555933851E+03  0.37555933851E+03  0.00000000000E+00 0. -1.
         25    2    1    2    0    0 -0.23808581829E+01  0.29959884333E+02 -0.20657889238E+03  0.24336228072E+03  0.12508835976E+03 0.  0.
          5    1    3    3  502    0 -0.32631839088E+02  0.25425373533E+02 -0.20833082939E+03  0.21243938763E+03  0.41800000000E+01 0. -1.
         -5    1    3    3    0  502  0.30250980905E+02  0.45345108006E+01  0.17519370152E+01  0.30922893093E+02  0.41800000000E+01 0. -1.
        -11    1    1    2    0    0  0.25968619260E+01  0.22576280324E+02 -0.28855700280E+01  0.22907610952E+02  0.00000000000E+00 0.  1.
         11    1    1    2    0    0 -0.21600374314E+00 -0.52536164658E+02 -0.13268081001E+03  0.14270351292E+03  0.00000000000E+00 0. -1.
</event>
<event>
 7    1  0.2766180E-009  0.1198525E+03  0.7561462E-02  0.1243341E+00
         -2   -1    0    0    0  501 -0.00000000000E+00  0.00000000000E+00  0.26129128705E+02  0.26129128705E+02  0.00000000000E+00 0.  1.
          2   -1    0    0  501    0  0.00000000000E+00 -0.00000000000E+00 -0.93276172415E+03  0.93276172415E+03  0.00000000000E+00 0. -1.
         25    2    1    2    0    0  0.77670464921E+02  0.12138149196E+02 -0.73207011736E+03  0.74683027198E+03  0.12509501441E+03 0.  0.
          5    1    3    3  502    0  0.42195687752E+01 -0.50655470482E+02 -0.25849537281E+03  0.26347886370E+03  0.41800000000E+01 0.  1.
         -5    1    3    3    0  502  0.73450896146E+02  0.62793619678E+02 -0.47357474454E+03  0.48335140828E+03  0.41800000000E+01 0.  1.
        -11    1    1    2    0    0 -0.50489013233E+02  0.15894251746E+02 -0.16293828657E+03  0.17132032257E+03  0.00000000000E+00 0. -1.
         11    1    1    2    0    0 -0.27181451688E+02 -0.28032400943E+02 -0.11624191524E+02  0.40740258309E+02  0.00000000000E+00 0.  1.
</event>
<event>
 7    1  0.2766180E-009  0.1065133E+03  0.7561462E-02  0.1267166E+00
          2   -1    0    0  501    0  0.00000000000E+00  0.00000000000E+00  0.37757047269E+03  0.37757047269E+03  0.00000000000E+00 0. -1.
         -2   -1    0    0    0  501 -0.00000000000E+00 -0.00000000000E+00 -0.38644893183E+02  0.38644893183E+02  0.00000000000E+00 0.  1.
         25    2    1    2    0    0  0.12409967454E+02  0.37372679160E+02  0.24019679208E+03  0.27366156235E+03  0.12508168269E+03 0.  0.
          5    1    3    3  502    0  0.48079465649E+02  0.67638849752E+02  0.13608922105E+03  0.15945029790E+03  0.41800000000E+01 0.  1.
         -5    1    3    3    0  502 -0.35669498195E+02 -0.30266170591E+02  0.10410757102E+03  0.11421126445E+03  0.41800000000E+01 0.  1.
        -11    1    1    2    0    0 -0.43178545930E+02 -0.19403856226E+02  0.12065459267E+02  0.48851527841E+02  0.00000000000E+00 0.  1.
         11    1    1    2    0    0  0.30768578477E+02 -0.17968822934E+02  0.86663328162E+02  0.93702275678E+02  0.00000000000E+00 0. -1.
</event>
<event>
 7    1  0.2766180E-009  0.1078771E+03  0.7561462E-02  0.1264552E+00
         -1   -1    0    0    0  501 -0.00000000000E+00  0.00000000000E+00  0.22085785490E+02  0.22085785490E+02  0.00000000000E+00 0.  1.
          1   -1    0    0  501    0  0.00000000000E+00 -0.00000000000E+00 -0.59934195553E+03  0.59934195553E+03  0.00000000000E+00 0. -1.
         25    2    1    2    0    0  0.25383412425E+02  0.22026960959E+00 -0.25027629712E+03  0.28094553823E+03  0.12509118435E+03 0.  0.
          5    1    3    3  502    0  0.99212972234E+01 -0.58745620099E+02 -0.16914019824E+03  0.17937491207E+03  0.41800000000E+01 0. -1.
         -5    1    3    3    0  502  0.15462115202E+02  0.58965889708E+02 -0.81136098881E+02  0.10157062615E+03  0.41800000000E+01 0. -1.
        -11    1    1    2    0    0 -0.38021360970E+02 -0.38804161853E+02 -0.18531113859E+03  0.19311034399E+03  0.00000000000E+00 0. -1.
         11    1    1    2    0    0  0.12637948545E+02  0.38583892244E+02 -0.14166873433E+03  0.14737185881E+03  0.00000000000E+00 0.  1.
</event>
<event>
 7    1  0.2766180E-009  0.8361234E+02  0.7561462E-02  0.1319102E+00
         -1   -1    0    0    0  501 -0.00000000000E+00  0.00000000000E+00  0.12266481974E+03  0.12266481974E+03  0.00000000000E+00 0.  1.
          1   -1    0    0  501    0  0.00000000000E+00 -0.00000000000E+00 -0.12664020568E+03  0.12664020568E+03  0.00000000000E+00 0. -1.
         25    2    1    2    0    0  0.61241156683E+02 -0.87246918546E+01 -0.94750974330E+01  0.13986172489E+03  0.12507967500E+03 0.  0.
          5    1    3    3  502    0  0.27435129126E+02 -0.39271799939E+01 -0.67117715268E+02  0.72734923907E+02  0.41800000000E+01 0. -1.
         -5    1    3    3    0  502  0.33806027557E+02 -0.47975118607E+01  0.57642617835E+02  0.67126800982E+02  0.41800000000E+01 0. -1.
        -11    1    1    2    0    0 -0.53873600918E+02  0.43504021904E+02 -0.11233618744E+02  0.70150972821E+02  0.00000000000E+00 0. -1.
         11    1    1    2    0    0 -0.73675557654E+01 -0.34779330050E+02  0.16733330237E+02  0.39292327718E+02  0.00000000000E+00 0.  1.
</event>
<event>
 7    1  0.2766180E-009  0.1106405E+03  0.7561462E-02  0.1259388E+00
         -2   -1    0    0    0  501 -0.00000000000E+00  0.00000000000E+00  0.22037918509E+02  0.22037918509E+02  0.00000000000E+00 0.  1.
          2   -1    0    0  501    0  0.00000000000E+00 -0.00000000000E+00 -0.65215676955E+03  0.65215676955E+03  0.00000000000E+00 0. -1.
         25    2    1    2    0    0  0.57651717397E+02 -0.42757898379E+02 -0.39744425254E+03  0.42280155441E+03  0.12508901686E+03 0.  0.
          5    1    3    3  502    0  0.35748410553E+02  0.32010593436E+02 -0.62595208145E+02  0.78982652728E+02  0.41800000000E+01 0. -1.
         -5    1    3    3    0  502  0.21903306845E+02 -0.74768491815E+02 -0.33484904439E+03  0.34381890168E+03  0.41800000000E+01 0. -1.
        -11    1    1    2    0    0  0.11646362105E+01  0.35851430346E+02 -0.82281797144E+02  0.89760657176E+02  0.00000000000E+00 0.  1.
         11    1    1    2    0    0 -0.58816353608E+02  0.69064680332E+01 -0.15039280136E+03  0.16163247648E+03  0.00000000000E+00 0. -1.
</event>
<event>
 7    1  0.2766180E-009  0.1206849E+03  0.7561462E-02  0.1241972E+00
         -2   -1    0    0    0  501 -0.00000000000E+00  0.00000000000E+00  0.38605686555E+02  0.38605686555E+02  0.00000000000E+00 0.  1.
          2   -1    0    0  501    0  0.00000000000E+00 -0.00000000000E+00 -0.69877126724E+03  0.69877126724E+03  0.00000000000E+00 0. -1.
         25    2    1    2    0    0 -0.11627316987E+03 -0.26144963413E+02 -0.28823253700E+03  0.33604836678E+03  0.12508996876E+03 0.  0.
          5    1    3    3  502    0 -0.58377303862E+02 -0.25695085689E+01 -0.26141465239E+03  0.26789849732E+03  0.41800000000E+01 0. -1.
         -5    1    3    3    0  502 -0.57895866010E+02 -0.23575454844E+02 -0.26817884608E+02  0.68149869457E+02  0.41800000000E+01 0. -1.
        -11    1    1    2    0    0  0.31181845808E+02  0.22180170240E+00 -0.17197952891E+02  0.35610760840E+02  0.00000000000E+00 0.  1.
         11    1    1    2    0    0  0.85091324064E+02  0.25923161710E+02 -0.35473509080E+03  0.36571782618E+03  0.00000000000E+00 0. -1.
</event>
<event>
 7    1  0.2766180E-009  0.1170211E+03  0.7561462E-02  0.1248094E+00
          1   -1    0    0  501    0  0.00000000000E+00  0.00000000000E+00  0.56235752683E+02  0.56235752683E+02  0.00000000000E+00 0. -1.
         -1   -1    0    0    0  501 -0.00000000000E+00 -0.00000000000E+00 -0.49470795134E+03  0.49470795134E+03  0.00000000000E+00 0.  1.
         25    2    1    2    0    0  0.89485322833E+02  0.31449627983E+02 -0.37067923763E+03  0.40256307351E+03  0.12512884895E+03 0.  0.
          5    1    3    3  502    0  0.40891936185E+02  0.34042851069E+02 -0.36091572367E+02  0.64429342304E+02  0.41800000000E+01 0.  1.
         -5    1    3    3    0  502  0.48593386648E+02 -0.25932230853E+01 -0.33458766527E+03  0.33813373121E+03  0.41800000000E+01 0.  1.
        -11    1    1    2    0    0 -0.13970710851E+01  0.26404050109E+02 -0.16569056979E+02  0.31203514528E+02  0.00000000000E+00 0. -1.
         11    1    1    2    0    0 -0.88088251748E+02 -0.57853678092E+02 -0.51223904046E+02  0.11717711598E+03  0.00000000000E+00 0.  1.
</event>
<event>
 7    1  0.2766180E-009  0.1788327E+03  0.7561462E-02  0.1168938E+00
          1   -1    0    0  501    0  0.00000000000E+00  0.00000000000E+00  0.37043707233E+03  0.37043707233E+03  0.00000000000E+00 0. -1.
         -1   -1    0    0    0  501 -0.00000000000E+00 -0.00000000000E+00 -0.89682056780E+02  0.89682056780E+02  0.00000000000E+00 0.  1.
         25    2    1    2    0    0  0.83684780982E+02 -0.11660719928E+03  0.18418693249E+03  0.26488312710E+03  0.12505144312E+03 0.  0.
          5    1    3    3  502    0  0.33786807599E+02  0.22608603088E+02  0.26772836486E+02  0.48856468096E+02  0.41800000000E+01 0. -1.
         -5    1    3    3    0  502  0.49897973383E+02 -0.13921580237E+03  0.15741409601E+03  0.21602665900E+03  0.41800000000E+01 0. -1.
        -11    1    1    2    0    0 -0.10074971359E+03  0.80665785316E+02  0.65361141795E+02  0.14467049653E+03  0.00000000000E+00 0.  1.
         11    1    1    2    0    0  0.17064932603E+02  0.35941413964E+02  0.31206941263E+02  0.50565505490E+02  0.00000000000E+00 0. -1.
</event>
<event>
 7    1  0.2766180E-009  0.2060591E+03  0.7561462E-02  0.1144725E+00
          2   -1    0    0  501    0  0.00000000000E+00  0.00000000000E+00  0.52760347862E+03  0.52760347862E+03  0.00000000000E+00 0.  1.
         -2   -1    0    0    0  501 -0.00000000000E+00 -0.00000000000E+00 -0.11572230066E+03  0.11572230066E+03  0.00000000000E+00 0. -1.
         25    2    1    2    0    0  0.84324686786E+01 -0.17955500247E+03  0.43837958591E+02  0.22334317065E+03  0.12509716152E+03 0.  0.
          5    1    3    3  502    0  0.24431661910E+01 -0.19686636894E+03  0.50687439452E+02  0.20334459717E+03  0.41800000000E+01 0. -1.
         -5    1    3    3    0  502  0.59893024876E+01  0.17311366465E+02 -0.68494808603E+01  0.19998573480E+02  0.41800000000E+01 0. -1.
        -11    1    1    2    0    0 -0.32774603030E+02  0.16460632567E+03  0.34354196958E+03  0.38234866538E+03  0.00000000000E+00 0. -1.
         11    1    1    2    0    0  0.24342134352E+02  0.14948676805E+02  0.24501249788E+02  0.37633943246E+02  0.00000000000E+00 0.  1.
</event>
<event>
 7    1  0.2766180E-009  0.1263165E+03  0.7561462E-02  0.1233026E+00
         -1   -1    0    0    0  501 -0.00000000000E+00  0.00000000000E+00  0.16309638313E+03  0.16309638313E+03  0.00000000000E+00 0.  1.
          1   -1    0    0  501    0  0.00000000000E+00 -0.00000000000E+00 -0.18019993668E+03  0.18019993668E+03  0.00000000000E+00 0. -1.
         25    2    1    2    0    0 -0.53723843419E+02 -0.99767521284E+02 -0.77568509997E+02  0.18575113079E+03  0.12508716637E+03 0.  0.
          5    1    3    3  502    0  0.14420975734E+02  0.20711967656E+01  0.22747952154E+02  0.27334888409E+02  0.41800000000E+01 0. -1.
         -5    1    3    3    0  502 -0.68144819153E+02 -0.10183871805E+03 -0.10031646215E+03  0.15841624238E+03  0.41800000000E+01 0. -1.
        -11    1    1    2    0    0  0.33887352576E+02  0.43073173968E+02  0.77675356300E+02  0.95063725766E+02  0.00000000000E+00 0.  1.
         11    1    1    2    0    0  0.19836490843E+02  0.56694347316E+02 -0.17210399850E+02  0.62481463248E+02  0.00000000000E+00 0. -1.
</event>
<event>
 7    1  0.2766180E-009  0.1878695E+03  0.7561462E-02  0.1160397E+00
          2   -1    0    0  501    0  0.00000000000E+00  0.00000000000E+00  0.11467392208E+04  0.11467392208E+04  0.00000000000E+00 0. -1.
         -2   -1    0    0    0  501 -0.00000000000E+00 -0.00000000000E+00 -0.41701829660E+02  0.41701829660E+02  0.00000000000E+00 0.  1.
         25    2    1    2    0    0  0.13634149550E+03  0.81601104618E+02  0.85448051417E+03  0.87808430755E+03  0.12508940161E+03 0.  0.
          5    1    3    3  502    0  0.50327745320E+02  0.10167662962E+03  0.50285518360E+03  0.51551122881E+03  0.41800000000E+01 0. -1.
         -5    1    3    3    0  502  0.86013750184E+02 -0.20075524998E+02  0.35162533057E+03  0.36257307873E+03  0.41800000000E+01 0. -1.
        -11    1    1    2    0    0 -0.30143269061E+02 -0.57449453719E+02  0.49162539324E+02  0.81400317414E+02  0.00000000000E+00 0.  1.
         11    1    1    2    0    0 -0.10619822644E+03 -0.24151650900E+02  0.20139433764E+03  0.22895642549E+03  0.00000000000E+00 0. -1.
</event>
<event>
 7    1  0.2766180E-009  0.1214536E+03  0.7561462E-02  0.1240718E+00
          1   -1    0    0  501    0  0.00000000000E+00  0.00000000000E+00  0.34491400268E+02  0.34491400268E+02  0.00000000000E+00 0. -1.
         -1   -1    0    0    0  501 -0.00000000000E+00 -0.00000000000E+00 -0.45551107852E+03  0.45551107852E+03  0.00000000000E+00 0.  1.
         25    2    1    2    0    0 -0.26198346744E+02 -0.57295838475E+02 -0.23013559316E+03  0.26940467316E+03  0.12508924895E+03 0.  0.
          5    1    3    3  502    0  0.60824123095E+01 -0.87623435625E+02 -0.19052055407E+03  0.20983425872E+03  0.41800000000E+01 0.  1.
         -5    1    3    3    0  502 -0.32280759054E+02  0.30327597150E+02 -0.39615039085E+02  0.59570414433E+02  0.41800000000E+01 0.  1.
        -11    1    1    2    0    0 -0.32806235702E+02  0.33423806298E+02 -0.76546897420E+02  0.89737547510E+02  0.00000000000E+00 0. -1.
         11    1    1    2    0    0  0.59004582447E+02  0.23872032176E+02 -0.11433718767E+03  0.13086025812E+03  0.00000000000E+00 0.  1.
</event>
<event>
 7    1  0.2766180E-009  0.1324348E+03  0.7561462E-02  0.1223887E+00
         -1   -1    0    0    0  501 -0.00000000000E+00  0.00000000000E+00  0.34036171165E+02  0.34036171165E+02  0.00000000000E+00 0.  1.
          1   -1    0    0  501    0  0.00000000000E+00 -0.00000000000E+00 -0.92128243409E+03  0.92128243409E+03  0.00000000000E+00 0. -1.
         25    2    1    2    0    0  0.97481090343E+02  0.87952983609E+02 -0.58315983443E+03  0.61070527564E+03  0.12508897198E+03 0.  0.
          5    1    3    3  502    0  0.70203299508E+02  0.72465167531E+02 -0.18068692106E+03  0.20699019206E+03  0.41800000000E+01 0.  1.
         -5    1    3    3    0  502  0.27277790834E+02  0.15487816078E+02 -0.40247291336E+03  0.40371508358E+03  0.41800000000E+01 0.  1.
        -11    1    1    2    0    0 -0.40121100543E+02 -0.46822557031E+02 -0.24476701087E+03  0.25241423131E+03  0.00000000000E+00 0. -1.
         11    1    1    2    0    0 -0.57359989800E+02 -0.41130426578E+02 -0.59319417628E+02  0.92199098304E+02  0.00000000000E+00 0.  1.
</event>
<event>
 7    1  0.2766180E-009  0.1271207E+03  0.7561462E-02  0.1231792E+00
          3   -1    0    0  501    0  0.00000000000E+00  0.00000000000E+00  0.72717152761E+02  0.72717152761E+02  0.00000000000E+00 0. -1.
         -3   -1    0    0    0  501 -0.00000000000E+00 -0.00000000000E+00 -0.29589729090E+03  0.29589729090E+03  0.00000000000E+00 0.  1.
         25    2    1    2    0    0  0.92092107896E+02  0.20904815572E+02 -0.83617152712E+02  0.17764208482E+03  0.12508762697E+03 0.  0.
          5    1    3    3  502    0  0.86343725173E+02  0.67268218866E+02 -0.53509829290E+02  0.12190580945E+03  0.41800000000E+01 0. -1.
         -5    1    3    3    0  502  0.57483827235E+01 -0.46363403294E+02 -0.30107323421E+02  0.55736275374E+02  0.41800000000E+01 0. -1.
        -11    1    1    2    0    0 -0.48243911942E+02  0.20923183518E+01 -0.13241597629E+03  0.14094624369E+03  0.00000000000E+00 0.  1.
         11    1    1    2    0    0 -0.43848195954E+02 -0.22997133924E+02 -0.71470091420E+01  0.50026115148E+02  0.00000000000E+00 0. -1.
</event>
<event>
 7    1  0.2766180E-009  0.1300477E+03  0.7561462E-02  0.1227385E+00
          2   -1    0    0  501    0  0.00000000000E+00  0.00000000000E+00  0.52541612246E+03  0.52541612246E+03  0.00000000000E+00 0. -1.
         -2   -1    0    0    0  501 -0.00000000000E+00 -0.00000000000E+00 -0.61124651313E+02  0.61124651313E+02  0.00000000000E+00 0.  1.
         25    2    1    2    0    0 -0.70642823664E+02 -0.99034343551E+02  0.12501548100E+03  0.21465004407E+03  0.12509021221E+03 0.  0.
          5    1    3    3  502    0 -0.46199840306E+02 -0.74755716525E+02  0.32537424496E+01  0.88039205115E+02  0.41800000000E+01 0.  1.
         -5    1    3    3    0  502 -0.24442983358E+02 -0.24278627027E+02  0.12176173855E+03  0.12661083895E+03  0.41800000000E+01 0.  1.
        -11    1    1    2    0    0  0.82742414715E+02  0.90385807304E+02  0.33454899962E+03  0.35628490636E+03  0.00000000000E+00 0. -1.
         11    1    1    2    0    0 -0.12099591051E+02  0.86485362472E+01  0.47269905300E+01  0.15605823346E+02  0.00000000000E+00 0.  1.
</event>
<event>
 7    1  0.2766180E-009  0.7275758E+02  0.7561462E-02  0.1350959E+00
         -1   -1    0    0    0  501 -0.00000000000E+00  0.00000000000E+00  0.10770908283E+03  0.10770908283E+03  0.00000000000E+00 0.  1.
          1   -1    0    0  501    0  0.00000000000E+00 -0.00000000000E+00 -0.11536136945E+03  0.11536136945E+03  0.00000000000E+00 0. -1.
         25    2    1    2    0    0  0.36449354664E+00  0.14337914481E+02 -0.27940801336E+02  0.12897222129E+03  0.12508971516E+03 0.  0.
          5    1    3    3  502    0 -0.35344354143E+02  0.44956292162E+02  0.20905124406E+02  0.61031042930E+02  0.41800000000E+01 0.  1.
         -5    1    3    3    0  502  0.35708847689E+02 -0.30618377681E+02 -0.48845925742E+02  0.67941178358E+02  0.41800000000E+01 0.  1.
        -11    1    1    2    0    0 -0.19048020802E+02 -0.35435409848E+01  0.52141489281E+02  0.55624802774E+02  0.00000000000E+00 0.  1.
         11    1    1    2    0    0  0.18683527256E+02 -0.10794373497E+02 -0.31852974567E+02  0.38473428216E+02  0.00000000000E+00 0. -1.
</event>
<event>
 7    1  0.2766180E-009  0.8678280E+02  0.7561462E-02  0.1310835E+00
          3   -1    0    0  501    0  0.00000000000E+00  0.00000000000E+00  0.17179745635E+03  0.17179745635E+03  0.00000000000E+00 0. -1.
         -3   -1    0    0    0  501 -0.00000000000E+00 -0.00000000000E+00 -0.69687023604E+02  0.69687023604E+02  0.00000000000E+00 0.  1.
         25    2    1    2    0    0  0.10686704093E+02  0.11802690072E+02  0.46834682460E+02  0.13451841764E+03  0.12509279782E+03 0.  0.
          5    1    3    3  502    0  0.54716440532E+02  0.44843730634E+02  0.27700544886E+02  0.76089694629E+02  0.41800000000E+01 0. -1.
         -5    1    3    3    0  502 -0.44029736440E+02 -0.33041040562E+02  0.19134137574E+02  0.58428723014E+02  0.41800000000E+01 0. -1.
        -11    1    1    2    0    0 -0.94808950207E+00  0.17030534691E+02 -0.19694598042E+02  0.26054081784E+02  0.00000000000E+00 0.  1.
         11    1    1    2    0    0 -0.97386145905E+01 -0.28833224763E+02  0.74970348333E+02  0.80911980532E+02  0.00000000000E+00 0. -1.
</event>
<event>
 7    1  0.2766180E-009  0.9575148E+02  0.7561462E-02  0.1289492E+00
          1   -1    0    0  501    0  0.00000000000E+00  0.00000000000E+00  0.55393521757E+03  0.55393521757E+03  0.00000000000E+00 0. -1.
         -1   -1    0    0    0  501 -0.00000000000E+00 -0.00000000000E+00 -0.42459236741E+02  0.42459236741E+02  0.00000000000E+00 0.  1.
         25    2    1    2    0    0 -0.61941968046E+02  0.38392416049E+02  0.43226558535E+03  0.45586423160E+03  0.12509147197E+03 0.  0.
          5    1    3    3  502    0  0.18606075385E+02 -0.12813456565E+02  0.14172706875E+02  0.26994605582E+02  0.41800000000E+01 0. -1.
         -5    1    3    3    0  502 -0.80548043432E+02  0.51205872613E+02  0.41809287848E+03  0.42886962602E+03  0.41800000000E+01 0. -1.
        -11    1    1    2    0    0  0.28141203609E+02 -0.15051746934E+02 -0.16826250587E+02  0.36077765108E+02  0.00000000000E+00 0.  1.
         11    1    1    2    0    0  0.33800764437E+02 -0.23340669114E+02  0.96036646068E+02  0.10445245760E+03  0.00000000000E+00 0. -1.
</event>
<event>
 7    1  0.2766180E-009  0.1047894E+03  0.7561462E-02  0.1270535E+00
         -3   -1    0    0    0  501 -0.00000000000E+00  0.00000000000E+00  0.51495353248E+03  0.51495353248E+03  0.00000000000E+00 0.  1.
          3   -1    0    0  501    0  0.00000000000E+00 -0.00000000000E+00 -0.26237855982E+02  0.26237855982E+02  0.00000000000E+00 0. -1.
         25    2    1    2    0    0  0.38623903936E+02  0.16095729198E+02  0.25798415901E+03  0.28974804790E+03  0.12508887444E+03 0.  0.
          5    1    3    3  502    0  0.44588142704E+01  0.58936461669E+02  0.60189007204E+02  0.84460502763E+02  0.41800000000E+01 0.  1.
         -5    1    3    3    0  502  0.34165089666E+02 -0.42840732471E+02  0.19779515181E+03  0.20528754514E+03  0.41800000000E+01 0.  1.
        -11    1    1    2    0    0 -0.58284574755E+02  0.13512076180E+02  0.17855265339E+03  0.18831016406E+03  0.00000000000E+00 0.  1.
         11    1    1    2    0    0  0.19660670818E+02 -0.29607805378E+02  0.52178864098E+02  0.63133176499E+02  0.00000000000E+00 0. -1.
</event>
<event>
 7    1  0.2766180E-009  0.1058744E+03  0.7561462E-02  0.1268406E+00
          1   -1    0    0  501    0  0.00000000000E+00  0.00000000000E+00  0.47569190536E+03  0.47569190536E+03  0.00000000000E+00 0. -1.
         -1   -1    0    0    0  501 -0.00000000000E+00 -0.00000000000E+00 -0.28796889909E+02  0.28796889909E+02  0.00000000000E+00 0.  1.
         25    2    1    2    0    0  0.21808777710E+01  0.17113238117E+02  0.34510553619E+03  0.36747750534E+03  0.12507704295E+03 0.  0.
          5    1    3    3  502    0 -0.18075898020E+02  0.65715794631E+02  0.14124372350E+03  0.15688392391E+03  0.41800000000E+01 0. -1.
         -5    1    3    3    0  502  0.20256775791E+02 -0.48602556514E+02  0.20386181270E+03  0.21059358143E+03  0.41800000000E+01 0. -1.
        -11    1    1    2    0    0  0.43238625627E+02 -0.43028926636E+01  0.38429161914E+02  0.58007707391E+02  0.00000000000E+00 0.  1.
         11    1    1    2    0    0 -0.45419503398E+02 -0.12810345454E+02  0.63360317342E+02  0.79003582534E+02  0.00000000000E+00 0. -1.
</event>
<event>
 7    1  0.2766180E-009  0.1277143E+03  0.7561462E-02  0.1230887E+00
          2   -1    0    0  501    0  0.00000000000E+00  0.00000000000E+00  0.15658856037E+03  0.15658856037E+03  0.00000000000E+00 0.  1.
         -2   -1    0    0    0  501 -0.00000000000E+00 -0.00000000000E+00 -0.13171366924E+03  0.13171366924E+03  0.00000000000E+00 0. -1.
         25    2    1    2    0    0  0.72916022010E+01 -0.93043548984E+02  0.62328876828E+01  0.15619473595E+03  0.12509067583E+03 0.  0.
          5    1    3    3  502    0  0.62563336011E+02 -0.40515416053E+02 -0.16624469152E+02  0.76482124221E+02  0.41800000000E+01 0.  1.
         -5    1    3    3    0  502 -0.55271733810E+02 -0.52528132931E+02  0.22857356835E+02  0.79712611731E+02  0.41800000000E+01 0.  1.
        -11    1    1    2    0    0 -0.14139290150E+02  0.34486260368E+01  0.37560272199E+02  0.40281343016E+02  0.00000000000E+00 0.  1.
         11    1    1    2    0    0  0.68476879494E+01  0.89594922947E+02 -0.18918268749E+02  0.91826150636E+02  0.00000000000E+00 0. -1.
</event>
<event>
 7    1  0.2766180E-009  0.3063883E+03  0.7561462E-02  0.1082090E+00
         -2   -1    0    0    0  501 -0.00000000000E+00  0.00000000000E+00  0.17929224465E+03  0.17929224465E+03  0.00000000000E+00 0.  1.
          2   -1    0    0  501    0  0.00000000000E+00 -0.00000000000E+00 -0.10810695619E+04  0.10810695619E+04  0.00000000000E+00 0. -1.
         25    2    1    2    0    0  0.29572194231E+03  0.37697491512E+02 -0.24157143944E+02  0.32419672895E+03  0.12508950167E+03 0.  0.
          5    1    3    3  502    0  0.19920719453E+03  0.72215100961E+02 -0.51352161593E+02  0.21806660464E+03  0.41800000000E+01 0. -1.
         -5    1    3    3    0  502  0.96514747782E+02 -0.34517609449E+02  0.27195017648E+02  0.10613012431E+03  0.41800000000E+01 0. -1.
        -11    1    1    2    0    0 -0.22241195913E+03 -0.32332948616E+02 -0.79223788452E+03  0.82350067686E+03  0.00000000000E+00 0.  1.
         11    1    1    2    0    0 -0.73309983184E+02 -0.53645428955E+01 -0.85382288780E+02  0.11266440073E+03  0.00000000000E+00 0. -1.
</event>
<event>
 7    1  0.2766180E-009  0.2691657E+03  0.7561462E-02  0.1101758E+00
          1   -1    0    0  501    0  0.00000000000E+00  0.00000000000E+00  0.21820018004E+03  0.21820018004E+03  0.00000000000E+00 0. -1.
         -1   -1    0    0    0  501 -0.00000000000E+00 -0.00000000000E+00 -0.36268231507E+03  0.36268231507E+03  0.00000000000E+00 0.  1.
         25    2    1    2    0    0 -0.25290215899E+03  0.54340325903E+02 -0.51367482977E+02  0.29188629249E+03  0.12508643570E+03 0.  0.
          5    1    3    3  502    0 -0.10768745576E+03  0.69834905570E+02 -0.67190946804E+02  0.14493308075E+03  0.41800000000E+01 0.  1.
         -5    1    3    3    0  502 -0.14521470323E+03 -0.15494579667E+02  0.15823463827E+02  0.14695321174E+03  0.41800000000E+01 0.  1.
        -11    1    1    2    0    0  0.46944770469E+02 -0.31637613733E+02 -0.53794532823E+02  0.78093545436E+02  0.00000000000E+00 0. -1.
         11    1    1    2    0    0  0.20595738852E+03 -0.22702712170E+02 -0.39320119230E+02  0.21090265717E+03  0.00000000000E+00 0.  1.
</event>
<event>
 7    1  0.2766180E-009  0.5647078E+02  0.7561462E-02  0.1413269E+00
         -1   -1    0    0    0  501 -0.00000000000E+00  0.00000000000E+00  0.42377136217E+03  0.42377136217E+03  0.00000000000E+00 0.  1.
          1   -1    0    0  501    0  0.00000000000E+00 -0.00000000000E+00 -0.36265228186E+02  0.36265228186E+02  0.00000000000E+00 0. -1.
         25    2    1    2    0    0 -0.43361297265E+02 -0.23304367535E+02  0.25092954470E+03  0.28466921494E+03  0.12509048678E+03 0.  0.
          5    1    3    3  502    0 -0.43780146412E+02 -0.21505149361E+02  0.26520214375E+03  0.26968281762E+03  0.41800000000E+01 0.  1.
         -5    1    3    3    0  502  0.41884914688E+00 -0.17992181746E+01 -0.14272599056E+02  0.14986397314E+02  0.41800000000E+01 0.  1.
        -11    1    1    2    0    0  0.14404312862E+02  0.26622545393E+02 -0.51240915225E+01  0.30700170458E+02  0.00000000000E+00 0. -1.
         11    1    1    2    0    0  0.28956984403E+02 -0.33181778578E+01  0.14170068081E+03  0.14466720496E+03  0.00000000000E+00 0.  1.
</event>
<event>
 7    1  0.2766180E-009  0.1057807E+03  0.7561462E-02  0.1268589E+00
         -1   -1    0    0    0  501 -0.00000000000E+00  0.00000000000E+00  0.75326500255E+02  0.75326500255E+02  0.00000000000E+00 0.  1.
          1   -1    0    0  501    0  0.00000000000E+00 -0.00000000000E+00 -0.26799739355E+03  0.26799739355E+03  0.00000000000E+00 0. -1.
         25    2    1    2    0    0  0.18232697648E+02 -0.77509499169E+01 -0.21240285579E+03  0.24729462267E+03  0.12508856368E+03 0.  0.
          5    1    3    3  502    0 -0.49617280043E+02  0.12547343421E+02 -0.58580409817E+02  0.77900238255E+02  0.41800000000E+01 0.  1.
         -5    1    3    3    0  502  0.67849977691E+02 -0.20298293337E+02 -0.15382244598E+03  0.16939438442E+03  0.41800000000E+01 0.  1.
        -11    1    1    2    0    0 -0.40100670367E+02  0.35762241400E+02 -0.30498040145E+01  0.53817311140E+02  0.00000000000E+00 0. -1.
         11    1    1    2    0    0  0.21867972719E+02 -0.28011291483E+02  0.22781766512E+02  0.42211959997E+02  0.00000000000E+00 0.  1.
</event>
<event>
 7    1  0.2766180E-009  0.1139124E+03  0.7561462E-02  0.1253492E+00
         -1   -1    0    0    0  501 -0.00000000000E+00  0.00000000000E+00  0.66025698714E+02  0.66025698714E+02  0.00000000000E+00 0.  1.
          1   -1    0    0  501    0  0.00000000000E+00 -0.00000000000E+00 -0.22934077806E+03  0.22934077806E+03  0.00000000000E+00 0. -1.
         25    2    1    2    0    0 -0.56729476605E+02  0.14995000722E+02 -0.95837722084E+02  0.16814990992E+03  0.12508572928E+03 0.  0.
          5    1    3    3  502    0 -0.96689159302E+02  0.13261509520E+02 -0.72553215971E+02  0.12168033000E+03  0.41800000000E+01 0. -1.
         -5    1    3    3    0  502  0.39959682697E+02  0.17334912021E+01 -0.23284506112E+02  0.46469579919E+02  0.41800000000E+01 0. -1.
        -11    1    1    2    0    0 -0.95814515510E+01  0.14476944699E+02 -0.49502056556E+02  0.52457980755E+02  0.00000000000E+00 0. -1.
         11    1    1    2    0    0  0.66310928156E+02 -0.29471945421E+02 -0.17975300704E+02  0.74758586097E+02  0.00000000000E+00 0.  1.
</event>
<event>
 7    1  0.2766180E-009  0.9193977E+02  0.7561462E-02  0.1298221E+00
          2   -1    0    0  501    0  0.00000000000E+00  0.00000000000E+00  0.50982542223E+03  0.50982542223E+03  0.00000000000E+00 0. -1.
         -2   -1    0    0    0  501 -0.00000000000E+00 -0.00000000000E+00 -0.24900974993E+02  0.24900974993E+02  0.00000000000E+00 0.  1.
         25    2    1    2    0    0 -0.16076661194E+02 -0.28390787052E+02  0.29252208899E+03  0.31981516829E+03  0.12509225995E+03 0.  0.
          5    1    3    3  502    0 -0.52030923004E+02 -0.23810336648E+02  0.27193753818E+03  0.27792381357E+03  0.41800000000E+01 0.  1.
         -5    1    3    3    0  502  0.35954261811E+02 -0.45804504047E+01  0.20584550806E+02  0.41891354718E+02  0.41800000000E+01 0.  1.
        -11    1    1    2    0    0 -0.31178443009E+01  0.56169872590E+02  0.81859506802E+02  0.99326503985E+02  0.00000000000E+00 0.  1.
         11    1    1    2    0    0  0.19194505495E+02 -0.27779085538E+02  0.11054285145E+03  0.11558472495E+03  0.00000000000E+00 0. -1.
</event>
<event>
 7    1  0.2766180E-009  0.6534145E+02  0.7561462E-02  0.1376692E+00
         -1   -1    0    0    0  501 -0.00000000000E+00  0.00000000000E+00  0.94699706387E+02  0.94699706387E+02  0.00000000000E+00 0.  1.
          1   -1    0    0  501    0  0.00000000000E+00 -0.00000000000E+00 -0.14286480192E+03  0.14286480192E+03  0.00000000000E+00 0. -1.
         25    2    1    2    0    0 -0.17187527686E+02 -0.29415986714E+02 -0.52838276191E+02  0.14000162553E+03  0.12509140794E+03 0.  0.
          5    1    3    3  502    0  0.90814660843E+01 -0.13233056257E+02 -0.90002979367E+02  0.91518279590E+02  0.41800000000E+01 0.  1.
         -5    1    3    3    0  502 -0.26268993771E+02 -0.16182930457E+02  0.37164703176E+02  0.48483345945E+02  0.41800000000E+01 0.  1.
        -11    1    1    2    0    0  0.23760327755E+02  0.53211785344E+02  0.27046518465E+02  0.64246100548E+02  0.00000000000E+00 0. -1.
         11    1    1    2    0    0 -0.65728000691E+01 -0.23795798630E+02 -0.22373337811E+02  0.33316782228E+02  0.00000000000E+00 0.  1.
</event>
<event>
 7    1  0.2766180E-009  0.1932203E+03  0.7561462E-02  0.1155589E+00
         -2   -1    0    0    0  501 -0.00000000000E+00  0.00000000000E+00  0.16725149776E+03  0.16725149776E+03  0.00000000000E+00 0.  1.
          2   -1    0    0  501    0  0.00000000000E+00 -0.00000000000E+00 -0.28374985106E+03  0.28374985106E+03  0.00000000000E+00 0. -1.
         25    2    1    2    0    0  0.15718622267E+03 -0.92693195393E+02 -0.11016695435E+03  0.24715325176E+03  0.12509370471E+03 0.  0.
          5    1    3    3  502    0  0.14557371740E+03 -0.82013451063E+02 -0.35687329400E+02  0.17090632297E+03  0.41800000000E+01 0.  1.
         -5    1    3    3    0  502  0.11612505269E+02 -0.10679744331E+02 -0.74479624948E+02  0.76246928790E+02  0.41800000000E+01 0.  1.
        -11    1    1    2    0    0 -0.69978449298E+02  0.92228390209E+02 -0.12368323237E+02  0.11643038584E+03  0.00000000000E+00 0. -1.
         11    1    1    2    0    0 -0.87207773371E+02  0.46480518425E+00  0.60369242777E+01  0.87417711220E+02  0.00000000000E+00 0.  1.
</event>
<event>
 7    1  0.4247914E-009  0.6313638E+02  0.7561462E-02  0.1385122E+00
          2   -1    0    0  501    0  0.00000000000E+00  0.00000000000E+00  0.54565255980E+02  0.54565255980E+02  0.00000000000E+00 0. -1.
         -2   -1    0    0    0  501 -0.00000000000E+00 -0.00000000000E+00 -0.26859257024E+03  0.26859257024E+03  0.00000000000E+00 0.  1.
         25    2    1    2    0    0  0.27198497861E+02  0.39459920791E+02 -0.15231127887E+03  0.20283539397E+03  0.12508648105E+03 0.  0.
          5    1    3    3  502    0  0.22727962420E+01 -0.48355945267E+01 -0.15168129083E+03  0.15183291792E+03  0.41800000000E+01 0. -1.
         -5    1    3    3    0  502  0.24925701619E+02  0.44295515317E+02 -0.62998804652E+00  0.51002476051E+02  0.41800000000E+01 0. -1.
        -11    1    1    2    0    0 -0.41101667701E+02 -0.23584413854E+02 -0.79615379491E+02  0.92650851675E+02  0.00000000000E+00 0.  1.
         11    1    1    2    0    0  0.13903169840E+02 -0.15875506937E+02  0.17899344104E+02  0.27671580574E+02  0.00000000000E+00 0. -1.
</event>
<event>
 7    1  0.2766180E-009  0.1056757E+03  0.7561462E-02  0.1268794E+00
          1   -1    0    0  501    0  0.00000000000E+00  0.00000000000E+00  0.22467365922E+03  0.22467365922E+03  0.00000000000E+00 0. -1.
         -1   -1    0    0    0  501 -0.00000000000E+00 -0.00000000000E+00 -0.60775833950E+02  0.60775833950E+02  0.00000000000E+00 0.  1.
         25    2    1    2    0    0 -0.50428286769E+01 -0.37856571855E+02  0.11747541885E+03  0.17580316462E+03  0.12509088096E+03 0.  0.
          5    1    3    3  502    0  0.49827650688E+02 -0.27356148849E+02  0.14877392768E+02  0.58906390727E+02  0.41800000000E+01 0.  1.
         -5    1    3    3    0  502 -0.54870479365E+02 -0.10500423006E+02  0.10259802608E+03  0.11689677389E+03  0.41800000000E+01 0.  1.
        -11    1    1    2    0    0  0.36322402803E+02  0.52463624213E+02  0.37407001107E+02  0.73966428484E+02  0.00000000000E+00 0. -1.
         11    1    1    2    0    0 -0.31279574126E+02 -0.14607052358E+02  0.90154053091E+01  0.35679900069E+02  0.00000000000E+00 0.  1.
</event>
<event>
 7    1  0.2766180E-009  0.1677592E+03  0.7561462E-02  0.1180205E+00
         -4   -1    0    0    0  501 -0.00000000000E+00  0.00000000000E+00  0.11331771156E+03  0.11331771156E+03  0.00000000000E+00 0.  1.
          4   -1    0    0  501    0  0.00000000000E+00 -0.00000000000E+00 -0.33953672185E+03  0.33953672185E+03  0.00000000000E+00 0. -1.
         25    2    1    2    0    0  0.83649419076E+02  0.61559427318E+02 -0.19953333659E+03  0.25738836033E+03  0.12509367378E+03 0.  0.
          5    1    3    3  502    0 -0.53130525036E+01  0.66848268342E+02 -0.51936968191E+02  0.84922556321E+02  0.41800000000E+01 0.  1.
         -5    1    3    3    0  502  0.88962471579E+02 -0.52888410244E+01 -0.14759636840E+03  0.17246580401E+03  0.41800000000E+01 0.  1.
        -11    1    1    2    0    0 -0.22529374631E+02 -0.10289081598E+03  0.21287718373E+02  0.10745817646E+03  0.00000000000E+00 0. -1.
         11    1    1    2    0    0 -0.61120044445E+02  0.41331388661E+02 -0.47973392070E+02  0.88007896625E+02  0.00000000000E+00 0.  1.
</event>
<event>
 7    1  0.2766180E-009  0.1330046E+03  0.7561462E-02  0.1223064E+00
          3   -1    0    0  501    0  0.00000000000E+00  0.00000000000E+00  0.98174990584E+02  0.98174990584E+02  0.00000000000E+00 0. -1.
         -3   -1    0    0    0  501 -0.00000000000E+00 -0.00000000000E+00 -0.20162580465E+03  0.20162580465E+03  0.00000000000E+00 0.  1.
         25    2    1    2    0    0  0.41112753156E+02 -0.70952285779E+02 -0.92567688660E+02  0.17589830612E+03  0.12508777631E+03 0.  0.
          5    1    3    3  502    0 -0.31790702554E+02  0.15897346819E+02 -0.17438360692E+02  0.39811345473E+02  0.41800000000E+01 0.  1.
         -5    1    3    3    0  502  0.72903455711E+02 -0.86849632598E+02 -0.75129327969E+02  0.13608696065E+03  0.41800000000E+01 0.  1.
        -11    1    1    2    0    0  0.93759892376E+01  0.65274109790E+02  0.13869159064E+02  0.67386735759E+02  0.00000000000E+00 0. -1.
         11    1    1    2    0    0 -0.50488742394E+02  0.56781759887E+01 -0.24752284475E+02  0.56515753360E+02  0.00000000000E+00 0.  1.
</event>
<event>
 7    1  0.2766180E-009  0.1135057E+03  0.7561462E-02  0.1254212E+00
          4   -1    0    0  501    0  0.00000000000E+00  0.00000000000E+00  0.61090160427E+02  0.61090160427E+02  0.00000000000E+00 0. -1.
         -4   -1    0    0    0  501 -0.00000000000E+00 -0.00000000000E+00 -0.21903635054E+03  0.21903635054E+03  0.00000000000E+00 0.  1.
         25    2    1    2    0    0 -0.96031079404E+01  0.20092760968E+02 -0.65638381439E+02  0.14300579876E+03  0.12508526146E+03 0.  0.
          5    1    3    3  502    0 -0.50527063316E+02 -0.31466534084E+02 -0.20556936631E+02  0.63112494311E+02  0.41800000000E+01 0.  1.
         -5    1    3    3    0  502  0.40923955375E+02  0.51559295052E+02 -0.45081444808E+02  0.79893304449E+02  0.41800000000E+01 0.  1.
        -11    1    1    2    0    0  0.26609695394E+02 -0.55806211973E+02 -0.57455862750E+02  0.84401334990E+02  0.00000000000E+00 0.  1.
         11    1    1    2    0    0 -0.17006587454E+02  0.35713451005E+02 -0.34851945926E+02  0.52719377219E+02  0.00000000000E+00 0. -1.
</event>
<event>
 7    1  0.2766180E-009  0.2049446E+03  0.7561462E-02  0.1145633E+00
          2   -1    0    0  501    0  0.00000000000E+00  0.00000000000E+00  0.47151660047E+03  0.47151660047E+03  0.00000000000E+00 0. -1.
         -2   -1    0    0    0  501 -0.00000000000E+00 -0.00000000000E+00 -0.13426160184E+03  0.13426160184E+03  0.00000000000E+00 0.  1.
         25    2    1    2    0    0  0.16985492331E+03  0.71145519014E+02  0.14271307950E+02  0.22308125162E+03  0.12509674156E+03 0.  0.
          5    1    3    3  502    0  0.83600823626E+02  0.98200401411E+02 -0.99024609559E+01  0.12941386201E+03  0.41800000000E+01 0.  1.
         -5    1    3    3    0  502  0.86254099680E+02 -0.27054882397E+02  0.24173768906E+02  0.93667389609E+02  0.41800000000E+01 0.  1.
        -11    1    1    2    0    0 -0.13845222796E+03 -0.35650775239E+02  0.16784588793E+03  0.22048183439E+03  0.00000000000E+00 0.  1.
         11    1    1    2    0    0 -0.31402695348E+02 -0.35494743774E+02  0.15513780276E+03  0.16221511630E+03  0.00000000000E+00 0. -1.
</event>
<event>
 7    1  0.2766180E-009  0.1988728E+03  0.7561462E-02  0.1150694E+00
         -1   -1    0    0    0  501 -0.00000000000E+00  0.00000000000E+00  0.82915433486E+02  0.82915433486E+02  0.00000000000E+00 0.  1.
          1   -1    0    0  501    0  0.00000000000E+00 -0.00000000000E+00 -0.50848217831E+03  0.50848217831E+03  0.00000000000E+00 0. -1.
         25    2    1    2    0    0 -0.16273469474E+03  0.31165718202E+02 -0.23094425541E+03  0.31054480941E+03  0.12509575005E+03 0.  0.
          5    1    3    3  502    0 -0.13255809773E+03 -0.32595285580E+02 -0.16092271446E+03  0.21106324726E+03  0.41800000000E+01 0. -1.
         -5    1    3    3    0  502 -0.30176597012E+02  0.63761003782E+02 -0.70021540944E+02  0.99481562144E+02  0.41800000000E+01 0. -1.
        -11    1    1    2    0    0  0.69579078232E+01 -0.34002368886E+02 -0.80688341330E+02  0.87836108735E+02  0.00000000000E+00 0. -1.
         11    1    1    2    0    0  0.15577678691E+03  0.28366506843E+01 -0.11393414808E+03  0.19301669365E+03  0.00000000000E+00 0.  1.
</event>
<event>
 7    1  0.2766180E-009  0.7114199E+02  0.7561462E-02  0.1356252E+00
         -1   -1    0    0    0  501 -0.00000000000E+00  0.00000000000E+00  0.14871827036E+03  0.14871827036E+03  0.00000000000E+00 0.  1.
          1   -1    0    0  501    0  0.00000000000E+00 -0.00000000000E+00 -0.82165704336E+02  0.82165704336E+02  0.00000000000E+00 0. -1.
         25    2    1    2    0    0  0.14945854551E+02 -0.22530651489E+02  0.37835958657E+02  0.13343675550E+03  0.12507117624E+03 0.  0.
          5    1    3    3  502    0  0.21603956203E+02 -0.42783083764E+02  0.75751771232E+02  0.89738099070E+02  0.41800000000E+01 0.  1.
         -5    1    3    3    0  502 -0.66581016524E+01  0.20252432274E+02 -0.37915812574E+02  0.43698656430E+02  0.41800000000E+01 0.  1.
        -11    1    1    2    0    0  0.19103822631E+02 -0.13100773189E+02  0.40606100988E+02  0.46748708375E+02  0.00000000000E+00 0.  1.
         11    1    1    2    0    0 -0.34049677182E+02  0.35631424678E+02 -0.11889493623E+02  0.50698510820E+02  0.00000000000E+00 0. -1.
</event>
<event>
 7    1  0.2766180E-009  0.1319770E+03  0.7561462E-02  0.1224551E+00
          2   -1    0    0  501    0  0.00000000000E+00  0.00000000000E+00  0.49542530621E+03  0.49542530621E+03  0.00000000000E+00 0. -1.
         -2   -1    0    0    0  501 -0.00000000000E+00 -0.00000000000E+00 -0.58844513645E+02  0.58844513645E+02  0.00000000000E+00 0.  1.
         25    2    1    2    0    0 -0.34596009653E+02  0.76416144976E+02  0.67934513265E+02  0.16522657059E+03  0.12509360671E+03 0.  0.
          5    1    3    3  502    0 -0.22510246940E+02 -0.27646395975E+02 -0.67184424339E+01  0.36519094957E+02  0.41800000000E+01 0. -1.
         -5    1    3    3    0  502 -0.12085762713E+02  0.10406254095E+03  0.74652955699E+02  0.12870747563E+03  0.41800000000E+01 0. -1.
        -11    1    1    2    0    0  0.41020857689E+02  0.51957002158E+01  0.14923224261E+03  0.15485466832E+03  0.00000000000E+00 0.  1.
         11    1    1    2    0    0 -0.64248480361E+01 -0.81611845191E+02  0.21941403669E+03  0.23418858095E+03  0.00000000000E+00 0. -1.
</event>
<event>
 7    1  0.2766180E-009  0.1145366E+03  0.7561462E-02  0.1252392E+00
         -1   -1    0    0    0  501 -0.00000000000E+00  0.00000000000E+00  0.21053868706E+02  0.21053868706E+02  0.00000000000E+00 0.  1.
          1   -1    0    0  501    0  0.00000000000E+00 -0.00000000000E+00 -0.66037686571E+03  0.66037686571E+03  0.00000000000E+00 0. -1.
         25    2    1    2    0    0  0.30383690262E+02 -0.37722875443E+02 -0.34280410365E+03  0.36809948053E+03  0.12504555220E+03 0.  0.
          5    1    3    3  502    0  0.51319552362E+02 -0.74347343885E+02 -0.20863234403E+03  0.22738986647E+03  0.41800000000E+01 0. -1.
         -5    1    3    3    0  502 -0.20935862100E+02  0.36624468442E+02 -0.13417175962E+03  0.14070961407E+03  0.41800000000E+01 0. -1.
        -11    1    1    2    0    0  0.51709486436E+01  0.56019897196E+02 -0.12285511828E+03  0.13512345348E+03  0.00000000000E+00 0.  1.
         11    1    1    2    0    0 -0.35554638906E+02 -0.18297021753E+02 -0.17366377508E+03  0.17820780041E+03  0.00000000000E+00 0. -1.
</event>
<event>
 7    1  0.2766180E-009  0.2071870E+03  0.7561462E-02  0.1143813E+00
         -2   -1    0    0    0  501 -0.00000000000E+00  0.00000000000E+00  0.35400915370E+02  0.35400915370E+02  0.00000000000E+00 0.  1.
          2   -1    0    0  501    0  0.00000000000E+00 -0.00000000000E+00 -0.14643908452E+04  0.14643908452E+04  0.00000000000E+00 0. -1.
         25    2    1    2    0    0 -0.18697028482E+03 -0.65325474772E+01 -0.50906024182E+03  0.55658801066E+03  0.12508925704E+03 0.  0.
          5    1    3    3  502    0 -0.11596118384E+03  0.50333089681E+02 -0.22289198541E+03  0.25627860939E+03  0.41800000000E+01 0. -1.
         -5    1    3    3    0  502 -0.71009100987E+02 -0.56865637158E+02 -0.28616825641E+03  0.30030940127E+03  0.41800000000E+01 0. -1.
        -11    1    1    2    0    0  0.16839201081E+03  0.25454545723E+02 -0.87154879353E+03  0.88803215185E+03  0.00000000000E+00 0. -1.
         11    1    1    2    0    0  0.18578274011E+02 -0.18921998246E+02 -0.48380894508E+02  0.55171598094E+02  0.00000000000E+00 0.  1.
</event>
<event>
 7    1  0.2766180E-009  0.1052611E+03  0.7561462E-02  0.1269606E+00
         -4   -1    0    0    0  501 -0.00000000000E+00  0.00000000000E+00  0.44028804925E+02  0.44028804925E+02  0.00000000000E+00 0. -1.
          4   -1    0    0  501    0  0.00000000000E+00 -0.00000000000E+00 -0.37420100776E+03  0.37420100776E+03  0.00000000000E+00 0.  1.
         25    2    1    2    0    0  0.36425746465E+02 -0.25362795767E+02 -0.11975644246E+03  0.17877170194E+03  0.12509040527E+03 0.  0.
          5    1    3    3  502    0  0.67772118170E+02 -0.20728839519E+01 -0.12177897723E+03  0.13944514529E+03  0.41800000000E+01 0.  1.
         -5    1    3    3    0  502 -0.31346371705E+02 -0.23289911815E+02  0.20225347734E+01  0.39326556654E+02  0.41800000000E+01 0.  1.
        -11    1    1    2    0    0  0.16048184109E+00 -0.33774822977E+02 -0.26803258238E+02  0.43118198869E+02  0.00000000000E+00 0. -1.
         11    1    1    2    0    0 -0.36586228306E+02  0.59137618744E+02 -0.18361250214E+03  0.19633991188E+03  0.00000000000E+00 0.  1.
</event>
<event>
 7    1  0.2766180E-009  0.2482357E+03  0.7561462E-02  0.1114425E+00
          2   -1    0    0  501    0  0.00000000000E+00  0.00000000000E+00  0.30750763217E+04  0.30750763217E+04  0.00000000000E+00 0. -1.
         -2   -1    0    0    0  501 -0.00000000000E+00 -0.00000000000E+00 -0.46192034212E+02  0.46192034212E+02  0.00000000000E+00 0.  1.
         25    2    1    2    0    0  0.22608632625E+03  0.58593723626E+02  0.26787290990E+04  0.26917997008E+04  0.12509113459E+03 0.  0.
          5    1    3    3  502    0  0.21164117157E+02 -0.24481576522E+02  0.15492720530E+03  0.15832617846E+03  0.41800000000E+01 0. -1.
         -5    1    3    3    0  502  0.20492220909E+03  0.83075300149E+02  0.25238018937E+04  0.25334735223E+04  0.41800000000E+01 0. -1.
        -11    1    1    2    0    0 -0.86604036004E+02  0.10116157589E+02  0.17318042618E+03  0.19389186602E+03  0.00000000000E+00 0.  1.
         11    1    1    2    0    0 -0.13948229024E+03 -0.68709881216E+02  0.17697476227E+03  0.23557678907E+03  0.00000000000E+00 0. -1.
</event>
<event>
 7    1  0.2766180E-009  0.2250573E+03  0.7561462E-02  0.1130168E+00
         -1   -1    0    0    0  501 -0.00000000000E+00  0.00000000000E+00  0.44519295147E+03  0.44519295147E+03  0.00000000000E+00 0.  1.
          1   -1    0    0  501    0  0.00000000000E+00 -0.00000000000E+00 -0.12878958490E+03  0.12878958490E+03  0.00000000000E+00 0. -1.
         25    2    1    2    0    0  0.11315689231E+03  0.18057337766E+03  0.17925872723E+03  0.30527985077E+03  0.12510343321E+03 0.  0.
          5    1    3    3  502    0  0.10848474976E+03  0.12007608096E+03  0.18302559153E+03  0.24434206700E+03  0.41800000000E+01 0.  1.
         -5    1    3    3    0  502  0.46721425484E+01  0.60497296696E+02 -0.37668643070E+01  0.60937783765E+02  0.41800000000E+01 0.  1.
        -11    1    1    2    0    0 -0.78173854072E+02 -0.51327866567E+02  0.80209440813E+02  0.12320412226E+03  0.00000000000E+00 0.  1.
         11    1    1    2    0    0 -0.34983038240E+02 -0.12924551109E+03  0.56935198528E+02  0.14549856334E+03  0.00000000000E+00 0. -1.
</event>
<event>
 7    1  0.2766180E-009  0.9231064E+02  0.7561462E-02  0.1297351E+00
          3   -1    0    0  501    0  0.00000000000E+00  0.00000000000E+00  0.25194994516E+03  0.25194994516E+03  0.00000000000E+00 0. -1.
         -3   -1    0    0    0  501 -0.00000000000E+00 -0.00000000000E+00 -0.59385492483E+02  0.59385492483E+02  0.00000000000E+00 0.  1.
         25    2    1    2    0    0  0.50326968974E+01  0.56252472424E+02  0.10036957193E+03  0.17003272130E+03  0.12508959450E+03 0.  0.
          5    1    3    3  502    0  0.35059787858E+02  0.30643039501E+02 -0.14138894284E+02  0.48842249396E+02  0.41800000000E+01 0. -1.
         -5    1    3    3    0  502 -0.30027090960E+02  0.25609432923E+02  0.11450846621E+03  0.12119047190E+03  0.41800000000E+01 0. -1.
        -11    1    1    2    0    0  0.16231236202E+02  0.16046164221E+02  0.49929668612E+02  0.54899036626E+02  0.00000000000E+00 0. -1.
         11    1    1    2    0    0 -0.21263933099E+02 -0.72298636645E+02  0.42265212136E+02  0.86403679716E+02  0.00000000000E+00 0.  1.
</event>
<event>
 7    1  0.2766180E-009  0.6243207E+02  0.7561462E-02  0.1387900E+00
         -1   -1    0    0    0  501 -0.00000000000E+00  0.00000000000E+00  0.56662719480E+02  0.56662719480E+02  0.00000000000E+00 0.  1.
          1   -1    0    0  501    0  0.00000000000E+00 -0.00000000000E+00 -0.28322689308E+03  0.28322689308E+03  0.00000000000E+00 0. -1.
         25    2    1    2    0    0  0.42449024875E+02  0.14528062385E+01 -0.19297474945E+03  0.23386188705E+03  0.12509235761E+03 0.  0.
          5    1    3    3  502    0  0.11192266900E+02  0.73830649552E+01  0.16657482408E+02  0.21788084052E+02  0.41800000000E+01 0.  1.
         -5    1    3    3    0  502  0.31256757975E+02 -0.59302587167E+01 -0.20963223185E+03  0.21207380300E+03  0.41800000000E+01 0.  1.
        -11    1    1    2    0    0  0.16600235130E+02  0.88165246442E+01 -0.41513595514E+02  0.45570577412E+02  0.00000000000E+00 0. -1.
         11    1    1    2    0    0 -0.59049260005E+02 -0.10269330883E+02  0.79241713603E+01  0.60457148094E+02  0.00000000000E+00 0.  1.
</event>
<event>
 7    1  0.2766180E-009  0.9190383E+02  0.7561462E-02  0.1298306E+00
         -2   -1    0    0    0  501 -0.00000000000E+00  0.00000000000E+00  0.13194700500E+03  0.13194700500E+03  0.00000000000E+00 0.  1.
          2   -1    0    0  501    0  0.00000000000E+00 -0.00000000000E+00 -0.99021233479E+02  0.99021233479E+02  0.00000000000E+00 0. -1.
         25    2    1    2    0    0 -0.20138459972E+02  0.17097746127E+02  0.41477548839E+02  0.13440900457E+03  0.12508997945E+03 0.  0.
          5    1    3    3  502    0  0.42468287704E+01 -0.33553284937E+02 -0.28588515006E+02  0.44481839833E+02  0.41800000000E+01 0.  1.
         -5    1    3    3    0  502 -0.24385288743E+02  0.50651031064E+02  0.70066063845E+02  0.89927164737E+02  0.41800000000E+01 0.  1.
        -11    1    1    2    0    0 -0.28521897519E+02  0.17671815721E+02  0.80235469283E+01  0.34498826274E+02  0.00000000000E+00 0.  1.
         11    1    1    2    0    0  0.48660357491E+02 -0.34769561848E+02 -0.16575324244E+02  0.62060407637E+02  0.00000000000E+00 0. -1.
</event>
<event>
 7    1  0.2766180E-009  0.1058473E+03  0.7561462E-02  0.1268459E+00
         -1   -1    0    0    0  501 -0.00000000000E+00  0.00000000000E+00  0.35536051083E+02  0.35536051083E+02  0.00000000000E+00 0.  1.
          1   -1    0    0  501    0  0.00000000000E+00 -0.00000000000E+00 -0.33582548638E+03  0.33582548638E+03  0.00000000000E+00 0. -1.
         25    2    1    2    0    0  0.11288806405E+02  0.94381212305E-01 -0.18626758019E+03  0.22465736853E+03  0.12509146952E+03 0.  0.
          5    1    3    3  502    0  0.65270155812E+02  0.60194099340E+00 -0.13538005994E+03  0.15035221516E+03  0.41800000000E+01 0. -1.
         -5    1    3    3    0  502 -0.53981349407E+02 -0.50755978109E+00 -0.50887520247E+02  0.74305153372E+02  0.41800000000E+01 0. -1.
        -11    1    1    2    0    0 -0.30560067663E+02 -0.38511189541E+02 -0.65226520592E+02  0.81679424851E+02  0.00000000000E+00 0. -1.
         11    1    1    2    0    0  0.19271261258E+02  0.38416808329E+02 -0.48795334515E+02  0.65024744083E+02  0.00000000000E+00 0.  1.
</event>
<event>
 7    1  0.2766180E-009  0.9814368E+02  0.7561462E-02  0.1284249E+00
         -2   -1    0    0    0  501 -0.00000000000E+00  0.00000000000E+00  0.29391078354E+02  0.29391078354E+02  0.00000000000E+00 0.  1.
          2   -1    0    0  501    0  0.00000000000E+00 -0.00000000000E+00 -0.39875508647E+03  0.39875508647E+03  0.00000000000E+00 0. -1.
         25    2    1    2    0    0  0.35565328260E+01 -0.62654061965E+01 -0.21801503846E+03  0.25145342850E+03  0.12508543268E+03 0.  0.
          5    1    3    3  502    0  0.16120083776E+02  0.47509808944E+02 -0.17272192126E+03  0.17990934809E+03  0.41800000000E+01 0.  1.
         -5    1    3    3    0  502 -0.12563550950E+02 -0.53775215141E+02 -0.45293117201E+02  0.71544080410E+02  0.41800000000E+01 0.  1.
        -11    1    1    2    0    0 -0.42125307392E+02  0.23590308462E+02 -0.90866367241E+02  0.10289674860E+03  0.00000000000E+00 0.  1.
         11    1    1    2    0    0  0.38568774566E+02 -0.17324902265E+02 -0.60482602421E+02  0.73795987733E+02  0.00000000000E+00 0. -1.
</event>
<event>
 7    1  0.2766180E-009  0.1388663E+03  0.7561462E-02  0.1214863E+00
          2   -1    0    0  501    0  0.00000000000E+00  0.00000000000E+00  0.55011642431E+03  0.55011642431E+03  0.00000000000E+00 0. -1.
         -2   -1    0    0    0  501 -0.00000000000E+00 -0.00000000000E+00 -0.41998558126E+02  0.41998558126E+02  0.00000000000E+00 0.  1.
         25    2    1    2    0    0  0.67006997579E+02  0.81175634743E+02  0.25687749524E+03  0.30448741686E+03  0.12508844097E+03 0.  0.
          5    1    3    3  502    0 -0.20715711639E+02  0.44798998344E+02  0.28572226084E+02  0.57183349541E+02  0.41800000000E+01 0. -1.
         -5    1    3    3    0  502  0.87722709218E+02  0.36376636399E+02  0.22830526916E+03  0.24730406732E+03  0.41800000000E+01 0. -1.
        -11    1    1    2    0    0 -0.24540216917E+02 -0.86892614657E+02  0.20799889754E+03  0.22675116340E+03  0.00000000000E+00 0. -1.
         11    1    1    2    0    0 -0.42466780661E+02  0.57169799140E+01  0.43241473410E+02  0.60876402175E+02  0.00000000000E+00 0.  1.
</event>
<event>
 7    1  0.2766180E-009  0.1123342E+03  0.7561462E-02  0.1256307E+00
         -1   -1    0    0    0  501 -0.00000000000E+00  0.00000000000E+00  0.42213713805E+02  0.42213713805E+02  0.00000000000E+00 0.  1.
          1   -1    0    0  501    0  0.00000000000E+00 -0.00000000000E+00 -0.32314972933E+03  0.32314972933E+03  0.00000000000E+00 0. -1.
         25    2    1    2    0    0 -0.25786882216E+02  0.22481905280E+01 -0.12418850272E+03  0.17814655501E+03  0.12507355115E+03 0.  0.
          5    1    3    3  502    0  0.32223595345E+02  0.44961624040E+02 -0.50683992560E+02  0.75141514724E+02  0.41800000000E+01 0. -1.
         -5    1    3    3    0  502 -0.58010477561E+02 -0.42713433512E+02 -0.73504510163E+02  0.10300504028E+03  0.41800000000E+01 0. -1.
        -11    1    1    2    0    0  0.22655949206E+02 -0.46998438930E+02 -0.53920070646E+02  0.75030122716E+02  0.00000000000E+00 0.  1.
         11    1    1    2    0    0  0.31309330100E+01  0.44750248402E+02 -0.10282744216E+03  0.11218676542E+03  0.00000000000E+00 0. -1.
</event>
<event>
 7    1  0.2766180E-009  0.1768463E+03  0.7561462E-02  0.1170891E+00
          2   -1    0    0  501    0  0.00000000000E+00  0.00000000000E+00  0.10718737592E+04  0.10718737592E+04  0.00000000000E+00 0. -1.
         -2   -1    0    0    0  501 -0.00000000000E+00 -0.00000000000E+00 -0.33475008673E+02  0.33475008673E+02  0.00000000000E+00 0.  1.
         25    2    1    2    0    0  0.12112810306E+03  0.96862454145E+02  0.60038797856E+03  0.63258778846E+03  0.12508890010E+03 0.  0.
          5    1    3    3  502    0  0.11475579741E+03  0.11103439450E+03  0.38803758972E+03  0.41962861347E+03  0.41800000000E+01 0. -1.
         -5    1    3    3    0  502  0.63723056524E+01 -0.14171940354E+02  0.21235038884E+03  0.21295917499E+03  0.41800000000E+01 0. -1.
        -11    1    1    2    0    0 -0.49510361749E+02  0.87345534852E+01  0.11957761919E+03  0.12971651921E+03  0.00000000000E+00 0.  1.
         11    1    1    2    0    0 -0.71617741314E+02 -0.10559700763E+03  0.31843315277E+03  0.34304446020E+03  0.00000000000E+00 0. -1.
</event>
<event>
 7    1  0.3120880E-009  0.9967952E+02  0.7561462E-02  0.1280971E+00
          1   -1    0    0  501    0  0.00000000000E+00  0.00000000000E+00  0.10190118447E+04  0.10190118447E+04  0.00000000000E+00 0. -1.
         -1   -1    0    0    0  501 -0.00000000000E+00 -0.00000000000E+00 -0.12770966528E+02  0.12770966528E+02  0.00000000000E+00 0.  1.
         25    2    1    2    0    0 -0.33427648314E+02 -0.14381618990E+02  0.54411179289E+03  0.55949045021E+03  0.12509069541E+03 0.  0.
          5    1    3    3  502    0  0.26184622450E+02  0.21978753420E+02  0.51614289570E+02  0.62050039021E+02  0.41800000000E+01 0. -1.
         -5    1    3    3    0  502 -0.59612270764E+02 -0.36360372410E+02  0.49249750332E+03  0.49744041119E+03  0.41800000000E+01 0. -1.
        -11    1    1    2    0    0  0.10294768205E+02 -0.37113325990E+02  0.13754020201E+03  0.14283097839E+03  0.00000000000E+00 0.  1.
         11    1    1    2    0    0  0.23132880109E+02  0.51494944980E+02  0.32458888331E+03  0.32946138267E+03  0.00000000000E+00 0. -1.
</event>
<event>
 7    1  0.2766180E-009  0.1378195E+03  0.7561462E-02  0.1216293E+00
          2   -1    0    0  501    0  0.00000000000E+00  0.00000000000E+00  0.44223663303E+02  0.44223663303E+02  0.00000000000E+00 0. -1.
         -2   -1    0    0    0  501 -0.00000000000E+00 -0.00000000000E+00 -0.67917310115E+03  0.67917310115E+03  0.00000000000E+00 0.  1.
         25    2    1    2    0    0  0.15999069480E+02  0.11525043787E+03 -0.47694264883E+03  0.50661675296E+03  0.12509040913E+03 0.  0.
          5    1    3    3  502    0  0.22169284334E+02 -0.14997882032E+02 -0.18338312110E+03  0.18537328594E+03  0.41800000000E+01 0. -1.
         -5    1    3    3    0  502 -0.61702148538E+01  0.13024831990E+03 -0.29355952772E+03  0.32124346702E+03  0.41800000000E+01 0. -1.
        -11    1    1    2    0    0 -0.16792654176E+02 -0.48366479720E+02 -0.13764836768E+03  0.14686178101E+03  0.00000000000E+00 0.  1.
         11    1    1    2    0    0  0.79358469575E+00 -0.66883958150E+02 -0.20358421334E+02  0.69918230481E+02  0.00000000000E+00 0. -1.
</event>
<event>
 7    1  0.2766180E-009  0.1112146E+03  0.7561462E-02  0.1258337E+00
          1   -1    0    0  501    0  0.00000000000E+00  0.00000000000E+00  0.37928899565E+02  0.37928899565E+02  0.00000000000E+00 0. -1.
         -1   -1    0    0    0  501 -0.00000000000E+00 -0.00000000000E+00 -0.36818715241E+03  0.36818715241E+03  0.00000000000E+00 0.  1.
         25    2    1    2    0    0  0.24865148122E+02 -0.64035356593E+01 -0.12289600114E+03  0.17722898516E+03  0.12508958880E+03 0.  0.
          5    1    3    3  502    0  0.67208183350E+02  0.28049083881E+02 -0.69611084443E+02  0.10083088065E+03  0.41800000000E+01 0.  1.
         -5    1    3    3    0  502 -0.42343035228E+02 -0.34452619540E+02 -0.53284916692E+02  0.76398104508E+02  0.41800000000E+01 0.  1.
        -11    1    1    2    0    0  0.30720999167E+02 -0.16197323691E+02 -0.10048400516E+03  0.10631635988E+03  0.00000000000E+00 0. -1.
         11    1    1    2    0    0 -0.55586147290E+02  0.22600859350E+02 -0.10687824655E+03  0.12257070694E+03  0.00000000000E+00 0.  1.
</event>
<event>
 7    1  0.2766180E-009  0.9824511E+02  0.7561462E-02  0.1284030E+00
          3   -1    0    0  501    0  0.00000000000E+00  0.00000000000E+00  0.28804050714E+03  0.28804050714E+03  0.00000000000E+00 0. -1.
         -3   -1    0    0    0  501 -0.00000000000E+00 -0.00000000000E+00 -0.44363629127E+02  0.44363629127E+02  0.00000000000E+00 0.  1.
         25    2    1    2    0    0  0.20756021131E+02 -0.23562575671E+02  0.13614404542E+03  0.18751813750E+03  0.12506735546E+03 0.  0.
          5    1    3    3  502    0 -0.11836110902E+02 -0.54610247121E+02  0.13042276147E+03  0.14195049039E+03  0.41800000000E+01 0.  1.
         -5    1    3    3    0  502  0.32592132034E+02  0.31047671450E+02  0.57212839522E+01  0.45567647109E+02  0.41800000000E+01 0.  1.
        -11    1    1    2    0    0 -0.44074240729E+02 -0.17986953495E+02  0.39660907267E+02  0.61960122314E+02  0.00000000000E+00 0.  1.
         11    1    1    2    0    0  0.23318219598E+02  0.41549529167E+02  0.67871925329E+02  0.82925876463E+02  0.00000000000E+00 0. -1.
</event>
<event>
 7    1  0.2766180E-009  0.9922265E+02  0.7561462E-02  0.1281939E+00
         -1   -1    0    0    0  501 -0.00000000000E+00  0.00000000000E+00  0.39802598383E+02  0.39802598383E+02  0.00000000000E+00 0.  1.
          1   -1    0    0  501    0  0.00000000000E+00 -0.00000000000E+00 -0.42602398167E+03  0.42602398167E+03  0.00000000000E+00 0. -1.
         25    2    1    2    0    0  0.50580667999E+02  0.28179123908E+02 -0.29266528201E+03  0.32350082111E+03  0.12508935591E+03 0.  0.
          5    1    3    3  502    0  0.42733766872E+02 -0.20267474581E+02 -0.26022703170E+03  0.26452320463E+03  0.41800000000E+01 0.  1.
         -5    1    3    3    0  502  0.78469011262E+01  0.48446598488E+02 -0.32438250307E+02  0.58977616477E+02  0.41800000000E+01 0.  1.
        -11    1    1    2    0    0 -0.37452418014E+02 -0.58048429683E+02 -0.83099513020E+02  0.10806402208E+03  0.00000000000E+00 0. -1.
         11    1    1    2    0    0 -0.13128249984E+02  0.29869305775E+02 -0.10456588252E+02  0.34261736865E+02  0.00000000000E+00 0.  1.
</event>
<event>
 7    1  0.2766180E-009  0.1049445E+03  0.7561462E-02  0.1270229E+00
         -1   -1    0    0    0  501 -0.00000000000E+00  0.00000000000E+00  0.22314712156E+02  0.22314712156E+02  0.00000000000E+00 0.  1.
          1   -1    0    0  501    0  0.00000000000E+00 -0.00000000000E+00 -0.74025670829E+03  0.74025670829E+03  0.00000000000E+00 0. -1.
         25    2    1    2    0    0  0.38008174066E+02  0.31160440763E+02 -0.55447453996E+03  0.57052554000E+03  0.12506710987E+03 0.  0.
          5    1    3    3  502    0  0.76712454219E+02 -0.99369648839E+01 -0.33909551203E+03  0.34783154339E+03  0.41800000000E+01 0. -1.
         -5    1    3    3    0  502 -0.38704280153E+02  0.41097405647E+02 -0.21537902793E+03  0.22269399661E+03  0.41800000000E+01 0. -1.
        -11    1    1    2    0    0  0.14921375306E+02 -0.11416705369E+01  0.25929511244E+01  0.15187963924E+02  0.00000000000E+00 0.  1.
         11    1    1    2    0    0 -0.52929549372E+02 -0.30018770226E+02 -0.16606040730E+03  0.17685791652E+03  0.00000000000E+00 0. -1.
</event>
<event>
 7    1  0.2766180E-009  0.1160898E+03  0.7561462E-02  0.1249691E+00
          1   -1    0    0  501    0  0.00000000000E+00  0.00000000000E+00  0.45821803491E+03  0.45821803491E+03  0.00000000000E+00 0. -1.
         -1   -1    0    0    0  501 -0.00000000000E+00 -0.00000000000E+00 -0.59462105136E+02  0.59462105136E+02  0.00000000000E+00 0.  1.
         25    2    1    2    0    0 -0.91507456816E+02  0.19565826727E+02  0.84313149326E+02  0.17753193741E+03  0.12510973352E+03 0.  0.
          5    1    3    3  502    0 -0.11073168417E+02 -0.15522534770E+02 -0.28500886284E+02  0.34544711078E+02  0.41800000000E+01 0. -1.
         -5    1    3    3    0  502 -0.80434288399E+02  0.35088361497E+02  0.11281403561E+03  0.14298722633E+03  0.41800000000E+01 0. -1.
        -11    1    1    2    0    0  0.75446490302E+02  0.23354402136E+02  0.24069923835E+03  0.25332533300E+03  0.00000000000E+00 0. -1.
         11    1    1    2    0    0  0.16060966514E+02 -0.42920228863E+02  0.73743542097E+02  0.86822869637E+02  0.00000000000E+00 0.  1.
</event>
<event>
 7    1  0.2766180E-009  0.1916261E+03  0.7561462E-02  0.1157003E+00
         -2   -1    0    0    0  501 -0.00000000000E+00  0.00000000000E+00  0.70878848315E+03  0.70878848315E+03  0.00000000000E+00 0.  1.
          2   -1    0    0  501    0  0.00000000000E+00 -0.00000000000E+00 -0.61733048701E+02  0.61733048701E+02  0.00000000000E+00 0. -1.
         25    2    1    2    0    0 -0.17550875041E+03  0.23168660269E+01  0.39303421274E+03  0.44825480981E+03  0.12509113796E+03 0.  0.
          5    1    3    3  502    0 -0.44838016174E+02 -0.47324863157E+02  0.67406511829E+02  0.93867995633E+02  0.41800000000E+01 0. -1.
         -5    1    3    3    0  502 -0.13067073423E+03  0.49641729184E+02  0.32562770091E+03  0.35438681417E+03  0.41800000000E+01 0. -1.
        -11    1    1    2    0    0  0.31389522899E+02  0.11202647413E+02  0.12158997439E+03  0.12607507022E+03  0.00000000000E+00 0.  1.
         11    1    1    2    0    0  0.14411922751E+03 -0.13519513439E+02  0.13243124732E+03  0.19619165183E+03  0.00000000000E+00 0. -1.
</event>
<event>
 7    1  0.2766180E-009  0.1833817E+03  0.7561462E-02  0.1164570E+00
          2   -1    0    0  501    0  0.00000000000E+00  0.00000000000E+00  0.15592443285E+04  0.15592443285E+04  0.00000000000E+00 0. -1.
         -2   -1    0    0    0  501 -0.00000000000E+00 -0.00000000000E+00 -0.25008559106E+02  0.25008559106E+02  0.00000000000E+00 0.  1.
         25    2    1    2    0    0  0.75483574259E+02 -0.14499824526E+03  0.70997286691E+03  0.73921010546E+03  0.12509135528E+03 0.  0.
          5    1    3    3  502    0  0.77205075712E+02 -0.65325493116E+02  0.21248154316E+03  0.23535913483E+03  0.41800000000E+01 0. -1.
         -5    1    3    3    0  502 -0.17215014528E+01 -0.79672752140E+02  0.49749132375E+03  0.50385097063E+03  0.41800000000E+01 0. -1.
        -11    1    1    2    0    0 -0.29523892393E+02  0.13567043673E+03  0.58801545932E+03  0.60418565692E+03  0.00000000000E+00 0. -1.
         11    1    1    2    0    0 -0.45959681865E+02  0.93278085255E+01  0.23624744320E+03  0.24085712526E+03  0.00000000000E+00 0.  1.
</event>
<event>
 7    1  0.2766180E-009  0.1404086E+03  0.7561462E-02  0.1212780E+00
          2   -1    0    0  501    0  0.00000000000E+00  0.00000000000E+00  0.10112003433E+03  0.10112003433E+03  0.00000000000E+00 0. -1.
         -2   -1    0    0    0  501 -0.00000000000E+00 -0.00000000000E+00 -0.43842468620E+03  0.43842468620E+03  0.00000000000E+00 0.  1.
         25    2    1    2    0    0 -0.52858650054E+02  0.10722752601E+03 -0.34994634170E+03  0.39038941153E+03  0.12509864643E+03 0.  0.
          5    1    3    3  502    0  0.94464970233E+01  0.86042213494E+02 -0.28480833251E+03  0.29770078514E+03  0.41800000000E+01 0. -1.
         -5    1    3    3    0  502 -0.62305147077E+02  0.21185312516E+02 -0.65138009198E+02  0.92688626384E+02  0.41800000000E+01 0. -1.
        -11    1    1    2    0    0  0.36277067237E+02 -0.24339179497E+02 -0.31438311719E+02  0.53821823730E+02  0.00000000000E+00 0.  1.
         11    1    1    2    0    0  0.16581582817E+02 -0.82888346513E+02  0.44080001553E+02  0.95333485268E+02  0.00000000000E+00 0. -1.
</event>
<event>
 7    1  0.2766180E-009  0.1373835E+03  0.7561462E-02  0.1216894E+00
          1   -1    0    0  501    0  0.00000000000E+00  0.00000000000E+00  0.88487688899E+03  0.88487688899E+03  0.00000000000E+00 0. -1.
         -1   -1    0    0    0  501 -0.00000000000E+00 -0.00000000000E+00 -0.26469160338E+02  0.26469160338E+02  0.00000000000E+00 0.  1.
         25    2    1    2    0    0  0.19506407766E+01 -0.10502472121E+03  0.53838971883E+03  0.56262112991E+03  0.12508017192E+03 0.  0.
          5    1    3    3  502    0  0.61589243839E+02 -0.70769571385E+02  0.33253131114E+03  0.34553742558E+03  0.41800000000E+01 0.  1.
         -5    1    3    3    0  502 -0.59638603062E+02 -0.34255149821E+02  0.20585840769E+03  0.21708370432E+03  0.41800000000E+01 0.  1.
        -11    1    1    2    0    0 -0.19128655326E+02  0.35356565902E+02  0.23059313374E+03  0.23407089852E+03  0.00000000000E+00 0. -1.
         11    1    1    2    0    0  0.17178014549E+02  0.69668155303E+02  0.89424876086E+02  0.11465402091E+03  0.00000000000E+00 0.  1.
</event>
<event>
 7    1  0.2766180E-009  0.8786384E+02  0.7561462E-02  0.1308109E+00
          2   -1    0    0  501    0  0.00000000000E+00  0.00000000000E+00  0.12258491809E+04  0.12258491809E+04  0.00000000000E+00 0.  1.
         -2   -1    0    0    0  501 -0.00000000000E+00 -0.00000000000E+00 -0.13930905152E+02  0.13930905152E+02  0.00000000000E+00 0. -1.
         25    2    1    2    0    0 -0.38186296491E+00  0.41748481183E+02  0.95568340616E+03  0.96473778158E+03  0.12508050568E+03 0.  0.
          5    1    3    3  502    0  0.35470824270E+02  0.32172913730E+02  0.86929773676E+03  0.87062581129E+03  0.41800000000E+01 0. -1.
         -5    1    3    3    0  502 -0.35852687235E+02  0.95755674531E+01  0.86385669402E+02  0.94111970291E+02  0.41800000000E+01 0. -1.
        -11    1    1    2    0    0 -0.29609697850E+02 -0.50961181553E+02  0.21669233494E+03  0.22456478854E+03  0.00000000000E+00 0.  1.
         11    1    1    2    0    0  0.29991560815E+02  0.92127003699E+01  0.39542534666E+02  0.50477515946E+02  0.00000000000E+00 0. -1.
</event>
<event>
 7    1  0.2766180E-009  0.1763369E+03  0.7561462E-02  0.1171396E+00
         -2   -1    0    0    0  501 -0.00000000000E+00  0.00000000000E+00  0.62717497138E+03  0.62717497138E+03  0.00000000000E+00 0.  1.
          2   -1    0    0  501    0  0.00000000000E+00 -0.00000000000E+00 -0.51767287815E+02  0.51767287815E+02  0.00000000000E+00 0. -1.
         25    2    1    2    0    0  0.13372449222E+02  0.12030597970E+03  0.22698621010E+03  0.28604583982E+03  0.12508849569E+03 0.  0.
          5    1    3    3  502    0 -0.53871300107E+02  0.67433209184E+02  0.13567948932E+03  0.16085941346E+03  0.41800000000E+01 0. -1.
         -5    1    3    3    0  502  0.67243749329E+02  0.52872770513E+02  0.91306720779E+02  0.12518642636E+03  0.41800000000E+01 0. -1.
        -11    1    1    2    0    0  0.60220687826E+02 -0.64640271473E+02  0.15032684221E+03  0.17436471956E+03  0.00000000000E+00 0. -1.
         11    1    1    2    0    0 -0.73593137048E+02 -0.55665708224E+02  0.19809463126E+03  0.21853169982E+03  0.00000000000E+00 0.  1.
</event>
<event>
 7    1  0.2766180E-009  0.1511411E+03  0.7561462E-02  0.1199078E+00
         -3   -1    0    0    0  501 -0.00000000000E+00  0.00000000000E+00  0.16239323236E+04  0.16239323236E+04  0.00000000000E+00 0. -1.
          3   -1    0    0  501    0  0.00000000000E+00 -0.00000000000E+00 -0.16353078278E+02  0.16353078278E+02  0.00000000000E+00 0.  1.
         25    2    1    2    0    0 -0.26094884218E+02  0.11466128630E+03  0.94132430530E+03  0.95685259126E+03  0.12508908868E+03 0.  0.
          5    1    3    3  502    0 -0.33219035442E+02 -0.51908662323E+01  0.75761327018E+02  0.82992171194E+02  0.41800000000E+01 0. -1.
         -5    1    3    3    0  502  0.71241512235E+01  0.11985215253E+03  0.86556297828E+03  0.87386042007E+03  0.41800000000E+01 0. -1.
        -11    1    1    2    0    0  0.58166568734E+02 -0.92545694581E+02  0.55200876226E+03  0.56272704655E+03  0.00000000000E+00 0. -1.
         11    1    1    2    0    0 -0.32071684516E+02 -0.22115591721E+02  0.11424617776E+03  0.12070576406E+03  0.00000000000E+00 0.  1.
</event>
<event>
 7    1  0.2766180E-009  0.9714645E+02  0.7561462E-02  0.1286414E+00
          1   -1    0    0  501    0  0.00000000000E+00  0.00000000000E+00  0.51224765945E+03  0.51224765945E+03  0.00000000000E+00 0. -1.
         -1   -1    0    0    0  501 -0.00000000000E+00 -0.00000000000E+00 -0.40670875566E+02  0.40670875566E+02  0.00000000000E+00 0.  1.
         25    2    1    2    0    0 -0.27219493003E+02  0.56416590740E+02  0.40160305552E+03  0.42526641118E+03  0.12507107483E+03 0.  0.
          5    1    3    3  502    0 -0.46346924282E+02  0.66906518270E+02  0.39313731014E+03  0.40149587370E+03  0.41800000000E+01 0.  1.
         -5    1    3    3    0  502  0.19127431279E+02 -0.10489927530E+02  0.84657453887E+01  0.23770537476E+02  0.41800000000E+01 0.  1.
        -11    1    1    2    0    0  0.48966270418E+02 -0.36249170411E+02  0.75982050033E+02  0.97390810251E+02  0.00000000000E+00 0. -1.
         11    1    1    2    0    0 -0.21746777415E+02 -0.20167420328E+02 -0.60083216749E+01  0.30261313587E+02  0.00000000000E+00 0.  1.
</event>
<event>
 7    1  0.2766180E-009  0.1148652E+03  0.7561462E-02  0.1251817E+00
         -1   -1    0    0    0  501 -0.00000000000E+00  0.00000000000E+00  0.27381659985E+02  0.27381659985E+02  0.00000000000E+00 0.  1.
          1   -1    0    0  501    0  0.00000000000E+00 -0.00000000000E+00 -0.63490341925E+03  0.63490341925E+03  0.00000000000E+00 0. -1.
         25    2    1    2    0    0  0.72573421241E+02 -0.74579982594E+01 -0.39940848468E+03  0.42486451414E+03  0.12514069893E+03 0.  0.
          5    1    3    3  502    0  0.45854222756E+02  0.42316373424E+02 -0.32702279276E+03  0.33294844134E+03  0.41800000000E+01 0. -1.
         -5    1    3    3    0  502  0.26719198485E+02 -0.49774371684E+02 -0.72385691925E+02  0.91916072803E+02  0.41800000000E+01 0. -1.
        -11    1    1    2    0    0 -0.19974158852E+02  0.42763132870E+02 -0.60079836503E+02  0.76401827916E+02  0.00000000000E+00 0.  1.
         11    1    1    2    0    0 -0.52599262389E+02 -0.35305134610E+02 -0.14803343808E+03  0.16101873718E+03  0.00000000000E+00 0. -1.
</event>
<event>
 7    1  0.2766180E-009  0.1745748E+03  0.7561462E-02  0.1173159E+00
         -1   -1    0    0    0  501 -0.00000000000E+00  0.00000000000E+00  0.56856751819E+02  0.56856751819E+02  0.00000000000E+00 0.  1.
          1   -1    0    0  501    0  0.00000000000E+00 -0.00000000000E+00 -0.58168422916E+03  0.58168422916E+03  0.00000000000E+00 0. -1.
         25    2    1    2    0    0 -0.29012491314E+01  0.14586760863E+03 -0.23256550309E+03  0.30169471459E+03  0.12508881282E+03 0.  0.
          5    1    3    3  502    0 -0.54773102463E+02  0.11695352032E+03 -0.13123000828E+03  0.18416570294E+03  0.41800000000E+01 0. -1.
         -5    1    3    3    0  502  0.51871853332E+02  0.28914088316E+02 -0.10133549481E+03  0.11752901165E+03  0.41800000000E+01 0. -1.
        -11    1    1    2    0    0  0.28790700863E+02 -0.12145412104E+03 -0.17972676458E+03  0.21881891573E+03  0.00000000000E+00 0. -1.
         11    1    1    2    0    0 -0.25889451732E+02 -0.24413487591E+02 -0.11253520967E+03  0.11802735066E+03  0.00000000000E+00 0.  1.
</event>
<event>
 7    1  0.2766180E-009  0.9366856E+02  0.7561462E-02  0.1294203E+00
         -2   -1    0    0    0  501 -0.00000000000E+00  0.00000000000E+00  0.24921061736E+02  0.24921061736E+02  0.00000000000E+00 0.  1.
          2   -1    0    0  501    0  0.00000000000E+00 -0.00000000000E+00 -0.58430803941E+03  0.58430803941E+03  0.00000000000E+00 0. -1.
         25    2    1    2    0    0 -0.50179160091E+02  0.59657882902E+01 -0.35212894318E+03  0.37708625815E+03  0.12508283144E+03 0.  0.
          5    1    3    3  502    0  0.33721186039E+02 -0.27663554972E+02 -0.98726172591E+02  0.10801259286E+03  0.41800000000E+01 0. -1.
         -5    1    3    3    0  502 -0.83900346130E+02  0.33629343262E+02 -0.25340277059E+03  0.26907366529E+03  0.41800000000E+01 0. -1.
        -11    1    1    2    0    0  0.13899423694E+02  0.55575284008E+01  0.55440531017E+01  0.15962976719E+02  0.00000000000E+00 0.  1.
         11    1    1    2    0    0  0.36279736397E+02 -0.11523316691E+02 -0.21280208760E+03  0.21617986628E+03  0.00000000000E+00 0. -1.
</event>
<event>
 7    1  0.2766180E-009  0.1071742E+03  0.7561462E-02  0.1265894E+00
          1   -1    0    0  501    0  0.00000000000E+00  0.00000000000E+00  0.43400449735E+03  0.43400449735E+03  0.00000000000E+00 0. -1.
         -1   -1    0    0    0  501 -0.00000000000E+00 -0.00000000000E+00 -0.30659216773E+02  0.30659216773E+02  0.00000000000E+00 0.  1.
         25    2    1    2    0    0  0.26213757253E+02  0.11330484135E+02  0.17562343144E+03  0.21750541371E+03  0.12509785922E+03 0.  0.
          5    1    3    3  502    0 -0.19703105914E+02  0.52981253547E+02  0.43323824641E+02  0.71341795545E+02  0.41800000000E+01 0.  1.
         -5    1    3    3    0  502  0.45916863167E+02 -0.41650769412E+02  0.13229960680E+03  0.14616361816E+03  0.41800000000E+01 0.  1.
        -11    1    1    2    0    0  0.30163284068E+02 -0.23037005447E+02  0.10352765225E+03  0.11026559801E+03  0.00000000000E+00 0. -1.
         11    1    1    2    0    0 -0.56377041320E+02  0.11706521311E+02  0.12419419689E+03  0.13689270240E+03  0.00000000000E+00 0.  1.
</event>
<event>
 7    1  0.2766180E-009  0.1089348E+03  0.7561462E-02  0.1262555E+00
          2   -1    0    0  501    0  0.00000000000E+00  0.00000000000E+00  0.10357572877E+03  0.10357572877E+03  0.00000000000E+00 0. -1.
         -2   -1    0    0    0  501 -0.00000000000E+00 -0.00000000000E+00 -0.17346390928E+03  0.17346390928E+03  0.00000000000E+00 0.  1.
         25    2    1    2    0    0  0.30391263994E+02  0.68790315020E+01 -0.11375477134E+03  0.17192787779E+03  0.12509235451E+03 0.  0.
          5    1    3    3  502    0  0.32247471326E+02  0.60615055551E+02 -0.89276124459E+02  0.11270218793E+03  0.41800000000E+01 0. -1.
         -5    1    3    3    0  502 -0.18562073325E+01 -0.53736024049E+02 -0.24478646886E+02  0.59225689862E+02  0.41800000000E+01 0. -1.
        -11    1    1    2    0    0 -0.58887081133E+02 -0.22038283389E+02  0.33296395948E+02  0.71147903990E+02  0.00000000000E+00 0. -1.
         11    1    1    2    0    0  0.28495817139E+02  0.15159251887E+02  0.10570194895E+02  0.33963856264E+02  0.00000000000E+00 0.  1.
</event>
<event>
 7    1  0.2766180E-009  0.1570970E+03  0.7561462E-02  0.1192014E+00
         -1   -1    0    0    0  501 -0.00000000000E+00  0.00000000000E+00  0.25840903980E+03  0.25840903980E+03  0.00000000000E+00 0.  1.
          1   -1    0    0  501    0  0.00000000000E+00 -0.00000000000E+00 -0.18664617180E+03  0.18664617180E+03  0.00000000000E+00 0. -1.
         25    2    1    2    0    0 -0.12420257048E+03 -0.80521530506E+02  0.15828197129E+03  0.25022246101E+03  0.12509237454E+03 0.  0.
          5    1    3    3  502    0 -0.41960249785E+02  0.73163530415E+00  0.12183888926E+03  0.12893170746E+03  0.41800000000E+01 0. -1.
         -5    1    3    3    0  502 -0.82242320699E+02 -0.81253165810E+02  0.36443082027E+02  0.12129075355E+03  0.41800000000E+01 0. -1.
        -11    1    1    2    0    0  0.35171883241E+02  0.52129293480E+02  0.62020031227E+01  0.63190105651E+02  0.00000000000E+00 0.  1.
         11    1    1    2    0    0  0.89030687243E+02  0.28392237026E+02 -0.92721106411E+02  0.13164264495E+03  0.00000000000E+00 0. -1.
</event>
<event>
 7    1  0.2766180E-009  0.7761373E+02  0.7561462E-02  0.1335963E+00
          2   -1    0    0  501    0  0.00000000000E+00  0.00000000000E+00  0.19126602134E+04  0.19126602134E+04  0.00000000000E+00 0.  1.
         -2   -1    0    0    0  501 -0.00000000000E+00 -0.00000000000E+00 -0.16483831774E+02  0.16483831774E+02  0.00000000000E+00 0. -1.
         25    2    1    2    0    0 -0.33945078135E+02  0.24401821733E+02  0.17201214374E+04  0.17251709989E+04  0.12509795759E+03 0.  0.
          5    1    3    3  502    0  0.76943871488E+01 -0.82423651908E+01  0.14408901944E+04  0.14409403752E+04  0.41800000000E+01 0.  1.
         -5    1    3    3    0  502 -0.41639465283E+02  0.32644186924E+02  0.27923124300E+03  0.28423062375E+03  0.41800000000E+01 0.  1.
        -11    1    1    2    0    0  0.21589452486E+02  0.28526708314E+02  0.12270265517E+03  0.12781165491E+03  0.00000000000E+00 0.  1.
         11    1    1    2    0    0  0.12355625649E+02 -0.52928530046E+02  0.53352289048E+02  0.76161391299E+02  0.00000000000E+00 0. -1.
</event>
<event>
 7    1  0.2766180E-009  0.1313246E+03  0.7561462E-02  0.1225503E+00
          1   -1    0    0  501    0  0.00000000000E+00  0.00000000000E+00  0.21062634155E+03  0.21062634155E+03  0.00000000000E+00 0. -1.
         -1   -1    0    0    0  501 -0.00000000000E+00 -0.00000000000E+00 -0.10906447332E+03  0.10906447332E+03  0.00000000000E+00 0.  1.
         25    2    1    2    0    0 -0.35184492140E+02 -0.90587461603E+02  0.11129041834E+02  0.15879197702E+03  0.12508796788E+03 0.  0.
          5    1    3    3  502    0  0.31824457234E+02 -0.50676427901E+02 -0.33629883125E+02  0.68770181489E+02  0.41800000000E+01 0. -1.
         -5    1    3    3    0  502 -0.67008949375E+02 -0.39911033702E+02  0.44758924958E+02  0.90021795532E+02  0.41800000000E+01 0. -1.
        -11    1    1    2    0    0 -0.21079993911E+02  0.52606079779E+02  0.69878618961E+02  0.89971035122E+02  0.00000000000E+00 0. -1.
         11    1    1    2    0    0  0.56264486051E+02  0.37981381824E+02  0.20554207439E+02  0.70927802724E+02  0.00000000000E+00 0.  1.
</event>
<event>
 7    1  0.2766180E-009  0.1019745E+03  0.7561462E-02  0.1276198E+00
          1   -1    0    0  501    0  0.00000000000E+00  0.00000000000E+00  0.14726155109E+03  0.14726155109E+03  0.00000000000E+00 0.  1.
         -1   -1    0    0    0  501 -0.00000000000E+00 -0.00000000000E+00 -0.79966378893E+02  0.79966378893E+02  0.00000000000E+00 0. -1.
         25    2    1    2    0    0  0.62648385338E+01  0.28850756418E+02  0.31633805723E+02  0.13239902085E+03  0.12512868860E+03 0.  0.
          5    1    3    3  502    0 -0.33218422408E+02  0.59700028862E+02 -0.72606480841E+01  0.68831289716E+02  0.41800000000E+01 0. -1.
         -5    1    3    3    0  502  0.39483260942E+02 -0.30849272443E+02  0.38894453807E+02  0.63567731136E+02  0.41800000000E+01 0. -1.
        -11    1    1    2    0    0 -0.30137376603E+02  0.16215644019E+02  0.25865238389E+02  0.42897775425E+02  0.00000000000E+00 0.  1.
         11    1    1    2    0    0  0.23872538070E+02 -0.45066400437E+02  0.97961280815E+01  0.51931133703E+02  0.00000000000E+00 0. -1.
</event>
<event>
 7    1  0.2766180E-009  0.1190074E+03  0.7561462E-02  0.1244744E+00
          1   -1    0    0  501    0  0.00000000000E+00  0.00000000000E+00  0.18011084383E+02  0.18011084383E+02  0.00000000000E+00 0. -1.
         -1   -1    0    0    0  501 -0.00000000000E+00 -0.00000000000E+00 -0.91699820546E+03  0.91699820546E+03  0.00000000000E+00 0.  1.
         25    2    1    2    0    0  0.49112639947E+01  0.65708615338E+02 -0.57770947131E+03  0.59476611802E+03  0.12512697255E+03 0.  0.
          5    1    3    3  502    0 -0.22743028411E+02  0.95833198266E+02 -0.36249905211E+03  0.37566512004E+03  0.41800000000E+01 0.  1.
         -5    1    3    3    0  502  0.27654292406E+02 -0.30124582928E+02 -0.21521041920E+03  0.21910099798E+03  0.41800000000E+01 0.  1.
        -11    1    1    2    0    0 -0.32637422848E+02 -0.62376742528E+02 -0.28950925425E+03  0.29794574619E+03  0.00000000000E+00 0.  1.
         11    1    1    2    0    0  0.27726158853E+02 -0.33318728105E+01 -0.31768395520E+02  0.42297425632E+02  0.00000000000E+00 0. -1.
</event>
<event>
 7    1  0.2766180E-009  0.1011284E+03  0.7561462E-02  0.1277941E+00
          1   -1    0    0  501    0  0.00000000000E+00  0.00000000000E+00  0.11774758053E+04  0.11774758053E+04  0.00000000000E+00 0. -1.
         -1   -1    0    0    0  501 -0.00000000000E+00 -0.00000000000E+00 -0.13746849064E+02  0.13746849064E+02  0.00000000000E+00 0.  1.
         25    2    1    2    0    0 -0.23300258061E+02 -0.19990026714E+02  0.92928583327E+03  0.93816945232E+03  0.12508900091E+03 0.  0.
          5    1    3    3  502    0 -0.34893011235E+02 -0.60352770366E+02  0.77736551385E+03  0.78049637644E+03  0.41800000000E+01 0.  1.
         -5    1    3    3    0  502  0.11592753174E+02  0.40362743651E+02  0.15192031943E+03  0.15767307587E+03  0.41800000000E+01 0.  1.
        -11    1    1    2    0    0  0.12339732369E+02  0.53528221060E+02  0.10041281536E+03  0.11445642373E+03  0.00000000000E+00 0.  1.
         11    1    1    2    0    0  0.10960525693E+02 -0.33538194345E+02  0.13403030763E+03  0.13859677834E+03  0.00000000000E+00 0. -1.
</event>
<event>
 7    1  0.2766180E-009  0.1137261E+03  0.7561462E-02  0.1253821E+00
         -1   -1    0    0    0  501 -0.00000000000E+00  0.00000000000E+00  0.33057577885E+02  0.33057577885E+02  0.00000000000E+00 0.  1.
          1   -1    0    0  501    0  0.00000000000E+00 -0.00000000000E+00 -0.52120393116E+03  0.52120393116E+03  0.00000000000E+00 0. -1.
         25    2    1    2    0    0  0.69645871134E+02  0.58465220211E+01 -0.21150308519E+03  0.25547155767E+03  0.12508969801E+03 0.  0.
          5    1    3    3  502    0  0.11194425875E+02 -0.39533407673E+02 -0.12555307113E+02  0.43166116685E+02  0.41800000000E+01 0.  1.
         -5    1    3    3    0  502  0.58451445259E+02  0.45379929694E+02 -0.19894777807E+03  0.21230544098E+03  0.41800000000E+01 0.  1.
        -11    1    1    2    0    0  0.17388667101E+02 -0.16964570492E+02 -0.76337269459E+02  0.80109556883E+02  0.00000000000E+00 0. -1.
         11    1    1    2    0    0 -0.87034538235E+02  0.11118048471E+02 -0.20030599863E+03  0.21868039449E+03  0.00000000000E+00 0.  1.
</event>
<event>
 7    1  0.2766180E-009  0.1138321E+03  0.7561462E-02  0.1253634E+00
          1   -1    0    0  501    0  0.00000000000E+00  0.00000000000E+00  0.90706536445E+02  0.90706536445E+02  0.00000000000E+00 0. -1.
         -1   -1    0    0    0  501 -0.00000000000E+00 -0.00000000000E+00 -0.20518201562E+03  0.20518201562E+03  0.00000000000E+00 0.  1.
         25    2    1    2    0    0 -0.24172297102E+02 -0.74460400850E+02 -0.36077192237E+02  0.15191235568E+03  0.12508856370E+03 0.  0.
          5    1    3    3  502    0 -0.57687515554E+02 -0.44917649600E+02  0.23876529782E+02  0.77026007107E+02  0.41800000000E+01 0.  1.
         -5    1    3    3    0  502  0.33515218453E+02 -0.29542751251E+02 -0.59953722019E+02  0.74886348578E+02  0.41800000000E+01 0.  1.
        -11    1    1    2    0    0  0.57539279719E+01  0.87056525550E+02 -0.83848828436E+02  0.12100649717E+03  0.00000000000E+00 0.  1.
         11    1    1    2    0    0  0.18418369130E+02 -0.12596124700E+02  0.54505415013E+01  0.22969699204E+02  0.00000000000E+00 0. -1.
</event>
<event>
 7    1  0.2766180E-009  0.7657750E+02  0.7561462E-02  0.1339054E+00
         -1   -1    0    0    0  501 -0.00000000000E+00  0.00000000000E+00  0.14739022495E+03  0.14739022495E+03  0.00000000000E+00 0.  1.
          1   -1    0    0  501    0  0.00000000000E+00 -0.00000000000E+00 -0.97313507767E+02  0.97313507767E+02  0.00000000000E+00 0. -1.
         25    2    1    2    0    0  0.49586141429E+02  0.17368246952E+02  0.38697486906E+02  0.14108585973E+03  0.12508909984E+03 0.  0.
          5    1    3    3  502    0  0.43981229138E+02 -0.29560971937E+02  0.67240895447E+02  0.85714701183E+02  0.41800000000E+01 0.  1.
         -5    1    3    3    0  502  0.56049122912E+01  0.46929218890E+02 -0.28543408542E+02  0.55371158545E+02  0.41800000000E+01 0.  1.
        -11    1    1    2    0    0 -0.37205433848E+02 -0.12540367773E+02 -0.36695259448E+02  0.53740554497E+02  0.00000000000E+00 0. -1.
         11    1    1    2    0    0 -0.12380707581E+02 -0.48278791797E+01  0.48074489722E+02  0.49877318489E+02  0.00000000000E+00 0.  1.
</event>
<event>
 7    1  0.2766180E-009  0.1590966E+03  0.7561462E-02  0.1189720E+00
          1   -1    0    0  501    0  0.00000000000E+00  0.00000000000E+00  0.12586168179E+04  0.12586168179E+04  0.00000000000E+00 0. -1.
         -1   -1    0    0    0  501 -0.00000000000E+00 -0.00000000000E+00 -0.24115016887E+02  0.24115016887E+02  0.00000000000E+00 0.  1.
         25    2    1    2    0    0  0.63588773329E+02 -0.11963644473E+03  0.61800249646E+03  0.64492562074E+03  0.12508221158E+03 0.  0.
          5    1    3    3  502    0  0.52759163284E+02 -0.22667484008E+02  0.42231879528E+03  0.42622527071E+03  0.41800000000E+01 0.  1.
         -5    1    3    3    0  502  0.10829610045E+02 -0.96968960724E+02  0.19568370118E+03  0.21870035004E+03  0.41800000000E+01 0.  1.
        -11    1    1    2    0    0 -0.53988124800E+01  0.10201522315E+03  0.41060878369E+03  0.42312625323E+03  0.00000000000E+00 0. -1.
         11    1    1    2    0    0 -0.58189960849E+02  0.17621221580E+02  0.20589052085E+03  0.21467996080E+03  0.00000000000E+00 0.  1.
</event>
<event>
 7    1  0.2766180E-009  0.2523432E+03  0.7561462E-02  0.1111833E+00
          1   -1    0    0  501    0  0.00000000000E+00  0.00000000000E+00  0.52524024452E+03  0.52524024452E+03  0.00000000000E+00 0. -1.
         -1   -1    0    0    0  501 -0.00000000000E+00 -0.00000000000E+00 -0.13805166994E+03  0.13805166994E+03  0.00000000000E+00 0.  1.
         25    2    1    2    0    0  0.23699967850E+03 -0.67529434385E+02  0.16743120857E+03  0.32312552351E+03  0.12509125558E+03 0.  0.
          5    1    3    3  502    0  0.24034677075E+03 -0.62812392024E+02  0.12136897692E+03  0.27651377499E+03  0.41800000000E+01 0.  1.
         -5    1    3    3    0  502 -0.33470922457E+01 -0.47170423608E+01  0.46062231659E+02  0.46611748525E+02  0.41800000000E+01 0.  1.
        -11    1    1    2    0    0 -0.10283146800E+02  0.11758366310E+02 -0.46835369994E+01  0.16307599615E+02  0.00000000000E+00 0.  1.
         11    1    1    2    0    0 -0.22671653170E+03  0.55771068075E+02  0.22444090301E+03  0.32385879134E+03  0.00000000000E+00 0. -1.
</event>
<event>
 7    1  0.2766180E-009  0.1013944E+03  0.7561462E-02  0.1277391E+00
         -2   -1    0    0    0  501 -0.00000000000E+00  0.00000000000E+00  0.12167916368E+03  0.12167916368E+03  0.00000000000E+00 0. -1.
          2   -1    0    0  501    0  0.00000000000E+00 -0.00000000000E+00 -0.22745763950E+03  0.22745763950E+03  0.00000000000E+00 0.  1.
         25    2    1    2    0    0 -0.29071745910E+02 -0.15740288267E+02  0.68332093986E+02  0.14631221672E+03  0.12508024068E+03 0.  0.
          5    1    3    3  502    0 -0.65494643773E+02  0.25344948000E+02  0.20246341568E+02  0.73207250317E+02  0.41800000000E+01 0.  1.
         -5    1    3    3    0  502  0.36422897862E+02 -0.41085236268E+02  0.48085752418E+02  0.73104966408E+02  0.41800000000E+01 0.  1.
        -11    1    1    2    0    0 -0.20391387408E+02  0.18907013544E+02 -0.72206617437E+01  0.28730154848E+02  0.00000000000E+00 0. -1.
         11    1    1    2    0    0  0.49463133318E+02 -0.31667252763E+01 -0.16688990806E+03  0.17409443162E+03  0.00000000000E+00 0.  1.
</event>
<event>
 7    1  0.2766180E-009  0.3489288E+03  0.7561462E-02  0.1063056E+00
          2   -1    0    0  501    0  0.00000000000E+00  0.00000000000E+00  0.21264815415E+04  0.21264815415E+04  0.00000000000E+00 0. -1.
         -2   -1    0    0    0  501 -0.00000000000E+00 -0.00000000000E+00 -0.86549404685E+02  0.86549404685E+02  0.00000000000E+00 0.  1.
         25    2    1    2    0    0  0.84192053579E+02  0.32239288116E+03  0.39278464576E+03  0.53004959177E+03  0.12508924850E+03 0.  0.
          5    1    3    3  502    0 -0.26499286021E+02  0.11778615951E+03  0.10566939549E+03  0.16049699397E+03  0.41800000000E+01 0.  1.
         -5    1    3    3    0  502  0.11069133960E+03  0.20460672165E+03  0.28711525026E+03  0.36955259780E+03  0.41800000000E+01 0.  1.
        -11    1    1    2    0    0 -0.36708315996E+02 -0.27450806181E+03  0.12692838000E+04  0.12991472362E+04  0.00000000000E+00 0. -1.
         11    1    1    2    0    0 -0.47483737583E+02 -0.47884819346E+02  0.37786369107E+03  0.38383411819E+03  0.00000000000E+00 0.  1.
</event>
<event>
 7    1  0.3167319E-009  0.1108996E+03  0.7561462E-02  0.1258913E+00
         -2   -1    0    0    0  501 -0.00000000000E+00  0.00000000000E+00  0.21298258885E+02  0.21298258885E+02  0.00000000000E+00 0.  1.
          2   -1    0    0  501    0  0.00000000000E+00 -0.00000000000E+00 -0.88022346984E+03  0.88022346984E+03  0.00000000000E+00 0. -1.
         25    2    1    2    0    0  0.24463604229E+01  0.79620923579E+02 -0.39304745599E+03  0.42009379558E+03  0.12508804209E+03 0.  0.
          5    1    3    3  502    0 -0.41436560347E+02  0.42208329385E+02 -0.69218658613E+02  0.91143988847E+02  0.41800000000E+01 0. -1.
         -5    1    3    3    0  502  0.43882920769E+02  0.37412594194E+02 -0.32382879738E+03  0.32894980674E+03  0.41800000000E+01 0. -1.
        -11    1    1    2    0    0  0.29209973140E+02 -0.61805922591E+02 -0.40345406044E+03  0.40920456191E+03  0.00000000000E+00 0. -1.
         11    1    1    2    0    0 -0.31656333563E+02 -0.17815000988E+02 -0.62423694524E+02  0.72223371238E+02  0.00000000000E+00 0.  1.
</event>
<event>
 7    1  0.2766180E-009  0.1078045E+03  0.7561462E-02  0.1264690E+00
         -1   -1    0    0    0  501 -0.00000000000E+00  0.00000000000E+00  0.44136398191E+02  0.44136398191E+02  0.00000000000E+00 0.  1.
          1   -1    0    0  501    0  0.00000000000E+00 -0.00000000000E+00 -0.27792317183E+03  0.27792317183E+03  0.00000000000E+00 0. -1.
         25    2    1    2    0    0  0.88304657616E+01  0.23154528791E+02 -0.12079572968E+03  0.17565130410E+03  0.12509061913E+03 0.  0.
          5    1    3    3  502    0  0.58580504211E+02 -0.14255916413E+02 -0.35885812067E+02  0.70286346712E+02  0.41800000000E+01 0. -1.
         -5    1    3    3    0  502 -0.49750038449E+02  0.37410445204E+02 -0.84909917613E+02  0.10536495739E+03  0.41800000000E+01 0. -1.
        -11    1    1    2    0    0 -0.29685468045E+02  0.25955781583E+02 -0.42111268406E+02  0.57691321161E+02  0.00000000000E+00 0.  1.
         11    1    1    2    0    0  0.20855002283E+02 -0.49110310373E+02 -0.70879775550E+02  0.88716944758E+02  0.00000000000E+00 0. -1.
</event>
<event>
 7    1  0.2766180E-009  0.1101994E+03  0.7561462E-02  0.1260201E+00
         -2   -1    0    0    0  501 -0.00000000000E+00  0.00000000000E+00  0.79774153524E+02  0.79774153524E+02  0.00000000000E+00 0. -1.
          2   -1    0    0  501    0  0.00000000000E+00 -0.00000000000E+00 -0.22348256061E+03  0.22348256061E+03  0.00000000000E+00 0.  1.
         25    2    1    2    0    0 -0.18097721712E+02 -0.73729693222E+02 -0.62805344095E+02  0.15923708049E+03  0.12509333060E+03 0.  0.
          5    1    3    3  502    0 -0.49272218893E+02 -0.53814789475E+02 -0.87920339137E+02  0.11432953055E+03  0.41800000000E+01 0.  1.
         -5    1    3    3    0  502  0.31174497180E+02 -0.19914903746E+02  0.25114995042E+02  0.44907549940E+02  0.41800000000E+01 0.  1.
        -11    1    1    2    0    0 -0.30298103867E+02  0.43548041094E+02 -0.66731368346E+02  0.85249530805E+02  0.00000000000E+00 0.  1.
         11    1    1    2    0    0  0.48395825579E+02  0.30181652127E+02 -0.14171694641E+02  0.58770102838E+02  0.00000000000E+00 0. -1.
</event>
<event>
 7    1  0.2766180E-009  0.1304736E+03  0.7561462E-02  0.1226755E+00
          1   -1    0    0  501    0  0.00000000000E+00  0.00000000000E+00  0.37325499361E+03  0.37325499361E+03  0.00000000000E+00 0. -1.
         -1   -1    0    0    0  501 -0.00000000000E+00 -0.00000000000E+00 -0.53616176046E+02  0.53616176046E+02  0.00000000000E+00 0.  1.
         25    2    1    2    0    0 -0.26607865097E+02 -0.74334280874E+02  0.11464169611E+03  0.18714578088E+03  0.12508901237E+03 0.  0.
          5    1    3    3  502    0 -0.14903522639E+02 -0.10561186771E+03  0.10981854027E+03  0.15314557054E+03  0.41800000000E+01 0. -1.
         -5    1    3    3    0  502 -0.11704342458E+02  0.31277586837E+02  0.48231558325E+01  0.34000210336E+02  0.41800000000E+01 0. -1.
        -11    1    1    2    0    0 -0.63223515610E+01 -0.19820004489E+02  0.16845570720E+02  0.26768973833E+02  0.00000000000E+00 0. -1.
         11    1    1    2    0    0  0.32930216658E+02  0.94154285363E+02  0.18815155074E+03  0.21295641495E+03  0.00000000000E+00 0.  1.
</event>
<event>
 7    1  0.2766180E-009  0.9355642E+02  0.7561462E-02  0.1294461E+00
          1   -1    0    0  501    0  0.00000000000E+00  0.00000000000E+00  0.28389887514E+03  0.28389887514E+03  0.00000000000E+00 0. -1.
         -1   -1    0    0    0  501 -0.00000000000E+00 -0.00000000000E+00 -0.55634265680E+02  0.55634265680E+02  0.00000000000E+00 0.  1.
         25    2    1    2    0    0 -0.11330294803E+02 -0.11547934683E+02  0.21348855095E+03  0.24796604825E+03  0.12509224325E+03 0.  0.
          5    1    3    3  502    0 -0.62854716493E+02  0.46110782456E+01  0.15924063196E+03  0.17130974489E+03  0.41800000000E+01 0.  1.
         -5    1    3    3    0  502  0.51524421690E+02 -0.16159012929E+02  0.54247918993E+02  0.76656303357E+02  0.41800000000E+01 0.  1.
        -11    1    1    2    0    0  0.27683286166E+02 -0.20070448214E+02 -0.21781529720E+02  0.40541611480E+02  0.00000000000E+00 0.  1.
         11    1    1    2    0    0 -0.16352991364E+02  0.31618382897E+02  0.36557588228E+02  0.51025481091E+02  0.00000000000E+00 0. -1.
</event>
<event>
 7    1  0.2766180E-009  0.1404309E+03  0.7561462E-02  0.1212750E+00
         -1   -1    0    0    0  501 -0.00000000000E+00  0.00000000000E+00  0.27076715668E+03  0.27076715668E+03  0.00000000000E+00 0.  1.
          1   -1    0    0  501    0  0.00000000000E+00 -0.00000000000E+00 -0.91215808312E+02  0.91215808312E+02  0.00000000000E+00 0. -1.
         25    2    1    2    0    0 -0.21768236367E+01  0.11337222152E+03  0.99452006056E+02  0.19595084241E+03  0.12509209391E+03 0.  0.
          5    1    3    3  502    0  0.36752519508E+02  0.82515306103E+02  0.11258063968E+03  0.14440012556E+03  0.41800000000E+01 0.  1.
         -5    1    3    3    0  502 -0.38929343145E+02  0.30856915419E+02 -0.13128633621E+02  0.51550716849E+02  0.41800000000E+01 0.  1.
        -11    1    1    2    0    0  0.42646782915E+02 -0.59436106834E+02  0.20331740402E+02  0.75926138822E+02  0.00000000000E+00 0. -1.
         11    1    1    2    0    0 -0.40469959278E+02 -0.53936114688E+02  0.59767601908E+02  0.90105983761E+02  0.00000000000E+00 0.  1.
</event>
<event>
 7    1  0.2766180E-009  0.1333555E+03  0.7561462E-02  0.1222560E+00
          1   -1    0    0  501    0  0.00000000000E+00  0.00000000000E+00  0.76064603155E+02  0.76064603155E+02  0.00000000000E+00 0. -1.
         -1   -1    0    0    0  501 -0.00000000000E+00 -0.00000000000E+00 -0.38045199031E+03  0.38045199031E+03  0.00000000000E+00 0.  1.
         25    2    1    2    0    0 -0.25518659097E+02 -0.10655122126E+03 -0.17712711886E+03  0.24295271389E+03  0.12509052815E+03 0.  0.
          5    1    3    3  502    0 -0.11077317200E+02 -0.14389214047E+02  0.18452324346E+02  0.26224361022E+02  0.41800000000E+01 0. -1.
         -5    1    3    3    0  502 -0.14441341897E+02 -0.92162007218E+02 -0.19557944321E+03  0.21672835287E+03  0.41800000000E+01 0. -1.
        -11    1    1    2    0    0  0.44408412349E+02 -0.20588741854E+01  0.96196573852E+00  0.44466520309E+02  0.00000000000E+00 0. -1.
         11    1    1    2    0    0 -0.18889753252E+02  0.10861009545E+03 -0.12822223403E+03  0.16909735927E+03  0.00000000000E+00 0.  1.
</event>
<event>
 7    1  0.2766180E-009  0.1042902E+03  0.7561462E-02  0.1271524E+00
          3   -1    0    0  501    0  0.00000000000E+00  0.00000000000E+00  0.29119884576E+02  0.29119884576E+02  0.00000000000E+00 0.  1.
         -3   -1    0    0    0  501 -0.00000000000E+00 -0.00000000000E+00 -0.49608294565E+03  0.49608294565E+03  0.00000000000E+00 0. -1.
         25    2    1    2    0    0 -0.31333106246E+02 -0.40294426980E+02 -0.23982827144E+03  0.27526645381E+03  0.12509443002E+03 0.  0.
          5    1    3    3  502    0 -0.70157877519E+02 -0.18916800879E+02 -0.74912656154E+02  0.10444784146E+03  0.41800000000E+01 0. -1.
         -5    1    3    3    0  502  0.38824771273E+02 -0.21377626101E+02 -0.16491561528E+03  0.17081861235E+03  0.41800000000E+01 0. -1.
        -11    1    1    2    0    0 -0.81057691453E+01  0.50008719680E+02 -0.62960168142E+02  0.80811869858E+02  0.00000000000E+00 0.  1.
         11    1    1    2    0    0  0.39438875392E+02 -0.97142926999E+01 -0.16417462150E+03  0.16912450656E+03  0.00000000000E+00 0. -1.
</event>
<event>
 7    1  0.2766180E-009  0.1007401E+03  0.7561462E-02  0.1278747E+00
         -2   -1    0    0    0  501 -0.00000000000E+00  0.00000000000E+00  0.17952357664E+03  0.17952357664E+03  0.00000000000E+00 0.  1.
          2   -1    0    0  501    0  0.00000000000E+00 -0.00000000000E+00 -0.90927840272E+02  0.90927840272E+02  0.00000000000E+00 0. -1.
         25    2    1    2    0    0  0.24189002784E+02 -0.45769483672E+02  0.95622290897E+02  0.16573467543E+03  0.12507760244E+03 0.  0.
          5    1    3    3  502    0 -0.36421009266E+02  0.41570712939E+01  0.76310313492E+02  0.84761474167E+02  0.41800000000E+01 0.  1.
         -5    1    3    3    0  502  0.60610012050E+02 -0.49926554965E+02  0.19311977405E+02  0.80973201263E+02  0.41800000000E+01 0.  1.
        -11    1    1    2    0    0 -0.46951757083E+02  0.41758975956E+02 -0.32146626493E+02  0.70581053838E+02  0.00000000000E+00 0. -1.
         11    1    1    2    0    0  0.22762754299E+02  0.40105077159E+01  0.25120071959E+02  0.34135687640E+02  0.00000000000E+00 0.  1.
</event>
<event>
 7    1  0.2766180E-009  0.1050392E+03  0.7561462E-02  0.1270042E+00
          2   -1    0    0  501    0  0.00000000000E+00  0.00000000000E+00  0.22816503443E+03  0.22816503443E+03  0.00000000000E+00 0. -1.
         -2   -1    0    0    0  501 -0.00000000000E+00 -0.00000000000E+00 -0.16838304042E+03  0.16838304042E+03  0.00000000000E+00 0.  1.
         25    2    1    2    0    0 -0.42738277542E+02  0.92156234993E+02 -0.97419999022E+02  0.18830097676E+03  0.12508904679E+03 0.  0.
          5    1    3    3  502    0 -0.43122933948E+02  0.52131405910E+02  0.14541067626E+02  0.69326661265E+02  0.41800000000E+01 0.  1.
         -5    1    3    3    0  502  0.38465640556E+00  0.40024829083E+02 -0.11196106665E+03  0.11897431550E+03  0.41800000000E+01 0.  1.
        -11    1    1    2    0    0  0.11063604123E+02 -0.34954859806E+02 -0.14052438648E+01  0.36690874486E+02  0.00000000000E+00 0.  1.
         11    1    1    2    0    0  0.31674673420E+02 -0.57201375187E+02  0.15860723689E+03  0.17155622360E+03  0.00000000000E+00 0. -1.
</event>
<event>
 7    1  0.2895648E-009  0.1066674E+03  0.7561462E-02  0.1266869E+00
         -1   -1    0    0    0  501 -0.00000000000E+00  0.00000000000E+00  0.37658036827E+02  0.37658036827E+02  0.00000000000E+00 0.  1.
          1   -1    0    0  501    0  0.00000000000E+00 -0.00000000000E+00 -0.52163823305E+03  0.52163823305E+03  0.00000000000E+00 0. -1.
         25    2    1    2    0    0 -0.56814147048E+02 -0.22800284100E+02 -0.13761021927E+03  0.19578420741E+03  0.12508870119E+03 0.  0.
          5    1    3    3  502    0  0.11143350144E+02 -0.39568700793E+02  0.21053255276E-01  0.41319840006E+02  0.41800000000E+01 0.  1.
         -5    1    3    3    0  502 -0.67957497192E+02  0.16768416692E+02 -0.13763127252E+03  0.15446436741E+03  0.41800000000E+01 0.  1.
        -11    1    1    2    0    0  0.40796615666E+02 -0.27437638347E+02 -0.98413517067E+02  0.11001094577E+03  0.00000000000E+00 0.  1.
         11    1    1    2    0    0  0.16017531382E+02  0.50237922447E+02 -0.24795645989E+03  0.25350111669E+03  0.00000000000E+00 0. -1.
</event>
<event>
 7    1  0.2766180E-009  0.1502806E+03  0.7561462E-02  0.1200129E+00
         -1   -1    0    0    0  501 -0.00000000000E+00  0.00000000000E+00  0.11912266390E+03  0.11912266390E+03  0.00000000000E+00 0.  1.
          1   -1    0    0  501    0  0.00000000000E+00 -0.00000000000E+00 -0.22906245359E+03  0.22906245359E+03  0.00000000000E+00 0. -1.
         25    2    1    2    0    0 -0.47575662039E+02 -0.10397210938E+03 -0.11436904496E+03  0.20445438053E+03  0.12509065563E+03 0.  0.
          5    1    3    3  502    0 -0.83927133017E+02 -0.93409843229E+02 -0.63134173617E+02  0.14061493074E+03  0.41800000000E+01 0. -1.
         -5    1    3    3    0  502  0.36351470978E+02 -0.10562266155E+02 -0.51234871343E+02  0.63839449795E+02  0.41800000000E+01 0. -1.
        -11    1    1    2    0    0 -0.17840253079E+02  0.46317274086E+02  0.22798372470E+02  0.54619870889E+02  0.00000000000E+00 0.  1.
         11    1    1    2    0    0  0.65415915118E+02  0.57654835298E+02 -0.18369117198E+02  0.89110866063E+02  0.00000000000E+00 0. -1.
</event>
<event>
 7    1  0.2766180E-009  0.1251059E+03  0.7561462E-02  0.1234904E+00
          1   -1    0    0  501    0  0.00000000000E+00  0.00000000000E+00  0.40481306975E+03  0.40481306975E+03  0.00000000000E+00 0. -1.
         -1   -1    0    0    0  501 -0.00000000000E+00 -0.00000000000E+00 -0.60719557424E+02  0.60719557424E+02  0.00000000000E+00 0.  1.
         25    2    1    2    0    0 -0.39093553433E+02 -0.88932740396E+02  0.99395944189E+02  0.18697701582E+03  0.12507402804E+03 0.  0.
          5    1    3    3  502    0  0.25775256098E+02 -0.30749599577E+02 -0.15063593601E+02  0.43061420707E+02  0.41800000000E+01 0.  1.
         -5    1    3    3    0  502 -0.64868809532E+02 -0.58183140819E+02  0.11445953779E+03  0.14391559511E+03  0.41800000000E+01 0.  1.
        -11    1    1    2    0    0 -0.18376157314E+02  0.20894722501E+01  0.83680073621E+01  0.20299571403E+02  0.00000000000E+00 0. -1.
         11    1    1    2    0    0  0.57469710748E+02  0.86843268146E+02  0.23632956077E+03  0.25825603995E+03  0.00000000000E+00 0.  1.
</event>
<event>
 7    1  0.2766180E-009  0.1121080E+03  0.7561462E-02  0.1256715E+00
          1   -1    0    0  501    0  0.00000000000E+00  0.00000000000E+00  0.73505851673E+03  0.73505851673E+03  0.00000000000E+00 0. -1.
         -1   -1    0    0    0  501 -0.00000000000E+00 -0.00000000000E+00 -0.27488085789E+02  0.27488085789E+02  0.00000000000E+00 0.  1.
         25    2    1    2    0    0  0.15163317831E+02  0.79085633188E+02  0.50611810039E+03  0.52752997116E+03  0.12509146792E+03 0.  0.
          5    1    3    3  502    0  0.66257462583E+02  0.32843888274E+02  0.33331946039E+03  0.34145000720E+03  0.41800000000E+01 0.  1.
         -5    1    3    3    0  502 -0.51094144752E+02  0.46241744914E+02  0.17279864001E+03  0.18607996396E+03  0.41800000000E+01 0.  1.
        -11    1    1    2    0    0 -0.11609967044E+02 -0.34918071563E+02  0.18359013299E+03  0.18724155518E+03  0.00000000000E+00 0. -1.
         11    1    1    2    0    0 -0.35533507873E+01 -0.44167561625E+02  0.17862197560E+02  0.47775076174E+02  0.00000000000E+00 0.  1.
</event>
<event>
 7    1  0.2766180E-009  0.5777020E+02  0.7561462E-02  0.1407435E+00
         -4   -1    0    0    0  501 -0.00000000000E+00  0.00000000000E+00  0.54863672793E+02  0.54863672793E+02  0.00000000000E+00 0. -1.
          4   -1    0    0  501    0  0.00000000000E+00 -0.00000000000E+00 -0.32938226851E+03  0.32938226851E+03  0.00000000000E+00 0.  1.
         25    2    1    2    0    0 -0.75318012306E+01 -0.14487333919E+02 -0.26401710320E+03  0.29260787387E+03  0.12509087175E+03 0.  0.
          5    1    3    3  502    0  0.18292691877E+02  0.29506059354E+02 -0.14431739772E+02  0.37828264929E+02  0.41800000000E+01 0.  1.
         -5    1    3    3    0  502 -0.25824493108E+02 -0.43993393273E+02 -0.24958536342E+03  0.25477960894E+03  0.41800000000E+01 0.  1.
        -11    1    1    2    0    0 -0.87833572693E+01  0.78349158217E+01 -0.48417845667E+02  0.49827914365E+02  0.00000000000E+00 0.  1.
         11    1    1    2    0    0  0.16315158500E+02  0.66524180975E+01  0.37916353148E+02  0.41810153067E+02  0.00000000000E+00 0. -1.
</event>
<event>
 7    1  0.2766180E-009  0.9662862E+02  0.7561462E-02  0.1287550E+00
         -2   -1    0    0    0  501 -0.00000000000E+00  0.00000000000E+00  0.26452088261E+02  0.26452088261E+02  0.00000000000E+00 0.  1.
          2   -1    0    0  501    0  0.00000000000E+00 -0.00000000000E+00 -0.68969809599E+03  0.68969809599E+03  0.00000000000E+00 0. -1.
         25    2    1    2    0    0  0.52243527892E+02  0.27811855106E+02 -0.21869305546E+03  0.25879997250E+03  0.12509151757E+03 0.  0.
          5    1    3    3  502    0  0.28475300000E+02 -0.27374577596E+02 -0.18614572502E+03  0.19033631696E+03  0.41800000000E+01 0. -1.
         -5    1    3    3    0  502  0.23768227892E+02  0.55186432702E+02 -0.32547330440E+02  0.68463655543E+02  0.41800000000E+01 0. -1.
        -11    1    1    2    0    0 -0.55717599984E+02 -0.47558557353E+02 -0.41635781479E+03  0.42275299794E+03  0.00000000000E+00 0. -1.
         11    1    1    2    0    0  0.34740720923E+01  0.19746702247E+02 -0.28195137476E+02  0.34597213815E+02  0.00000000000E+00 0.  1.
</event>
<event>
 7    1  0.2766180E-009  0.1923363E+03  0.7561462E-02  0.1156371E+00
         -2   -1    0    0    0  501 -0.00000000000E+00  0.00000000000E+00  0.77579647850E+02  0.77579647850E+02  0.00000000000E+00 0.  1.
          2   -1    0    0  501    0  0.00000000000E+00 -0.00000000000E+00 -0.77240014295E+03  0.77240014295E+03  0.00000000000E+00 0. -1.
         25    2    1    2    0    0  0.16702165301E+03  0.44838180114E+02 -0.59018386851E+03  0.62759150513E+03  0.12508958264E+03 0.  0.
          5    1    3    3  502    0  0.10155890112E+03  0.86933468289E+02 -0.33299929653E+03  0.35885601876E+03  0.41800000000E+01 0.  1.
         -5    1    3    3    0  502  0.65462751889E+02 -0.42095288175E+02 -0.25718457198E+03  0.26873548637E+03  0.41800000000E+01 0.  1.
        -11    1    1    2    0    0 -0.12699261042E+03 -0.32332456514E+02 -0.26482016338E+02  0.13369296180E+03  0.00000000000E+00 0.  1.
         11    1    1    2    0    0 -0.40029042586E+02 -0.12505723600E+02 -0.78154610248E+02  0.88695323868E+02  0.00000000000E+00 0. -1.
</event>
<event>
 7    1  0.2766180E-009  0.2800061E+03  0.7561462E-02  0.1095686E+00
         -1   -1    0    0    0  501 -0.00000000000E+00  0.00000000000E+00  0.22127192774E+03  0.22127192774E+03  0.00000000000E+00 0.  1.
          1   -1    0    0  501    0  0.00000000000E+00 -0.00000000000E+00 -0.51324251162E+03  0.51324251162E+03  0.00000000000E+00 0. -1.
         25    2    1    2    0    0  0.18369893636E+03 -0.19731514659E+03  0.37255119629E+02  0.29952329627E+03  0.12509074616E+03 0.  0.
          5    1    3    3  502    0 -0.33747490132E+01 -0.26770294350E+02  0.37447046884E+02  0.46344269450E+02  0.41800000000E+01 0.  1.
         -5    1    3    3    0  502  0.18707368537E+03 -0.17054485224E+03 -0.19192725576E+00  0.25317902682E+03  0.41800000000E+01 0.  1.
        -11    1    1    2    0    0 -0.73707880454E+02  0.13315117925E+03 -0.13922713699E+03  0.20626750556E+03  0.00000000000E+00 0.  1.
         11    1    1    2    0    0 -0.10999105590E+03  0.64163967341E+02 -0.18999856653E+03  0.22872363753E+03  0.00000000000E+00 0. -1.
</event>
<event>
 7    1  0.2766180E-009  0.8836536E+02  0.7561462E-02  0.1306859E+00
         -2   -1    0    0    0  501 -0.00000000000E+00  0.00000000000E+00  0.48865927291E+02  0.48865927291E+02  0.00000000000E+00 0.  1.
          2   -1    0    0  501    0  0.00000000000E+00 -0.00000000000E+00 -0.45485870528E+03  0.45485870528E+03  0.00000000000E+00 0. -1.
         25    2    1    2    0    0 -0.72372025598E+02 -0.23569116232E+01 -0.34091986833E+03  0.37029306887E+03  0.12508930855E+03 0.  0.
          5    1    3    3  502    0 -0.46321088153E+02  0.12785793123E+02 -0.33603907138E+03  0.33948320961E+03  0.41800000000E+01 0.  1.
         -5    1    3    3    0  502 -0.26050937445E+02 -0.15142704746E+02 -0.48807969445E+01  0.30809859260E+02  0.41800000000E+01 0.  1.
        -11    1    1    2    0    0  0.40734282050E+02 -0.31681382087E+02 -0.69707332425E+02  0.86730063408E+02  0.00000000000E+00 0. -1.
         11    1    1    2    0    0  0.31637743548E+02  0.34038293710E+02  0.46344227569E+01  0.46701500295E+02  0.00000000000E+00 0.  1.
</event>
<event>
 7    1  0.2766180E-009  0.9712915E+02  0.7561462E-02  0.1286451E+00
         -2   -1    0    0    0  501 -0.00000000000E+00  0.00000000000E+00  0.13955431836E+02  0.13955431836E+02  0.00000000000E+00 0.  1.
          2   -1    0    0  501    0  0.00000000000E+00 -0.00000000000E+00 -0.14200368834E+04  0.14200368834E+04  0.00000000000E+00 0. -1.
         25    2    1    2    0    0 -0.70640738169E+02  0.10282334913E+02 -0.10420170512E+04  0.10519219534E+04  0.12507765889E+03 0.  0.
          5    1    3    3  502    0 -0.23834810912E+02  0.19020915939E+02 -0.49730956930E+02  0.58485330909E+02  0.41800000000E+01 0.  1.
         -5    1    3    3    0  502 -0.46805927257E+02 -0.87385810258E+01 -0.99228609426E+03  0.99343662248E+03  0.41800000000E+01 0.  1.
        -11    1    1    2    0    0  0.89504090263E+02  0.74215578989E+01 -0.27227054752E+03  0.28670073726E+03  0.00000000000E+00 0.  1.
         11    1    1    2    0    0 -0.18863352095E+02 -0.17703892812E+02 -0.91793852886E+02  0.95369624622E+02  0.00000000000E+00 0. -1.
</event>
<event>
 7    1  0.2766180E-009  0.1969917E+03  0.7561462E-02  0.1152302E+00
         -1   -1    0    0    0  501 -0.00000000000E+00  0.00000000000E+00  0.38515159787E+03  0.38515159787E+03  0.00000000000E+00 0.  1.
          1   -1    0    0  501    0  0.00000000000E+00 -0.00000000000E+00 -0.14431173107E+03  0.14431173107E+03  0.00000000000E+00 0. -1.
         25    2    1    2    0    0  0.17268641645E+03  0.62586746977E+02  0.23493214495E+03  0.32338679141E+03  0.12509278478E+03 0.  0.
          5    1    3    3  502    0  0.70257780640E+02  0.49735584359E+02  0.19395700193E+03  0.21224178451E+03  0.41800000000E+01 0.  1.
         -5    1    3    3    0  502  0.10242863581E+03  0.12851162618E+02  0.40975143020E+02  0.11114500691E+03  0.41800000000E+01 0.  1.
        -11    1    1    2    0    0 -0.18068690189E+03 -0.46585409696E+02  0.12492026836E+02  0.18701338894E+03  0.00000000000E+00 0.  1.
         11    1    1    2    0    0  0.80004854374E+01 -0.16001337280E+02 -0.65843049857E+01  0.19063148589E+02  0.00000000000E+00 0. -1.
</event>
<event>
 7    1  0.2766180E-009  0.1155807E+03  0.7561462E-02  0.1250571E+00
         -4   -1    0    0    0  501 -0.00000000000E+00  0.00000000000E+00  0.15474970370E+03  0.15474970370E+03  0.00000000000E+00 0.  1.
          4   -1    0    0  501    0  0.00000000000E+00 -0.00000000000E+00 -0.10148920910E+03  0.10148920910E+03  0.00000000000E+00 0. -1.
         25    2    1    2    0    0 -0.83115321697E+01  0.43957287293E+02 -0.16446948359E+02  0.13386133604E+03  0.12508809097E+03 0.  0.
          5    1    3    3  502    0  0.58032755895E+02  0.21112767825E+02 -0.10549182680E+01  0.61904240360E+02  0.41800000000E+01 0.  1.
         -5    1    3    3    0  502 -0.66344288065E+02  0.22844519467E+02 -0.15392030091E+02  0.71957095681E+02  0.41800000000E+01 0.  1.
        -11    1    1    2    0    0 -0.43078009374E+01 -0.69948943454E+02  0.58843814086E+02  0.91509596740E+02  0.00000000000E+00 0.  1.
         11    1    1    2    0    0  0.12619333107E+02  0.25991656161E+02  0.10863628867E+02  0.30867980015E+02  0.00000000000E+00 0. -1.
</event>
<event>
 7    1  0.2766180E-009  0.2565193E+03  0.7561462E-02  0.1109253E+00
         -1   -1    0    0    0  501 -0.00000000000E+00  0.00000000000E+00  0.11928698012E+03  0.11928698012E+03  0.00000000000E+00 0.  1.
          1   -1    0    0  501    0  0.00000000000E+00 -0.00000000000E+00 -0.66129193617E+03  0.66129193617E+03  0.00000000000E+00 0. -1.
         25    2    1    2    0    0 -0.24275081402E+03 -0.32027100654E+02 -0.39299248467E+03  0.47962901398E+03  0.12508878911E+03 0.  0.
          5    1    3    3  502    0 -0.35883529299E+02 -0.42024525894E+02 -0.15229843550E+03  0.16206780775E+03  0.41800000000E+01 0. -1.
         -5    1    3    3    0  502 -0.20686728472E+03  0.99974252402E+01 -0.24069404916E+03  0.31756120623E+03  0.41800000000E+01 0. -1.
        -11    1    1    2    0    0  0.98742111867E+02  0.39304591384E+02 -0.10688577818E+03  0.15072964253E+03  0.00000000000E+00 0. -1.
         11    1    1    2    0    0  0.14400870215E+03 -0.72774907307E+01 -0.42126693200E+02  0.15022025978E+03  0.00000000000E+00 0.  1.
</event>
<event>
 7    1  0.3888982E-009  0.2709958E+03  0.7561462E-02  0.1100711E+00
         -1   -1    0    0    0  501 -0.00000000000E+00  0.00000000000E+00  0.97242331233E+02  0.97242331233E+02  0.00000000000E+00 0.  1.
          1   -1    0    0  501    0  0.00000000000E+00 -0.00000000000E+00 -0.83214337972E+03  0.83214337972E+03  0.00000000000E+00 0. -1.
         25    2    1    2    0    0  0.15965672153E+03  0.20431272397E+03 -0.44264651008E+03  0.52803045395E+03  0.12508504908E+03 0.  0.
          5    1    3    3  502    0  0.57965096896E+02  0.24593024677E+02 -0.19824368588E+03  0.20804518911E+03  0.41800000000E+01 0. -1.
         -5    1    3    3    0  502  0.10169162463E+03  0.17971969930E+03 -0.24440282420E+03  0.31998526483E+03  0.41800000000E+01 0. -1.
        -11    1    1    2    0    0 -0.86021994611E+02 -0.17123099969E+03 -0.17859999855E+03  0.26194999197E+03  0.00000000000E+00 0.  1.
         11    1    1    2    0    0 -0.73634726914E+02 -0.33081724284E+02 -0.11365453986E+03  0.13940526504E+03  0.00000000000E+00 0. -1.
</event>
<event>
 6    1  0.2766180E-009  0.1099655E+03  0.7561462E-02  0.1260634E+00
         -1   -1    0    0    0  501 -0.00000000000E+00  0.00000000000E+00  0.12002354443E+03  0.12002354443E+03  0.00000000000E+00 0.  1.
          1   -1    0    0  501    0  0.00000000000E+00 -0.00000000000E+00 -0.12419619895E+03  0.12419619895E+03  0.00000000000E+00 0. -1.
          5    1    1    2  502    0  0.59327804864E+02 -0.83635906428E+01 -0.13977455004E+02  0.61665060827E+02  0.41800000000E+01 0. -1.
         -5    1    1    2    0  502 -0.42133628890E+02  0.60884509240E+02  0.12367920598E+02  0.75183801505E+02  0.41800000000E+01 0. -1.
        -11    1    1    2    0    0 -0.34785036793E+02 -0.51302273651E+01 -0.33119203970E+02  0.48303205785E+02  0.00000000000E+00 0. -1.
         11    1    1    2    0    0  0.17590860819E+02 -0.47390691232E+02  0.30556083854E+02  0.59067675257E+02  0.00000000000E+00 0.  1.
</event>
<event>
 7    1  0.2766180E-009  0.1323739E+03  0.7561462E-02  0.1223975E+00
          2   -1    0    0  501    0  0.00000000000E+00  0.00000000000E+00  0.69601766288E+03  0.69601766288E+03  0.00000000000E+00 0. -1.
         -2   -1    0    0    0  501 -0.00000000000E+00 -0.00000000000E+00 -0.39635089839E+02  0.39635089839E+02  0.00000000000E+00 0.  1.
         25    2    1    2    0    0  0.88775402554E+02 -0.27309287254E+02  0.16349528357E+03  0.22584295492E+03  0.12508982079E+03 0.  0.
          5    1    3    3  502    0  0.18694870360E+02  0.45195498591E+02  0.26799183615E+02  0.55926737014E+02  0.41800000000E+01 0.  1.
         -5    1    3    3    0  502  0.70080532194E+02 -0.72504785844E+02  0.13669609996E+03  0.16991621790E+03  0.41800000000E+01 0.  1.
        -11    1    1    2    0    0 -0.12765610854E+02  0.36032599685E+02  0.67289851984E+02  0.77390136584E+02  0.00000000000E+00 0. -1.
         11    1    1    2    0    0 -0.76009791700E+02 -0.87233124307E+01  0.42559743748E+03  0.43241966122E+03  0.00000000000E+00 0.  1.
</event>
<event>
 7    1  0.2766180E-009  0.9100828E+02  0.7561462E-02  0.1300428E+00
          2   -1    0    0  501    0  0.00000000000E+00  0.00000000000E+00  0.40574278512E+02  0.40574278512E+02  0.00000000000E+00 0. -1.
         -2   -1    0    0    0  501 -0.00000000000E+00 -0.00000000000E+00 -0.43720539856E+03  0.43720539856E+03  0.00000000000E+00 0.  1.
         25    2    1    2    0    0 -0.32682859223E+02  0.23310712763E+02 -0.10048639056E+03  0.16539807253E+03  0.12508976415E+03 0.  0.
          5    1    3    3  502    0 -0.64455993286E+02  0.57593967586E+01 -0.10995468330E+03  0.12765285152E+03  0.41800000000E+01 0. -1.
         -5    1    3    3    0  502  0.31773134064E+02  0.17551316004E+02  0.94682927462E+01  0.37745221012E+02  0.41800000000E+01 0. -1.
        -11    1    1    2    0    0 -0.20516525104E+02 -0.17772115257E+02 -0.28163365414E+02  0.39114588513E+02  0.00000000000E+00 0. -1.
         11    1    1    2    0    0  0.53199384327E+02 -0.55385975057E+01 -0.26798136408E+03  0.27326701603E+03  0.00000000000E+00 0.  1.
</event>
<event>
 7    1  0.2766180E-009  0.9198358E+02  0.7561462E-02  0.1298118E+00
         -2   -1    0    0    0  501 -0.00000000000E+00  0.00000000000E+00  0.95113886629E+02  0.95113886629E+02  0.00000000000E+00 0.  1.
          2   -1    0    0  501    0  0.00000000000E+00 -0.00000000000E+00 -0.21658274904E+03  0.21658274904E+03  0.00000000000E+00 0. -1.
         25    2    1    2    0    0  0.70627473482E+02  0.46774139068E+02 -0.21652025146E+02  0.15259758173E+03  0.12506458995E+03 0.  0.
          5    1    3    3  502    0  0.24170938045E+02  0.14365344970E+02  0.52195248896E+02  0.59434113011E+02  0.41800000000E+01 0.  1.
         -5    1    3    3    0  502  0.46456535436E+02  0.32408794098E+02 -0.73847274042E+02  0.93163468715E+02  0.41800000000E+01 0.  1.
        -11    1    1    2    0    0 -0.22392341627E+02 -0.45245332433E+02 -0.98660070271E+02  0.11082583876E+03  0.00000000000E+00 0. -1.
         11    1    1    2    0    0 -0.48235131854E+02 -0.15288066349E+01 -0.11567669985E+01  0.48273215188E+02  0.00000000000E+00 0.  1.
</event>
<event>
 7    1  0.2766180E-009  0.9474606E+02  0.7561462E-02  0.1291749E+00
          1   -1    0    0  501    0  0.00000000000E+00  0.00000000000E+00  0.12098850956E+04  0.12098850956E+04  0.00000000000E+00 0. -1.
         -1   -1    0    0    0  501 -0.00000000000E+00 -0.00000000000E+00 -0.12166416703E+02  0.12166416703E+02  0.00000000000E+00 0.  1.
         25    2    1    2    0    0 -0.43858317691E+02  0.22821543010E+02  0.85827332164E+03  0.86874968813E+03  0.12509416901E+03 0.  0.
          5    1    3    3  502    0  0.21558554088E+02  0.31231943991E+02  0.91668886081E+02  0.99301876393E+02  0.41800000000E+01 0. -1.
         -5    1    3    3    0  502 -0.65416871779E+02 -0.84104009806E+01  0.76660443556E+03  0.76944781173E+03  0.41800000000E+01 0. -1.
        -11    1    1    2    0    0  0.14924804815E+02  0.25125713165E+02  0.45551636381E+02  0.54120262728E+02  0.00000000000E+00 0.  1.
         11    1    1    2    0    0  0.28933512876E+02 -0.47947256175E+02  0.29389372085E+03  0.29918156143E+03  0.00000000000E+00 0. -1.
</event>
<event>
 7    1  0.2766180E-009  0.1550668E+03  0.7561462E-02  0.1194382E+00
          2   -1    0    0  501    0  0.00000000000E+00  0.00000000000E+00  0.98815006758E+02  0.98815006758E+02  0.00000000000E+00 0. -1.
         -2   -1    0    0    0  501 -0.00000000000E+00 -0.00000000000E+00 -0.26364146870E+03  0.26364146870E+03  0.00000000000E+00 0.  1.
         25    2    1    2    0    0  0.92337661521E+02 -0.69957704247E+02 -0.82300952808E+02  0.18933765572E+03  0.12511985023E+03 0.  0.
          5    1    3    3  502    0  0.69843827363E+02  0.13972891654E+02 -0.26677354516E+01  0.71400218027E+02  0.41800000000E+01 0. -1.
         -5    1    3    3    0  502  0.22493834159E+02 -0.83930595900E+02 -0.79633217356E+02  0.11793743769E+03  0.41800000000E+01 0. -1.
        -11    1    1    2    0    0 -0.64057454079E+02  0.94621851146E+02 -0.56649755218E+02  0.12753762936E+03  0.00000000000E+00 0. -1.
         11    1    1    2    0    0 -0.28280207442E+02 -0.24664146899E+02 -0.25875753919E+02  0.45581190376E+02  0.00000000000E+00 0.  1.
</event>
<event>
 7    1  0.2766180E-009  0.2650321E+03  0.7561462E-02  0.1104157E+00
         -3   -1    0    0    0  501 -0.00000000000E+00  0.00000000000E+00  0.85652905102E+02  0.85652905102E+02  0.00000000000E+00 0.  1.
          3   -1    0    0  501    0  0.00000000000E+00 -0.00000000000E+00 -0.10673860888E+04  0.10673860888E+04  0.00000000000E+00 0. -1.
         25    2    1    2    0    0 -0.17524444753E+02  0.25829070729E+03 -0.70857384670E+03  0.76468759376E+03  0.12509605983E+03 0.  0.
          5    1    3    3  502    0 -0.87769445929E+01  0.78118145048E+02 -0.39622181335E+03  0.40396618313E+03  0.41800000000E+01 0. -1.
         -5    1    3    3    0  502 -0.87475001601E+01  0.18017256225E+03 -0.31235203335E+03  0.36072141063E+03  0.41800000000E+01 0. -1.
        -11    1    1    2    0    0  0.48223918725E+02 -0.12157291185E+03 -0.94791017598E+02  0.16152664254E+03  0.00000000000E+00 0. -1.
         11    1    1    2    0    0 -0.30699473972E+02 -0.13671779545E+03 -0.17836831937E+03  0.22682475758E+03  0.00000000000E+00 0.  1.
</event>
<event>
 7    1  0.2766180E-009  0.1604182E+03  0.7561462E-02  0.1188225E+00
          2   -1    0    0  501    0  0.00000000000E+00  0.00000000000E+00  0.14855845808E+04  0.14855845808E+04  0.00000000000E+00 0. -1.
         -2   -1    0    0    0  501 -0.00000000000E+00 -0.00000000000E+00 -0.21504343518E+02  0.21504343518E+02  0.00000000000E+00 0.  1.
         25    2    1    2    0    0  0.67977597911E+02 -0.12173845114E+03  0.67112269372E+03  0.69677436418E+03  0.12509052824E+03 0.  0.
          5    1    3    3  502    0  0.43378183170E+02 -0.12560295854E+03  0.65114087602E+03  0.66457481354E+03  0.41800000000E+01 0.  1.
         -5    1    3    3    0  502  0.24599414741E+02  0.38645073971E+01  0.19981817696E+02  0.32199550641E+02  0.41800000000E+01 0.  1.
        -11    1    1    2    0    0 -0.87890939138E+02  0.10100699328E+03  0.71008405988E+03  0.72259712286E+03  0.00000000000E+00 0. -1.
         11    1    1    2    0    0  0.19913341227E+02  0.20731457859E+02  0.82873483701E+02  0.87717437289E+02  0.00000000000E+00 0.  1.
</event>
<event>
 7    1  0.2766180E-009  0.5489412E+02  0.7561462E-02  0.1420600E+00
         -1   -1    0    0    0  501 -0.00000000000E+00  0.00000000000E+00  0.15592826362E+03  0.15592826362E+03  0.00000000000E+00 0.  1.
          1   -1    0    0  501    0  0.00000000000E+00 -0.00000000000E+00 -0.87455323752E+02  0.87455323752E+02  0.00000000000E+00 0. -1.
         25    2    1    2    0    0  0.14720568961E+02  0.68209120715E+01  0.79666204416E+02  0.14918845503E+03  0.12508905227E+03 0.  0.
          5    1    3    3  502    0 -0.41397544022E+01  0.84163241884E+01 -0.33157802447E+02  0.34711443970E+02  0.41800000000E+01 0.  1.
         -5    1    3    3    0  502  0.18860323363E+02 -0.15954121169E+01  0.11282400686E+03  0.11447701106E+03  0.41800000000E+01 0.  1.
        -11    1    1    2    0    0 -0.34616714760E+02 -0.32614245244E+02  0.17606009273E+02  0.50714667465E+02  0.00000000000E+00 0.  1.
         11    1    1    2    0    0  0.19896145799E+02  0.25793333172E+02 -0.28799273816E+02  0.43480464880E+02  0.00000000000E+00 0. -1.
</event>
<event>
 7    1  0.2766180E-009  0.1228165E+03  0.7561462E-02  0.1238522E+00
         -2   -1    0    0    0  501 -0.00000000000E+00  0.00000000000E+00  0.54205959914E+02  0.54205959914E+02  0.00000000000E+00 0. -1.
          2   -1    0    0  501    0  0.00000000000E+00 -0.00000000000E+00 -0.37966638671E+03  0.37966638671E+03  0.00000000000E+00 0.  1.
         25    2    1    2    0    0 -0.13437286185E+02  0.91497637357E+02 -0.17883624341E+03  0.23702852261E+03  0.12509092803E+03 0.  0.
          5    1    3    3  502    0 -0.35746260765E+01  0.10761540611E+03 -0.18715863412E+03  0.21596221963E+03  0.41800000000E+01 0. -1.
         -5    1    3    3    0  502 -0.98626601085E+01 -0.16117768752E+02  0.83223907153E+01  0.21066302978E+02  0.41800000000E+01 0. -1.
        -11    1    1    2    0    0  0.38632299570E+02 -0.83642656627E+02 -0.14313384692E+03  0.17022293239E+03  0.00000000000E+00 0.  1.
         11    1    1    2    0    0 -0.25195013385E+02 -0.78549807298E+01 -0.34903364650E+01  0.26620891615E+02  0.00000000000E+00 0. -1.
</event>
<event>
 7    1  0.2766180E-009  0.1354937E+03  0.7561462E-02  0.1219524E+00
         -2   -1    0    0    0  501 -0.00000000000E+00  0.00000000000E+00  0.91621835036E+02  0.91621835036E+02  0.00000000000E+00 0.  1.
          2   -1    0    0  501    0  0.00000000000E+00 -0.00000000000E+00 -0.21619920482E+03  0.21619920482E+03  0.00000000000E+00 0. -1.
         25    2    1    2    0    0 -0.49507347504E+02  0.60248570510E+02 -0.61213645965E+02  0.15961053204E+03  0.12509014262E+03 0.  0.
          5    1    3    3  502    0 -0.68168529608E+02  0.84907115321E+02 -0.66938992501E+02  0.12788458773E+03  0.41800000000E+01 0. -1.
         -5    1    3    3    0  502  0.18661182104E+02 -0.24658544812E+02  0.57253465356E+01  0.31725944315E+02  0.41800000000E+01 0. -1.
        -11    1    1    2    0    0  0.71601314767E+02 -0.55406586189E+01 -0.50583002172E+02  0.87841261848E+02  0.00000000000E+00 0. -1.
         11    1    1    2    0    0 -0.22093967263E+02 -0.54707911891E+02 -0.12780721649E+02  0.60369245968E+02  0.00000000000E+00 0.  1.
</event>
<event>
 7    1  0.2766180E-009  0.1135298E+03  0.7561462E-02  0.1254169E+00
         -1   -1    0    0    0  501 -0.00000000000E+00  0.00000000000E+00  0.18962915000E+03  0.18962915000E+03  0.00000000000E+00 0.  1.
          1   -1    0    0  501    0  0.00000000000E+00 -0.00000000000E+00 -0.11632857680E+03  0.11632857680E+03  0.00000000000E+00 0. -1.
         25    2    1    2    0    0 -0.96004744549E+02  0.33967395045E+02  0.32459291495E+02  0.16453291177E+03  0.12508708387E+03 0.  0.
          5    1    3    3  502    0 -0.29834022788E+02 -0.43765057891E+01 -0.45823524815E+02  0.55013548741E+02  0.41800000000E+01 0. -1.
         -5    1    3    3    0  502 -0.66170721761E+02  0.38343900834E+02  0.78282816310E+02  0.10951936303E+03  0.41800000000E+01 0. -1.
        -11    1    1    2    0    0  0.30343016026E+02  0.18881602397E+02  0.44479558400E+02  0.57058256599E+02  0.00000000000E+00 0.  1.
         11    1    1    2    0    0  0.65661728523E+02 -0.52848997442E+02 -0.36382766883E+01  0.84366558425E+02  0.00000000000E+00 0. -1.
</event>
<event>
 7    1  0.2766180E-009  0.1168913E+03  0.7561462E-02  0.1248315E+00
         -2   -1    0    0    0  501 -0.00000000000E+00  0.00000000000E+00  0.19942105507E+02  0.19942105507E+02  0.00000000000E+00 0.  1.
          2   -1    0    0  501    0  0.00000000000E+00 -0.00000000000E+00 -0.10954527769E+04  0.10954527769E+04  0.00000000000E+00 0. -1.
         25    2    1    2    0    0  0.31932093497E+02  0.76042215419E+02 -0.79364269696E+03  0.80766329535E+03  0.12509672700E+03 0.  0.
          5    1    3    3  502    0  0.17466423030E+02  0.90874504464E+02 -0.77154181799E+03  0.77708268595E+03  0.41800000000E+01 0. -1.
         -5    1    3    3    0  502  0.14465670467E+02 -0.14832289045E+02 -0.22100878969E+02  0.30580609405E+02  0.41800000000E+01 0. -1.
        -11    1    1    2    0    0 -0.49260770544E+02 -0.81309511236E+01 -0.15432127183E+03  0.16219676575E+03  0.00000000000E+00 0. -1.
         11    1    1    2    0    0  0.17328677047E+02 -0.67911264295E+02 -0.12754670260E+03  0.14553482130E+03  0.00000000000E+00 0.  1.
</event>
<event>
 7    1  0.2766180E-009  0.1213938E+03  0.7561462E-02  0.1240815E+00
          2   -1    0    0  501    0  0.00000000000E+00  0.00000000000E+00  0.29642108799E+03  0.29642108799E+03  0.00000000000E+00 0. -1.
         -2   -1    0    0    0  501 -0.00000000000E+00 -0.00000000000E+00 -0.59943340691E+02  0.59943340691E+02  0.00000000000E+00 0.  1.
         25    2    1    2    0    0  0.75066444007E+02  0.29987235257E+01  0.14638864183E+03  0.20668345876E+03  0.12507779304E+03 0.  0.
          5    1    3    3  502    0  0.81057662199E+02  0.47772051761E+02  0.12505375849E+03  0.15655167978E+03  0.41800000000E+01 0.  1.
         -5    1    3    3    0  502 -0.59912181915E+01 -0.44773328235E+02  0.21334883335E+02  0.50131778979E+02  0.41800000000E+01 0.  1.
        -11    1    1    2    0    0  0.26674420005E+01  0.21557051865E+02  0.58242167905E+02  0.62160854677E+02  0.00000000000E+00 0. -1.
         11    1    1    2    0    0 -0.77733886008E+02 -0.24555775391E+02  0.31846937563E+02  0.87520115237E+02  0.00000000000E+00 0.  1.
</event>
<event>
 7    1  0.2766180E-009  0.9824091E+02  0.7561462E-02  0.1284039E+00
         -1   -1    0    0    0  501 -0.00000000000E+00  0.00000000000E+00  0.12761640900E+03  0.12761640900E+03  0.00000000000E+00 0.  1.
          1   -1    0    0  501    0  0.00000000000E+00 -0.00000000000E+00 -0.10352684878E+03  0.10352684878E+03  0.00000000000E+00 0. -1.
         25    2    1    2    0    0  0.27429180831E+01 -0.37338659174E+02  0.18010026114E+02  0.13180405673E+03  0.12508496816E+03 0.  0.
          5    1    3    3  502    0 -0.25791188045E+02  0.37647340830E+02 -0.96593853885E+01  0.46832507711E+02  0.41800000000E+01 0.  1.
         -5    1    3    3    0  502  0.28534106128E+02 -0.74986000004E+02  0.27669411502E+02  0.84971549015E+02  0.41800000000E+01 0.  1.
        -11    1    1    2    0    0  0.24337215021E+02  0.35673778806E+02 -0.31168293438E+02  0.53257685315E+02  0.00000000000E+00 0. -1.
         11    1    1    2    0    0 -0.27080133104E+02  0.16648803684E+01  0.37247827549E+02  0.46081515738E+02  0.00000000000E+00 0.  1.
</event>
<event>
 7    1  0.2766180E-009  0.1145334E+03  0.7561462E-02  0.1252398E+00
          1   -1    0    0  501    0  0.00000000000E+00  0.00000000000E+00  0.90986426141E+02  0.90986426141E+02  0.00000000000E+00 0. -1.
         -1   -1    0    0    0  501 -0.00000000000E+00 -0.00000000000E+00 -0.25160171045E+03  0.25160171045E+03  0.00000000000E+00 0.  1.
         25    2    1    2    0    0 -0.21212142483E+02  0.49892646366E+02  0.21448487028E+02  0.13800865457E+03  0.12508844867E+03 0.  0.
          5    1    3    3  502    0  0.28393787181E+02 -0.30080453889E+02  0.12338868735E+02  0.43367740756E+02  0.41800000000E+01 0. -1.
         -5    1    3    3    0  502 -0.49605929663E+02  0.79973100255E+02  0.91096182924E+01  0.94640913814E+02  0.41800000000E+01 0. -1.
        -11    1    1    2    0    0 -0.20382609046E+02 -0.47427946768E+02 -0.99011147537E+02  0.11166050431E+03  0.00000000000E+00 0.  1.
         11    1    1    2    0    0  0.41594751529E+02 -0.24646995975E+01 -0.83052623804E+02  0.92918977715E+02  0.00000000000E+00 0. -1.
</event>
<event>
 7    1  0.2766180E-009  0.1085288E+03  0.7561462E-02  0.1263319E+00
          1   -1    0    0  501    0  0.00000000000E+00  0.00000000000E+00  0.56701807324E+02  0.56701807324E+02  0.00000000000E+00 0. -1.
         -1   -1    0    0    0  501 -0.00000000000E+00 -0.00000000000E+00 -0.23570805465E+03  0.23570805465E+03  0.00000000000E+00 0.  1.
         25    2    1    2    0    0  0.20590722443E+02  0.26197553727E+02 -0.72630078200E+02  0.14843333497E+03  0.12508811693E+03 0.  0.
          5    1    3    3  502    0 -0.40629587374E+02 -0.25889304875E+02 -0.34276717785E+02  0.59273815966E+02  0.41800000000E+01 0. -1.
         -5    1    3    3    0  502  0.61220309817E+02  0.52086858603E+02 -0.38353360415E+02  0.89159519000E+02  0.41800000000E+01 0. -1.
        -11    1    1    2    0    0  0.19607349952E+02 -0.40941275946E+02 -0.84438388557E+02  0.95866979249E+02  0.00000000000E+00 0.  1.
         11    1    1    2    0    0 -0.40198072395E+02  0.14743722219E+02 -0.21937780567E+02  0.48109547757E+02  0.00000000000E+00 0. -1.
</event>
<event>
 7    1  0.2766180E-009  0.1148424E+03  0.7561462E-02  0.1251856E+00
         -1   -1    0    0    0  501 -0.00000000000E+00  0.00000000000E+00  0.42006773984E+03  0.42006773984E+03  0.00000000000E+00 0.  1.
          1   -1    0    0  501    0  0.00000000000E+00 -0.00000000000E+00 -0.33549660383E+02  0.33549660383E+02  0.00000000000E+00 0. -1.
         25    2    1    2    0    0 -0.43004569571E+02  0.86393796267E+01  0.17644922619E+03  0.22069356708E+03  0.12508912521E+03 0.  0.
          5    1    3    3  502    0  0.96619124060E+01  0.57868911261E+02  0.96015475565E+02  0.11259932233E+03  0.41800000000E+01 0.  1.
         -5    1    3    3    0  502 -0.52666481977E+02 -0.49229531634E+02  0.80433750622E+02  0.10809424475E+03  0.41800000000E+01 0.  1.
        -11    1    1    2    0    0  0.70551686486E+02 -0.88515520731E+01  0.12894865297E+03  0.14725367752E+03  0.00000000000E+00 0. -1.
         11    1    1    2    0    0 -0.27547116914E+02  0.21217244649E+00  0.81120200295E+02  0.85670155616E+02  0.00000000000E+00 0.  1.
</event>
<event>
 7    1  0.2766180E-009  0.1385135E+03  0.7561462E-02  0.1215343E+00
          4   -1    0    0  501    0  0.00000000000E+00  0.00000000000E+00  0.64926014663E+02  0.64926014663E+02  0.00000000000E+00 0. -1.
         -4   -1    0    0    0  501 -0.00000000000E+00 -0.00000000000E+00 -0.41984339836E+03  0.41984339836E+03  0.00000000000E+00 0.  1.
         25    2    1    2    0    0  0.86920221398E+02 -0.87626305530E+02 -0.16715058312E+03  0.24252810688E+03  0.12508825237E+03 0.  0.
          5    1    3    3  502    0  0.66402611822E+02 -0.33904453740E+01 -0.13393784208E+03  0.14959151018E+03  0.41800000000E+01 0. -1.
         -5    1    3    3    0  502  0.20517609576E+02 -0.84235860156E+02 -0.33212741043E+02  0.92936596701E+02  0.41800000000E+01 0. -1.
        -11    1    1    2    0    0 -0.18632618875E+02  0.22852720218E+02 -0.12660545962E+03  0.12999370644E+03  0.00000000000E+00 0.  1.
         11    1    1    2    0    0 -0.68287602523E+02  0.64773585312E+02 -0.61161340955E+02  0.11224759971E+03  0.00000000000E+00 0. -1.
</event>
<event>
 6    1  0.2766180E-009  0.1042916E+03  0.7561462E-02  0.1271522E+00
         -2   -1    0    0    0  501 -0.00000000000E+00  0.00000000000E+00  0.26465085138E+02  0.26465085138E+02  0.00000000000E+00 0. -1.
          2   -1    0    0  501    0  0.00000000000E+00 -0.00000000000E+00 -0.85407715040E+03  0.85407715040E+03  0.00000000000E+00 0.  1.
          5    1    1    2  502    0  0.43382617085E+02  0.55873516490E+02 -0.57485873879E+03  0.57920975758E+03  0.41800000000E+01 0. -1.
         -5    1    1    2    0  502 -0.35882624238E+02 -0.30035507387E+02 -0.16154085616E+03  0.16823381062E+03  0.41800000000E+01 0. -1.
        -11    1    1    2    0    0  0.18296537640E+02 -0.51318173825E+02 -0.30650469712E+02  0.62512155202E+02  0.00000000000E+00 0. -1.
         11    1    1    2    0    0 -0.25796530487E+02  0.25480164722E+02 -0.60562000603E+02  0.70586512143E+02  0.00000000000E+00 0.  1.
</event>
<event>
 7    1  0.2766180E-009  0.2319649E+03  0.7561462E-02  0.1125264E+00
         -2   -1    0    0    0  501 -0.00000000000E+00  0.00000000000E+00  0.13328515260E+03  0.13328515260E+03  0.00000000000E+00 0.  1.
          2   -1    0    0  501    0  0.00000000000E+00 -0.00000000000E+00 -0.49474456110E+03  0.49474456110E+03  0.00000000000E+00 0. -1.
         25    2    1    2    0    0  0.22549853122E+03 -0.18128761101E+02 -0.23159582328E+03  0.34707065916E+03  0.12507268896E+03 0.  0.
          5    1    3    3  502    0  0.12141290292E+03  0.11270806775E+02 -0.20006602256E+03  0.23433311730E+03  0.41800000000E+01 0.  1.
         -5    1    3    3    0  502  0.10408562831E+03 -0.29399567876E+02 -0.31529800722E+02  0.11273754186E+03  0.41800000000E+01 0.  1.
        -11    1    1    2    0    0 -0.14689984465E+03 -0.16445412690E+02 -0.32888880337E+02  0.15143214456E+03  0.00000000000E+00 0.  1.
         11    1    1    2    0    0 -0.78598686575E+02  0.34574173791E+02 -0.96974704875E+02  0.12952690999E+03  0.00000000000E+00 0. -1.
</event>
<event>
 7    1  0.2766180E-009  0.1094051E+03  0.7561462E-02  0.1261675E+00
          1   -1    0    0  501    0  0.00000000000E+00  0.00000000000E+00  0.11541161692E+03  0.11541161692E+03  0.00000000000E+00 0. -1.
         -1   -1    0    0    0  501 -0.00000000000E+00 -0.00000000000E+00 -0.13899854538E+03  0.13899854538E+03  0.00000000000E+00 0.  1.
         25    2    1    2    0    0  0.39074198783E+02  0.18686952888E+02  0.31544923057E+02  0.13605342861E+03  0.12505781881E+03 0.  0.
          5    1    3    3  502    0  0.73416287229E+02 -0.13997892374E+02  0.44036266923E+02  0.86847898224E+02  0.41800000000E+01 0. -1.
         -5    1    3    3    0  502 -0.34342088446E+02  0.32684845262E+02 -0.12491343866E+02  0.49205530382E+02  0.41800000000E+01 0. -1.
        -11    1    1    2    0    0 -0.13581349248E+02 -0.52379111567E+02 -0.53472236145E+02  0.76074334793E+02  0.00000000000E+00 0. -1.
         11    1    1    2    0    0 -0.25492849535E+02  0.33692158679E+02 -0.16596153727E+01  0.42282398904E+02  0.00000000000E+00 0.  1.
</event>
<event>
 7    1  0.2766180E-009  0.1003217E+03  0.7561462E-02  0.1279621E+00
         -2   -1    0    0    0  501 -0.00000000000E+00  0.00000000000E+00  0.42535599767E+02  0.42535599767E+02  0.00000000000E+00 0.  1.
          2   -1    0    0  501    0  0.00000000000E+00 -0.00000000000E+00 -0.40169035437E+03  0.40169035437E+03  0.00000000000E+00 0. -1.
         25    2    1    2    0    0 -0.73176839864E+02 -0.28616751275E+01 -0.18265041582E+03  0.23317727002E+03  0.12508967094E+03 0.  0.
          5    1    3    3  502    0 -0.12574734568E-01 -0.20463078995E+02  0.12249291697E+02  0.24212709620E+02  0.41800000000E+01 0.  1.
         -5    1    3    3    0  502 -0.73164265130E+02  0.17601403867E+02 -0.19489970752E+03  0.20896456040E+03  0.41800000000E+01 0.  1.
        -11    1    1    2    0    0 -0.12649706642E+01  0.26311726969E+02 -0.93387452234E+02  0.97031558586E+02  0.00000000000E+00 0. -1.
         11    1    1    2    0    0  0.74441810529E+02 -0.23450051842E+02 -0.83116886547E+02  0.11401712554E+03  0.00000000000E+00 0.  1.
</event>
<event>
 7    1  0.2766180E-009  0.1555041E+03  0.7561462E-02  0.1193868E+00
          2   -1    0    0  501    0  0.00000000000E+00  0.00000000000E+00  0.11977386073E+04  0.11977386073E+04  0.00000000000E+00 0.  1.
         -2   -1    0    0    0  501 -0.00000000000E+00 -0.00000000000E+00 -0.30229849073E+02  0.30229849073E+02  0.00000000000E+00 0. -1.
         25    2    1    2    0    0  0.28789248439E+02  0.12258635931E+03  0.31833249380E+03  0.36447089935E+03  0.12508886262E+03 0.  0.
          5    1    3    3  502    0  0.59003340261E+02  0.10100634091E+03  0.30162626300E+03  0.32354219200E+03  0.41800000000E+01 0.  1.
         -5    1    3    3    0  502 -0.30214091822E+02  0.21580018398E+02  0.16706230793E+02  0.40928707358E+02  0.41800000000E+01 0.  1.
        -11    1    1    2    0    0  0.27855213684E+02 -0.82830891257E+02  0.46690016588E+03  0.47500803611E+03  0.00000000000E+00 0.  1.
         11    1    1    2    0    0 -0.56644462124E+02 -0.39755468056E+02  0.38227609854E+03  0.38848952090E+03  0.00000000000E+00 0. -1.
</event>
<event>
 7    1  0.2766180E-009  0.1883330E+03  0.7561462E-02  0.1159974E+00
          2   -1    0    0  501    0  0.00000000000E+00  0.00000000000E+00  0.72017489139E+03  0.72017489139E+03  0.00000000000E+00 0. -1.
         -2   -1    0    0    0  501 -0.00000000000E+00 -0.00000000000E+00 -0.76254721531E+02  0.76254721531E+02  0.00000000000E+00 0.  1.
         25    2    1    2    0    0 -0.17385282520E+03  0.14365410348E+02  0.14155158696E+03  0.25712951199E+03  0.12509022473E+03 0.  0.
          5    1    3    3  502    0 -0.14867695558E+03 -0.11155189789E+02  0.15816283005E+03  0.21739877780E+03  0.41800000000E+01 0. -1.
         -5    1    3    3    0  502 -0.25175869620E+02  0.25520600137E+02 -0.16611243090E+02  0.39730734193E+02  0.41800000000E+01 0. -1.
        -11    1    1    2    0    0  0.74295012518E+02  0.32851317330E+02  0.15685550322E+03  0.17664259629E+03  0.00000000000E+00 0.  1.
         11    1    1    2    0    0  0.99557812680E+02 -0.47216727678E+02  0.34551307967E+03  0.36265750463E+03  0.00000000000E+00 0. -1.
</event>
<event>
 7    1  0.2766180E-009  0.1080111E+03  0.7561462E-02  0.1264298E+00
         -2   -1    0    0    0  501 -0.00000000000E+00  0.00000000000E+00  0.20931615023E+02  0.20931615023E+02  0.00000000000E+00 0.  1.
          2   -1    0    0  501    0  0.00000000000E+00 -0.00000000000E+00 -0.74370451846E+03  0.74370451846E+03  0.00000000000E+00 0. -1.
         25    2    1    2    0    0 -0.58449579017E+02 -0.14459274144E+02 -0.44562782045E+03  0.46675161888E+03  0.12508994953E+03 0.  0.
          5    1    3    3  502    0 -0.15103290767E+02 -0.48927788679E+02 -0.36647203139E+03  0.37005575268E+03  0.41800000000E+01 0.  1.
         -5    1    3    3    0  502 -0.43346288249E+02  0.34468514535E+02 -0.79155789051E+02  0.96695866196E+02  0.41800000000E+01 0.  1.
        -11    1    1    2    0    0  0.71795342066E+02  0.38607527232E+02 -0.20148348214E+03  0.21734927163E+03  0.00000000000E+00 0.  1.
         11    1    1    2    0    0 -0.13345763050E+02 -0.24148253087E+02 -0.75661600851E+02  0.80535242980E+02  0.00000000000E+00 0. -1.
</event>
<event>
 7    1  0.2766180E-009  0.9711981E+02  0.7561462E-02  0.1286472E+00
          1   -1    0    0  501    0  0.00000000000E+00  0.00000000000E+00  0.85788572857E+03  0.85788572857E+03  0.00000000000E+00 0. -1.
         -1   -1    0    0    0  501 -0.00000000000E+00 -0.00000000000E+00 -0.23201918044E+02  0.23201918044E+02  0.00000000000E+00 0.  1.
         25    2    1    2    0    0  0.84450485326E+01  0.34285742016E+01  0.74501376171E+03  0.75549735532E+03  0.12509066629E+03 0.  0.
          5    1    3    3  502    0  0.63114190908E+02 -0.16478199249E+02  0.33071717801E+03  0.33711460422E+03  0.41800000000E+01 0.  1.
         -5    1    3    3    0  502 -0.54669142375E+02  0.19906773451E+02  0.41429658370E+03  0.41838275111E+03  0.41800000000E+01 0.  1.
        -11    1    1    2    0    0  0.29831073263E+02 -0.10493053728E+02  0.44914809146E+01  0.31940108162E+02  0.00000000000E+00 0.  1.
         11    1    1    2    0    0 -0.38276121796E+02  0.70644795266E+01  0.85178567898E+02  0.93650183128E+02  0.00000000000E+00 0. -1.
</event>
<event>
 7    1  0.2766180E-009  0.1054138E+03  0.7561462E-02  0.1269306E+00
          2   -1    0    0  501    0  0.00000000000E+00  0.00000000000E+00  0.10946993985E+03  0.10946993985E+03  0.00000000000E+00 0. -1.
         -2   -1    0    0    0  501 -0.00000000000E+00 -0.00000000000E+00 -0.16626489284E+03  0.16626489284E+03  0.00000000000E+00 0.  1.
         25    2    1    2    0    0  0.19838133127E+02  0.34062002885E+02  0.39668493604E+02  0.13701951002E+03  0.12508790979E+03 0.  0.
          5    1    3    3  502    0 -0.36984603089E+02  0.55061016133E+02  0.37384400595E+02  0.76253801027E+02  0.41800000000E+01 0. -1.
         -5    1    3    3    0  502  0.56822736216E+02 -0.20999013248E+02  0.22840930095E+01  0.60765708992E+02  0.41800000000E+01 0. -1.
        -11    1    1    2    0    0  0.20282579795E+02 -0.38260511748E+02 -0.11722688484E+02  0.44862804500E+02  0.00000000000E+00 0. -1.
         11    1    1    2    0    0 -0.40120712922E+02  0.41985088626E+01 -0.84740758108E+02  0.93852518169E+02  0.00000000000E+00 0.  1.
</event>
<event>
 7    1  0.2766180E-009  0.1149595E+03  0.7561462E-02  0.1251652E+00
         -2   -1    0    0    0  501 -0.00000000000E+00  0.00000000000E+00  0.20334872851E+02  0.20334872851E+02  0.00000000000E+00 0.  1.
          2   -1    0    0  501    0  0.00000000000E+00 -0.00000000000E+00 -0.70118755271E+03  0.70118755271E+03  0.00000000000E+00 0. -1.
         25    2    1    2    0    0 -0.57408644292E+01  0.39769635922E+02 -0.47467353702E+03  0.49252113424E+03  0.12509004543E+03 0.  0.
          5    1    3    3  502    0  0.51002830061E+02  0.51095607277E+02 -0.29394016923E+03  0.30270504661E+03  0.41800000000E+01 0. -1.
         -5    1    3    3    0  502 -0.56743694490E+02 -0.11325971355E+02 -0.18073336779E+03  0.18981608763E+03  0.41800000000E+01 0. -1.
        -11    1    1    2    0    0  0.41826816792E+02  0.49585422021E+01 -0.91413334058E+02  0.10065022299E+03  0.00000000000E+00 0. -1.
         11    1    1    2    0    0 -0.36085952363E+02 -0.44728178124E+02 -0.11476580879E+03  0.12835106833E+03  0.00000000000E+00 0.  1.
</event>
<event>
 7    1  0.2766180E-009  0.1109966E+03  0.7561462E-02  0.1258735E+00
          4   -1    0    0  501    0  0.00000000000E+00  0.00000000000E+00  0.75731771480E+02  0.75731771480E+02  0.00000000000E+00 0. -1.
         -4   -1    0    0    0  501 -0.00000000000E+00 -0.00000000000E+00 -0.25522378974E+03  0.25522378974E+03  0.00000000000E+00 0.  1.
         25    2    1    2    0    0  0.76544677748E+02  0.29674295958E+02 -0.12056866764E+03  0.19215666017E+03  0.12509087457E+03 0.  0.
          5    1    3    3  502    0  0.51059940439E+02  0.59456485883E+02 -0.12978842217E+03  0.15167299747E+03  0.41800000000E+01 0.  1.
         -5    1    3    3    0  502  0.25484737309E+02 -0.29782189925E+02  0.92197545309E+01  0.40483662705E+02  0.41800000000E+01 0.  1.
        -11    1    1    2    0    0 -0.68496719750E+01 -0.33593576992E+02  0.14736085223E+02  0.37317537821E+02  0.00000000000E+00 0. -1.
         11    1    1    2    0    0 -0.69695005773E+02  0.39192810343E+01 -0.73659435846E+02  0.10148136323E+03  0.00000000000E+00 0.  1.
</event>
<event>
 7    1  0.3644636E-009  0.1135140E+03  0.7561462E-02  0.1254197E+00
          4   -1    0    0  501    0  0.00000000000E+00  0.00000000000E+00  0.24158086474E+03  0.24158086474E+03  0.00000000000E+00 0. -1.
         -4   -1    0    0    0  501 -0.00000000000E+00 -0.00000000000E+00 -0.97554542667E+02  0.97554542667E+02  0.00000000000E+00 0.  1.
         25    2    1    2    0    0  0.50121803594E+02  0.53562897055E+02 -0.10210962059E+02  0.14537127480E+03  0.12508942663E+03 0.  0.
          5    1    3    3  502    0  0.96810195387E+01  0.87386890941E+02 -0.22967494118E+02  0.90967956082E+02  0.41800000000E+01 0.  1.
         -5    1    3    3    0  502  0.40440784055E+02 -0.33823993886E+02  0.12756532059E+02  0.54403318718E+02  0.41800000000E+01 0.  1.
        -11    1    1    2    0    0 -0.41624928604E+02 -0.11466637584E+02  0.14299614300E+03  0.14937207025E+03  0.00000000000E+00 0. -1.
         11    1    1    2    0    0 -0.84968749900E+01 -0.42096259471E+02  0.11241141132E+02  0.44392062353E+02  0.00000000000E+00 0.  1.
</event>
<event>
 7    1  0.2766180E-009  0.1180064E+03  0.7561462E-02  0.1246423E+00
          1   -1    0    0  501    0  0.00000000000E+00  0.00000000000E+00  0.24898474976E+02  0.24898474976E+02  0.00000000000E+00 0. -1.
         -1   -1    0    0    0  501 -0.00000000000E+00 -0.00000000000E+00 -0.57253847025E+03  0.57253847025E+03  0.00000000000E+00 0.  1.
         25    2    1    2    0    0 -0.48891528030E+02 -0.56853795916E+01 -0.29066942792E+03  0.32025127248E+03  0.12509778634E+03 0.  0.
          5    1    3    3  502    0 -0.67506480427E+02 -0.49873828390E+02 -0.15528454929E+03  0.17656524943E+03  0.41800000000E+01 0. -1.
         -5    1    3    3    0  502  0.18614952397E+02  0.44188448799E+02 -0.13538487863E+03  0.14368602305E+03  0.41800000000E+01 0. -1.
        -11    1    1    2    0    0 -0.26532338619E+02  0.98635270648E+01 -0.65668956301E+02  0.71509901275E+02  0.00000000000E+00 0.  1.
         11    1    1    2    0    0  0.75423866648E+02 -0.41781474732E+01 -0.19130161106E+03  0.20567577147E+03  0.00000000000E+00 0. -1.
</event>
<event>
 7    1  0.2766180E-009  0.1448156E+03  0.7561462E-02  0.1206992E+00
         -1   -1    0    0    0  501 -0.00000000000E+00  0.00000000000E+00  0.19490966501E+02  0.19490966501E+02  0.00000000000E+00 0.  1.
          1   -1    0    0  501    0  0.00000000000E+00 -0.00000000000E+00 -0.11048493681E+04  0.11048493681E+04  0.00000000000E+00 0. -1.
         25    2    1    2    0    0  0.49745477237E+02  0.83832098493E+02 -0.51258315796E+03  0.53655614229E+03  0.12509423152E+03 0.  0.
          5    1    3    3  502    0 -0.41719816812E+02  0.35147812086E+02 -0.18935472717E+03  0.19710047416E+03  0.41800000000E+01 0.  1.
         -5    1    3    3    0  502  0.91465294050E+02  0.48684286408E+02 -0.32322843079E+03  0.33945566814E+03  0.41800000000E+01 0.  1.
        -11    1    1    2    0    0  0.14889028845E+02  0.95227351013E+01 -0.10119592693E+03  0.10272770459E+03  0.00000000000E+00 0. -1.
         11    1    1    2    0    0 -0.64634506083E+02 -0.93354833595E+02 -0.47157931671E+03  0.48505648772E+03  0.00000000000E+00 0.  1.
</event>
<event>
 7    1  0.2766180E-009  0.1766494E+03  0.7561462E-02  0.1171086E+00
         -1   -1    0    0    0  501 -0.00000000000E+00  0.00000000000E+00  0.37704919968E+02  0.37704919968E+02  0.00000000000E+00 0.  1.
          1   -1    0    0  501    0  0.00000000000E+00 -0.00000000000E+00 -0.10221729498E+04  0.10221729498E+04  0.00000000000E+00 0. -1.
         25    2    1    2    0    0  0.77694508094E+02  0.12734511756E+03 -0.33783529775E+03  0.38991425864E+03  0.12508886893E+03 0.  0.
          5    1    3    3  502    0  0.16817114984E+02  0.12990360820E+03 -0.19948247498E+03  0.23868073446E+03  0.41800000000E+01 0.  1.
         -5    1    3    3    0  502  0.60877393110E+02 -0.25584906421E+01 -0.13835282277E+03  0.15123352418E+03  0.41800000000E+01 0.  1.
        -11    1    1    2    0    0  0.10423060975E+02 -0.17239055223E+02 -0.22957741620E+02  0.30543135486E+02  0.00000000000E+00 0.  1.
         11    1    1    2    0    0 -0.88117569069E+02 -0.11010606234E+03 -0.62367499043E+03  0.63942047561E+03  0.00000000000E+00 0. -1.
</event>
<event>
 7    1  0.2766180E-009  0.1041742E+03  0.7561462E-02  0.1271755E+00
          2   -1    0    0  501    0  0.00000000000E+00  0.00000000000E+00  0.35816633053E+03  0.35816633053E+03  0.00000000000E+00 0. -1.
         -2   -1    0    0    0  501 -0.00000000000E+00 -0.00000000000E+00 -0.38753852587E+02  0.38753852587E+02  0.00000000000E+00 0.  1.
         25    2    1    2    0    0 -0.92408797515E+01  0.27093175018E+02  0.26791020544E+03  0.29706379157E+03  0.12510629117E+03 0.  0.
          5    1    3    3  502    0  0.57688360889E+02  0.97557370909E+01  0.13486052613E+03  0.14706445967E+03  0.41800000000E+01 0.  1.
         -5    1    3    3    0  502 -0.66929240640E+02  0.17337437927E+02  0.13304967931E+03  0.14999933190E+03  0.41800000000E+01 0.  1.
        -11    1    1    2    0    0 -0.69629464059E+01 -0.51040307250E+02  0.48559596520E+02  0.70792866879E+02  0.00000000000E+00 0.  1.
         11    1    1    2    0    0  0.16203826157E+02  0.23947132232E+02  0.29426759794E+01  0.29063524669E+02  0.00000000000E+00 0. -1.
</event>
<event>
 7    1  0.2766180E-009  0.9260531E+02  0.7561462E-02  0.1296662E+00
          2   -1    0    0  501    0  0.00000000000E+00  0.00000000000E+00  0.82140351611E+03  0.82140351611E+03  0.00000000000E+00 0. -1.
         -2   -1    0    0    0  501 -0.00000000000E+00 -0.00000000000E+00 -0.18230185154E+02  0.18230185154E+02  0.00000000000E+00 0.  1.
         25    2    1    2    0    0 -0.74593922713E+01 -0.51682131823E+01  0.63608708558E+03  0.64833289504E+03  0.12508560825E+03 0.  0.
          5    1    3    3  502    0  0.42207226025E+02  0.26195975934E+02  0.13708468758E+03  0.14586762167E+03  0.41800000000E+01 0.  1.
         -5    1    3    3    0  502 -0.49666618296E+02 -0.31364189117E+02  0.49900239800E+03  0.50246527337E+03  0.41800000000E+01 0.  1.
        -11    1    1    2    0    0 -0.16443236126E+01  0.40220840688E+02  0.31940923221E+02  0.51387181300E+02  0.00000000000E+00 0.  1.
         11    1    1    2    0    0  0.91037158839E+01 -0.35052627506E+02  0.13514532216E+03  0.13991362492E+03  0.00000000000E+00 0. -1.
</event>
<event>
 7    1  0.2766180E-009  0.9796059E+02  0.7561462E-02  0.1284644E+00
          2   -1    0    0  501    0  0.00000000000E+00  0.00000000000E+00  0.52811547601E+03  0.52811547601E+03  0.00000000000E+00 0. -1.
         -2   -1    0    0    0  501 -0.00000000000E+00 -0.00000000000E+00 -0.22233780457E+02  0.22233780457E+02  0.00000000000E+00 0.  1.
         25    2    1    2    0    0 -0.29655703210E+00  0.27363164142E+02  0.28200526575E+03  0.30971395726E+03  0.12508770809E+03 0.  0.
          5    1    3    3  502    0  0.45489191040E+02  0.40083405005E+02  0.71346887084E+02  0.93721910751E+02  0.41800000000E+01 0.  1.
         -5    1    3    3    0  502 -0.45785748072E+02 -0.12720240863E+02  0.21065837867E+03  0.21599204651E+03  0.41800000000E+01 0.  1.
        -11    1    1    2    0    0 -0.36937408606E+02 -0.33309800843E+02  0.11118748028E+03  0.12180546276E+03  0.00000000000E+00 0. -1.
         11    1    1    2    0    0  0.37233965638E+02  0.59466367006E+01  0.11268894952E+03  0.11882983645E+03  0.00000000000E+00 0.  1.
</event>
<event>
 7    1  0.2766180E-009  0.1096641E+03  0.7561462E-02  0.1261193E+00
          2   -1    0    0  501    0  0.00000000000E+00  0.00000000000E+00  0.75538946345E+03  0.75538946345E+03  0.00000000000E+00 0. -1.
         -2   -1    0    0    0  501 -0.00000000000E+00 -0.00000000000E+00 -0.18032882620E+02  0.18032882620E+02  0.00000000000E+00 0.  1.
         25    2    1    2    0    0  0.11784570802E+02  0.33030841947E+02  0.44583641716E+03  0.46438376414E+03  0.12510898009E+03 0.  0.
          5    1    3    3  502    0 -0.25116491881E+02  0.66466373918E+02  0.33963842859E+03  0.34701635638E+03  0.41800000000E+01 0.  1.
         -5    1    3    3    0  502  0.36901062683E+02 -0.33435531970E+02  0.10619798858E+03  0.11736740775E+03  0.41800000000E+01 0.  1.
        -11    1    1    2    0    0  0.26786522054E+02 -0.49466884753E+02  0.12096276639E+03  0.13340345312E+03  0.00000000000E+00 0.  1.
         11    1    1    2    0    0 -0.38571092857E+02  0.16436042806E+02  0.17055739728E+03  0.17563512882E+03  0.00000000000E+00 0. -1.
</event>
<event>
 7    1  0.3130862E-009  0.1090773E+03  0.7561462E-02  0.1262288E+00
         -1   -1    0    0    0  501 -0.00000000000E+00  0.00000000000E+00  0.13608868342E+02  0.13608868342E+02  0.00000000000E+00 0.  1.
          1   -1    0    0  501    0  0.00000000000E+00 -0.00000000000E+00 -0.11740074321E+04  0.11740074321E+04  0.00000000000E+00 0. -1.
         25    2    1    2    0    0  0.30575511789E+02 -0.41520552795E+02 -0.82476960444E+03  0.83579400660E+03  0.12509157777E+03 0.  0.
          5    1    3    3  502    0  0.22283916111E+01 -0.83382265304E+02 -0.46096697903E+03  0.46847155308E+03  0.41800000000E+01 0.  1.
         -5    1    3    3    0  502  0.28347120178E+02  0.41861712509E+02 -0.36380262542E+03  0.36732245351E+03  0.41800000000E+01 0.  1.
        -11    1    1    2    0    0  0.18254208626E+02 -0.21746404274E+01 -0.12775769536E+02  0.22386725549E+02  0.00000000000E+00 0.  1.
         11    1    1    2    0    0 -0.48829720416E+02  0.43695193222E+02 -0.32285318982E+03  0.32943556834E+03  0.00000000000E+00 0. -1.
</event>
<event>
 7    1  0.2766180E-009  0.1767117E+03  0.7561462E-02  0.1171024E+00
          1   -1    0    0  501    0  0.00000000000E+00  0.00000000000E+00  0.39768405062E+04  0.39768405062E+04  0.00000000000E+00 0. -1.
         -1   -1    0    0    0  501 -0.00000000000E+00 -0.00000000000E+00 -0.15528066001E+02  0.15528066001E+02  0.00000000000E+00 0.  1.
         25    2    1    2    0    0  0.10965882924E+03  0.10397274594E+03  0.33632646969E+04  0.33689809170E+04  0.12509039528E+03 0.  0.
          5    1    3    3  502    0  0.97112754288E+02  0.25525895926E+02  0.25112885092E+04  0.25132986109E+04  0.41800000000E+01 0. -1.
         -5    1    3    3    0  502  0.12546074949E+02  0.78446850013E+02  0.85197618769E+03  0.85568230616E+03  0.41800000000E+01 0. -1.
        -11    1    1    2    0    0 -0.20134746014E+02 -0.77415695451E+02  0.32940173836E+03  0.33897507746E+03  0.00000000000E+00 0.  1.
         11    1    1    2    0    0 -0.89524083223E+02 -0.26557050488E+02  0.26864600487E+03  0.28441257767E+03  0.00000000000E+00 0. -1.
</event>
<event>
 7    1  0.2766180E-009  0.7928360E+02  0.7561462E-02  0.1331097E+00
         -2   -1    0    0    0  501 -0.00000000000E+00  0.00000000000E+00  0.39335715220E+02  0.39335715220E+02  0.00000000000E+00 0.  1.
          2   -1    0    0  501    0  0.00000000000E+00 -0.00000000000E+00 -0.45197118018E+03  0.45197118018E+03  0.00000000000E+00 0. -1.
         25    2    1    2    0    0  0.55929666473E+02  0.38477032883E+02 -0.26446025753E+03  0.30032427112E+03  0.12508729098E+03 0.  0.
          5    1    3    3  502    0  0.82979734359E+01  0.41501125277E+02 -0.24491586020E+03  0.24858087364E+03  0.41800000000E+01 0. -1.
         -5    1    3    3    0  502  0.47631693037E+02 -0.30240923940E+01 -0.19544397329E+02  0.51743397486E+02  0.41800000000E+01 0. -1.
        -11    1    1    2    0    0 -0.39964060914E+02 -0.24266177835E+02 -0.15990602564E+03  0.16660105218E+03  0.00000000000E+00 0. -1.
         11    1    1    2    0    0 -0.15965605559E+02 -0.14210855048E+02  0.11730818207E+02  0.24381572096E+02  0.00000000000E+00 0.  1.
</event>
<event>
 7    1  0.2766180E-009  0.1166899E+03  0.7561462E-02  0.1248660E+00
         -1   -1    0    0    0  501 -0.00000000000E+00  0.00000000000E+00  0.13399060142E+02  0.13399060142E+02  0.00000000000E+00 0.  1.
          1   -1    0    0  501    0  0.00000000000E+00 -0.00000000000E+00 -0.12098550718E+04  0.12098550718E+04  0.00000000000E+00 0. -1.
         25    2    1    2    0    0 -0.31739893963E+01 -0.55748731417E+02 -0.85417398363E+03  0.86508916865E+03  0.12509228649E+03 0.  0.
          5    1    3    3  502    0 -0.42408943318E+02  0.17386336255E+02 -0.45719467207E+03  0.45950543385E+03  0.41800000000E+01 0.  1.
         -5    1    3    3    0  502  0.39234953921E+02 -0.73135067672E+02 -0.39697931155E+03  0.40558373480E+03  0.41800000000E+01 0.  1.
        -11    1    1    2    0    0 -0.91066490873E+01 -0.22904764908E+02 -0.59813412231E+02  0.64693149528E+02  0.00000000000E+00 0.  1.
         11    1    1    2    0    0  0.12280638484E+02  0.78653496325E+02 -0.28246861582E+03  0.29347181379E+03  0.00000000000E+00 0. -1.
</event>
<event>
 7    1  0.2766180E-009  0.8522491E+02  0.7561462E-02  0.1314845E+00
          1   -1    0    0  501    0  0.00000000000E+00  0.00000000000E+00  0.15251032219E+03  0.15251032219E+03  0.00000000000E+00 0. -1.
         -1   -1    0    0    0  501 -0.00000000000E+00 -0.00000000000E+00 -0.11231688179E+03  0.11231688179E+03  0.00000000000E+00 0.  1.
         25    2    1    2    0    0 -0.46335417089E+01  0.23694371842E+01  0.30159667928E+02  0.12878702968E+03  0.12509759991E+03 0.  0.
          5    1    3    3  502    0  0.41525666559E+02 -0.16883068178E+02 -0.27177100581E+02  0.52587889959E+02  0.41800000000E+01 0. -1.
         -5    1    3    3    0  502 -0.46159208268E+02  0.19252505363E+02  0.57336768509E+02  0.76199139718E+02  0.41800000000E+01 0. -1.
        -11    1    1    2    0    0  0.39056433922E+02  0.67389749026E+01 -0.51476720155E+02  0.64966695555E+02  0.00000000000E+00 0.  1.
         11    1    1    2    0    0 -0.34422892213E+02 -0.91084120868E+01  0.61510492625E+02  0.71073478753E+02  0.00000000000E+00 0. -1.
</event>
<event>
 7    1  0.2766180E-009  0.1162019E+03  0.7561462E-02  0.1249497E+00
         -1   -1    0    0    0  501 -0.00000000000E+00  0.00000000000E+00  0.75606010673E+01  0.75606010673E+01  0.00000000000E+00 0.  1.
          1   -1    0    0  501    0  0.00000000000E+00 -0.00000000000E+00 -0.26200805750E+04  0.26200805750E+04  0.00000000000E+00 0. -1.
         25    2    1    2    0    0 -0.47644965708E+02  0.11597791926E+02 -0.21237608370E+04  0.21280065198E+04  0.12508838373E+03 0.  0.
          5    1    3    3  502    0 -0.89508522278E+02  0.46527647392E+01 -0.12576954139E+04  0.12608920058E+04  0.41800000000E+01 0.  1.
         -5    1    3    3    0  502  0.41863556569E+02  0.69450271865E+01 -0.86606542311E+03  0.86711451394E+03  0.41800000000E+01 0.  1.
        -11    1    1    2    0    0 -0.14036870429E+02 -0.32100969902E+02 -0.11339460009E+03  0.11868378714E+03  0.00000000000E+00 0.  1.
         11    1    1    2    0    0  0.61681836138E+02  0.20503177976E+02 -0.37536453684E+03  0.38095086919E+03  0.00000000000E+00 0. -1.
</event>
<event>
 7    1  0.2766180E-009  0.1336701E+03  0.7561462E-02  0.1222109E+00
         -2   -1    0    0    0  501 -0.00000000000E+00  0.00000000000E+00  0.32084364337E+02  0.32084364337E+02  0.00000000000E+00 0.  1.
          2   -1    0    0  501    0  0.00000000000E+00 -0.00000000000E+00 -0.76346516122E+03  0.76346516122E+03  0.00000000000E+00 0. -1.
         25    2    1    2    0    0 -0.86664076975E+02  0.12817953610E+02 -0.21474843168E+03  0.26351200111E+03  0.12508686441E+03 0.  0.
          5    1    3    3  502    0  0.17001800248E+02 -0.28694351955E+02 -0.20378233741E+02  0.39308674058E+02  0.41800000000E+01 0.  1.
         -5    1    3    3    0  502 -0.10366587722E+03  0.41512305566E+02 -0.19437019794E+03  0.22420332705E+03  0.41800000000E+01 0.  1.
        -11    1    1    2    0    0  0.96313411584E+02 -0.31181384971E+02 -0.47316853482E+03  0.48387706534E+03  0.00000000000E+00 0. -1.
         11    1    1    2    0    0 -0.96493346090E+01  0.18363431361E+02 -0.43463830392E+02  0.48160459114E+02  0.00000000000E+00 0.  1.
</event>
<event>
 7    1  0.2766180E-009  0.1146031E+03  0.7561462E-02  0.1252276E+00
         -1   -1    0    0    0  501 -0.00000000000E+00  0.00000000000E+00  0.85971839838E+02  0.85971839838E+02  0.00000000000E+00 0.  1.
          1   -1    0    0  501    0  0.00000000000E+00 -0.00000000000E+00 -0.18050053761E+03  0.18050053761E+03  0.00000000000E+00 0. -1.
         25    2    1    2    0    0 -0.81552286073E+01  0.97402535087E+01 -0.19331808368E+02  0.12720990584E+03  0.12508901245E+03 0.  0.
          5    1    3    3  502    0  0.21409373202E+01  0.65187430173E+02  0.52113457028E+01  0.65563825310E+02  0.41800000000E+01 0.  1.
         -5    1    3    3    0  502 -0.10296165928E+02 -0.55447176665E+02 -0.24543154071E+02  0.61646080529E+02  0.41800000000E+01 0.  1.
        -11    1    1    2    0    0 -0.38005433029E+02 -0.37535863892E+02 -0.94333149318E+01  0.54243353956E+02  0.00000000000E+00 0.  1.
         11    1    1    2    0    0  0.46160661636E+02  0.27795610383E+02 -0.65763574475E+02  0.85019117656E+02  0.00000000000E+00 0. -1.
</event>
<event>
 7    1  0.2766180E-009  0.1819420E+03  0.7561462E-02  0.1165937E+00
          2   -1    0    0  501    0  0.00000000000E+00  0.00000000000E+00  0.26871086789E+03  0.26871086789E+03  0.00000000000E+00 0.  1.
         -2   -1    0    0    0  501 -0.00000000000E+00 -0.00000000000E+00 -0.12569669889E+03  0.12569669889E+03  0.00000000000E+00 0. -1.
         25    2    1    2    0    0  0.13549663746E+03  0.58020883288E+02  0.79477432735E+02  0.20902165705E+03  0.12509048381E+03 0.  0.
          5    1    3    3  502    0  0.27616670213E+02 -0.36737090416E+02  0.37217806766E+02  0.59286860486E+02  0.41800000000E+01 0.  1.
         -5    1    3    3    0  502  0.10787996725E+03  0.94757973704E+02  0.42259625969E+02  0.14973479656E+03  0.41800000000E+01 0.  1.
        -11    1    1    2    0    0  0.74850357326E+00 -0.36078373554E+02  0.11037690955E+02  0.37736453430E+02  0.00000000000E+00 0.  1.
         11    1    1    2    0    0 -0.13624514104E+03 -0.21942509734E+02  0.52499045306E+02  0.14764945631E+03  0.00000000000E+00 0. -1.
</event>
<event>
 7    1  0.2766180E-009  0.1474900E+03  0.7561462E-02  0.1203592E+00
         -1   -1    0    0    0  501 -0.00000000000E+00  0.00000000000E+00  0.26249517229E+02  0.26249517229E+02  0.00000000000E+00 0.  1.
          1   -1    0    0  501    0  0.00000000000E+00 -0.00000000000E+00 -0.98500990788E+03  0.98500990788E+03  0.00000000000E+00 0. -1.
         25    2    1    2    0    0 -0.10130854121E+03 -0.17204631461E+02 -0.70001144128E+03  0.71848483216E+03  0.12508003941E+03 0.  0.
          5    1    3    3  502    0  0.28277044415E+02  0.20003869162E+00 -0.83809413626E+02  0.88550107107E+02  0.41800000000E+01 0.  1.
         -5    1    3    3    0  502 -0.12958558563E+03 -0.17404670152E+02 -0.61620202765E+03  0.62993472505E+03  0.41800000000E+01 0.  1.
        -11    1    1    2    0    0  0.67720648595E+02  0.53369362114E+02 -0.14365864643E+03  0.16754755072E+03  0.00000000000E+00 0.  1.
         11    1    1    2    0    0  0.33587892617E+02 -0.36164730654E+02 -0.11509030294E+03  0.12522704222E+03  0.00000000000E+00 0. -1.
</event>
<event>
 7    1  0.2766180E-009  0.2223687E+03  0.7561462E-02  0.1132129E+00
         -1   -1    0    0    0  501 -0.00000000000E+00  0.00000000000E+00  0.58109141114E+02  0.58109141114E+02  0.00000000000E+00 0.  1.
          1   -1    0    0  501    0  0.00000000000E+00 -0.00000000000E+00 -0.92694438577E+03  0.92694438577E+03  0.00000000000E+00 0. -1.
         25    2    1    2    0    0  0.19759180139E+03 -0.12732092294E+02 -0.55899617975E+03  0.60607662887E+03  0.12509006729E+03 0.  0.
          5    1    3    3  502    0 -0.15772978643E+02  0.85395213974E+01 -0.29250594306E+02  0.34565589077E+02  0.41800000000E+01 0.  1.
         -5    1    3    3    0  502  0.21336478003E+03 -0.21271613691E+02 -0.52974558545E+03  0.57151103979E+03  0.41800000000E+01 0.  1.
        -11    1    1    2    0    0 -0.17849491026E+03  0.35655670010E+02 -0.22722797862E+03  0.29114311612E+03  0.00000000000E+00 0.  1.
         11    1    1    2    0    0 -0.19096891127E+02 -0.22923577716E+02 -0.82611086278E+02  0.87833781895E+02  0.00000000000E+00 0. -1.
</event>
<event>
 7    1  0.2766180E-009  0.1068461E+03  0.7561462E-02  0.1266524E+00
          1   -1    0    0  501    0  0.00000000000E+00  0.00000000000E+00  0.92057740246E+02  0.92057740246E+02  0.00000000000E+00 0. -1.
         -1   -1    0    0    0  501 -0.00000000000E+00 -0.00000000000E+00 -0.15028477077E+03  0.15028477077E+03  0.00000000000E+00 0.  1.
         25    2    1    2    0    0  0.12359209758E+02  0.37748873098E+02 -0.58111556030E+02  0.14353236047E+03  0.12508740173E+03 0.  0.
          5    1    3    3  502    0 -0.55207338262E+02  0.48227086927E+01 -0.30165589198E+02  0.63234040586E+02  0.41800000000E+01 0. -1.
         -5    1    3    3    0  502  0.67566548020E+02  0.32926164405E+02 -0.27945966831E+02  0.80298319882E+02  0.41800000000E+01 0. -1.
        -11    1    1    2    0    0  0.30688181580E+02 -0.16037450016E+02 -0.26726559314E+02  0.43740979235E+02  0.00000000000E+00 0.  1.
         11    1    1    2    0    0 -0.43047391338E+02 -0.21711423082E+02  0.26611084823E+02  0.55069171309E+02  0.00000000000E+00 0. -1.
</event>
<event>
 7    1  0.2766180E-009  0.3022711E+03  0.7561462E-02  0.1084111E+00
         -2   -1    0    0    0  501 -0.00000000000E+00  0.00000000000E+00  0.23272395160E+03  0.23272395160E+03  0.00000000000E+00 0.  1.
          2   -1    0    0  501    0  0.00000000000E+00 -0.00000000000E+00 -0.43502125892E+03  0.43502125892E+03  0.00000000000E+00 0. -1.
         25    2    1    2    0    0 -0.21488885418E+01 -0.28442990468E+03 -0.50496772633E+01  0.31076902851E+03  0.12508757508E+03 0.  0.
          5    1    3    3  502    0  0.53577456202E+02 -0.18931292261E+03 -0.25924583232E+02  0.19849302984E+03  0.41800000000E+01 0. -1.
         -5    1    3    3    0  502 -0.55726344744E+02 -0.95116982068E+02  0.20874905969E+02  0.11227599866E+03  0.41800000000E+01 0. -1.
        -11    1    1    2    0    0 -0.41446119561E+02  0.16996472259E+03 -0.12058641116E+03  0.21247792899E+03  0.00000000000E+00 0. -1.
         11    1    1    2    0    0  0.43595008103E+02  0.11446518209E+03 -0.76661218905E+02  0.14449825302E+03  0.00000000000E+00 0.  1.
</event>
<event>
 7    1  0.2766180E-009  0.4383856E+03  0.7561462E-02  0.1031243E+00
         -1   -1    0    0    0  501 -0.00000000000E+00  0.00000000000E+00  0.30401167598E+03  0.30401167598E+03  0.00000000000E+00 0.  1.
          1   -1    0    0  501    0  0.00000000000E+00 -0.00000000000E+00 -0.79132722746E+03  0.79132722746E+03  0.00000000000E+00 0. -1.
         25    2    1    2    0    0 -0.10458803499E+03 -0.41645838660E+03 -0.10641356942E+02  0.44736567566E+03  0.12508622803E+03 0.  0.
          5    1    3    3  502    0 -0.74764753188E+02 -0.39241273928E+03 -0.36189590218E+02  0.40112926234E+03  0.41800000000E+01 0.  1.
         -5    1    3    3    0  502 -0.29823281803E+02 -0.24045647326E+02  0.25548233277E+02  0.46236413316E+02  0.41800000000E+01 0.  1.
        -11    1    1    2    0    0 -0.13146469964E+02  0.10416981414E+03 -0.10627003574E+03  0.14939042923E+03  0.00000000000E+00 0. -1.
         11    1    1    2    0    0  0.11773450495E+03  0.31228857246E+03 -0.37040415881E+03  0.49858279855E+03  0.00000000000E+00 0.  1.
</event>
<event>
 7    1  0.3374988E-009  0.2129344E+03  0.7561462E-02  0.1139263E+00
          1   -1    0    0  501    0  0.00000000000E+00  0.00000000000E+00  0.22040084967E+04  0.22040084967E+04  0.00000000000E+00 0. -1.
         -1   -1    0    0    0  501 -0.00000000000E+00 -0.00000000000E+00 -0.23298831747E+02  0.23298831747E+02  0.00000000000E+00 0.  1.
         25    2    1    2    0    0  0.10151563819E+03  0.17037080440E+03  0.11008715653E+04  0.11255654228E+04  0.12509069532E+03 0.  0.
          5    1    3    3  502    0  0.42265616760E+02  0.13979428072E+03  0.49759168458E+03  0.51859789842E+03  0.41800000000E+01 0.  1.
         -5    1    3    3    0  502  0.59250021429E+02  0.30576523675E+02  0.60327988071E+03  0.60696752442E+03  0.41800000000E+01 0.  1.
        -11    1    1    2    0    0 -0.54788866062E+02 -0.24924416433E+02  0.20455457237E+03  0.21322668561E+03  0.00000000000E+00 0.  1.
         11    1    1    2    0    0 -0.46726772128E+02 -0.14544638796E+03  0.87528352734E+03  0.88851522004E+03  0.00000000000E+00 0. -1.
</event>
<event>
 7    1  0.2766180E-009  0.1025991E+03  0.7561462E-02  0.1274923E+00
          2   -1    0    0  501    0  0.00000000000E+00  0.00000000000E+00  0.25898454549E+03  0.25898454549E+03  0.00000000000E+00 0. -1.
         -2   -1    0    0    0  501 -0.00000000000E+00 -0.00000000000E+00 -0.71612808166E+02  0.71612808166E+02  0.00000000000E+00 0.  1.
         25    2    1    2    0    0 -0.48715224012E+01  0.82500048125E+02  0.11910054808E+03  0.19147633845E+03  0.12509299725E+03 0.  0.
          5    1    3    3  502    0  0.36082291745E+01  0.81244071604E+02  0.14365777055E+03  0.16513220742E+03  0.41800000000E+01 0.  1.
         -5    1    3    3    0  502 -0.84797515757E+01  0.12559765210E+01 -0.24557222472E+02  0.26344131023E+02  0.41800000000E+01 0.  1.
        -11    1    1    2    0    0  0.34149367572E+02 -0.93022960662E+01  0.44337702235E+02  0.56732211813E+02  0.00000000000E+00 0. -1.
         11    1    1    2    0    0 -0.29277845171E+02 -0.73197752059E+02  0.23933487007E+02  0.82388803394E+02  0.00000000000E+00 0.  1.
</event>
<event>
 7    1  0.2766180E-009  0.1744575E+03  0.7561462E-02  0.1173278E+00
         -3   -1    0    0    0  501 -0.00000000000E+00  0.00000000000E+00  0.20386355684E+04  0.20386355684E+04  0.00000000000E+00 0.  1.
          3   -1    0    0  501    0  0.00000000000E+00 -0.00000000000E+00 -0.20118427410E+02  0.20118427410E+02  0.00000000000E+00 0. -1.
         25    2    1    2    0    0  0.39231090376E+02  0.13732033784E+03  0.15450627349E+04  0.15566829621E+04  0.12508811353E+03 0.  0.
          5    1    3    3  502    0 -0.21166705761E+01  0.14370826231E+03  0.10432629575E+04  0.10531246914E+04  0.41800000000E+01 0.  1.
         -5    1    3    3    0  502  0.41347760952E+02 -0.63879244695E+01  0.50179977747E+03  0.50355827070E+03  0.41800000000E+01 0.  1.
        -11    1    1    2    0    0  0.24327135730E+02 -0.41351755951E+02  0.19387672120E+03  0.19972471123E+03  0.00000000000E+00 0.  1.
         11    1    1    2    0    0 -0.63558226106E+02 -0.95968581891E+02  0.27957768490E+03  0.30234632246E+03  0.00000000000E+00 0. -1.
</event>
<event>
 7    1  0.2766180E-009  0.1019150E+03  0.7561462E-02  0.1276320E+00
         -1   -1    0    0    0  501 -0.00000000000E+00  0.00000000000E+00  0.27960613091E+03  0.27960613091E+03  0.00000000000E+00 0.  1.
          1   -1    0    0  501    0  0.00000000000E+00 -0.00000000000E+00 -0.60218714396E+02  0.60218714396E+02  0.00000000000E+00 0. -1.
         25    2    1    2    0    0 -0.13219588173E+02  0.57370299519E+02  0.18282980635E+03  0.22921869003E+03  0.12509340907E+03 0.  0.
          5    1    3    3  502    0 -0.58665003950E+02 -0.49733880800E+01  0.98632081622E+02  0.11494380019E+03  0.41800000000E+01 0.  1.
         -5    1    3    3    0  502  0.45445415778E+02  0.62343687599E+02  0.84197724730E+02  0.11427488984E+03  0.41800000000E+01 0.  1.
        -11    1    1    2    0    0  0.24407230322E+02 -0.37582409832E+02 -0.20431819613E+02  0.49250478916E+02  0.00000000000E+00 0. -1.
         11    1    1    2    0    0 -0.11187642149E+02 -0.19787889687E+02  0.56989429771E+02  0.61355676353E+02  0.00000000000E+00 0.  1.
</event>
<event>
 7    1  0.2766180E-009  0.1506229E+03  0.7561462E-02  0.1199710E+00
          1   -1    0    0  501    0  0.00000000000E+00  0.00000000000E+00  0.84453668244E+03  0.84453668244E+03  0.00000000000E+00 0. -1.
         -1   -1    0    0    0  501 -0.00000000000E+00 -0.00000000000E+00 -0.34808199891E+02  0.34808199891E+02  0.00000000000E+00 0.  1.
         25    2    1    2    0    0  0.10429663159E+03  0.56355083868E+02  0.58396882072E+03  0.60886842590E+03  0.12508994224E+03 0.  0.
          5    1    3    3  502    0  0.80010850247E+02  0.93416508723E+02  0.48468509087E+03  0.50006548568E+03  0.41800000000E+01 0.  1.
         -5    1    3    3    0  502  0.24285781342E+02 -0.37061424856E+02  0.99283729849E+02  0.10880294022E+03  0.41800000000E+01 0.  1.
        -11    1    1    2    0    0 -0.35770108309E+02  0.11161702257E+02  0.12779716766E+03  0.13317732655E+03  0.00000000000E+00 0. -1.
         11    1    1    2    0    0 -0.68526523280E+02 -0.67516786124E+02  0.97962494177E+02  0.13729912988E+03  0.00000000000E+00 0.  1.
</event>
<event>
 7    1  0.2766180E-009  0.1888177E+03  0.7561462E-02  0.1159532E+00
          1   -1    0    0  501    0  0.00000000000E+00  0.00000000000E+00  0.69279148803E+03  0.69279148803E+03  0.00000000000E+00 0. -1.
         -1   -1    0    0    0  501 -0.00000000000E+00 -0.00000000000E+00 -0.10815810318E+03  0.10815810318E+03  0.00000000000E+00 0.  1.
         25    2    1    2    0    0  0.11529447579E+02  0.17293522567E+03  0.55453431422E+03  0.59430586187E+03  0.12510648011E+03 0.  0.
          5    1    3    3  502    0 -0.28246536379E+02  0.15960972522E+03  0.35369175524E+03  0.38908670156E+03  0.41800000000E+01 0. -1.
         -5    1    3    3    0  502  0.39775983958E+02  0.13325500448E+02  0.20084255898E+03  0.20521916031E+03  0.41800000000E+01 0. -1.
        -11    1    1    2    0    0 -0.28789361071E+01 -0.59981009393E+02  0.64621485627E+02  0.88215339741E+02  0.00000000000E+00 0. -1.
         11    1    1    2    0    0 -0.86505114719E+01 -0.11295421628E+03 -0.34522414996E+02  0.11842838959E+03  0.00000000000E+00 0.  1.
</event>
<event>
 7    1  0.2766180E-009  0.1180570E+03  0.7561462E-02  0.1246337E+00
         -2   -1    0    0    0  501 -0.00000000000E+00  0.00000000000E+00  0.19161882818E+02  0.19161882818E+02  0.00000000000E+00 0.  1.
          2   -1    0    0  501    0  0.00000000000E+00 -0.00000000000E+00 -0.13492628850E+04  0.13492628850E+04  0.00000000000E+00 0. -1.
         25    2    1    2    0    0  0.46099210387E+02  0.28523732192E+02 -0.11606695312E+04  0.11686487027E+04  0.12508912497E+03 0.  0.
          5    1    3    3  502    0  0.87138485084E+02  0.23931279442E+02 -0.91891536482E+03  0.92335732077E+03  0.41800000000E+01 0.  1.
         -5    1    3    3    0  502 -0.41039274698E+02  0.45924527502E+01 -0.24175416634E+03  0.24529138189E+03  0.41800000000E+01 0.  1.
        -11    1    1    2    0    0 -0.24735094081E+02 -0.60686754088E+02 -0.12316299028E+03  0.13951282800E+03  0.00000000000E+00 0. -1.
         11    1    1    2    0    0 -0.21364116306E+02  0.32163021896E+02 -0.46268480776E+02  0.60263237187E+02  0.00000000000E+00 0.  1.
</event>
<event>
 7    1  0.2766180E-009  0.2234466E+03  0.7561462E-02  0.1131339E+00
         -1   -1    0    0    0  501 -0.00000000000E+00  0.00000000000E+00  0.16078921676E+03  0.16078921676E+03  0.00000000000E+00 0.  1.
          1   -1    0    0  501    0  0.00000000000E+00 -0.00000000000E+00 -0.33890460920E+03  0.33890460920E+03  0.00000000000E+00 0. -1.
         25    2    1    2    0    0 -0.13318158699E+03 -0.15761924294E+03 -0.92826339618E+02  0.25854254675E+03  0.12508540401E+03 0.  0.
          5    1    3    3  502    0  0.11124653607E+02 -0.59509804879E+02 -0.50466943842E+02  0.78927559289E+02  0.41800000000E+01 0.  1.
         -5    1    3    3    0  502 -0.14430624059E+03 -0.98109438059E+02 -0.42359395776E+02  0.17961498746E+03  0.41800000000E+01 0.  1.
        -11    1    1    2    0    0  0.12411638713E+03  0.11884571452E+03 -0.99860958059E+02  0.19874957198E+03  0.00000000000E+00 0. -1.
         11    1    1    2    0    0  0.90651998507E+01  0.38773528415E+02  0.14571905234E+02  0.42401707233E+02  0.00000000000E+00 0.  1.
</event>
<event>
 7    1  0.2766180E-009  0.1196641E+03  0.7561462E-02  0.1243652E+00
          2   -1    0    0  501    0  0.00000000000E+00  0.00000000000E+00  0.10451914984E+03  0.10451914984E+03  0.00000000000E+00 0.  1.
         -2   -1    0    0    0  501 -0.00000000000E+00 -0.00000000000E+00 -0.14791250116E+03  0.14791250116E+03  0.00000000000E+00 0. -1.
         25    2    1    2    0    0  0.21656667825E+02  0.50979506002E+02 -0.10911252888E+02  0.13724139790E+03  0.12509286376E+03 0.  0.
          5    1    3    3  502    0 -0.67440823608E+01  0.86065965064E+02 -0.24640094127E+02  0.89874577205E+02  0.41800000000E+01 0.  1.
         -5    1    3    3    0  502  0.28400750186E+02 -0.35086459061E+02  0.13728841239E+02  0.47366820691E+02  0.41800000000E+01 0.  1.
        -11    1    1    2    0    0 -0.57988724470E+02 -0.36069520964E+02 -0.33150352552E+02  0.75912109591E+02  0.00000000000E+00 0. -1.
         11    1    1    2    0    0  0.36332056644E+02 -0.14909985038E+02  0.66825412448E+00  0.39278143508E+02  0.00000000000E+00 0.  1.
</event>
<event>
 7    1  0.2766180E-009  0.1346557E+03  0.7561462E-02  0.1220707E+00
         -1   -1    0    0    0  501 -0.00000000000E+00  0.00000000000E+00  0.26679895222E+02  0.26679895222E+02  0.00000000000E+00 0.  1.
          1   -1    0    0  501    0  0.00000000000E+00 -0.00000000000E+00 -0.86716995621E+03  0.86716995621E+03  0.00000000000E+00 0. -1.
         25    2    1    2    0    0 -0.19907958100E+02  0.11155921392E+03 -0.49650291139E+03  0.52440889082E+03  0.12509100184E+03 0.  0.
          5    1    3    3  502    0  0.24167365333E+02  0.82927034008E+01 -0.14896419339E+02  0.29869820655E+02  0.41800000000E+01 0.  1.
         -5    1    3    3    0  502 -0.44075323433E+02  0.10326651052E+03 -0.48160649205E+03  0.49453907016E+03  0.41800000000E+01 0.  1.
        -11    1    1    2    0    0  0.32402178812E+01 -0.11415025982E+03 -0.26310766696E+03  0.28682124267E+03  0.00000000000E+00 0. -1.
         11    1    1    2    0    0  0.16667740219E+02  0.25910458964E+01 -0.80879482635E+02  0.82619717950E+02  0.00000000000E+00 0.  1.
</event>
<event>
 7    1  0.2766180E-009  0.5974845E+02  0.7561462E-02  0.1398890E+00
         -1   -1    0    0    0  501 -0.00000000000E+00  0.00000000000E+00  0.83202645095E+02  0.83202645095E+02  0.00000000000E+00 0.  1.
          1   -1    0    0  501    0  0.00000000000E+00 -0.00000000000E+00 -0.15051558493E+03  0.15051558493E+03  0.00000000000E+00 0. -1.
         25    2    1    2    0    0 -0.15618646813E+01 -0.19957206397E+02 -0.19155007037E+02  0.12811402083E+03  0.12508220709E+03 0.  0.
          5    1    3    3  502    0 -0.17459231627E+02  0.28100963064E+01 -0.68755476032E+02  0.71116167604E+02  0.41800000000E+01 0. -1.
         -5    1    3    3    0  502  0.15897366946E+02 -0.22767302703E+02  0.49600468995E+02  0.56997853229E+02  0.41800000000E+01 0. -1.
        -11    1    1    2    0    0 -0.31097319489E+02 -0.58212169213E+01  0.10811656993E+02  0.33433841729E+02  0.00000000000E+00 0.  1.
         11    1    1    2    0    0  0.32659184170E+02  0.25778423318E+02 -0.58969589788E+02  0.72170367459E+02  0.00000000000E+00 0. -1.
</event>
<event>
 7    1  0.2766180E-009  0.1578673E+03  0.7561462E-02  0.1191126E+00
         -3   -1    0    0    0  501 -0.00000000000E+00  0.00000000000E+00  0.18083398978E+03  0.18083398978E+03  0.00000000000E+00 0.  1.
          3   -1    0    0  501    0  0.00000000000E+00 -0.00000000000E+00 -0.16896012802E+03  0.16896012802E+03  0.00000000000E+00 0. -1.
         25    2    1    2    0    0  0.41380696990E+01  0.13030119311E+03 -0.35930648452E+02  0.18421199841E+03  0.12509006481E+03 0.  0.
          5    1    3    3  502    0 -0.59894573246E+02  0.63308380041E+02 -0.25255512895E+02  0.90832946772E+02  0.41800000000E+01 0.  1.
         -5    1    3    3    0  502  0.64032642945E+02  0.66992813068E+02 -0.10675135557E+02  0.93379051636E+02  0.41800000000E+01 0.  1.
        -11    1    1    2    0    0 -0.15031012300E+02 -0.20734466950E+02 -0.23208758025E+02  0.34561479996E+02  0.00000000000E+00 0. -1.
         11    1    1    2    0    0  0.10892942601E+02 -0.10956672616E+03  0.71013268239E+02  0.13102063939E+03  0.00000000000E+00 0.  1.
</event>
<event>
 7    1  0.2766180E-009  0.1043652E+03  0.7561462E-02  0.1271375E+00
         -1   -1    0    0    0  501 -0.00000000000E+00  0.00000000000E+00  0.95097268980E+01  0.95097268980E+01  0.00000000000E+00 0.  1.
          1   -1    0    0  501    0  0.00000000000E+00 -0.00000000000E+00 -0.22607284399E+04  0.22607284399E+04  0.00000000000E+00 0. -1.
         25    2    1    2    0    0 -0.55453947418E+02 -0.25713985498E+02 -0.18172326747E+04  0.18225584866E+04  0.12509393981E+03 0.  0.
          5    1    3    3  502    0 -0.27841971769E+02 -0.53774102428E+02 -0.38303574522E+03  0.38781527046E+03  0.41800000000E+01 0. -1.
         -5    1    3    3    0  502 -0.27611975649E+02  0.28060116930E+02 -0.14341969294E+04  0.14347432161E+04  0.41800000000E+01 0. -1.
        -11    1    1    2    0    0 -0.12707724524E+02  0.37208989066E+02 -0.19360577403E+03  0.19755806961E+03  0.00000000000E+00 0. -1.
         11    1    1    2    0    0  0.68161671942E+02 -0.11495003568E+02 -0.24038026433E+03  0.25012161064E+03  0.00000000000E+00 0.  1.
</event>
<event>
 7    1  0.2766180E-009  0.2017016E+03  0.7561462E-02  0.1148311E+00
         -1   -1    0    0    0  501 -0.00000000000E+00  0.00000000000E+00  0.53733938755E+02  0.53733938755E+02  0.00000000000E+00 0.  1.
          1   -1    0    0  501    0  0.00000000000E+00 -0.00000000000E+00 -0.10135021760E+04  0.10135021760E+04  0.00000000000E+00 0. -1.
         25    2    1    2    0    0  0.84064500383E+02 -0.16986867568E+03 -0.70210313622E+03  0.73791537618E+03  0.12509229119E+03 0.  0.
          5    1    3    3  502    0  0.78208706288E+02 -0.91279155282E+02 -0.58134592897E+03  0.59365734852E+03  0.41800000000E+01 0. -1.
         -5    1    3    3    0  502  0.58557940949E+01 -0.78589520399E+02 -0.12075720726E+03  0.14425802766E+03  0.41800000000E+01 0. -1.
        -11    1    1    2    0    0 -0.81078597642E+02  0.78699981801E+02 -0.15757671544E+03  0.19390164357E+03  0.00000000000E+00 0.  1.
         11    1    1    2    0    0 -0.29859027405E+01  0.91168693880E+02 -0.10008838555E+03  0.13541909496E+03  0.00000000000E+00 0. -1.
</event>
<event>
 7    1  0.2766180E-009  0.2046478E+03  0.7561462E-02  0.1145876E+00
         -1   -1    0    0    0  501 -0.00000000000E+00  0.00000000000E+00  0.30159041969E+03  0.30159041969E+03  0.00000000000E+00 0.  1.
          1   -1    0    0  501    0  0.00000000000E+00 -0.00000000000E+00 -0.16681858619E+03  0.16681858619E+03  0.00000000000E+00 0. -1.
         25    2    1    2    0    0 -0.18939139606E+03 -0.44595842913E+02  0.47878585494E+02  0.23621568631E+03  0.12509037294E+03 0.  0.
          5    1    3    3  502    0 -0.78165652229E+02 -0.27643981515E+02  0.83877713036E+02  0.11801271985E+03  0.41800000000E+01 0.  1.
         -5    1    3    3    0  502 -0.11122574383E+03 -0.16951861398E+02 -0.35999127542E+02  0.11820296646E+03  0.41800000000E+01 0.  1.
        -11    1    1    2    0    0  0.12913119208E+03 -0.13691634206E+02  0.66585585171E+02  0.14593137349E+03  0.00000000000E+00 0.  1.
         11    1    1    2    0    0  0.60260203977E+02  0.58287477119E+02  0.20307662840E+02  0.86261946085E+02  0.00000000000E+00 0. -1.
</event>
<event>
 7    1  0.2766180E-009  0.7857837E+02  0.7561462E-02  0.1333135E+00
         -1   -1    0    0    0  501 -0.00000000000E+00  0.00000000000E+00  0.52803606446E+02  0.52803606446E+02  0.00000000000E+00 0.  1.
          1   -1    0    0  501    0  0.00000000000E+00 -0.00000000000E+00 -0.30606547072E+03  0.30606547072E+03  0.00000000000E+00 0. -1.
         25    2    1    2    0    0  0.29084593276E+02 -0.29637619078E+02 -0.69742728086E+02  0.14911559059E+03  0.12508840556E+03 0.  0.
          5    1    3    3  502    0  0.40600821123E+02 -0.32027922022E+02  0.22126143215E+02  0.56402598154E+02  0.41800000000E+01 0. -1.
         -5    1    3    3    0  502 -0.11516227848E+02  0.23903029435E+01 -0.91868871302E+02  0.92712992435E+02  0.41800000000E+01 0. -1.
        -11    1    1    2    0    0 -0.54871000615E+02  0.36753387439E+02 -0.84851830959E+02  0.10752428290E+03  0.00000000000E+00 0.  1.
         11    1    1    2    0    0  0.25786407340E+02 -0.71157683606E+01 -0.98667305229E+02  0.10222920367E+03  0.00000000000E+00 0. -1.
</event>
<event>
 7    1  0.2766180E-009  0.1430323E+03  0.7561462E-02  0.1209306E+00
         -2   -1    0    0    0  501 -0.00000000000E+00  0.00000000000E+00  0.22996149208E+02  0.22996149208E+02  0.00000000000E+00 0.  1.
          2   -1    0    0  501    0  0.00000000000E+00 -0.00000000000E+00 -0.12414750134E+04  0.12414750134E+04  0.00000000000E+00 0. -1.
         25    2    1    2    0    0 -0.84140369549E+02  0.95437622194E+02 -0.71572836524E+03  0.73763294299E+03  0.12508926516E+03 0.  0.
          5    1    3    3  502    0 -0.85730626711E+02  0.73646621771E+02 -0.28924724201E+03  0.31057206034E+03  0.41800000000E+01 0.  1.
         -5    1    3    3    0  502  0.15902571623E+01  0.21791000423E+02 -0.42648112323E+03  0.42706088265E+03  0.41800000000E+01 0.  1.
        -11    1    1    2    0    0 -0.73210153163E+01 -0.46341404130E+02 -0.93271956266E+02  0.10440680451E+03  0.00000000000E+00 0.  1.
         11    1    1    2    0    0  0.91461384865E+02 -0.49096218064E+02 -0.40947854269E+03  0.42243141511E+03  0.00000000000E+00 0. -1.
</event>
<event>
 7    1  0.2766180E-009  0.1478845E+03  0.7561462E-02  0.1203097E+00
         -1   -1    0    0    0  501 -0.00000000000E+00  0.00000000000E+00  0.86443113057E+02  0.86443113057E+02  0.00000000000E+00 0.  1.
          1   -1    0    0  501    0  0.00000000000E+00 -0.00000000000E+00 -0.44499602534E+03  0.44499602534E+03  0.00000000000E+00 0. -1.
         25    2    1    2    0    0 -0.10191073388E+03  0.93294578299E+02 -0.30662003664E+03  0.35882160581E+03  0.12508965546E+03 0.  0.
          5    1    3    3  502    0 -0.39955694646E+02  0.86197713311E+02 -0.27028423127E+03  0.28652668530E+03  0.41800000000E+01 0.  1.
         -5    1    3    3    0  502 -0.61955039235E+02  0.70968649881E+01 -0.36335805374E+02  0.72294920509E+02  0.41800000000E+01 0.  1.
        -11    1    1    2    0    0  0.14777888645E+02 -0.13054130495E+02  0.24649750863E+02  0.31565907771E+02  0.00000000000E+00 0.  1.
         11    1    1    2    0    0  0.87132845236E+02 -0.80240447804E+02 -0.76582626507E+02  0.14105162482E+03  0.00000000000E+00 0. -1.
</event>
<event>
 7    1  0.2766180E-009  0.8436893E+02  0.7561462E-02  0.1317091E+00
          2   -1    0    0  501    0  0.00000000000E+00  0.00000000000E+00  0.53237959446E+02  0.53237959446E+02  0.00000000000E+00 0. -1.
         -2   -1    0    0    0  501 -0.00000000000E+00 -0.00000000000E+00 -0.26194595955E+03  0.26194595955E+03  0.00000000000E+00 0.  1.
         25    2    1    2    0    0 -0.13143125730E+02  0.21315346594E+02 -0.66189314171E+02  0.14372163600E+03  0.12509115712E+03 0.  0.
          5    1    3    3  502    0 -0.36688026329E+02  0.32527794664E+02 -0.93543843704E+02  0.10569764329E+03  0.41800000000E+01 0.  1.
         -5    1    3    3    0  502  0.23544900599E+02 -0.11212448070E+02  0.27354529533E+02  0.38023992714E+02  0.41800000000E+01 0.  1.
        -11    1    1    2    0    0  0.89240769304E+01 -0.56742497211E+02 -0.10502631617E+03  0.11970746521E+03  0.00000000000E+00 0.  1.
         11    1    1    2    0    0  0.42190487992E+01  0.35427150617E+02 -0.37492369760E+02  0.51754817784E+02  0.00000000000E+00 0. -1.
</event>
<event>
 7    1  0.2766180E-009  0.1178365E+03  0.7561462E-02  0.1246709E+00
          1   -1    0    0  501    0  0.00000000000E+00  0.00000000000E+00  0.43977974840E+02  0.43977974840E+02  0.00000000000E+00 0. -1.
         -1   -1    0    0    0  501 -0.00000000000E+00 -0.00000000000E+00 -0.36186413002E+03  0.36186413002E+03  0.00000000000E+00 0.  1.
         25    2    1    2    0    0 -0.54344018099E+02  0.16739544584E+02 -0.21158677118E+03  0.25228912134E+03  0.12508938545E+03 0.  0.
          5    1    3    3  502    0  0.14547870306E+02  0.52254369918E+02 -0.54152623433E+02  0.76760267917E+02  0.41800000000E+01 0.  1.
         -5    1    3    3    0  502 -0.68891888405E+02 -0.35514825335E+02 -0.15743414775E+03  0.17552885342E+03  0.41800000000E+01 0.  1.
        -11    1    1    2    0    0  0.56296223505E+02  0.25190385170E+02 -0.88706064893E+02  0.10803974377E+03  0.00000000000E+00 0.  1.
         11    1    1    2    0    0 -0.19522054058E+01 -0.41929929754E+02 -0.17593319105E+02  0.45513239747E+02  0.00000000000E+00 0. -1.
</event>
<event>
 7    1  0.2766180E-009  0.9734332E+02  0.7561462E-02  0.1285984E+00
          2   -1    0    0  501    0  0.00000000000E+00  0.00000000000E+00  0.50151363813E+03  0.50151363813E+03  0.00000000000E+00 0. -1.
         -2   -1    0    0    0  501 -0.00000000000E+00 -0.00000000000E+00 -0.29997047262E+02  0.29997047262E+02  0.00000000000E+00 0.  1.
         25    2    1    2    0    0  0.64318481927E+01 -0.62152605440E+02  0.28659053577E+03  0.31888246967E+03  0.12509028433E+03 0.  0.
          5    1    3    3  502    0  0.37924735485E+02 -0.47808916295E+02  0.27564072518E+03  0.28234599310E+03  0.41800000000E+01 0.  1.
         -5    1    3    3    0  502 -0.31492887292E+02 -0.14343689145E+02  0.10949810587E+02  0.36536476570E+02  0.41800000000E+01 0.  1.
        -11    1    1    2    0    0 -0.41485338123E+02  0.36002704717E+02  0.65715620901E+02  0.85649114745E+02  0.00000000000E+00 0.  1.
         11    1    1    2    0    0  0.35053489930E+02  0.26149900723E+02  0.11921043420E+03  0.12697910098E+03  0.00000000000E+00 0. -1.
</event>
<event>
 7    1  0.2766180E-009  0.8625839E+02  0.7561462E-02  0.1312174E+00
          1   -1    0    0  501    0  0.00000000000E+00  0.00000000000E+00  0.51833038025E+03  0.51833038025E+03  0.00000000000E+00 0. -1.
         -1   -1    0    0    0  501 -0.00000000000E+00 -0.00000000000E+00 -0.28014331733E+02  0.28014331733E+02  0.00000000000E+00 0.  1.
         25    2    1    2    0    0  0.26429473473E+02 -0.28564550476E+02  0.34941631762E+03  0.37316417597E+03  0.12508112806E+03 0.  0.
          5    1    3    3  502    0 -0.28974388519E+02  0.17437578740E+02  0.29047885312E+02  0.44775399311E+02  0.41800000000E+01 0. -1.
         -5    1    3    3    0  502  0.55403861993E+02 -0.46002129216E+02  0.32036843230E+03  0.32838877666E+03  0.41800000000E+01 0. -1.
        -11    1    1    2    0    0 -0.42607524965E+02  0.14917186004E+02  0.18208800809E+02  0.48677346362E+02  0.00000000000E+00 0.  1.
         11    1    1    2    0    0  0.16178051492E+02  0.13647364471E+02  0.12269093009E+03  0.12450318965E+03  0.00000000000E+00 0. -1.
</event>
<event>
 7    1  0.2766180E-009  0.2052670E+03  0.7561462E-02  0.1145370E+00
          1   -1    0    0  501    0  0.00000000000E+00  0.00000000000E+00  0.61724561885E+02  0.61724561885E+02  0.00000000000E+00 0. -1.
         -1   -1    0    0    0  501 -0.00000000000E+00 -0.00000000000E+00 -0.96789436616E+03  0.96789436616E+03  0.00000000000E+00 0.  1.
         25    2    1    2    0    0 -0.30990204344E+02 -0.19383028584E+03 -0.26434455550E+03  0.35221582670E+03  0.12508945633E+03 0.  0.
          5    1    3    3  502    0 -0.19884711261E+02 -0.28422312621E+02  0.56178529995E+01  0.35387317912E+02  0.41800000000E+01 0.  1.
         -5    1    3    3    0  502 -0.11105493083E+02 -0.16540797322E+03 -0.26996240850E+03  0.31682850879E+03  0.41800000000E+01 0.  1.
        -11    1    1    2    0    0  0.51557392502E+02  0.88329186281E+02 -0.22876327448E+03  0.25058500678E+03  0.00000000000E+00 0. -1.
         11    1    1    2    0    0 -0.20567188158E+02  0.10550109956E+03 -0.41306197430E+03  0.42681809456E+03  0.00000000000E+00 0.  1.
</event>
<event>
 7    1  0.2766180E-009  0.1201414E+03  0.7561462E-02  0.1242864E+00
          1   -1    0    0  501    0  0.00000000000E+00  0.00000000000E+00  0.11636267169E+03  0.11636267169E+03  0.00000000000E+00 0. -1.
         -1   -1    0    0    0  501 -0.00000000000E+00 -0.00000000000E+00 -0.14939121482E+03  0.14939121482E+03  0.00000000000E+00 0.  1.
         25    2    1    2    0    0 -0.28727789257E+02 -0.59323924256E+02  0.15728235821E+02  0.14226505963E+03  0.12508939173E+03 0.  0.
          5    1    3    3  502    0  0.37246967262E+02  0.14732888506E+02  0.15049932287E+02  0.42992643973E+02  0.41800000000E+01 0.  1.
         -5    1    3    3    0  502 -0.65974756519E+02 -0.74056812763E+02  0.67830353429E+00  0.99272415655E+02  0.41800000000E+01 0.  1.
        -11    1    1    2    0    0  0.47951901697E+02  0.11665245981E+02 -0.52386589880E+02  0.71970949968E+02  0.00000000000E+00 0.  1.
         11    1    1    2    0    0 -0.19224112440E+02  0.47658678276E+02  0.36298109362E+01  0.51517876912E+02  0.00000000000E+00 0. -1.
</event>
<event>
 7    1  0.2766180E-009  0.1825961E+03  0.7561462E-02  0.1165314E+00
         -1   -1    0    0    0  501 -0.00000000000E+00  0.00000000000E+00  0.51436182434E+02  0.51436182434E+02  0.00000000000E+00 0.  1.
          1   -1    0    0  501    0  0.00000000000E+00 -0.00000000000E+00 -0.79283226323E+03  0.79283226323E+03  0.00000000000E+00 0. -1.
         25    2    1    2    0    0  0.14600422585E+03 -0.84852476289E+02 -0.34376829701E+03  0.40291646569E+03  0.12509140497E+03 0.  0.
          5    1    3    3  502    0  0.12856775045E+03 -0.87532439584E+02 -0.17907195800E+03  0.23722527896E+03  0.41800000000E+01 0.  1.
         -5    1    3    3    0  502  0.17436475400E+02  0.26799632947E+01 -0.16469633901E+03  0.16569118674E+03  0.41800000000E+01 0.  1.
        -11    1    1    2    0    0 -0.24876320769E+02  0.63862930450E+02 -0.14766309039E+03  0.16279340737E+03  0.00000000000E+00 0. -1.
         11    1    1    2    0    0 -0.12112790508E+03  0.20989545839E+02 -0.24996469339E+03  0.27855857260E+03  0.00000000000E+00 0.  1.
</event>
<event>
 7    1  0.2766180E-009  0.1180383E+03  0.7561462E-02  0.1246369E+00
         -4   -1    0    0    0  501 -0.00000000000E+00  0.00000000000E+00  0.24409051937E+03  0.24409051937E+03  0.00000000000E+00 0. -1.
          4   -1    0    0  501    0  0.00000000000E+00 -0.00000000000E+00 -0.94165664426E+02  0.94165664426E+02  0.00000000000E+00 0.  1.
         25    2    1    2    0    0 -0.67942481345E+02  0.38361771128E+02 -0.14089457642E+01  0.14745427747E+03  0.12511184021E+03 0.  0.
          5    1    3    3  502    0 -0.21873887237E+02 -0.38961525004E+02  0.27733480470E+02  0.52754959127E+02  0.41800000000E+01 0. -1.
         -5    1    3    3    0  502 -0.46068594108E+02  0.77323296132E+02 -0.29142426235E+02  0.94699318343E+02  0.41800000000E+01 0. -1.
        -11    1    1    2    0    0  0.45301537516E+02 -0.56262263225E+02  0.14387743170E+03  0.16099188463E+03  0.00000000000E+00 0. -1.
         11    1    1    2    0    0  0.22640943829E+02  0.17900492096E+02  0.74563690099E+01  0.29810021697E+02  0.00000000000E+00 0.  1.
</event>
<event>
 7    1  0.2766180E-009  0.2595790E+03  0.7561462E-02  0.1107396E+00
         -1   -1    0    0    0  501 -0.00000000000E+00  0.00000000000E+00  0.25387041231E+03  0.25387041231E+03  0.00000000000E+00 0.  1.
          1   -1    0    0  501    0  0.00000000000E+00 -0.00000000000E+00 -0.36635114464E+03  0.36635114464E+03  0.00000000000E+00 0. -1.
         25    2    1    2    0    0 -0.25160655926E+03  0.38213587488E+02  0.72694995569E+02  0.29274331086E+03  0.12509174530E+03 0.  0.
          5    1    3    3  502    0 -0.20721813742E+03  0.17039309350E+02  0.10578647505E+03  0.23331940606E+03  0.41800000000E+01 0. -1.
         -5    1    3    3    0  502 -0.44388421838E+02  0.21174278138E+02 -0.33091479482E+02  0.59423904805E+02  0.41800000000E+01 0. -1.
        -11    1    1    2    0    0  0.21928766071E+03 -0.54050370938E+02 -0.12710947182E+03  0.25916276462E+03  0.00000000000E+00 0.  1.
         11    1    1    2    0    0  0.32318898551E+02  0.15836783450E+02 -0.58066256075E+02  0.68315481468E+02  0.00000000000E+00 0. -1.
</event>
<event>
 7    1  0.2766180E-009  0.1073033E+03  0.7561462E-02  0.1265647E+00
          2   -1    0    0  501    0  0.00000000000E+00  0.00000000000E+00  0.16094538401E+03  0.16094538401E+03  0.00000000000E+00 0. -1.
         -2   -1    0    0    0  501 -0.00000000000E+00 -0.00000000000E+00 -0.11021957444E+03  0.11021957444E+03  0.00000000000E+00 0.  1.
         25    2    1    2    0    0  0.16600344870E+01 -0.18139850986E+02 -0.47989312169E+02  0.13521315479E+03  0.12509121967E+03 0.  0.
          5    1    3    3  502    0 -0.61266465820E+02 -0.56981485778E+01 -0.29244356423E+02  0.68255062185E+02  0.41800000000E+01 0.  1.
         -5    1    3    3    0  502  0.62926500307E+02 -0.12441702408E+02 -0.18744955746E+02  0.66958092608E+02  0.41800000000E+01 0.  1.
        -11    1    1    2    0    0 -0.43455583641E+02  0.17515905536E+02  0.73413754331E+02  0.87090608112E+02  0.00000000000E+00 0. -1.
         11    1    1    2    0    0  0.41795549154E+02  0.62394545025E+00  0.25301367411E+02  0.48861195543E+02  0.00000000000E+00 0.  1.
</event>
<event>
 7    1  0.2766180E-009  0.1346960E+03  0.7561462E-02  0.1220649E+00
         -3   -1    0    0    0  501 -0.00000000000E+00  0.00000000000E+00  0.49080789882E+03  0.49080789882E+03  0.00000000000E+00 0.  1.
          3   -1    0    0  501    0  0.00000000000E+00 -0.00000000000E+00 -0.56470002619E+02  0.56470002619E+02  0.00000000000E+00 0. -1.
         25    2    1    2    0    0 -0.11677144559E+02  0.10514211102E+03  0.12531428347E+03  0.20625802729E+03  0.12508990754E+03 0.  0.
          5    1    3    3  502    0  0.51943219106E+02  0.65248116052E+02  0.91257336472E+02  0.12369635613E+03  0.41800000000E+01 0.  1.
         -5    1    3    3    0  502 -0.63620363665E+02  0.39893994964E+02  0.34056946993E+02  0.82561671165E+02  0.41800000000E+01 0.  1.
        -11    1    1    2    0    0 -0.10278655631E+02 -0.54813395449E+02  0.26453518698E+03  0.27034981826E+03  0.00000000000E+00 0.  1.
         11    1    1    2    0    0  0.21955800191E+02 -0.50328715567E+02  0.44488425749E+02  0.70670055881E+02  0.00000000000E+00 0. -1.
</event>
<event>
 7    1  0.2766180E-009  0.1572079E+03  0.7561462E-02  0.1191886E+00
         -2   -1    0    0    0  501 -0.00000000000E+00  0.00000000000E+00  0.97837504460E+02  0.97837504460E+02  0.00000000000E+00 0.  1.
          2   -1    0    0  501    0  0.00000000000E+00 -0.00000000000E+00 -0.38187179040E+03  0.38187179040E+03  0.00000000000E+00 0. -1.
         25    2    1    2    0    0  0.10180517262E+02  0.12163538735E+03 -0.21721888008E+02  0.17611729048E+03  0.12508656683E+03 0.  0.
          5    1    3    3  502    0  0.49007699967E+02  0.11200171490E+03  0.12955929529E+02  0.12301002930E+03  0.41800000000E+01 0. -1.
         -5    1    3    3    0  502 -0.38827182705E+02  0.96336724425E+01 -0.34677817537E+02  0.53107261186E+02  0.41800000000E+01 0. -1.
        -11    1    1    2    0    0  0.40372680578E+02 -0.53123733662E+02 -0.13242681761E+03  0.14828670351E+03  0.00000000000E+00 0.  1.
         11    1    1    2    0    0 -0.50553197839E+02 -0.68511653685E+02 -0.12988558032E+03  0.15530530087E+03  0.00000000000E+00 0. -1.
</event>
<event>
 7    1  0.2766180E-009  0.9294044E+02  0.7561462E-02  0.1295883E+00
          3   -1    0    0  501    0  0.00000000000E+00  0.00000000000E+00  0.31188781126E+02  0.31188781126E+02  0.00000000000E+00 0. -1.
         -3   -1    0    0    0  501 -0.00000000000E+00 -0.00000000000E+00 -0.46724583773E+03  0.46724583773E+03  0.00000000000E+00 0.  1.
         25    2    1    2    0    0 -0.12686379722E+02  0.84011589566E+01 -0.13971238108E+03  0.18813649961E+03  0.12507705367E+03 0.  0.
          5    1    3    3  502    0 -0.41622389001E+02  0.35226948333E+02 -0.13797705038E+03  0.14842001209E+03  0.41800000000E+01 0.  1.
         -5    1    3    3    0  502  0.28936009280E+02 -0.26825789376E+02 -0.17353306992E+01  0.39716487525E+02  0.41800000000E+01 0.  1.
        -11    1    1    2    0    0  0.25427414739E+02  0.36699734478E+02 -0.16061034648E+03  0.16670065186E+03  0.00000000000E+00 0.  1.
         11    1    1    2    0    0 -0.12741035017E+02 -0.45100893434E+02 -0.13573432904E+03  0.14359746739E+03  0.00000000000E+00 0. -1.
</event>
<event>
 7    1  0.2766180E-009  0.1714436E+03  0.7561462E-02  0.1176351E+00
          1   -1    0    0  501    0  0.00000000000E+00  0.00000000000E+00  0.20425221213E+03  0.20425221213E+03  0.00000000000E+00 0. -1.
         -1   -1    0    0    0  501 -0.00000000000E+00 -0.00000000000E+00 -0.33847170135E+03  0.33847170135E+03  0.00000000000E+00 0.  1.
         25    2    1    2    0    0 -0.99647763842E+02 -0.12490631048E+03  0.11482637536E+03  0.23315867123E+03  0.12508639516E+03 0.  0.
          5    1    3    3  502    0 -0.26782839236E+02 -0.19370634222E+01  0.82077150592E+02  0.86459260588E+02  0.41800000000E+01 0.  1.
         -5    1    3    3    0  502 -0.72864924606E+02 -0.12296924705E+03  0.32749224767E+02  0.14669941064E+03  0.41800000000E+01 0.  1.
        -11    1    1    2    0    0  0.19937818444E+02 -0.47677091973E+01 -0.77771177885E+02  0.80427630606E+02  0.00000000000E+00 0.  1.
         11    1    1    2    0    0  0.79709945398E+02  0.12967401967E+03 -0.17127468669E+03  0.22913761165E+03  0.00000000000E+00 0. -1.
</event>
<event>
 7    1  0.2766180E-009  0.1213955E+03  0.7561462E-02  0.1240812E+00
          1   -1    0    0  501    0  0.00000000000E+00  0.00000000000E+00  0.13354096696E+03  0.13354096696E+03  0.00000000000E+00 0. -1.
         -1   -1    0    0    0  501 -0.00000000000E+00 -0.00000000000E+00 -0.19172508457E+03  0.19172508457E+03  0.00000000000E+00 0.  1.
         25    2    1    2    0    0  0.10290661834E+03  0.70606750444E+01  0.25727104714E+02  0.16419726319E+03  0.12513685345E+03 0.  0.
          5    1    3    3  502    0 -0.82762685316E+01 -0.16901951827E+01 -0.35617975526E+02  0.36843804922E+02  0.41800000000E+01 0.  1.
         -5    1    3    3    0  502  0.11118288687E+03  0.87508702271E+01  0.61345080240E+02  0.12735345827E+03  0.41800000000E+01 0.  1.
        -11    1    1    2    0    0 -0.11265181259E+01 -0.19223947249E+02  0.10306849585E+02  0.21841710997E+02  0.00000000000E+00 0. -1.
         11    1    1    2    0    0 -0.10178010021E+03  0.12163272205E+02 -0.94218071906E+02  0.13922707734E+03  0.00000000000E+00 0.  1.
</event>
<event>
 7    1  0.2766180E-009  0.1419991E+03  0.7561462E-02  0.1210664E+00
         -1   -1    0    0    0  501 -0.00000000000E+00  0.00000000000E+00  0.37235749384E+02  0.37235749384E+02  0.00000000000E+00 0.  1.
          1   -1    0    0  501    0  0.00000000000E+00 -0.00000000000E+00 -0.69521295597E+03  0.69521295597E+03  0.00000000000E+00 0. -1.
         25    2    1    2    0    0  0.10049640447E+03  0.54176716064E+01 -0.49363115164E+03  0.51908527111E+03  0.12509566871E+03 0.  0.
          5    1    3    3  502    0 -0.20668604789E+02  0.23694002445E+02 -0.53499060733E+02  0.62195006835E+02  0.41800000000E+01 0. -1.
         -5    1    3    3    0  502  0.12116500926E+03 -0.18276330839E+02 -0.44013209091E+03  0.45689026427E+03  0.41800000000E+01 0. -1.
        -11    1    1    2    0    0 -0.74175367113E+02  0.34541568446E+02 -0.70430091338E+02  0.10796065396E+03  0.00000000000E+00 0.  1.
         11    1    1    2    0    0 -0.26321037357E+02 -0.39959240053E+02 -0.93915963606E+02  0.10540278029E+03  0.00000000000E+00 0. -1.
</event>
<event>
 7    1  0.2766180E-009  0.1079613E+03  0.7561462E-02  0.1264392E+00
          4   -1    0    0  501    0  0.00000000000E+00  0.00000000000E+00  0.67895754864E+02  0.67895754864E+02  0.00000000000E+00 0. -1.
         -4   -1    0    0    0  501 -0.00000000000E+00 -0.00000000000E+00 -0.23152869382E+03  0.23152869382E+03  0.00000000000E+00 0.  1.
         25    2    1    2    0    0  0.54156933813E+02 -0.22866099684E+02 -0.63755231220E+02  0.15221251189E+03  0.12509231501E+03 0.  0.
          5    1    3    3  502    0  0.66093794613E+02  0.15173847465E+02  0.96014781443E+01  0.68617024970E+02  0.41800000000E+01 0. -1.
         -5    1    3    3    0  502 -0.11936860799E+02 -0.38039947149E+02 -0.73356709364E+02  0.83595486921E+02  0.41800000000E+01 0. -1.
        -11    1    1    2    0    0 -0.79745188055E+02  0.15195103177E+02 -0.70676785348E+02  0.10763546890E+03  0.00000000000E+00 0. -1.
         11    1    1    2    0    0  0.25588254242E+02  0.76709965070E+01 -0.29200922393E+02  0.39576467896E+02  0.00000000000E+00 0.  1.
</event>
<event>
 6    1  0.2766180E-009  0.1003912E+03  0.7561462E-02  0.1279476E+00
         -1   -1    0    0    0  501 -0.00000000000E+00  0.00000000000E+00  0.10133598820E+03  0.10133598820E+03  0.00000000000E+00 0.  1.
          1   -1    0    0  501    0  0.00000000000E+00 -0.00000000000E+00 -0.14709398161E+03  0.14709398161E+03  0.00000000000E+00 0. -1.
          5    1    1    2  502    0 -0.31685706409E+00 -0.27781140037E+02 -0.54695760680E+02  0.61489761558E+02  0.41800000000E+01 0.  1.
         -5    1    1    2    0  502 -0.46652925870E+01  0.81153718691E+02  0.90971047419E+01  0.81901896968E+02  0.41800000000E+01 0.  1.
        -11    1    1    2    0    0  0.23104260766E+01  0.18864336196E+02  0.22340911220E+02  0.29331170500E+02  0.00000000000E+00 0.  1.
         11    1    1    2    0    0  0.26717235744E+01 -0.72236914849E+02 -0.22500248696E+02  0.75707140780E+02  0.00000000000E+00 0. -1.
</event>
<event>
 7    1  0.2766180E-009  0.1317788E+03  0.7561462E-02  0.1224840E+00
          1   -1    0    0  501    0  0.00000000000E+00  0.00000000000E+00  0.57042593453E+03  0.57042593453E+03  0.00000000000E+00 0. -1.
         -1   -1    0    0    0  501 -0.00000000000E+00 -0.00000000000E+00 -0.31616448457E+02  0.31616448457E+02  0.00000000000E+00 0.  1.
         25    2    1    2    0    0  0.19148712663E+02 -0.75880383430E+02  0.30477631245E+03  0.33861862653E+03  0.12509783298E+03 0.  0.
          5    1    3    3  502    0  0.54529280360E+02 -0.92786869890E+02  0.21136472143E+03  0.23722428945E+03  0.41800000000E+01 0. -1.
         -5    1    3    3    0  502 -0.35380567697E+02  0.16906486459E+02  0.93411591017E+02  0.10139433708E+03  0.41800000000E+01 0. -1.
        -11    1    1    2    0    0 -0.20136981626E+02  0.95082153473E+02  0.21686201039E+03  0.23764520927E+03  0.00000000000E+00 0. -1.
         11    1    1    2    0    0  0.98826896227E+00 -0.19201770043E+02  0.17171163234E+02  0.25778547188E+02  0.00000000000E+00 0.  1.
</event>
<event>
 7    1  0.2766180E-009  0.1027432E+03  0.7561462E-02  0.1274631E+00
         -1   -1    0    0    0  501 -0.00000000000E+00  0.00000000000E+00  0.10967542686E+03  0.10967542686E+03  0.00000000000E+00 0.  1.
          1   -1    0    0  501    0  0.00000000000E+00 -0.00000000000E+00 -0.19985298468E+03  0.19985298468E+03  0.00000000000E+00 0. -1.
         25    2    1    2    0    0 -0.62381476095E+02  0.34022886526E+02  0.24990815586E+02  0.14601198787E+03  0.12508378940E+03 0.  0.
          5    1    3    3  502    0  0.27468929391E+02 -0.94719762032E+01 -0.20929777661E+02  0.36052578382E+02  0.41800000000E+01 0.  1.
         -5    1    3    3    0  502 -0.89850405487E+02  0.43494862729E+02  0.45920593246E+02  0.10995940948E+03  0.41800000000E+01 0.  1.
        -11    1    1    2    0    0  0.47374269263E+02 -0.37957412421E+02 -0.12910305397E+03  0.14266283710E+03  0.00000000000E+00 0. -1.
         11    1    1    2    0    0  0.15007206833E+02  0.39345258953E+01  0.13934680561E+02  0.20853586581E+02  0.00000000000E+00 0.  1.
</event>
<event>
 7    1  0.2766180E-009  0.1366357E+03  0.7561462E-02  0.1217929E+00
         -1   -1    0    0    0  501 -0.00000000000E+00  0.00000000000E+00  0.22468022676E+02  0.22468022676E+02  0.00000000000E+00 0.  1.
          1   -1    0    0  501    0  0.00000000000E+00 -0.00000000000E+00 -0.10413880408E+04  0.10413880408E+04  0.00000000000E+00 0. -1.
         25    2    1    2    0    0 -0.70794862642E+02 -0.80273707750E+02 -0.59548099987E+03  0.61781918324E+03  0.12508853365E+03 0.  0.
          5    1    3    3  502    0 -0.37025264764E+02  0.12897360365E+02 -0.51457885811E+02  0.64827452112E+02  0.41800000000E+01 0.  1.
         -5    1    3    3    0  502 -0.33769597878E+02 -0.93171068115E+02 -0.54402311406E+03  0.55299173113E+03  0.41800000000E+01 0.  1.
        -11    1    1    2    0    0  0.17246453220E+02  0.79238030772E+02 -0.31243658832E+03  0.32278898276E+03  0.00000000000E+00 0. -1.
         11    1    1    2    0    0  0.53548409422E+02  0.10356769784E+01 -0.11100242990E+03  0.12324789744E+03  0.00000000000E+00 0.  1.
</event>
<event>
 7    1  0.2766180E-009  0.3443219E+03  0.7561462E-02  0.1064970E+00
          2   -1    0    0  501    0  0.00000000000E+00  0.00000000000E+00  0.19477569750E+04  0.19477569750E+04  0.00000000000E+00 0. -1.
         -2   -1    0    0    0  501 -0.00000000000E+00 -0.00000000000E+00 -0.68864532807E+02  0.68864532807E+02  0.00000000000E+00 0.  1.
         25    2    1    2    0    0  0.32561078993E+03  0.61873326781E+02  0.12580909424E+04  0.13070164324E+04  0.12509372606E+03 0.  0.
          5    1    3    3  502    0  0.19845653353E+03  0.96139250794E+02  0.71965178626E+03  0.75269111667E+03  0.41800000000E+01 0.  1.
         -5    1    3    3    0  502  0.12715425640E+03 -0.34265924013E+02  0.53843915609E+03  0.55432531575E+03  0.41800000000E+01 0.  1.
        -11    1    1    2    0    0 -0.15223133975E+03 -0.58005146027E+02  0.37425987657E+03  0.40817818778E+03  0.00000000000E+00 0.  1.
         11    1    1    2    0    0 -0.17337945018E+03 -0.38681807539E+01  0.24654162324E+03  0.30142688758E+03  0.00000000000E+00 0. -1.
</event>
<event>
 7    1  0.3000492E-009  0.1785149E+03  0.7561462E-02  0.1169248E+00
         -2   -1    0    0    0  501 -0.00000000000E+00  0.00000000000E+00  0.84760750865E+02  0.84760750865E+02  0.00000000000E+00 0.  1.
          2   -1    0    0  501    0  0.00000000000E+00 -0.00000000000E+00 -0.48110881885E+03  0.48110881885E+03  0.00000000000E+00 0. -1.
         25    2    1    2    0    0  0.16023678896E+03  0.17168269570E+02 -0.13406163950E+03  0.24412452131E+03  0.12511467021E+03 0.  0.
          5    1    3    3  502    0  0.64006542162E+02  0.34499378410E+02  0.61983432358E+01  0.73095392530E+02  0.41800000000E+01 0.  1.
         -5    1    3    3    0  502  0.96230246794E+02 -0.17331108840E+02 -0.14025998274E+03  0.17102912878E+03  0.41800000000E+01 0.  1.
        -11    1    1    2    0    0 -0.30554242161E+02 -0.44323946540E+02 -0.73741998889E+02  0.91302006282E+02  0.00000000000E+00 0. -1.
         11    1    1    2    0    0 -0.12968254680E+03  0.27155676971E+02 -0.18854442959E+03  0.23044304213E+03  0.00000000000E+00 0.  1.
</event>
<event>
 7    1  0.2766180E-009  0.1945978E+03  0.7561462E-02  0.1154379E+00
          1   -1    0    0  501    0  0.00000000000E+00  0.00000000000E+00  0.73290825241E+02  0.73290825241E+02  0.00000000000E+00 0. -1.
         -1   -1    0    0    0  501 -0.00000000000E+00 -0.00000000000E+00 -0.66779146765E+03  0.66779146765E+03  0.00000000000E+00 0.  1.
         25    2    1    2    0    0  0.26536111175E+02 -0.15541613199E+03 -0.47398105887E+03  0.51494110953E+03  0.12509181766E+03 0.  0.
          5    1    3    3  502    0 -0.47251917428E+02 -0.31536153107E+02 -0.12916637477E+03  0.14116903848E+03  0.41800000000E+01 0.  1.
         -5    1    3    3    0  502  0.73788028604E+02 -0.12387997888E+03 -0.34481468409E+03  0.37377207105E+03  0.41800000000E+01 0.  1.
        -11    1    1    2    0    0  0.30996158603E+02  0.11618527869E+02 -0.62923411363E+01  0.33694889746E+02  0.00000000000E+00 0. -1.
         11    1    1    2    0    0 -0.57532269779E+02  0.14379760412E+03 -0.11422724241E+03  0.19244629361E+03  0.00000000000E+00 0.  1.
</event>
<event>
 7    1  0.2766180E-009  0.9356110E+02  0.7561462E-02  0.1294450E+00
         -1   -1    0    0    0  501 -0.00000000000E+00  0.00000000000E+00  0.21111631557E+03  0.21111631557E+03  0.00000000000E+00 0.  1.
          1   -1    0    0  501    0  0.00000000000E+00 -0.00000000000E+00 -0.75580103140E+02  0.75580103140E+02  0.00000000000E+00 0. -1.
         25    2    1    2    0    0 -0.32659918467E+02 -0.20965532510E+02  0.13573956645E+03  0.18861566249E+03  0.12507763352E+03 0.  0.
          5    1    3    3  502    0 -0.47091053699E+01  0.49742702418E+02  0.30400088060E+02  0.58635738857E+02  0.41800000000E+01 0.  1.
         -5    1    3    3    0  502 -0.27950813097E+02 -0.70708234928E+02  0.10533947839E+03  0.12997992363E+03  0.41800000000E+01 0.  1.
        -11    1    1    2    0    0  0.36850736347E+02 -0.25600510830E+01  0.38015321896E+02  0.53006559309E+02  0.00000000000E+00 0.  1.
         11    1    1    2    0    0 -0.41908178796E+01  0.23525583593E+02 -0.38218675921E+02  0.45074196910E+02  0.00000000000E+00 0. -1.
</event>
<event>
 7    1  0.2766180E-009  0.1401070E+03  0.7561462E-02  0.1213185E+00
          2   -1    0    0  501    0  0.00000000000E+00  0.00000000000E+00  0.17424719672E+04  0.17424719672E+04  0.00000000000E+00 0. -1.
         -2   -1    0    0    0  501 -0.00000000000E+00 -0.00000000000E+00 -0.12331815719E+02  0.12331815719E+02  0.00000000000E+00 0.  1.
         25    2    1    2    0    0 -0.96181213419E+02 -0.18900276043E+01  0.11358765667E+04  0.11467820282E+04  0.12505617696E+03 0.  0.
          5    1    3    3  502    0 -0.70913665578E+02  0.57620732705E+02  0.74133193985E+03  0.74695342173E+03  0.41800000000E+01 0.  1.
         -5    1    3    3    0  502 -0.25267547841E+02 -0.59510760310E+02  0.39454462688E+03  0.39982860649E+03  0.41800000000E+01 0.  1.
        -11    1    1    2    0    0  0.23630694753E+02  0.36573761362E+02  0.13738868225E+03  0.14412390421E+03  0.00000000000E+00 0.  1.
         11    1    1    2    0    0  0.72550518665E+02 -0.34683733758E+02  0.45687490248E+03  0.46389785046E+03  0.00000000000E+00 0. -1.
</event>
<event>
 7    1  0.2766180E-009  0.3087977E+03  0.7561462E-02  0.1080924E+00
          1   -1    0    0  501    0  0.00000000000E+00  0.00000000000E+00  0.17275383252E+03  0.17275383252E+03  0.00000000000E+00 0. -1.
         -1   -1    0    0    0  501 -0.00000000000E+00 -0.00000000000E+00 -0.61742747533E+03  0.61742747533E+03  0.00000000000E+00 0.  1.
         25    2    1    2    0    0 -0.16250282151E+03  0.23964174260E+03 -0.10010851361E+03  0.33091565486E+03  0.12509246314E+03 0.  0.
          5    1    3    3  502    0  0.19567584652E+02  0.16040601771E+02  0.19508372149E-01  0.25644961589E+02  0.41800000000E+01 0. -1.
         -5    1    3    3    0  502 -0.18207040616E+03  0.22360114083E+03 -0.10012802199E+03  0.30527069327E+03  0.41800000000E+01 0. -1.
        -11    1    1    2    0    0  0.65829584022E+01 -0.80518101776E+02 -0.96295170380E+02  0.12569510688E+03  0.00000000000E+00 0. -1.
         11    1    1    2    0    0  0.15591986311E+03 -0.15912364083E+03 -0.24826995882E+03  0.33357054611E+03  0.00000000000E+00 0.  1.
</event>
<event>
 7    1  0.2766180E-009  0.1147154E+03  0.7561462E-02  0.1252079E+00
          4   -1    0    0  501    0  0.00000000000E+00  0.00000000000E+00  0.47348248721E+03  0.47348248721E+03  0.00000000000E+00 0. -1.
         -4   -1    0    0    0  501 -0.00000000000E+00 -0.00000000000E+00 -0.33785430177E+02  0.33785430177E+02  0.00000000000E+00 0.  1.
         25    2    1    2    0    0 -0.53804074157E+02  0.42211705682E+02  0.23688212317E+03  0.27647209030E+03  0.12508784891E+03 0.  0.
          5    1    3    3  502    0 -0.92919891659E+02  0.14442090963E+02  0.14836367527E+03  0.17570410581E+03  0.41800000000E+01 0. -1.
         -5    1    3    3    0  502  0.39115817503E+02  0.27769614719E+02  0.88518447898E+02  0.10076798449E+03  0.41800000000E+01 0. -1.
        -11    1    1    2    0    0  0.13145692470E+02 -0.44525665826E+02  0.17603845712E+03  0.18205736056E+03  0.00000000000E+00 0. -1.
         11    1    1    2    0    0  0.40658381686E+02  0.23139601437E+01  0.26776476745E+02  0.48738466531E+02  0.00000000000E+00 0.  1.
</event>
<event>
 7    1  0.2766180E-009  0.9696397E+02  0.7561462E-02  0.1286813E+00
         -1   -1    0    0    0  501 -0.00000000000E+00  0.00000000000E+00  0.28661397429E+02  0.28661397429E+02  0.00000000000E+00 0.  1.
          1   -1    0    0  501    0  0.00000000000E+00 -0.00000000000E+00 -0.43618040916E+03  0.43618040916E+03  0.00000000000E+00 0. -1.
         25    2    1    2    0    0 -0.13129184356E+02  0.13028369419E+02 -0.24529195119E+03  0.27596752660E+03  0.12509124880E+03 0.  0.
          5    1    3    3  502    0  0.42194351293E+02 -0.26677097766E+02 -0.58013965338E+02  0.76649353556E+02  0.41800000000E+01 0.  1.
         -5    1    3    3    0  502 -0.55323535649E+02  0.39705467185E+02 -0.18727798585E+03  0.19931817304E+03  0.41800000000E+01 0.  1.
        -11    1    1    2    0    0  0.98218804939E+01  0.30454544870E+02 -0.15029744614E+02  0.35353102591E+02  0.00000000000E+00 0.  1.
         11    1    1    2    0    0  0.33073038626E+01 -0.43482914288E+02 -0.14719731593E+03  0.15352117741E+03  0.00000000000E+00 0. -1.
</event>
<event>
 7    1  0.2766180E-009  0.1353064E+03  0.7561462E-02  0.1219788E+00
         -3   -1    0    0    0  501 -0.00000000000E+00  0.00000000000E+00  0.81979549520E+02  0.81979549520E+02  0.00000000000E+00 0.  1.
          3   -1    0    0  501    0  0.00000000000E+00 -0.00000000000E+00 -0.27561868960E+03  0.27561868960E+03  0.00000000000E+00 0. -1.
         25    2    1    2    0    0  0.78015504472E+02  0.45476481716E+02 -0.44286400084E+02  0.16050833069E+03  0.12508840738E+03 0.  0.
          5    1    3    3  502    0 -0.19229807561E+02 -0.26648409427E+02 -0.10081456264E+02  0.34627032565E+02  0.41800000000E+01 0. -1.
         -5    1    3    3    0  502  0.97245312033E+02  0.72124891143E+02 -0.34204943820E+02  0.12588129812E+03  0.41800000000E+01 0. -1.
        -11    1    1    2    0    0 -0.23705406210E+02  0.20180946836E+02 -0.81694519308E+01  0.32186283470E+02  0.00000000000E+00 0.  1.
         11    1    1    2    0    0 -0.54310098262E+02 -0.65657428552E+02 -0.14118328806E+03  0.16490362496E+03  0.00000000000E+00 0. -1.
</event>
<event>
 7    1  0.2766180E-009  0.1272199E+03  0.7561462E-02  0.1231640E+00
         -2   -1    0    0    0  501 -0.00000000000E+00  0.00000000000E+00  0.38105572226E+03  0.38105572226E+03  0.00000000000E+00 0.  1.
          2   -1    0    0  501    0  0.00000000000E+00 -0.00000000000E+00 -0.58354272759E+02  0.58354272759E+02  0.00000000000E+00 0. -1.
         25    2    1    2    0    0  0.27153986595E+02  0.84427826518E+02  0.10035607574E+03  0.18325415389E+03  0.12508135793E+03 0.  0.
          5    1    3    3  502    0  0.60987231115E+02  0.67398708418E+02  0.11115291852E+03  0.14364703948E+03  0.41800000000E+01 0. -1.
         -5    1    3    3    0  502 -0.33833244520E+02  0.17029118100E+02 -0.10796842783E+02  0.39607114413E+02  0.41800000000E+01 0. -1.
        -11    1    1    2    0    0 -0.58460115810E+02 -0.69013402547E+02  0.13942268679E+03  0.16619001313E+03  0.00000000000E+00 0.  1.
         11    1    1    2    0    0  0.31306129215E+02 -0.15414423971E+02  0.82922686975E+02  0.89965828001E+02  0.00000000000E+00 0. -1.
</event>
<event>
 7    1  0.2766180E-009  0.1284966E+03  0.7561462E-02  0.1229704E+00
          2   -1    0    0  501    0  0.00000000000E+00  0.00000000000E+00  0.11800748083E+04  0.11800748083E+04  0.00000000000E+00 0. -1.
         -2   -1    0    0    0  501 -0.00000000000E+00 -0.00000000000E+00 -0.20371047377E+02  0.20371047377E+02  0.00000000000E+00 0.  1.
         25    2    1    2    0    0  0.71461365793E+02  0.81533904094E+02  0.69473730001E+03  0.71418558388E+03  0.12508648159E+03 0.  0.
          5    1    3    3  502    0  0.60589630052E+02  0.40562270407E+02  0.64316045458E+03  0.64729378476E+03  0.41800000000E+01 0. -1.
         -5    1    3    3    0  502  0.10871735742E+02  0.40971633687E+02  0.51576845431E+02  0.66891799121E+02  0.41800000000E+01 0. -1.
        -11    1    1    2    0    0  0.22009688430E+02 -0.15229723567E+02  0.11210607855E+03  0.11525685972E+03  0.00000000000E+00 0.  1.
         11    1    1    2    0    0 -0.93471054224E+02 -0.66304180527E+02  0.35286038235E+03  0.37100341207E+03  0.00000000000E+00 0. -1.
</event>
<event>
 7    1  0.2766180E-009  0.1091030E+03  0.7561462E-02  0.1262240E+00
         -1   -1    0    0    0  501 -0.00000000000E+00  0.00000000000E+00  0.36699504604E+02  0.36699504604E+02  0.00000000000E+00 0.  1.
          1   -1    0    0  501    0  0.00000000000E+00 -0.00000000000E+00 -0.34876923058E+03  0.34876923058E+03  0.00000000000E+00 0. -1.
         25    2    1    2    0    0 -0.27224238883E+02  0.11855718238E+02 -0.20143881799E+03  0.23896804974E+03  0.12508562732E+03 0.  0.
          5    1    3    3  502    0 -0.75411118156E+02  0.10849727965E+02 -0.15037741580E+03  0.16862797194E+03  0.41800000000E+01 0. -1.
         -5    1    3    3    0  502  0.48186879273E+02  0.10059902736E+01 -0.51061402199E+02  0.70340077800E+02  0.41800000000E+01 0. -1.
        -11    1    1    2    0    0  0.53686028271E+02  0.15082645947E+02 -0.81763131931E+02  0.98969114291E+02  0.00000000000E+00 0.  1.
         11    1    1    2    0    0 -0.26461789388E+02 -0.26938364186E+02 -0.28867776053E+02  0.47531571159E+02  0.00000000000E+00 0. -1.
</event>
<event>
 7    1  0.2766180E-009  0.1082846E+03  0.7561462E-02  0.1263780E+00
         -2   -1    0    0    0  501 -0.00000000000E+00  0.00000000000E+00  0.30284417886E+02  0.30284417886E+02  0.00000000000E+00 0.  1.
          2   -1    0    0  501    0  0.00000000000E+00 -0.00000000000E+00 -0.45097740581E+03  0.45097740581E+03  0.00000000000E+00 0. -1.
         25    2    1    2    0    0 -0.25734730938E+02 -0.14436318775E+02 -0.16990865347E+03  0.21304117564E+03  0.12508760258E+03 0.  0.
          5    1    3    3  502    0 -0.36410751616E+02  0.46631099134E+02 -0.11804011327E+03  0.13210277431E+03  0.41800000000E+01 0.  1.
         -5    1    3    3    0  502  0.10676020678E+02 -0.61067417909E+02 -0.51868540195E+02  0.80938401328E+02  0.41800000000E+01 0.  1.
        -11    1    1    2    0    0 -0.29217423764E+02  0.25836811048E+02 -0.10406798844E+03  0.11113660457E+03  0.00000000000E+00 0. -1.
         11    1    1    2    0    0  0.54952154702E+02 -0.11400492272E+02 -0.14671634601E+03  0.15708404348E+03  0.00000000000E+00 0.  1.
</event>
<event>
 7    1  0.2766180E-009  0.2163377E+03  0.7561462E-02  0.1136643E+00
         -1   -1    0    0    0  501 -0.00000000000E+00  0.00000000000E+00  0.25564385044E+02  0.25564385044E+02  0.00000000000E+00 0.  1.
          1   -1    0    0  501    0  0.00000000000E+00 -0.00000000000E+00 -0.21554874089E+04  0.21554874089E+04  0.00000000000E+00 0. -1.
         25    2    1    2    0    0 -0.12616935952E+02 -0.21016896273E+03 -0.11990378557E+04  0.12237930797E+04  0.12509013720E+03 0.  0.
          5    1    3    3  502    0 -0.11757990421E+02 -0.21070144936E+03 -0.12007531230E+04  0.12191631908E+04  0.41800000000E+01 0.  1.
         -5    1    3    3    0  502 -0.85894553055E+00  0.53248662967E+00  0.17152672239E+01  0.46298888847E+01  0.41800000000E+01 0.  1.
        -11    1    1    2    0    0  0.24262219464E+02  0.40322925361E+02 -0.12447175875E+03  0.13307070425E+03  0.00000000000E+00 0.  1.
         11    1    1    2    0    0 -0.11645283512E+02  0.16984603737E+03 -0.80641340941E+03  0.82418801005E+03  0.00000000000E+00 0. -1.
</event>
<event>
 7    1  0.2766180E-009  0.1234813E+03  0.7561462E-02  0.1237462E+00
         -1   -1    0    0    0  501 -0.00000000000E+00  0.00000000000E+00  0.10759867708E+03  0.10759867708E+03  0.00000000000E+00 0.  1.
          1   -1    0    0  501    0  0.00000000000E+00 -0.00000000000E+00 -0.18462166599E+03  0.18462166599E+03  0.00000000000E+00 0. -1.
         25    2    1    2    0    0  0.47261151919E+02 -0.43698966274E+02 -0.94049796564E+02  0.16922259118E+03  0.12509078702E+03 0.  0.
          5    1    3    3  502    0  0.38875097806E+02  0.38365167328E+02 -0.20072168707E+02  0.58339726175E+02  0.41800000000E+01 0. -1.
         -5    1    3    3    0  502  0.83860541123E+01 -0.82064133602E+02 -0.73977627858E+02  0.11088286500E+03  0.41800000000E+01 0. -1.
        -11    1    1    2    0    0 -0.14367350973E+02 -0.27572462520E+02 -0.19203890053E+02  0.36543821045E+02  0.00000000000E+00 0. -1.
         11    1    1    2    0    0 -0.32893800946E+02  0.71271428794E+02  0.36230697702E+02  0.86453930847E+02  0.00000000000E+00 0.  1.
</event>
<event>
 7    1  0.2766180E-009  0.1276946E+03  0.7561462E-02  0.1230917E+00
         -2   -1    0    0    0  501 -0.00000000000E+00  0.00000000000E+00  0.61489592944E+02  0.61489592944E+02  0.00000000000E+00 0.  1.
          2   -1    0    0  501    0  0.00000000000E+00 -0.00000000000E+00 -0.29630147339E+03  0.29630147339E+03  0.00000000000E+00 0. -1.
         25    2    1    2    0    0 -0.68033665910E+02  0.24913909743E+02 -0.85016344085E+02  0.16770133151E+03  0.12508667088E+03 0.  0.
          5    1    3    3  502    0 -0.99996308705E+02 -0.49355530264E+01 -0.64867013358E+02  0.11936843494E+03  0.41800000000E+01 0. -1.
         -5    1    3    3    0  502  0.31962642795E+02  0.29849462770E+02 -0.20149330727E+02  0.48332896570E+02  0.41800000000E+01 0. -1.
        -11    1    1    2    0    0  0.63267131652E+01  0.28771949276E+02 -0.69436028600E+02  0.75426881364E+02  0.00000000000E+00 0.  1.
         11    1    1    2    0    0  0.61706952744E+02 -0.53685859019E+02 -0.80359507760E+02  0.11466285346E+03  0.00000000000E+00 0. -1.
</event>
<event>
 7    1  0.2766180E-009  0.7583640E+02  0.7561462E-02  0.1341300E+00
         -1   -1    0    0    0  501 -0.00000000000E+00  0.00000000000E+00  0.52337009584E+02  0.52337009584E+02  0.00000000000E+00 0.  1.
          1   -1    0    0  501    0  0.00000000000E+00 -0.00000000000E+00 -0.28181009736E+03  0.28181009736E+03  0.00000000000E+00 0. -1.
         25    2    1    2    0    0 -0.32293143809E+02  0.23998126033E+02 -0.76375919438E+02  0.15198957174E+03  0.12509513043E+03 0.  0.
          5    1    3    3  502    0  0.14062635053E+01  0.18170159243E+02 -0.10533499847E+03  0.10698161790E+03  0.41800000000E+01 0.  1.
         -5    1    3    3    0  502 -0.33699407315E+02  0.58279667899E+01  0.28959079036E+02  0.45007953840E+02  0.41800000000E+01 0.  1.
        -11    1    1    2    0    0 -0.30489774071E+02 -0.18109704264E+02 -0.49852815193E+02  0.61179170426E+02  0.00000000000E+00 0.  1.
         11    1    1    2    0    0  0.62782917881E+02 -0.58884217692E+01 -0.10324435314E+03  0.12097836478E+03  0.00000000000E+00 0. -1.
</event>
<event>
 7    1  0.2766180E-009  0.1514395E+03  0.7561462E-02  0.1198715E+00
          2   -1    0    0  501    0  0.00000000000E+00  0.00000000000E+00  0.15889656685E+04  0.15889656685E+04  0.00000000000E+00 0. -1.
         -2   -1    0    0    0  501 -0.00000000000E+00 -0.00000000000E+00 -0.36964906659E+02  0.36964906659E+02  0.00000000000E+00 0.  1.
         25    2    1    2    0    0 -0.16770826244E+02  0.13489080493E+03  0.13636206279E+04  0.13760758599E+04  0.12508703203E+03 0.  0.
          5    1    3    3  502    0 -0.26223845696E+02  0.81477452208E+02  0.32744556736E+03  0.33847354001E+03  0.41800000000E+01 0. -1.
         -5    1    3    3    0  502  0.94530194515E+01  0.53413352723E+02  0.10361750605E+04  0.10376023199E+04  0.41800000000E+01 0. -1.
        -11    1    1    2    0    0 -0.22187152388E+02 -0.11842327180E+03  0.12459930487E+03  0.17332434281E+03  0.00000000000E+00 0.  1.
         11    1    1    2    0    0  0.38957978632E+02 -0.16467533132E+02  0.63780829076E+02  0.76530372429E+02  0.00000000000E+00 0. -1.
</event>
<event>
 7    1  0.2766180E-009  0.1138506E+03  0.7561462E-02  0.1253601E+00
          1   -1    0    0  501    0  0.00000000000E+00  0.00000000000E+00  0.20627659044E+03  0.20627659044E+03  0.00000000000E+00 0. -1.
         -1   -1    0    0    0  501 -0.00000000000E+00 -0.00000000000E+00 -0.81722726948E+02  0.81722726948E+02  0.00000000000E+00 0.  1.
         25    2    1    2    0    0 -0.79597366130E+01  0.72863105102E+02  0.85102605448E+02  0.16811622427E+03  0.12509285318E+03 0.  0.
          5    1    3    3  502    0  0.51196050146E+02  0.47691285245E+02  0.12758445703E+02  0.71244259949E+02  0.41800000000E+01 0.  1.
         -5    1    3    3    0  502 -0.59155786759E+02  0.25171819857E+02  0.72344159745E+02  0.96871964320E+02  0.41800000000E+01 0.  1.
        -11    1    1    2    0    0  0.31405016102E+02 -0.25950949984E+02  0.51901459348E+02  0.65980969407E+02  0.00000000000E+00 0. -1.
         11    1    1    2    0    0 -0.23445279489E+02 -0.46912155118E+02 -0.12450201305E+02  0.53902123712E+02  0.00000000000E+00 0.  1.
</event>
<event>
 7    1  0.2766180E-009  0.1222650E+03  0.7561462E-02  0.1239407E+00
          3   -1    0    0  501    0  0.00000000000E+00  0.00000000000E+00  0.11422698613E+03  0.11422698613E+03  0.00000000000E+00 0. -1.
         -3   -1    0    0    0  501 -0.00000000000E+00 -0.00000000000E+00 -0.18534740199E+03  0.18534740199E+03  0.00000000000E+00 0.  1.
         25    2    1    2    0    0  0.22632888079E+02 -0.64456086621E+02  0.33144492937E+02  0.14633344704E+03  0.12509230826E+03 0.  0.
          5    1    3    3  502    0  0.39243442947E+02 -0.94792444680E+02  0.72677254643E+01  0.10293661941E+03  0.41800000000E+01 0. -1.
         -5    1    3    3    0  502 -0.16610554868E+02  0.30336358058E+02  0.25876767472E+02  0.43396827627E+02  0.41800000000E+01 0. -1.
        -11    1    1    2    0    0 -0.71034642190E+01  0.82728139862E+02 -0.58489632728E+02  0.10156496180E+03  0.00000000000E+00 0. -1.
         11    1    1    2    0    0 -0.15529423860E+02 -0.18272053241E+02 -0.45775276071E+02  0.51675979279E+02  0.00000000000E+00 0.  1.
</event>
<event>
 7    1  0.2766180E-009  0.1432330E+03  0.7561462E-02  0.1209044E+00
         -1   -1    0    0    0  501 -0.00000000000E+00  0.00000000000E+00  0.39278874872E+03  0.39278874872E+03  0.00000000000E+00 0.  1.
          1   -1    0    0  501    0  0.00000000000E+00 -0.00000000000E+00 -0.58651628650E+02  0.58651628650E+02  0.00000000000E+00 0. -1.
         25    2    1    2    0    0  0.14346383861E+02  0.10519166789E+03  0.15857148334E+03  0.22817831795E+03  0.12509725707E+03 0.  0.
          5    1    3    3  502    0  0.36318494979E+02 -0.79351374407E+01  0.75494946118E+01  0.38163683688E+02  0.41800000000E+01 0. -1.
         -5    1    3    3    0  502 -0.21972111117E+02  0.11312680533E+03  0.15102198873E+03  0.19001463426E+03  0.41800000000E+01 0. -1.
        -11    1    1    2    0    0 -0.46373431967E+02 -0.40561186941E+02  0.10849294342E+03  0.12476547540E+03  0.00000000000E+00 0.  1.
         11    1    1    2    0    0  0.32027048106E+02 -0.64630480951E+02  0.67072693309E+02  0.98496584032E+02  0.00000000000E+00 0. -1.
</event>
<event>
 7    1  0.2766180E-009  0.9117892E+02  0.7561462E-02  0.1300022E+00
          3   -1    0    0  501    0  0.00000000000E+00  0.00000000000E+00  0.10212417784E+03  0.10212417784E+03  0.00000000000E+00 0. -1.
         -3   -1    0    0    0  501 -0.00000000000E+00 -0.00000000000E+00 -0.14730270447E+03  0.14730270447E+03  0.00000000000E+00 0.  1.
         25    2    1    2    0    0  0.28657555760E+02  0.48623762529E+02 -0.17515727119E+02  0.13834931793E+03  0.12509279472E+03 0.  0.
          5    1    3    3  502    0 -0.59198666940E+01  0.37575243128E+02  0.49171489539E+02  0.62307716226E+02  0.41800000000E+01 0. -1.
         -5    1    3    3    0  502  0.34577422454E+02  0.11048519401E+02 -0.66687216658E+02  0.76041601707E+02  0.41800000000E+01 0. -1.
        -11    1    1    2    0    0  0.28678300779E+02 -0.40524425592E+02 -0.11522754630E+02  0.50965163390E+02  0.00000000000E+00 0.  1.
         11    1    1    2    0    0 -0.57335856540E+02 -0.80993369365E+01 -0.16140044875E+02  0.60112400988E+02  0.00000000000E+00 0. -1.
</event>
<event>
 7    1  0.2766180E-009  0.1341415E+03  0.7561462E-02  0.1221437E+00
         -2   -1    0    0    0  501 -0.00000000000E+00  0.00000000000E+00  0.25525198195E+02  0.25525198195E+02  0.00000000000E+00 0. -1.
          2   -1    0    0  501    0  0.00000000000E+00 -0.00000000000E+00 -0.80580185297E+03  0.80580185297E+03  0.00000000000E+00 0.  1.
         25    2    1    2    0    0  0.50430788391E+02 -0.55576746363E+02 -0.36556254968E+03  0.39359282498E+03  0.12508914818E+03 0.  0.
          5    1    3    3  502    0  0.27377103744E+02 -0.91046719660E+02 -0.30571413048E+03  0.32018371749E+03  0.41800000000E+01 0. -1.
         -5    1    3    3    0  502  0.23053684647E+02  0.35469973297E+02 -0.59848419194E+02  0.73409107483E+02  0.41800000000E+01 0. -1.
        -11    1    1    2    0    0  0.24285999554E+02  0.50117702944E+02 -0.25920696268E+03  0.26512231785E+03  0.00000000000E+00 0.  1.
         11    1    1    2    0    0 -0.74716787945E+02  0.54590434195E+01 -0.15550714241E+03  0.17261190833E+03  0.00000000000E+00 0. -1.
</event>
<event>
 7    1  0.2766180E-009  0.1141728E+03  0.7561462E-02  0.1253032E+00
          2   -1    0    0  501    0  0.00000000000E+00  0.00000000000E+00  0.72086448844E+03  0.72086448844E+03  0.00000000000E+00 0. -1.
         -2   -1    0    0    0  501 -0.00000000000E+00 -0.00000000000E+00 -0.33444074161E+02  0.33444074161E+02  0.00000000000E+00 0.  1.
         25    2    1    2    0    0 -0.22423468060E+02 -0.87632378844E+02  0.52444039095E+03  0.54668799891E+03  0.12509116176E+03 0.  0.
          5    1    3    3  502    0 -0.10103004903E+01  0.18470761014E+02  0.10955423108E+02  0.21901676077E+02  0.41800000000E+01 0.  1.
         -5    1    3    3    0  502 -0.21413167569E+02 -0.10610313986E+03  0.51348496784E+03  0.52478632284E+03  0.41800000000E+01 0.  1.
        -11    1    1    2    0    0 -0.13567246791E+02  0.32495415930E+02  0.12861444121E+03  0.13334802860E+03  0.00000000000E+00 0. -1.
         11    1    1    2    0    0  0.35990714851E+02  0.55136962914E+02  0.34365582112E+02  0.74272535090E+02  0.00000000000E+00 0.  1.
</event>
<event>
 7    1  0.3050415E-009  0.2053702E+03  0.7561462E-02  0.1145286E+00
          2   -1    0    0  501    0  0.00000000000E+00  0.00000000000E+00  0.13722267273E+04  0.13722267273E+04  0.00000000000E+00 0. -1.
         -2   -1    0    0    0  501 -0.00000000000E+00 -0.00000000000E+00 -0.38061168958E+02  0.38061168958E+02  0.00000000000E+00 0.  1.
         25    2    1    2    0    0  0.75576095249E+02  0.18528342237E+03  0.74509197541E+03  0.78156981335E+03  0.12509048144E+03 0.  0.
          5    1    3    3  502    0  0.23899093852E+02  0.60197259347E+02  0.47524245220E+03  0.47965376835E+03  0.41800000000E+01 0.  1.
         -5    1    3    3    0  502  0.51677001397E+02  0.12508616303E+03  0.26984952321E+03  0.30191604501E+03  0.41800000000E+01 0.  1.
        -11    1    1    2    0    0  0.54368757446E+01 -0.66094482664E+02  0.27925127838E+03  0.28701797284E+03  0.00000000000E+00 0.  1.
         11    1    1    2    0    0 -0.81012970994E+02 -0.11918893971E+03  0.30982230455E+03  0.34170011006E+03  0.00000000000E+00 0. -1.
</event>
<event>
 7    1  0.2766180E-009  0.1196854E+03  0.7561462E-02  0.1243617E+00
         -1   -1    0    0    0  501 -0.00000000000E+00  0.00000000000E+00  0.32233035625E+02  0.32233035625E+02  0.00000000000E+00 0.  1.
          1   -1    0    0  501    0  0.00000000000E+00 -0.00000000000E+00 -0.54417134365E+03  0.54417134365E+03  0.00000000000E+00 0. -1.
         25    2    1    2    0    0  0.71969005080E+02  0.13167707841E+02 -0.33009141311E+03  0.36048895895E+03  0.12505607661E+03 0.  0.
          5    1    3    3  502    0  0.96898163349E+02  0.41392032144E+02 -0.26441769171E+03  0.28466953205E+03  0.41800000000E+01 0.  1.
         -5    1    3    3    0  502 -0.24929158269E+02 -0.28224324303E+02 -0.65673721398E+02  0.75819426907E+02  0.41800000000E+01 0.  1.
        -11    1    1    2    0    0 -0.78223022220E+01 -0.28935627154E+02 -0.12568988910E+03  0.12921457795E+03  0.00000000000E+00 0.  1.
         11    1    1    2    0    0 -0.64146702858E+02  0.15767919312E+02 -0.56157005813E+02  0.86700842377E+02  0.00000000000E+00 0. -1.
</event>
<event>
 7    1  0.2766180E-009  0.1529650E+03  0.7561462E-02  0.1196876E+00
         -4   -1    0    0    0  501 -0.00000000000E+00  0.00000000000E+00  0.26545921749E+03  0.26545921749E+03  0.00000000000E+00 0.  1.
          4   -1    0    0  501    0  0.00000000000E+00 -0.00000000000E+00 -0.94667862281E+02  0.94667862281E+02  0.00000000000E+00 0. -1.
         25    2    1    2    0    0  0.80553983270E+02  0.79521148229E+02  0.12788767196E+03  0.21169492136E+03  0.12508767267E+03 0.  0.
          5    1    3    3  502    0  0.63560781207E+02  0.11343108009E+03  0.92236346616E+02  0.15947287818E+03  0.41800000000E+01 0. -1.
         -5    1    3    3    0  502  0.16993202063E+02 -0.33909931859E+02  0.35651325345E+02  0.52222043180E+02  0.41800000000E+01 0. -1.
        -11    1    1    2    0    0 -0.61852254717E+02 -0.63757539178E+01  0.37785429972E+02  0.72760500066E+02  0.00000000000E+00 0. -1.
         11    1    1    2    0    0 -0.18701728552E+02 -0.73145394311E+02  0.51182532718E+01  0.75671658343E+02  0.00000000000E+00 0.  1.
</event>
<event>
 7    1  0.2766180E-009  0.1624991E+03  0.7561462E-02  0.1185904E+00
         -2   -1    0    0    0  501 -0.00000000000E+00  0.00000000000E+00  0.93286046013E+02  0.93286046013E+02  0.00000000000E+00 0.  1.
          2   -1    0    0  501    0  0.00000000000E+00 -0.00000000000E+00 -0.66414042417E+03  0.66414042417E+03  0.00000000000E+00 0. -1.
         25    2    1    2    0    0  0.15172867890E+03  0.32801877430E+02 -0.53845262990E+03  0.57417269706E+03  0.12508195810E+03 0.  0.
          5    1    3    3  502    0  0.14077894132E+03  0.10694437240E+02 -0.27144339892E+03  0.30599358249E+03  0.41800000000E+01 0. -1.
         -5    1    3    3    0  502  0.10949737581E+02  0.22107440191E+02 -0.26700923098E+03  0.26817911457E+03  0.41800000000E+01 0. -1.
        -11    1    1    2    0    0 -0.40466246909E+02  0.59720792851E+01  0.29237674536E+02  0.50279463822E+02  0.00000000000E+00 0. -1.
         11    1    1    2    0    0 -0.11126243199E+03 -0.38773956716E+02 -0.61639422798E+02  0.13297430930E+03  0.00000000000E+00 0.  1.
</event>
<event>
 7    1  0.2766180E-009  0.1388776E+03  0.7561462E-02  0.1214847E+00
          1   -1    0    0  501    0  0.00000000000E+00  0.00000000000E+00  0.28115502681E+03  0.28115502681E+03  0.00000000000E+00 0. -1.
         -1   -1    0    0    0  501 -0.00000000000E+00 -0.00000000000E+00 -0.17368085082E+03  0.17368085082E+03  0.00000000000E+00 0.  1.
         25    2    1    2    0    0  0.11863267295E+03 -0.66631924107E+02  0.19506835802E+03  0.26872465842E+03  0.12509098026E+03 0.  0.
          5    1    3    3  502    0  0.74810415190E+02 -0.31956994341E+02  0.19645152525E+03  0.21266998350E+03  0.41800000000E+01 0.  1.
         -5    1    3    3    0  502  0.43822257757E+02 -0.34674929766E+02 -0.13831672275E+01  0.56054674923E+02  0.41800000000E+01 0.  1.
        -11    1    1    2    0    0 -0.40119485540E+02  0.49670371840E+01  0.14849859599E+02  0.43066958431E+02  0.00000000000E+00 0. -1.
         11    1    1    2    0    0 -0.78513187407E+02  0.61664886923E+02 -0.10244404164E+03  0.14304426078E+03  0.00000000000E+00 0.  1.
</event>
<event>
 7    1  0.2766180E-009  0.1126619E+03  0.7561462E-02  0.1255718E+00
         -2   -1    0    0    0  501 -0.00000000000E+00  0.00000000000E+00  0.20626981006E+02  0.20626981006E+02  0.00000000000E+00 0.  1.
          2   -1    0    0  501    0  0.00000000000E+00 -0.00000000000E+00 -0.10498896591E+04  0.10498896591E+04  0.00000000000E+00 0. -1.
         25    2    1    2    0    0 -0.48245607662E+02 -0.54830047089E+02 -0.79668277731E+03  0.80974357728E+03  0.12508893061E+03 0.  0.
          5    1    3    3  502    0  0.31155571604E+02 -0.40040943412E+02 -0.48778245847E+03  0.49043159155E+03  0.41800000000E+01 0. -1.
         -5    1    3    3    0  502 -0.79401179266E+02 -0.14789103676E+02 -0.30890031884E+03  0.31931198574E+03  0.41800000000E+01 0. -1.
        -11    1    1    2    0    0 -0.56153370732E+01  0.36076141075E+02 -0.22044383267E+02  0.42649440781E+02  0.00000000000E+00 0.  1.
         11    1    1    2    0    0  0.53860944735E+02  0.18753906013E+02 -0.21053551756E+03  0.21812362208E+03  0.00000000000E+00 0. -1.
</event>
<event>
 7    1  0.2766180E-009  0.1002581E+03  0.7561462E-02  0.1279754E+00
         -1   -1    0    0    0  501 -0.00000000000E+00  0.00000000000E+00  0.26055506878E+02  0.26055506878E+02  0.00000000000E+00 0.  1.
          1   -1    0    0  501    0  0.00000000000E+00 -0.00000000000E+00 -0.48718765843E+03  0.48718765843E+03  0.00000000000E+00 0. -1.
         25    2    1    2    0    0 -0.79134663095E+01  0.23815126734E+02 -0.27269717979E+03  0.30106615618E+03  0.12508914951E+03 0.  0.
          5    1    3    3  502    0 -0.17174847919E+02 -0.37177221238E+02 -0.20617659206E+03  0.21024600043E+03  0.41800000000E+01 0.  1.
         -5    1    3    3    0  502  0.92613816099E+01  0.60992347972E+02 -0.66520587722E+02  0.90820155755E+02  0.41800000000E+01 0.  1.
        -11    1    1    2    0    0 -0.29770800841E+02  0.22855587144E+02 -0.71184052551E+02  0.80472652398E+02  0.00000000000E+00 0. -1.
         11    1    1    2    0    0  0.37684267151E+02 -0.46670713878E+02 -0.11725091921E+03  0.13170435673E+03  0.00000000000E+00 0.  1.
</event>
<event>
 7    1  0.2766180E-009  0.7237946E+02  0.7561462E-02  0.1352184E+00
         -1   -1    0    0    0  501 -0.00000000000E+00  0.00000000000E+00  0.13318630880E+03  0.13318630880E+03  0.00000000000E+00 0.  1.
          1   -1    0    0  501    0  0.00000000000E+00 -0.00000000000E+00 -0.94796038061E+02  0.94796038061E+02  0.00000000000E+00 0. -1.
         25    2    1    2    0    0  0.79692265272E+01  0.23136316782E+02  0.13243104471E+02  0.12814506137E+03  0.12508788596E+03 0.  0.
          5    1    3    3  502    0 -0.34922628174E+02 -0.10070294581E+02  0.50388301010E+02  0.62269206436E+02  0.41800000000E+01 0.  1.
         -5    1    3    3    0  502  0.42891854702E+02  0.33206611363E+02 -0.37145196539E+02  0.65875854938E+02  0.41800000000E+01 0.  1.
        -11    1    1    2    0    0  0.15136291134E+02  0.62595636043E+01 -0.29429979071E+02  0.33681049775E+02  0.00000000000E+00 0. -1.
         11    1    1    2    0    0 -0.23105517661E+02 -0.29395880386E+02  0.54577145342E+02  0.66156235713E+02  0.00000000000E+00 0.  1.
</event>
<event>
 7    1  0.2766180E-009  0.1197542E+03  0.7561462E-02  0.1243503E+00
          3   -1    0    0  501    0  0.00000000000E+00  0.00000000000E+00  0.18696615013E+03  0.18696615013E+03  0.00000000000E+00 0. -1.
         -3   -1    0    0    0  501 -0.00000000000E+00 -0.00000000000E+00 -0.12428003084E+03  0.12428003084E+03  0.00000000000E+00 0.  1.
         25    2    1    2    0    0 -0.75749441833E+02  0.51854909312E+02  0.77597549323E+02  0.17347714327E+03  0.12508409179E+03 0.  0.
          5    1    3    3  502    0 -0.54072897489E+01 -0.77608873831E+01  0.80469384708E+02  0.81131155734E+02  0.41800000000E+01 0. -1.
         -5    1    3    3    0  502 -0.70342152084E+02  0.59615796696E+02 -0.28718353849E+01  0.92345987536E+02  0.41800000000E+01 0. -1.
        -11    1    1    2    0    0 -0.21865303016E+02 -0.29507178088E+02 -0.17447993175E+01  0.36766960159E+02  0.00000000000E+00 0.  1.
         11    1    1    2    0    0  0.97614744849E+02 -0.22347731225E+02 -0.13166630722E+02  0.10100207754E+03  0.00000000000E+00 0. -1.
</event>
<event>
 7    1  0.2766180E-009  0.1477593E+03  0.7561462E-02  0.1203254E+00
         -2   -1    0    0    0  501 -0.00000000000E+00  0.00000000000E+00  0.14892151202E+03  0.14892151202E+03  0.00000000000E+00 0.  1.
          2   -1    0    0  501    0  0.00000000000E+00 -0.00000000000E+00 -0.16665548172E+03  0.16665548172E+03  0.00000000000E+00 0. -1.
         25    2    1    2    0    0 -0.10362290816E+03 -0.97322957901E+01  0.37449044817E+02  0.16694914408E+03  0.12504863484E+03 0.  0.
          5    1    3    3  502    0  0.18780985044E+02  0.26110499906E+02 -0.42173257149E+01  0.32706908150E+02  0.41800000000E+01 0. -1.
         -5    1    3    3    0  502 -0.12240389320E+03 -0.35842795696E+02  0.41666370532E+02  0.13424223593E+03  0.41800000000E+01 0. -1.
        -11    1    1    2    0    0  0.59331386604E+02  0.48483792624E+02 -0.17029119357E+02  0.78491289260E+02  0.00000000000E+00 0. -1.
         11    1    1    2    0    0  0.44291521553E+02 -0.38751496834E+02 -0.38153895165E+02  0.70136560399E+02  0.00000000000E+00 0.  1.
</event>
<event>
 7    1  0.2766180E-009  0.1653654E+03  0.7561462E-02  0.1182769E+00
         -3   -1    0    0    0  501 -0.00000000000E+00  0.00000000000E+00  0.12710974233E+03  0.12710974233E+03  0.00000000000E+00 0.  1.
          3   -1    0    0  501    0  0.00000000000E+00 -0.00000000000E+00 -0.28670184388E+03  0.28670184388E+03  0.00000000000E+00 0. -1.
         25    2    1    2    0    0  0.12127391420E+02  0.15456490555E+03 -0.66935163767E+02  0.21014928124E+03  0.12508005679E+03 0.  0.
          5    1    3    3  502    0  0.20622711674E+02  0.11909387085E+03 -0.10287388340E+03  0.15877391032E+03  0.41800000000E+01 0. -1.
         -5    1    3    3    0  502 -0.84953202536E+01  0.35471034699E+02  0.35938719633E+02  0.51375370925E+02  0.41800000000E+01 0. -1.
        -11    1    1    2    0    0  0.32609571507E+02 -0.75372622507E+02 -0.13785710494E+02  0.83273418276E+02  0.00000000000E+00 0.  1.
         11    1    1    2    0    0 -0.44736962927E+02 -0.79192283044E+02 -0.78871227287E+02  0.12038888669E+03  0.00000000000E+00 0. -1.
</event>
<event>
 7    1  0.2766180E-009  0.9306433E+02  0.7561462E-02  0.1295596E+00
          2   -1    0    0  501    0  0.00000000000E+00  0.00000000000E+00  0.21761062058E+03  0.21761062058E+03  0.00000000000E+00 0. -1.
         -2   -1    0    0    0  501 -0.00000000000E+00 -0.00000000000E+00 -0.63810935261E+02  0.63810935261E+02  0.00000000000E+00 0.  1.
         25    2    1    2    0    0 -0.39410109507E+02  0.11220704681E+02  0.10605411418E+03  0.16903889975E+03  0.12509042150E+03 0.  0.
          5    1    3    3  502    0  0.30002406838E+02  0.38049415288E+02  0.72495719104E+02  0.87298362575E+02  0.41800000000E+01 0. -1.
         -5    1    3    3    0  502 -0.69412516345E+02 -0.26828710606E+02  0.33558395071E+02  0.81740537176E+02  0.41800000000E+01 0. -1.
        -11    1    1    2    0    0  0.43614032486E+02 -0.23807647704E+02 -0.12052539601E+02  0.51129752881E+02  0.00000000000E+00 0.  1.
         11    1    1    2    0    0 -0.42039229788E+01  0.12586943022E+02  0.59798110747E+02  0.61252903212E+02  0.00000000000E+00 0. -1.
</event>
<event>
 7    1  0.2766180E-009  0.1069087E+03  0.7561462E-02  0.1266404E+00
         -2   -1    0    0    0  501 -0.00000000000E+00  0.00000000000E+00  0.11976778111E+02  0.11976778111E+02  0.00000000000E+00 0.  1.
          2   -1    0    0  501    0  0.00000000000E+00 -0.00000000000E+00 -0.14930968633E+04  0.14930968633E+04  0.00000000000E+00 0. -1.
         25    2    1    2    0    0  0.20082574273E+02 -0.71981542834E+02 -0.91535602669E+03  0.92688057291E+03  0.12508512518E+03 0.  0.
          5    1    3    3  502    0  0.43847640115E+02 -0.49218785218E+02 -0.19736806445E+03  0.20812671531E+03  0.41800000000E+01 0. -1.
         -5    1    3    3    0  502 -0.23765065843E+02 -0.22762757616E+02 -0.71798796225E+03  0.71875385760E+03  0.41800000000E+01 0. -1.
        -11    1    1    2    0    0  0.19202367871E+02  0.72812185181E+02 -0.44115140386E+03  0.44753201714E+03  0.00000000000E+00 0. -1.
         11    1    1    2    0    0 -0.39284942143E+02 -0.83064234669E+00 -0.12461265469E+03  0.13066105140E+03  0.00000000000E+00 0.  1.
</event>
<event>
 7    1  0.2766180E-009  0.1137288E+03  0.7561462E-02  0.1253817E+00
          2   -1    0    0  501    0  0.00000000000E+00  0.00000000000E+00  0.22507792280E+03  0.22507792280E+03  0.00000000000E+00 0. -1.
         -2   -1    0    0    0  501 -0.00000000000E+00 -0.00000000000E+00 -0.72537334841E+02  0.72537334841E+02  0.00000000000E+00 0.  1.
         25    2    1    2    0    0  0.37480485986E+02 -0.55440607407E+02  0.10394510763E+03  0.17587344331E+03  0.12509370441E+03 0.  0.
          5    1    3    3  502    0 -0.42589316588E+01  0.27501602451E+02  0.72469971705E+02  0.77742175395E+02  0.41800000000E+01 0. -1.
         -5    1    3    3    0  502  0.41739417645E+02 -0.82942209857E+02  0.31475135923E+02  0.98131267916E+02  0.41800000000E+01 0. -1.
        -11    1    1    2    0    0 -0.46083841345E+02  0.73278736132E+02  0.52935300609E+02  0.10146743149E+03  0.00000000000E+00 0. -1.
         11    1    1    2    0    0  0.86033553589E+01 -0.17838128725E+02 -0.43398202734E+01  0.20274382848E+02  0.00000000000E+00 0.  1.
</event>
<event>
 7    1  0.2766180E-009  0.2137927E+03  0.7561462E-02  0.1138597E+00
         -1   -1    0    0    0  501 -0.00000000000E+00  0.00000000000E+00  0.60526507548E+02  0.60526507548E+02  0.00000000000E+00 0.  1.
          1   -1    0    0  501    0  0.00000000000E+00 -0.00000000000E+00 -0.95194009614E+03  0.95194009614E+03  0.00000000000E+00 0. -1.
         25    2    1    2    0    0  0.18722506526E+03 -0.73996691405E+02 -0.31002876107E+03  0.39024774816E+03  0.12508691720E+03 0.  0.
          5    1    3    3  502    0  0.29285024135E+02 -0.31819007841E+02 -0.44608352005E+01  0.43674172565E+02  0.41800000000E+01 0. -1.
         -5    1    3    3    0  502  0.15794004112E+03 -0.42177683565E+02 -0.30556792587E+03  0.34657357559E+03  0.41800000000E+01 0. -1.
        -11    1    1    2    0    0 -0.30150643712E+02 -0.21275995608E+02 -0.76126874710E+02  0.84599233794E+02  0.00000000000E+00 0.  1.
         11    1    1    2    0    0 -0.15707442154E+03  0.95272687013E+02 -0.50525795281E+03  0.53761962173E+03  0.00000000000E+00 0. -1.
</event>
<event>
 7    1  0.2766180E-009  0.1078726E+03  0.7561462E-02  0.1264561E+00
         -1   -1    0    0    0  501 -0.00000000000E+00  0.00000000000E+00  0.31404785930E+03  0.31404785930E+03  0.00000000000E+00 0.  1.
          1   -1    0    0  501    0  0.00000000000E+00 -0.00000000000E+00 -0.44721008787E+02  0.44721008787E+02  0.00000000000E+00 0. -1.
         25    2    1    2    0    0 -0.49085118834E+02 -0.62747570213E+00  0.17735440450E+03  0.22250864639E+03  0.12508305363E+03 0.  0.
          5    1    3    3  502    0 -0.25389198095E+02 -0.55940073902E+02  0.42612339067E+02  0.74881153095E+02  0.41800000000E+01 0.  1.
         -5    1    3    3    0  502 -0.23695920739E+02  0.55312598200E+02  0.13474206543E+03  0.14762749330E+03  0.41800000000E+01 0.  1.
        -11    1    1    2    0    0 -0.46695991338E+01  0.31512012001E+02  0.98095476961E+01  0.33332255886E+02  0.00000000000E+00 0. -1.
         11    1    1    2    0    0  0.53754717968E+02 -0.30884536299E+02  0.82162898311E+02  0.10292796581E+03  0.00000000000E+00 0.  1.
</event>
<event>
 7    1  0.2766180E-009  0.1020478E+03  0.7561462E-02  0.1276048E+00
          1   -1    0    0  501    0  0.00000000000E+00  0.00000000000E+00  0.57484930516E+03  0.57484930516E+03  0.00000000000E+00 0. -1.
         -1   -1    0    0    0  501 -0.00000000000E+00 -0.00000000000E+00 -0.20572341719E+02  0.20572341719E+02  0.00000000000E+00 0.  1.
         25    2    1    2    0    0  0.89724746655E+01 -0.83791543291E+01  0.28987534595E+03  0.31595390354E+03  0.12509371464E+03 0.  0.
          5    1    3    3  502    0  0.59253660351E+02 -0.24546836473E+02  0.10040121051E+03  0.11921165596E+03  0.41800000000E+01 0. -1.
         -5    1    3    3    0  502 -0.50281185685E+02  0.16167682144E+02  0.18947413544E+03  0.19674224757E+03  0.41800000000E+01 0. -1.
        -11    1    1    2    0    0  0.35427670054E+02 -0.12772821971E+02  0.15517418569E+03  0.15967871709E+03  0.00000000000E+00 0. -1.
         11    1    1    2    0    0 -0.44400144719E+02  0.21151976301E+02  0.10922743180E+03  0.11978902625E+03  0.00000000000E+00 0.  1.
</event>
<event>
 7    1  0.2766180E-009  0.1328291E+03  0.7561462E-02  0.1223317E+00
         -2   -1    0    0    0  501 -0.00000000000E+00  0.00000000000E+00  0.67077584348E+02  0.67077584348E+02  0.00000000000E+00 0. -1.
          2   -1    0    0  501    0  0.00000000000E+00 -0.00000000000E+00 -0.30672763949E+03  0.30672763949E+03  0.00000000000E+00 0.  1.
         25    2    1    2    0    0  0.27537489057E+02  0.73190784339E+02 -0.19764109612E+03  0.24662638896E+03  0.12508944256E+03 0.  0.
          5    1    3    3  502    0  0.62076248104E+02  0.88282938419E+02 -0.12934753645E+03  0.16850992665E+03  0.41800000000E+01 0.  1.
         -5    1    3    3    0  502 -0.34538759046E+02 -0.15092154080E+02 -0.68293559669E+02  0.78116462308E+02  0.41800000000E+01 0.  1.
        -11    1    1    2    0    0 -0.61112202591E+02 -0.49406023778E+02 -0.31872964217E+02  0.84802961853E+02  0.00000000000E+00 0.  1.
         11    1    1    2    0    0  0.33574713533E+02 -0.23784760561E+02 -0.10135994802E+02  0.42375873022E+02  0.00000000000E+00 0. -1.
</event>
<event>
 7    1  0.2766180E-009  0.1280911E+03  0.7561462E-02  0.1230316E+00
          2   -1    0    0  501    0  0.00000000000E+00  0.00000000000E+00  0.92190873242E+03  0.92190873242E+03  0.00000000000E+00 0. -1.
         -2   -1    0    0    0  501 -0.00000000000E+00 -0.00000000000E+00 -0.34588835942E+02  0.34588835942E+02  0.00000000000E+00 0.  1.
         25    2    1    2    0    0  0.98610843322E+02  0.25723597562E+02  0.73203727248E+03  0.74960889491E+03  0.12509646332E+03 0.  0.
          5    1    3    3  502    0  0.10356582509E+02  0.42683534891E+02  0.47948868817E+03  0.48151429619E+03  0.41800000000E+01 0.  1.
         -5    1    3    3    0  502  0.88254260812E+02 -0.16959937329E+02  0.25254858431E+03  0.26809459872E+03  0.41800000000E+01 0.  1.
        -11    1    1    2    0    0 -0.73744923089E+01 -0.29868109920E+02  0.52000967641E+01  0.31201412361E+02  0.00000000000E+00 0.  1.
         11    1    1    2    0    0 -0.91236351013E+02  0.41445123580E+01  0.15008252724E+03  0.17568726110E+03  0.00000000000E+00 0. -1.
</event>
<event>
 7    1  0.2766180E-009  0.9793679E+02  0.7561462E-02  0.1284695E+00
         -1   -1    0    0    0  501 -0.00000000000E+00  0.00000000000E+00  0.20728411689E+02  0.20728411689E+02  0.00000000000E+00 0.  1.
          1   -1    0    0  501    0  0.00000000000E+00 -0.00000000000E+00 -0.13948770306E+04  0.13948770306E+04  0.00000000000E+00 0. -1.
         25    2    1    2    0    0 -0.46175311270E+02  0.69179104026E+02 -0.11507776552E+04  0.11605411390E+04  0.12509442814E+03 0.  0.
          5    1    3    3  502    0 -0.46408502968E+02  0.84568445467E+02 -0.11310917252E+04  0.11352055031E+04  0.41800000000E+01 0. -1.
         -5    1    3    3    0  502  0.23319169772E+00 -0.15389341441E+02 -0.19685929996E+02  0.25335635934E+02  0.41800000000E+01 0. -1.
        -11    1    1    2    0    0  0.37787278323E+02 -0.52323556672E+02 -0.22690711869E+03  0.23590776481E+03  0.00000000000E+00 0. -1.
         11    1    1    2    0    0  0.83880329473E+01 -0.16855547353E+02  0.35361549483E+01  0.19156538443E+02  0.00000000000E+00 0.  1.
</event>
<event>
 7    1  0.2766180E-009  0.1232596E+03  0.7561462E-02  0.1237815E+00
         -2   -1    0    0    0  501 -0.00000000000E+00  0.00000000000E+00  0.32120121694E+02  0.32120121694E+02  0.00000000000E+00 0.  1.
          2   -1    0    0  501    0  0.00000000000E+00 -0.00000000000E+00 -0.55804383907E+03  0.55804383907E+03  0.00000000000E+00 0. -1.
         25    2    1    2    0    0  0.64656891129E+02  0.15270899547E+02 -0.37544057918E+03  0.40127015913E+03  0.12509355768E+03 0.  0.
          5    1    3    3  502    0  0.34788549323E+02 -0.50185021052E+02 -0.24189869253E+03  0.24952200174E+03  0.41800000000E+01 0.  1.
         -5    1    3    3    0  502  0.29868341806E+02  0.65455920600E+02 -0.13354188664E+03  0.15174815739E+03  0.41800000000E+01 0.  1.
        -11    1    1    2    0    0 -0.53611008994E+02  0.33513042011E+02 -0.95830026043E+02  0.11480704753E+03  0.00000000000E+00 0. -1.
         11    1    1    2    0    0 -0.11045882135E+02 -0.48783941558E+02 -0.54653112161E+02  0.74086754113E+02  0.00000000000E+00 0.  1.
</event>
<event>
 7    1  0.2766180E-009  0.9138704E+02  0.7561462E-02  0.1299527E+00
         -3   -1    0    0    0  501 -0.00000000000E+00  0.00000000000E+00  0.50218473967E+03  0.50218473967E+03  0.00000000000E+00 0.  1.
          3   -1    0    0  501    0  0.00000000000E+00 -0.00000000000E+00 -0.35006773625E+02  0.35006773625E+02  0.00000000000E+00 0. -1.
         25    2    1    2    0    0  0.33500956257E+02  0.33108805886E+02  0.37826116617E+03  0.40118358044E+03  0.12509295858E+03 0.  0.
          5    1    3    3  502    0 -0.34218587979E+01  0.46088608593E+02  0.41882381256E+02  0.62509800986E+02  0.41800000000E+01 0. -1.
         -5    1    3    3    0  502  0.36922815055E+02 -0.12979802707E+02  0.33637878491E+03  0.33867377945E+03  0.41800000000E+01 0. -1.
        -11    1    1    2    0    0 -0.22247398007E+02 -0.62071175176E+02  0.37289442546E+02  0.75751435835E+02  0.00000000000E+00 0. -1.
         11    1    1    2    0    0 -0.11253558250E+02  0.28962369290E+02  0.51627357330E+02  0.60256497019E+02  0.00000000000E+00 0.  1.
</event>
<event>
 7    1  0.2766180E-009  0.1247092E+03  0.7561462E-02  0.1235525E+00
          2   -1    0    0  501    0  0.00000000000E+00  0.00000000000E+00  0.10266379983E+03  0.10266379983E+03  0.00000000000E+00 0. -1.
         -2   -1    0    0    0  501 -0.00000000000E+00 -0.00000000000E+00 -0.18102681856E+03  0.18102681856E+03  0.00000000000E+00 0.  1.
         25    2    1    2    0    0  0.80994822750E+02  0.29511752670E+01 -0.62264229882E+02  0.16153274341E+03  0.12508845720E+03 0.  0.
          5    1    3    3  502    0  0.10622219003E+03 -0.14308128752E+02 -0.71994036950E+02  0.12918393848E+03  0.41800000000E+01 0. -1.
         -5    1    3    3    0  502 -0.25227367284E+02  0.17259304019E+02  0.97298070687E+01  0.32348804938E+02  0.41800000000E+01 0. -1.
        -11    1    1    2    0    0 -0.13717643351E+02  0.32487033101E+02  0.17093785236E+02  0.39189010609E+02  0.00000000000E+00 0. -1.
         11    1    1    2    0    0 -0.67277179399E+02 -0.35438208368E+02 -0.33192574083E+02  0.82968864368E+02  0.00000000000E+00 0.  1.
</event>
<event>
 7    1  0.2766180E-009  0.2309997E+03  0.7561462E-02  0.1125938E+00
         -2   -1    0    0    0  501 -0.00000000000E+00  0.00000000000E+00  0.86488840869E+03  0.86488840869E+03  0.00000000000E+00 0. -1.
          2   -1    0    0  501    0  0.00000000000E+00 -0.00000000000E+00 -0.63553721509E+02  0.63553721509E+02  0.00000000000E+00 0.  1.
         25    2    1    2    0    0 -0.80545389259E+02 -0.19120556623E+03  0.41507482387E+03  0.48060566366E+03  0.12509023238E+03 0.  0.
          5    1    3    3  502    0 -0.49701841301E+01  0.15993582370E+02  0.11698545563E+02  0.20852476486E+02  0.41800000000E+01 0.  1.
         -5    1    3    3    0  502 -0.75575205129E+02 -0.20719914860E+03  0.40337627831E+03  0.45975318717E+03  0.41800000000E+01 0.  1.
        -11    1    1    2    0    0  0.98690557601E+02  0.15747154046E+03  0.29238899763E+03  0.34645120601E+03  0.00000000000E+00 0.  1.
         11    1    1    2    0    0 -0.18145168342E+02  0.33734025773E+02  0.93870865689E+02  0.10138526054E+03  0.00000000000E+00 0. -1.
</event>
<event>
 7    1  0.2766180E-009  0.1058055E+03  0.7561462E-02  0.1268541E+00
         -1   -1    0    0    0  501 -0.00000000000E+00  0.00000000000E+00  0.15475431768E+03  0.15475431768E+03  0.00000000000E+00 0.  1.
          1   -1    0    0  501    0  0.00000000000E+00 -0.00000000000E+00 -0.11162427395E+03  0.11162427395E+03  0.00000000000E+00 0. -1.
         25    2    1    2    0    0 -0.44933530023E+02  0.48033589688E+02  0.56473303169E+02  0.15219544081E+03  0.12509184775E+03 0.  0.
          5    1    3    3  502    0 -0.81818205581E+02  0.29688148994E+02  0.66473490079E+02  0.10959836786E+03  0.41800000000E+01 0. -1.
         -5    1    3    3    0  502  0.36884675558E+02  0.18345440694E+02 -0.10000186910E+02  0.42597072945E+02  0.41800000000E+01 0. -1.
        -11    1    1    2    0    0  0.18812239986E+02  0.86105457616E+01 -0.41019721688E+02  0.45941913750E+02  0.00000000000E+00 0. -1.
         11    1    1    2    0    0  0.26121290037E+02 -0.56644135449E+02  0.27676462257E+02  0.68241237072E+02  0.00000000000E+00 0.  1.
</event>
<event>
 7    1  0.2766180E-009  0.1229960E+03  0.7561462E-02  0.1238235E+00
         -2   -1    0    0    0  501 -0.00000000000E+00  0.00000000000E+00  0.74501890190E+02  0.74501890190E+02  0.00000000000E+00 0.  1.
          2   -1    0    0  501    0  0.00000000000E+00 -0.00000000000E+00 -0.23033541760E+03  0.23033541760E+03  0.00000000000E+00 0. -1.
         25    2    1    2    0    0  0.20709829021E+02  0.65317493488E+02 -0.11631551178E+03  0.18403011152E+03  0.12507002714E+03 0.  0.
          5    1    3    3  502    0  0.66724258178E+02  0.60196789586E+02 -0.49640845435E+02  0.10274953061E+03  0.41800000000E+01 0. -1.
         -5    1    3    3    0  502 -0.46014429156E+02  0.51207039018E+01 -0.66674666349E+02  0.81280580902E+02  0.41800000000E+01 0. -1.
        -11    1    1    2    0    0  0.22427459969E+02  0.85499843403E+01 -0.23862787967E+02  0.33845617773E+02  0.00000000000E+00 0. -1.
         11    1    1    2    0    0 -0.43137288991E+02 -0.73867477828E+02 -0.15655227658E+02  0.86961578499E+02  0.00000000000E+00 0.  1.
</event>
<event>
 7    1  0.2766180E-009  0.3893627E+03  0.7561462E-02  0.1047527E+00
         -2   -1    0    0    0  501 -0.00000000000E+00  0.00000000000E+00  0.67970552901E+02  0.67970552901E+02  0.00000000000E+00 0.  1.
          2   -1    0    0  501    0  0.00000000000E+00 -0.00000000000E+00 -0.24395021968E+04  0.24395021968E+04  0.00000000000E+00 0. -1.
         25    2    1    2    0    0  0.30712202997E+03 -0.22406139467E+03 -0.90106422502E+03  0.98594712167E+03  0.12509012447E+03 0.  0.
          5    1    3    3  502    0  0.30213241391E+03 -0.22946675257E+03 -0.80964591518E+03  0.89413811374E+03  0.41800000000E+01 0.  1.
         -5    1    3    3    0  502  0.49896160543E+01  0.54053579084E+01 -0.91418309846E+02  0.91809007932E+02  0.41800000000E+01 0.  1.
        -11    1    1    2    0    0 -0.30632814612E+03  0.19794002221E+03 -0.13704099560E+04  0.14181116433E+04  0.00000000000E+00 0.  1.
         11    1    1    2    0    0 -0.79388384945E+00  0.26121372456E+02 -0.10005746290E+03  0.10341398471E+03  0.00000000000E+00 0. -1.
</event>
<event>
 7    1  0.2766180E-009  0.1242809E+03  0.7561462E-02  0.1236197E+00
          2   -1    0    0  501    0  0.00000000000E+00  0.00000000000E+00  0.87721643402E+02  0.87721643402E+02  0.00000000000E+00 0. -1.
         -2   -1    0    0    0  501 -0.00000000000E+00 -0.00000000000E+00 -0.24601706936E+03  0.24601706936E+03  0.00000000000E+00 0.  1.
         25    2    1    2    0    0  0.37592058441E+02 -0.91149858470E+02 -0.89138330513E+02  0.18252439790E+03  0.12509218323E+03 0.  0.
          5    1    3    3  502    0 -0.69940922667E+00 -0.79380393010E+02  0.54882514378E+01  0.79682678617E+02  0.41800000000E+01 0.  1.
         -5    1    3    3    0  502  0.38291467668E+02 -0.11769465460E+02 -0.94626581951E+02  0.10284171928E+03  0.41800000000E+01 0.  1.
        -11    1    1    2    0    0  0.25753128555E+02  0.39028865672E+02 -0.46875792027E+02  0.66210390908E+02  0.00000000000E+00 0.  1.
         11    1    1    2    0    0 -0.63345186996E+02  0.52120992798E+02 -0.22281303419E+02  0.85003923956E+02  0.00000000000E+00 0. -1.
</event>
<event>
 7    1  0.2766180E-009  0.7894869E+02  0.7561462E-02  0.1332062E+00
         -1   -1    0    0    0  501 -0.00000000000E+00  0.00000000000E+00  0.31912031083E+03  0.31912031083E+03  0.00000000000E+00 0.  1.
          1   -1    0    0  501    0  0.00000000000E+00 -0.00000000000E+00 -0.44638452788E+02  0.44638452788E+02  0.00000000000E+00 0. -1.
         25    2    1    2    0    0 -0.38677438870E+02  0.14522862393E+02  0.16000950890E+03  0.20726096163E+03  0.12508879033E+03 0.  0.
          5    1    3    3  502    0  0.96963723043E+01  0.16079469795E+02 -0.15781172208E+02  0.24881454560E+02  0.41800000000E+01 0. -1.
         -5    1    3    3    0  502 -0.48373811174E+02 -0.15566074019E+01  0.17579068111E+03  0.18237950707E+03  0.41800000000E+01 0. -1.
        -11    1    1    2    0    0 -0.20416325898E+02  0.13707648393E+02  0.77464412239E+02  0.81273988158E+02  0.00000000000E+00 0.  1.
         11    1    1    2    0    0  0.59093764768E+02 -0.28230510786E+02  0.37007936906E+02  0.75223813835E+02  0.00000000000E+00 0. -1.
</event>
<event>
 7    1  0.2766180E-009  0.1376318E+03  0.7561462E-02  0.1216551E+00
          1   -1    0    0  501    0  0.00000000000E+00  0.00000000000E+00  0.52204381745E+03  0.52204381745E+03  0.00000000000E+00 0. -1.
         -1   -1    0    0    0  501 -0.00000000000E+00 -0.00000000000E+00 -0.38824390921E+02  0.38824390921E+02  0.00000000000E+00 0.  1.
         25    2    1    2    0    0  0.93796278781E+02  0.37800939077E+00  0.25759871806E+03  0.30133669683E+03  0.12509524572E+03 0.  0.
          5    1    3    3  502    0  0.86357513439E+01  0.49675709377E+02  0.47948597620E+02  0.69705040830E+02  0.41800000000E+01 0.  1.
         -5    1    3    3    0  502  0.85160527437E+02 -0.49297699986E+02  0.20965012044E+03  0.23163165600E+03  0.41800000000E+01 0.  1.
        -11    1    1    2    0    0 -0.27422342587E+02 -0.40285996193E+02  0.65261358557E+02  0.81449317265E+02  0.00000000000E+00 0.  1.
         11    1    1    2    0    0 -0.66373936194E+02  0.39907986803E+02  0.16035934991E+03  0.17808219428E+03  0.00000000000E+00 0. -1.
</event>
<event>
 7    1  0.2766180E-009  0.1287762E+03  0.7561462E-02  0.1229283E+00
          2   -1    0    0  501    0  0.00000000000E+00  0.00000000000E+00  0.83744607567E+03  0.83744607567E+03  0.00000000000E+00 0.  1.
         -2   -1    0    0    0  501 -0.00000000000E+00 -0.00000000000E+00 -0.23595725298E+02  0.23595725298E+02  0.00000000000E+00 0. -1.
         25    2    1    2    0    0 -0.24664176170E+01 -0.84775598090E+02  0.50327591389E+03  0.52547802116E+03  0.12509004747E+03 0.  0.
          5    1    3    3  502    0  0.52770428991E+02 -0.17951587738E+02  0.11833594437E+03  0.13087339610E+03  0.41800000000E+01 0.  1.
         -5    1    3    3    0  502 -0.55236846608E+02 -0.66824010353E+02  0.38493996952E+03  0.39460462506E+03  0.41800000000E+01 0.  1.
        -11    1    1    2    0    0 -0.35228418816E+02  0.60538056396E+02  0.11281212062E+03  0.13278731989E+03  0.00000000000E+00 0. -1.
         11    1    1    2    0    0  0.37694836433E+02  0.24237541694E+02  0.19776231587E+03  0.20277645992E+03  0.00000000000E+00 0.  1.
</event>
<event>
 7    1  0.2766180E-009  0.7229551E+02  0.7561462E-02  0.1352457E+00
         -1   -1    0    0    0  501 -0.00000000000E+00  0.00000000000E+00  0.40435589890E+02  0.40435589890E+02  0.00000000000E+00 0.  1.
          1   -1    0    0  501    0  0.00000000000E+00 -0.00000000000E+00 -0.37619607644E+03  0.37619607644E+03  0.00000000000E+00 0. -1.
         25    2    1    2    0    0 -0.19773887038E+02 -0.50077503610E+02 -0.20354469426E+03  0.24490468295E+03  0.12509635563E+03 0.  0.
          5    1    3    3  502    0 -0.14312848856E+02  0.55427448179E+01  0.13423937245E+02  0.20814758073E+02  0.41800000000E+01 0.  1.
         -5    1    3    3    0  502 -0.54610381823E+01 -0.55620248428E+02 -0.21696863150E+03  0.22408992487E+03  0.41800000000E+01 0.  1.
        -11    1    1    2    0    0 -0.20122255474E+01  0.50801629779E+02 -0.15730084086E+02  0.53219265170E+02  0.00000000000E+00 0.  1.
         11    1    1    2    0    0  0.21786112586E+02 -0.72412616850E+00 -0.11648570821E+03  0.11850771822E+03  0.00000000000E+00 0. -1.
</event>
<event>
 7    1  0.2766180E-009  0.1428215E+03  0.7561462E-02  0.1209582E+00
          2   -1    0    0  501    0  0.00000000000E+00  0.00000000000E+00  0.89904246433E+03  0.89904246433E+03  0.00000000000E+00 0. -1.
         -2   -1    0    0    0  501 -0.00000000000E+00 -0.00000000000E+00 -0.40817117982E+02  0.40817117982E+02  0.00000000000E+00 0.  1.
         25    2    1    2    0    0 -0.13130188097E+03 -0.45877935563E+02  0.26780399181E+03  0.32666664646E+03  0.12508857246E+03 0.  0.
          5    1    3    3  502    0 -0.10725995087E+03 -0.48764230427E+02  0.27651109123E+03  0.30059691149E+03  0.41800000000E+01 0.  1.
         -5    1    3    3    0  502 -0.24041930097E+02  0.28862948637E+01 -0.87070994136E+01  0.26069734963E+02  0.41800000000E+01 0.  1.
        -11    1    1    2    0    0  0.42510487405E+02 -0.14875429197E+01  0.61462349352E+02  0.74746068199E+02  0.00000000000E+00 0.  1.
         11    1    1    2    0    0  0.88791393561E+02  0.47365478483E+02  0.52895900518E+03  0.53844686765E+03  0.00000000000E+00 0. -1.
</event>
<event>
 7    1  0.2766180E-009  0.1154425E+03  0.7561462E-02  0.1250811E+00
          2   -1    0    0  501    0  0.00000000000E+00  0.00000000000E+00  0.79173288237E+03  0.79173288237E+03  0.00000000000E+00 0. -1.
         -2   -1    0    0    0  501 -0.00000000000E+00 -0.00000000000E+00 -0.27749928661E+02  0.27749928661E+02  0.00000000000E+00 0.  1.
         25    2    1    2    0    0 -0.52244914093E+02  0.50033909289E+02  0.61133341128E+03  0.62817843186E+03  0.12508668746E+03 0.  0.
          5    1    3    3  502    0 -0.63911399677E+02  0.74088846367E+02  0.29803218645E+03  0.31371082341E+03  0.41800000000E+01 0. -1.
         -5    1    3    3    0  502  0.11666485585E+02 -0.24054937078E+02  0.31330122482E+03  0.31446760844E+03  0.41800000000E+01 0. -1.
        -11    1    1    2    0    0  0.72629503509E+02 -0.35403525407E+02  0.14333490587E+03  0.16453981169E+03  0.00000000000E+00 0. -1.
         11    1    1    2    0    0 -0.20384589416E+02 -0.14630383882E+02  0.93146365634E+01  0.26764567482E+02  0.00000000000E+00 0.  1.
</event>
<event>
 7    1  0.2766180E-009  0.1680483E+03  0.7561462E-02  0.1179899E+00
         -4   -1    0    0    0  501 -0.00000000000E+00  0.00000000000E+00  0.49799173980E+03  0.49799173980E+03  0.00000000000E+00 0.  1.
          4   -1    0    0  501    0  0.00000000000E+00 -0.00000000000E+00 -0.86842268853E+02  0.86842268853E+02  0.00000000000E+00 0. -1.
         25    2    1    2    0    0  0.79432341074E+02  0.13753509739E+03  0.10484253301E+03  0.22773863352E+03  0.12509008211E+03 0.  0.
          5    1    3    3  502    0  0.78215353636E+02  0.11388762886E+03  0.13223547072E+03  0.19128963816E+03  0.41800000000E+01 0.  1.
         -5    1    3    3    0  502  0.12169874381E+01  0.23647468529E+02 -0.27392937703E+02  0.36448995353E+02  0.41800000000E+01 0.  1.
        -11    1    1    2    0    0 -0.25351311042E+02  0.73180692664E+00  0.98425188336E+02  0.10164025881E+03  0.00000000000E+00 0.  1.
         11    1    1    2    0    0 -0.54081030032E+02 -0.13826690432E+03  0.20788174960E+03  0.25545511633E+03  0.00000000000E+00 0. -1.
</event>
<event>
 7    1  0.2766180E-009  0.3186371E+03  0.7561462E-02  0.1076278E+00
         -1   -1    0    0    0  501 -0.00000000000E+00  0.00000000000E+00  0.40519762962E+03  0.40519762962E+03  0.00000000000E+00 0.  1.
          1   -1    0    0  501    0  0.00000000000E+00 -0.00000000000E+00 -0.30641464636E+03  0.30641464636E+03  0.00000000000E+00 0. -1.
         25    2    1    2    0    0 -0.20597874351E+03 -0.22122909474E+03 -0.95494641024E+02  0.34078977747E+03  0.12509552682E+03 0.  0.
          5    1    3    3  502    0 -0.18454248238E+03 -0.11369283941E+03 -0.73184605955E+02  0.22881313006E+03  0.41800000000E+01 0.  1.
         -5    1    3    3    0  502 -0.21436261121E+02 -0.10753625533E+03 -0.22310035069E+02  0.11197664742E+03  0.41800000000E+01 0.  1.
        -11    1    1    2    0    0  0.18455793645E+03  0.15457903824E+03  0.17673709782E+03  0.29865082072E+03  0.00000000000E+00 0.  1.
         11    1    1    2    0    0  0.21420807056E+02  0.66650056503E+02  0.17540526470E+02  0.72171677794E+02  0.00000000000E+00 0. -1.
</event>
<event>
 7    1  0.2766180E-009  0.1016096E+03  0.7561462E-02  0.1276947E+00
         -1   -1    0    0    0  501 -0.00000000000E+00  0.00000000000E+00  0.13583399754E+02  0.13583399754E+02  0.00000000000E+00 0.  1.
          1   -1    0    0  501    0  0.00000000000E+00 -0.00000000000E+00 -0.16358967586E+04  0.16358967586E+04  0.00000000000E+00 0. -1.
         25    2    1    2    0    0 -0.36519261135E+02 -0.32745154706E+02 -0.13726276675E+04  0.13791883417E+04  0.12509143385E+03 0.  0.
          5    1    3    3  502    0 -0.74593885900E+02 -0.51870500825E+02 -0.99185938123E+03  0.99602073332E+03  0.41800000000E+01 0.  1.
         -5    1    3    3    0  502  0.38074624765E+02  0.19125346119E+02 -0.38076828625E+03  0.38316760840E+03  0.41800000000E+01 0.  1.
        -11    1    1    2    0    0  0.27070228063E+02 -0.75201060514E+01 -0.14727874734E+02  0.31721594168E+02  0.00000000000E+00 0.  1.
         11    1    1    2    0    0  0.94490330724E+01  0.40265260757E+02 -0.23495781662E+03  0.23857022246E+03  0.00000000000E+00 0. -1.
</event>
<event>
 7    1  0.2766180E-009  0.1045147E+03  0.7561462E-02  0.1271079E+00
         -4   -1    0    0    0  501 -0.00000000000E+00  0.00000000000E+00  0.10589324247E+03  0.10589324247E+03  0.00000000000E+00 0. -1.
          4   -1    0    0  501    0  0.00000000000E+00 -0.00000000000E+00 -0.18296755879E+03  0.18296755879E+03  0.00000000000E+00 0.  1.
         25    2    1    2    0    0 -0.70972820402E+01  0.71113072305E+02 -0.93281083622E+02  0.17162979389E+03  0.12509190671E+03 0.  0.
          5    1    3    3  502    0 -0.45047127848E+02  0.58189663904E+02 -0.10622750513E+03  0.12929437714E+03  0.41800000000E+01 0.  1.
         -5    1    3    3    0  502  0.37949845808E+02  0.12923408401E+02  0.12946421512E+02  0.42335416751E+02  0.41800000000E+01 0.  1.
        -11    1    1    2    0    0 -0.20340706100E+02 -0.17426339621E+01 -0.24785436465E+02  0.32110729648E+02  0.00000000000E+00 0.  1.
         11    1    1    2    0    0  0.27437988140E+02 -0.69370438343E+02  0.40992203775E+02  0.85120277722E+02  0.00000000000E+00 0. -1.
</event>
<event>
 7    1  0.2766180E-009  0.1166230E+03  0.7561462E-02  0.1248774E+00
         -1   -1    0    0    0  501 -0.00000000000E+00  0.00000000000E+00  0.74971387117E+02  0.74971387117E+02  0.00000000000E+00 0.  1.
          1   -1    0    0  501    0  0.00000000000E+00 -0.00000000000E+00 -0.22998425089E+03  0.22998425089E+03  0.00000000000E+00 0. -1.
         25    2    1    2    0    0 -0.31480166647E+02 -0.65507738773E+02 -0.10690835040E+03  0.17988479502E+03  0.12508748683E+03 0.  0.
          5    1    3    3  502    0 -0.75728314590E+02 -0.17464679676E+02 -0.45582471142E+02  0.90194383097E+02  0.41800000000E+01 0. -1.
         -5    1    3    3    0  502  0.44248147943E+02 -0.48043059097E+02 -0.61325879256E+02  0.89690411920E+02  0.41800000000E+01 0. -1.
        -11    1    1    2    0    0 -0.46890147128E+01  0.50650722107E+02  0.13022147792E+02  0.52507702692E+02  0.00000000000E+00 0.  1.
         11    1    1    2    0    0  0.36169181360E+02  0.14857016666E+02 -0.61126661166E+02  0.72563140297E+02  0.00000000000E+00 0. -1.
</event>
<event>
 7    1  0.2766180E-009  0.9917404E+02  0.7561462E-02  0.1282042E+00
          1   -1    0    0  501    0  0.00000000000E+00  0.00000000000E+00  0.52545367834E+02  0.52545367834E+02  0.00000000000E+00 0. -1.
         -1   -1    0    0    0  501 -0.00000000000E+00 -0.00000000000E+00 -0.31416711746E+03  0.31416711746E+03  0.00000000000E+00 0.  1.
         25    2    1    2    0    0 -0.39168870097E+02  0.29397849191E+02 -0.21526710406E+03  0.25374218764E+03  0.12508692088E+03 0.  0.
          5    1    3    3  502    0 -0.46539693471E+01  0.75349355984E+02 -0.13799692296E+03  0.15735249608E+03  0.41800000000E+01 0. -1.
         -5    1    3    3    0  502 -0.34514900750E+02 -0.45951506793E+02 -0.77270181105E+02  0.96389691556E+02  0.41800000000E+01 0. -1.
        -11    1    1    2    0    0  0.31221897505E+02 -0.40703081196E+02  0.12264491784E+02  0.52744340563E+02  0.00000000000E+00 0. -1.
         11    1    1    2    0    0  0.79469725929E+01  0.11305232005E+02 -0.58619137354E+02  0.60225957096E+02  0.00000000000E+00 0.  1.
</event>
<event>
 7    1  0.2766180E-009  0.1617386E+03  0.7561462E-02  0.1186748E+00
         -2   -1    0    0    0  501 -0.00000000000E+00  0.00000000000E+00  0.80891839928E+02  0.80891839928E+02  0.00000000000E+00 0.  1.
          2   -1    0    0  501    0  0.00000000000E+00 -0.00000000000E+00 -0.53898114149E+03  0.53898114149E+03  0.00000000000E+00 0. -1.
         25    2    1    2    0    0 -0.91793586672E+02  0.94417611622E+02 -0.41688548672E+03  0.45473171823E+03  0.12508668428E+03 0.  0.
          5    1    3    3  502    0 -0.56782077081E+02 -0.19310844286E+02 -0.10660810672E+03  0.12239229470E+03  0.41800000000E+01 0.  1.
         -5    1    3    3    0  502 -0.35011509591E+02  0.11372845591E+03 -0.31027738001E+03  0.33233942353E+03  0.41800000000E+01 0.  1.
        -11    1    1    2    0    0  0.66633981443E+02 -0.98374725475E+02 -0.60361890434E+02  0.13327127189E+03  0.00000000000E+00 0. -1.
         11    1    1    2    0    0  0.25159605229E+02  0.39571138526E+01  0.19158075588E+02  0.31869991302E+02  0.00000000000E+00 0.  1.
</event>
<event>
 7    1  0.2766180E-009  0.1062708E+03  0.7561462E-02  0.1267636E+00
          1   -1    0    0  501    0  0.00000000000E+00  0.00000000000E+00  0.72807801608E+02  0.72807801608E+02  0.00000000000E+00 0. -1.
         -1   -1    0    0    0  501 -0.00000000000E+00 -0.00000000000E+00 -0.23710825441E+03  0.23710825441E+03  0.00000000000E+00 0.  1.
         25    2    1    2    0    0 -0.15722111313E+02 -0.22095090816E+02 -0.93606653670E+01  0.12833416567E+03  0.12508660280E+03 0.  0.
          5    1    3    3  502    0  0.44741126523E+02  0.14873047562E+02 -0.27922126127E+02  0.54955377114E+02  0.41800000000E+01 0. -1.
         -5    1    3    3    0  502 -0.60463237836E+02 -0.36968138378E+02  0.18561460760E+02  0.73378788558E+02  0.41800000000E+01 0. -1.
        -11    1    1    2    0    0  0.39098097558E+02  0.46277103219E+02 -0.90736356096E+02  0.10910232735E+03  0.00000000000E+00 0. -1.
         11    1    1    2    0    0 -0.23375986244E+02 -0.24182012404E+02 -0.64203431343E+02  0.72479563002E+02  0.00000000000E+00 0.  1.
</event>
<event>
 7    1  0.2766180E-009  0.7636767E+02  0.7561462E-02  0.1339687E+00
          2   -1    0    0  501    0  0.00000000000E+00  0.00000000000E+00  0.60716417231E+03  0.60716417231E+03  0.00000000000E+00 0. -1.
         -2   -1    0    0    0  501 -0.00000000000E+00 -0.00000000000E+00 -0.46455674267E+02  0.46455674267E+02  0.00000000000E+00 0.  1.
         25    2    1    2    0    0  0.20309539629E+01  0.46790980478E+02  0.52888357755E+03  0.54549186306E+03  0.12510001373E+03 0.  0.
          5    1    3    3  502    0  0.36025055392E+02  0.21205059538E+02  0.47430881787E+03  0.47616571304E+03  0.41800000000E+01 0.  1.
         -5    1    3    3    0  502 -0.33994101429E+02  0.25585920940E+02  0.54574759674E+02  0.69326150014E+02  0.41800000000E+01 0.  1.
        -11    1    1    2    0    0  0.22484640101E+02 -0.32735213056E+02  0.57543881840E+02  0.69917462422E+02  0.00000000000E+00 0. -1.
         11    1    1    2    0    0 -0.24515594064E+02 -0.14055767422E+02 -0.25718961342E+02  0.38210521099E+02  0.00000000000E+00 0.  1.
</event>
<event>
 7    1  0.2766180E-009  0.1113863E+03  0.7561462E-02  0.1258024E+00
         -3   -1    0    0    0  501 -0.00000000000E+00  0.00000000000E+00  0.16011192858E+02  0.16011192858E+02  0.00000000000E+00 0.  1.
          3   -1    0    0  501    0  0.00000000000E+00 -0.00000000000E+00 -0.10153707313E+04  0.10153707313E+04  0.00000000000E+00 0. -1.
         25    2    1    2    0    0  0.17023959610E+02 -0.47643827682E+02 -0.71794607376E+03  0.73051671691E+03  0.12509340248E+03 0.  0.
          5    1    3    3  502    0  0.55441322219E+02  0.44877156957E-01 -0.52753642522E+03  0.53045819303E+03  0.41800000000E+01 0.  1.
         -5    1    3    3    0  502 -0.38417362609E+02 -0.47688704839E+02 -0.19040964855E+03  0.20005852388E+03  0.41800000000E+01 0.  1.
        -11    1    1    2    0    0 -0.87714645186E+01  0.75875205998E+02 -0.21712324569E+03  0.23016622101E+03  0.00000000000E+00 0. -1.
         11    1    1    2    0    0 -0.82524950915E+01 -0.28231378316E+02 -0.64290218992E+02  0.70698986236E+02  0.00000000000E+00 0.  1.
</event>
<event>
 7    1  0.2766180E-009  0.1341523E+03  0.7561462E-02  0.1221421E+00
          2   -1    0    0  501    0  0.00000000000E+00  0.00000000000E+00  0.15974646190E+04  0.15974646190E+04  0.00000000000E+00 0. -1.
         -2   -1    0    0    0  501 -0.00000000000E+00 -0.00000000000E+00 -0.17031457628E+02  0.17031457628E+02  0.00000000000E+00 0.  1.
         25    2    1    2    0    0 -0.95350624213E+02  0.39213675740E+02  0.11729342682E+04  0.11840852704E+04  0.12511465216E+03 0.  0.
          5    1    3    3  502    0 -0.10431113757E+03 -0.55101511132E+01  0.57703199758E+03  0.58642524998E+03  0.41800000000E+01 0.  1.
         -5    1    3    3    0  502  0.89605133618E+01  0.44723826853E+02  0.59590227060E+03  0.59766002041E+03  0.41800000000E+01 0.  1.
        -11    1    1    2    0    0  0.49239193160E+02  0.10295541807E+02  0.70017902512E+02  0.86214865286E+02  0.00000000000E+00 0.  1.
         11    1    1    2    0    0  0.46111431052E+02 -0.49509217547E+02  0.33748099066E+03  0.34419594093E+03  0.00000000000E+00 0. -1.
</event>
<event>
 7    1  0.2766180E-009  0.1439623E+03  0.7561462E-02  0.1208095E+00
          1   -1    0    0  501    0  0.00000000000E+00  0.00000000000E+00  0.90428862339E+03  0.90428862339E+03  0.00000000000E+00 0. -1.
         -1   -1    0    0    0  501 -0.00000000000E+00 -0.00000000000E+00 -0.26732375180E+02  0.26732375180E+02  0.00000000000E+00 0.  1.
         25    2    1    2    0    0  0.78162754222E+02  0.59092769880E+02  0.30975055531E+03  0.34813065195E+03  0.12509265648E+03 0.  0.
          5    1    3    3  502    0  0.87448011841E+02 -0.10782206688E+02  0.17746133382E+03  0.19817519562E+03  0.41800000000E+01 0. -1.
         -5    1    3    3    0  502 -0.92852576189E+01  0.69874976568E+02  0.13228922149E+03  0.14995545633E+03  0.41800000000E+01 0. -1.
        -11    1    1    2    0    0 -0.95236268066E+02 -0.58995095733E+02  0.52470239794E+03  0.53652863342E+03  0.00000000000E+00 0. -1.
         11    1    1    2    0    0  0.17073513845E+02 -0.97674146787E-01  0.43103294948E+02  0.46361713197E+02  0.00000000000E+00 0.  1.
</event>
<event>
 7    1  0.2766180E-009  0.1285300E+03  0.7561462E-02  0.1229653E+00
         -2   -1    0    0    0  501 -0.00000000000E+00  0.00000000000E+00  0.10819077797E+03  0.10819077797E+03  0.00000000000E+00 0.  1.
          2   -1    0    0  501    0  0.00000000000E+00 -0.00000000000E+00 -0.17953699966E+03  0.17953699966E+03  0.00000000000E+00 0. -1.
         25    2    1    2    0    0  0.83762295282E+02  0.81004073221E+01 -0.18103179519E+02  0.15184545939E+03  0.12509028627E+03 0.  0.
          5    1    3    3  502    0  0.43919993752E+02  0.55789123249E+02 -0.44825442659E+02  0.84072497487E+02  0.41800000000E+01 0. -1.
         -5    1    3    3    0  502  0.39842301530E+02 -0.47688715927E+02  0.26722263139E+02  0.67772961904E+02  0.41800000000E+01 0. -1.
        -11    1    1    2    0    0 -0.92112973546E+02 -0.32644190298E+02 -0.49940204045E+02  0.10974728715E+03  0.00000000000E+00 0.  1.
         11    1    1    2    0    0  0.83506782649E+01  0.24543782976E+02 -0.33028381292E+01  0.26135031088E+02  0.00000000000E+00 0. -1.
</event>
<event>
 7    1  0.2766180E-009  0.1037764E+03  0.7561462E-02  0.1272549E+00
          2   -1    0    0  501    0  0.00000000000E+00  0.00000000000E+00  0.26076925282E+02  0.26076925282E+02  0.00000000000E+00 0. -1.
         -2   -1    0    0    0  501 -0.00000000000E+00 -0.00000000000E+00 -0.63492527986E+03  0.63492527986E+03  0.00000000000E+00 0.  1.
         25    2    1    2    0    0 -0.47814352628E+02 -0.26181888333E+02 -0.45239153558E+03  0.47252988664E+03  0.12511869849E+03 0.  0.
          5    1    3    3  502    0 -0.31290891363E+02  0.45915096198E+02 -0.26956274321E+03  0.27526144094E+03  0.41800000000E+01 0.  1.
         -5    1    3    3    0  502 -0.16523461265E+02 -0.72096984531E+02 -0.18282879237E+03  0.19726844570E+03  0.41800000000E+01 0.  1.
        -11    1    1    2    0    0  0.38039158413E+02 -0.10762425225E+02 -0.15559237859E+02  0.42484082339E+02  0.00000000000E+00 0. -1.
         11    1    1    2    0    0  0.97751942155E+01  0.36944313558E+02 -0.14089758115E+03  0.14598823617E+03  0.00000000000E+00 0.  1.
</event>
<event>
 7    1  0.2766180E-009  0.1123971E+03  0.7561462E-02  0.1256194E+00
          2   -1    0    0  501    0  0.00000000000E+00  0.00000000000E+00  0.59611551662E+03  0.59611551662E+03  0.00000000000E+00 0. -1.
         -2   -1    0    0    0  501 -0.00000000000E+00 -0.00000000000E+00 -0.21697506087E+02  0.21697506087E+02  0.00000000000E+00 0.  1.
         25    2    1    2    0    0  0.32459928860E+02 -0.13369490974E+02  0.33991619318E+03  0.36390012686E+03  0.12509154117E+03 0.  0.
          5    1    3    3  502    0 -0.15392396214E+01  0.54080717821E+02  0.13974247069E+03  0.14990838474E+03  0.41800000000E+01 0.  1.
         -5    1    3    3    0  502  0.33999168482E+02 -0.67450208794E+02  0.20017372249E+03  0.21399174213E+03  0.41800000000E+01 0.  1.
        -11    1    1    2    0    0 -0.61848633674E+02 -0.16609095834E+01  0.17835526396E+03  0.18878191727E+03  0.00000000000E+00 0. -1.
         11    1    1    2    0    0  0.29388704813E+02  0.15030400557E+02  0.56146553396E+02  0.65130978572E+02  0.00000000000E+00 0.  1.
</event>
<event>
 7    1  0.2766180E-009  0.1448459E+03  0.7561462E-02  0.1206953E+00
          4   -1    0    0  501    0  0.00000000000E+00  0.00000000000E+00  0.12270477934E+03  0.12270477934E+03  0.00000000000E+00 0. -1.
         -4   -1    0    0    0  501 -0.00000000000E+00 -0.00000000000E+00 -0.39331228259E+03  0.39331228259E+03  0.00000000000E+00 0.  1.
         25    2    1    2    0    0 -0.10445877012E+03 -0.20426628875E+02  0.45318738583E+02  0.17038295151E+03  0.12509068821E+03 0.  0.
          5    1    3    3  502    0 -0.17542382396E+02 -0.63033323176E+02  0.30715908533E+02  0.72400790381E+02  0.41800000000E+01 0.  1.
         -5    1    3    3    0  502 -0.86916387728E+02  0.42606694301E+02  0.14602830050E+02  0.97982161133E+02  0.41800000000E+01 0.  1.
        -11    1    1    2    0    0  0.14613871513E+02 -0.23157661432E+02 -0.21746060886E+02  0.34967609121E+02  0.00000000000E+00 0. -1.
         11    1    1    2    0    0  0.89844898611E+02  0.43584290306E+02 -0.29418018094E+03  0.31066650130E+03  0.00000000000E+00 0.  1.
</event>
<event>
 7    1  0.2766180E-009  0.1077161E+03  0.7561462E-02  0.1264859E+00
          2   -1    0    0  501    0  0.00000000000E+00  0.00000000000E+00  0.73516644735E+03  0.73516644735E+03  0.00000000000E+00 0. -1.
         -2   -1    0    0    0  501 -0.00000000000E+00 -0.00000000000E+00 -0.17248132847E+02  0.17248132847E+02  0.00000000000E+00 0.  1.
         25    2    1    2    0    0  0.16166706415E+02  0.28876722166E+02  0.40720246039E+03  0.42726622272E+03  0.12508938344E+03 0.  0.
          5    1    3    3  502    0 -0.10670989378E+01 -0.44217200750E+02  0.79782132849E+02  0.91317909877E+02  0.41800000000E+01 0.  1.
         -5    1    3    3    0  502  0.17233805353E+02  0.73093922917E+02  0.32742032754E+03  0.33594831284E+03  0.41800000000E+01 0.  1.
        -11    1    1    2    0    0  0.35296576644E+02 -0.26742356743E+02  0.14175138407E+03  0.14850743030E+03  0.00000000000E+00 0.  1.
         11    1    1    2    0    0 -0.51463283060E+02 -0.21343654235E+01  0.16896447004E+03  0.17664092718E+03  0.00000000000E+00 0. -1.
</event>
<event>
 7    1  0.2766180E-009  0.2650475E+03  0.7561462E-02  0.1104148E+00
          2   -1    0    0  501    0  0.00000000000E+00  0.00000000000E+00  0.18305912850E+04  0.18305912850E+04  0.00000000000E+00 0. -1.
         -2   -1    0    0    0  501 -0.00000000000E+00 -0.00000000000E+00 -0.52517764544E+02  0.52517764544E+02  0.00000000000E+00 0.  1.
         25    2    1    2    0    0 -0.60425079644E+02  0.25647728875E+03  0.12781086415E+04  0.13109691827E+04  0.12508680418E+03 0.  0.
          5    1    3    3  502    0 -0.30471893530E+02  0.18284317721E+03  0.11048395389E+04  0.11202892675E+04  0.41800000000E+01 0.  1.
         -5    1    3    3    0  502 -0.29953186114E+02  0.73634111537E+02  0.17326910257E+03  0.19067991516E+03  0.41800000000E+01 0.  1.
        -11    1    1    2    0    0  0.17101008266E+02 -0.30318827079E+02  0.14430187316E+03  0.14844091874E+03  0.00000000000E+00 0. -1.
         11    1    1    2    0    0  0.43324071378E+02 -0.22615846167E+03  0.35566300579E+03  0.42369894811E+03  0.00000000000E+00 0.  1.
</event>
<event>
 7    1  0.2766180E-009  0.1657471E+03  0.7561462E-02  0.1182357E+00
          3   -1    0    0  501    0  0.00000000000E+00  0.00000000000E+00  0.16559437586E+02  0.16559437586E+02  0.00000000000E+00 0. -1.
         -3   -1    0    0    0  501 -0.00000000000E+00 -0.00000000000E+00 -0.18524956643E+04  0.18524956643E+04  0.00000000000E+00 0.  1.
         25    2    1    2    0    0  0.12934226964E+03  0.25547886863E+02 -0.11810802547E+04  0.11949821235E+04  0.12509832228E+03 0.  0.
          5    1    3    3  502    0  0.24952112720E+01 -0.37961975693E+02 -0.19260114199E+03  0.19636702873E+03  0.41800000000E+01 0. -1.
         -5    1    3    3    0  502  0.12684705837E+03  0.63509862556E+02 -0.98847911274E+03  0.99861509481E+03  0.41800000000E+01 0. -1.
        -11    1    1    2    0    0 -0.87298442214E+02  0.19744206686E+02 -0.48801160862E+03  0.49615136991E+03  0.00000000000E+00 0.  1.
         11    1    1    2    0    0 -0.42043827429E+02 -0.45292093549E+02 -0.16684436338E+03  0.17792160845E+03  0.00000000000E+00 0. -1.
</event>
<event>
 7    1  0.2766180E-009  0.1403494E+03  0.7561462E-02  0.1212860E+00
         -4   -1    0    0    0  501 -0.00000000000E+00  0.00000000000E+00  0.74702178399E+02  0.74702178399E+02  0.00000000000E+00 0.  1.
          4   -1    0    0  501    0  0.00000000000E+00 -0.00000000000E+00 -0.31425842270E+03  0.31425842270E+03  0.00000000000E+00 0. -1.
         25    2    1    2    0    0  0.96333336162E+01  0.10385576779E+03 -0.12872465816E+03  0.20759177839E+03  0.12508192202E+03 0.  0.
          5    1    3    3  502    0 -0.27904897221E+02 -0.36434721110E+01 -0.77704126042E+02  0.82748787193E+02  0.41800000000E+01 0. -1.
         -5    1    3    3    0  502  0.37538230837E+02  0.10749923990E+03 -0.51020532119E+02  0.12484299119E+03  0.41800000000E+01 0. -1.
        -11    1    1    2    0    0  0.38411685324E+02 -0.68924721878E+02 -0.38575016963E+02  0.87829987983E+02  0.00000000000E+00 0.  1.
         11    1    1    2    0    0 -0.48045018941E+02 -0.34931045907E+02 -0.72256569179E+02  0.93538834731E+02  0.00000000000E+00 0. -1.
</event>
<event>
 7    1  0.2766180E-009  0.8660558E+02  0.7561462E-02  0.1311286E+00
          2   -1    0    0  501    0  0.00000000000E+00  0.00000000000E+00  0.21475658175E+04  0.21475658175E+04  0.00000000000E+00 0. -1.
         -2   -1    0    0    0  501 -0.00000000000E+00 -0.00000000000E+00 -0.10255776070E+02  0.10255776070E+02  0.00000000000E+00 0.  1.
         25    2    1    2    0    0 -0.27401441617E+02 -0.63171764209E+02  0.16946606800E+04  0.17006658691E+04  0.12509223424E+03 0.  0.
          5    1    3    3  502    0 -0.26960789517E+02 -0.52672368014E+02  0.16842499711E+04  0.16852942474E+04  0.41800000000E+01 0. -1.
         -5    1    3    3    0  502 -0.44065209981E+00 -0.10499396195E+02  0.10410708869E+02  0.15371621707E+02  0.41800000000E+01 0. -1.
        -11    1    1    2    0    0  0.29969254045E+02 -0.82743496975E+01  0.56925521850E+02  0.64862439738E+02  0.00000000000E+00 0. -1.
         11    1    1    2    0    0 -0.25678124279E+01  0.71446113907E+02  0.38572383959E+03  0.39229328477E+03  0.00000000000E+00 0.  1.
</event>
<event>
 7    1  0.2766180E-009  0.9920797E+02  0.7561462E-02  0.1281970E+00
         -1   -1    0    0    0  501 -0.00000000000E+00  0.00000000000E+00  0.49655095243E+03  0.49655095243E+03  0.00000000000E+00 0.  1.
          1   -1    0    0  501    0  0.00000000000E+00 -0.00000000000E+00 -0.30694391831E+02  0.30694391831E+02  0.00000000000E+00 0. -1.
         25    2    1    2    0    0 -0.18277896465E+02  0.38004519250E+02  0.32129132360E+03  0.34735268698E+03  0.12508936625E+03 0.  0.
          5    1    3    3  502    0  0.32196013031E+02  0.64543395313E+02  0.21256731735E+03  0.22451006645E+03  0.41800000000E+01 0. -1.
         -5    1    3    3    0  502 -0.50473909496E+02 -0.26538876063E+02  0.10872400626E+03  0.12284262053E+03  0.41800000000E+01 0. -1.
        -11    1    1    2    0    0 -0.19383450176E+02 -0.85906400098E+01  0.12734527492E+03  0.12909816529E+03  0.00000000000E+00 0.  1.
         11    1    1    2    0    0  0.37661346641E+02 -0.29413879240E+02  0.17219962078E+02  0.50794491992E+02  0.00000000000E+00 0. -1.
</event>
<event>
 7    1  0.2766180E-009  0.1885457E+03  0.7561462E-02  0.1159780E+00
          1   -1    0    0  501    0  0.00000000000E+00  0.00000000000E+00  0.71104686174E+02  0.71104686174E+02  0.00000000000E+00 0. -1.
         -1   -1    0    0    0  501 -0.00000000000E+00 -0.00000000000E+00 -0.62611998168E+03  0.62611998168E+03  0.00000000000E+00 0.  1.
         25    2    1    2    0    0  0.46465645025E+02 -0.16912447784E+03 -0.36664716489E+03  0.42525274366E+03  0.12509039652E+03 0.  0.
          5    1    3    3  502    0  0.65673919502E+02 -0.71412155766E+02 -0.94801105155E+02  0.13571102252E+03  0.41800000000E+01 0.  1.
         -5    1    3    3    0  502 -0.19208274477E+02 -0.97712322075E+02 -0.27184605973E+03  0.28954172115E+03  0.41800000000E+01 0.  1.
        -11    1    1    2    0    0 -0.44196286096E+02  0.81951740936E+02 -0.15034205950E+03  0.17683928976E+03  0.00000000000E+00 0.  1.
         11    1    1    2    0    0 -0.22693589296E+01  0.87172736905E+02 -0.38026071123E+02  0.95132634435E+02  0.00000000000E+00 0. -1.
</event>
<event>
 7    1  0.2766180E-009  0.1603142E+03  0.7561462E-02  0.1188343E+00
          1   -1    0    0  501    0  0.00000000000E+00  0.00000000000E+00  0.14999970272E+03  0.14999970272E+03  0.00000000000E+00 0. -1.
         -1   -1    0    0    0  501 -0.00000000000E+00 -0.00000000000E+00 -0.19713813438E+03  0.19713813438E+03  0.00000000000E+00 0.  1.
         25    2    1    2    0    0  0.35345264084E+02 -0.12841995305E+03 -0.21014309412E+02  0.18392644700E+03  0.12508542948E+03 0.  0.
          5    1    3    3  502    0 -0.26328262253E+02  0.11906508281E+02 -0.31847291963E+00  0.29197879336E+02  0.41800000000E+01 0. -1.
         -5    1    3    3    0  502  0.61673526336E+02 -0.14032646134E+03 -0.20695836493E+02  0.15472856766E+03  0.41800000000E+01 0. -1.
        -11    1    1    2    0    0 -0.22474695759E+02  0.12134154947E+03 -0.51636268248E+02  0.13377289627E+03  0.00000000000E+00 0.  1.
         11    1    1    2    0    0 -0.12870568324E+02  0.70784035842E+01  0.25512145999E+02  0.29438493843E+02  0.00000000000E+00 0. -1.
</event>
<event>
 7    1  0.2766180E-009  0.1453539E+03  0.7561462E-02  0.1206301E+00
          2   -1    0    0  501    0  0.00000000000E+00  0.00000000000E+00  0.28470234596E+03  0.28470234596E+03  0.00000000000E+00 0. -1.
         -2   -1    0    0    0  501 -0.00000000000E+00 -0.00000000000E+00 -0.82528454062E+02  0.82528454062E+02  0.00000000000E+00 0.  1.
         25    2    1    2    0    0 -0.84630589910E+02 -0.53047263908E+02  0.15758510104E+03  0.22462571884E+03  0.12508917034E+03 0.  0.
          5    1    3    3  502    0 -0.11451728319E+03 -0.26144616510E+02  0.10032986502E+03  0.15453576718E+03  0.41800000000E+01 0. -1.
         -5    1    3    3    0  502  0.29886693279E+02 -0.26902647398E+02  0.57255236018E+02  0.70089951660E+02  0.41800000000E+01 0. -1.
        -11    1    1    2    0    0 -0.12714465883E+02  0.30176683554E+02 -0.87919161223E+00  0.32757638054E+02  0.00000000000E+00 0.  1.
         11    1    1    2    0    0  0.97345055793E+02  0.22870580354E+02  0.45467982472E+02  0.10984744313E+03  0.00000000000E+00 0. -1.
</event>
<event>
 7    1  0.2766180E-009  0.1225374E+03  0.7561462E-02  0.1238969E+00
         -1   -1    0    0    0  501 -0.00000000000E+00  0.00000000000E+00  0.42546973560E+02  0.42546973560E+02  0.00000000000E+00 0.  1.
          1   -1    0    0  501    0  0.00000000000E+00 -0.00000000000E+00 -0.37223468959E+03  0.37223468959E+03  0.00000000000E+00 0. -1.
         25    2    1    2    0    0  0.29842973778E+02 -0.56044613353E+02 -0.19504116384E+03  0.24024961996E+03  0.12508885853E+03 0.  0.
          5    1    3    3  502    0 -0.21373651802E+02  0.31240772356E+02 -0.66062036561E+02  0.76252763382E+02  0.41800000000E+01 0. -1.
         -5    1    3    3    0  502  0.51216625580E+02 -0.87285385709E+02 -0.12897912728E+03  0.16399685658E+03  0.41800000000E+01 0. -1.
        -11    1    1    2    0    0 -0.98899292478E+01  0.76495200522E+02 -0.11940008880E+03  0.14214678192E+03  0.00000000000E+00 0. -1.
         11    1    1    2    0    0 -0.19953044530E+02 -0.20450587169E+02 -0.15246463380E+02  0.32385261265E+02  0.00000000000E+00 0.  1.
</event>
<event>
 7    1  0.2843155E-009  0.1270726E+03  0.7561462E-02  0.1231865E+00
          1   -1    0    0  501    0  0.00000000000E+00  0.00000000000E+00  0.51328560652E+03  0.51328560652E+03  0.00000000000E+00 0. -1.
         -1   -1    0    0    0  501 -0.00000000000E+00 -0.00000000000E+00 -0.44683275878E+02  0.44683275878E+02  0.00000000000E+00 0.  1.
         25    2    1    2    0    0  0.98379138420E+02 -0.33241494105E+02  0.22113339005E+03  0.27445860305E+03  0.12507636381E+03 0.  0.
          5    1    3    3  502    0  0.86512886716E+02  0.25955717684E+00  0.50812154043E+02  0.10041859557E+03  0.41800000000E+01 0.  1.
         -5    1    3    3    0  502  0.11866251704E+02 -0.33501051282E+02  0.17032123601E+03  0.17404000748E+03  0.41800000000E+01 0.  1.
        -11    1    1    2    0    0 -0.44427937095E+02  0.57439417914E+02  0.92192884739E+02  0.11735696111E+03  0.00000000000E+00 0. -1.
         11    1    1    2    0    0 -0.53951201326E+02 -0.24197923809E+02  0.15527605585E+03  0.16615331824E+03  0.00000000000E+00 0.  1.
</event>
<event>
 7    1  0.2766180E-009  0.9423426E+02  0.7561462E-02  0.1292910E+00
         -1   -1    0    0    0  501 -0.00000000000E+00  0.00000000000E+00  0.60098820365E+02  0.60098820365E+02  0.00000000000E+00 0.  1.
          1   -1    0    0  501    0  0.00000000000E+00 -0.00000000000E+00 -0.24352376034E+03  0.24352376034E+03  0.00000000000E+00 0. -1.
         25    2    1    2    0    0 -0.48772334960E+02  0.20629445161E+02 -0.89788910262E+02  0.16283060077E+03  0.12508973369E+03 0.  0.
          5    1    3    3  502    0 -0.65334020102E+02  0.59456717155E+02 -0.80100800742E+02  0.11931993160E+03  0.41800000000E+01 0.  1.
         -5    1    3    3    0  502  0.16561685142E+02 -0.38827271994E+02 -0.96881095196E+01  0.43510669166E+02  0.41800000000E+01 0.  1.
        -11    1    1    2    0    0  0.30883182169E+02 -0.24365946218E+02  0.57356120592E+01  0.39753836565E+02  0.00000000000E+00 0.  1.
         11    1    1    2    0    0  0.17889152791E+02  0.37365010566E+01 -0.99371641777E+02  0.10103814338E+03  0.00000000000E+00 0. -1.
</event>
<event>
 7    1  0.2766180E-009  0.1807464E+03  0.7561462E-02  0.1167083E+00
          4   -1    0    0  501    0  0.00000000000E+00  0.00000000000E+00  0.12916402780E+03  0.12916402780E+03  0.00000000000E+00 0.  1.
         -4   -1    0    0    0  501 -0.00000000000E+00 -0.00000000000E+00 -0.28330974413E+03  0.28330974413E+03  0.00000000000E+00 0. -1.
         25    2    1    2    0    0  0.13915446509E+02  0.15479455398E+03 -0.10585433428E+03  0.22584922967E+03  0.12509093038E+03 0.  0.
          5    1    3    3  502    0  0.63773811577E+02  0.12345930669E+03 -0.86440781827E+02  0.16370333110E+03  0.41800000000E+01 0.  1.
         -5    1    3    3    0  502 -0.49858365068E+02  0.31335247290E+02 -0.19413552452E+02  0.62145898568E+02  0.41800000000E+01 0.  1.
        -11    1    1    2    0    0 -0.25361307734E+02 -0.35691944312E+02  0.20782277098E+02  0.48466626250E+02  0.00000000000E+00 0.  1.
         11    1    1    2    0    0  0.11445861225E+02 -0.11910260967E+03 -0.69073659143E+02  0.13815791601E+03  0.00000000000E+00 0. -1.
</event>
<event>
 6    1  0.2766180E-009  0.1669475E+03  0.7561462E-02  0.1181069E+00
         -2   -1    0    0    0  501 -0.00000000000E+00  0.00000000000E+00  0.75792919535E+03  0.75792919535E+03  0.00000000000E+00 0.  1.
          2   -1    0    0  501    0  0.00000000000E+00 -0.00000000000E+00 -0.43617961969E+02  0.43617961969E+02  0.00000000000E+00 0. -1.
          5    1    1    2  502    0 -0.60662624943E+02 -0.45211795314E+02  0.30682991773E+03  0.31604767254E+03  0.41800000000E+01 0. -1.
         -5    1    1    2    0  502  0.73748414152E+01 -0.86607463904E+02  0.99254179690E+02  0.13200040029E+03  0.41800000000E+01 0. -1.
        -11    1    1    2    0    0 -0.23355344906E+02  0.65692027542E+01  0.65049981073E+02  0.69427131570E+02  0.00000000000E+00 0.  1.
         11    1    1    2    0    0  0.76643128434E+02  0.12525005646E+03  0.24317715488E+03  0.28407195292E+03  0.00000000000E+00 0. -1.
</event>
<event>
 7    1  0.2766180E-009  0.6639616E+02  0.7561462E-02  0.1372795E+00
         -2   -1    0    0    0  501 -0.00000000000E+00  0.00000000000E+00  0.14969891434E+03  0.14969891434E+03  0.00000000000E+00 0.  1.
          2   -1    0    0  501    0  0.00000000000E+00 -0.00000000000E+00 -0.92701546867E+02  0.92701546867E+02  0.00000000000E+00 0. -1.
         25    2    1    2    0    0 -0.16493792798E+02 -0.41437414275E+02  0.15778512146E+02  0.13373641636E+03  0.12508942047E+03 0.  0.
          5    1    3    3  502    0 -0.37935548847E+02 -0.41580474767E+02  0.61250195324E+02  0.83289258463E+02  0.41800000000E+01 0. -1.
         -5    1    3    3    0  502  0.21441756048E+02  0.14306049177E+00 -0.45471683178E+02  0.50447157896E+02  0.41800000000E+01 0. -1.
        -11    1    1    2    0    0  0.25936399603E+02  0.29355399198E+02 -0.21095242981E+02  0.44490960463E+02  0.00000000000E+00 0. -1.
         11    1    1    2    0    0 -0.94426068049E+01  0.12082015077E+02  0.62314098307E+02  0.64173084384E+02  0.00000000000E+00 0.  1.
</event>
<event>
 7    1  0.2766180E-009  0.9498361E+02  0.7561462E-02  0.1291213E+00
          1   -1    0    0  501    0  0.00000000000E+00  0.00000000000E+00  0.17518573142E+03  0.17518573142E+03  0.00000000000E+00 0. -1.
         -1   -1    0    0    0  501 -0.00000000000E+00 -0.00000000000E+00 -0.90901938839E+02  0.90901938839E+02  0.00000000000E+00 0.  1.
         25    2    1    2    0    0 -0.38130906951E+00 -0.33331083179E+02  0.10483105123E+03  0.16657907294E+03  0.12509169333E+03 0.  0.
          5    1    3    3  502    0  0.64380316807E+01  0.45308332144E+02  0.60427011208E+02  0.75915672277E+02  0.41800000000E+01 0. -1.
         -5    1    3    3    0  502 -0.68193407502E+01 -0.78639415323E+02  0.44404040018E+02  0.90663400667E+02  0.41800000000E+01 0. -1.
        -11    1    1    2    0    0  0.22545803295E+02  0.36171217285E+02  0.24543998229E+02  0.49184124015E+02  0.00000000000E+00 0. -1.
         11    1    1    2    0    0 -0.22164494226E+02 -0.28401341054E+01 -0.45091256876E+02  0.50324473298E+02  0.00000000000E+00 0.  1.
</event>
<event>
 7    1  0.2766180E-009  0.1027577E+03  0.7561462E-02  0.1274601E+00
          4   -1    0    0  501    0  0.00000000000E+00  0.00000000000E+00  0.53782786591E+02  0.53782786591E+02  0.00000000000E+00 0. -1.
         -4   -1    0    0    0  501 -0.00000000000E+00 -0.00000000000E+00 -0.29124453879E+03  0.29124453879E+03  0.00000000000E+00 0.  1.
         25    2    1    2    0    0 -0.26086423343E+01  0.61751467749E+02 -0.13095702859E+03  0.19135800583E+03  0.12509234298E+03 0.  0.
          5    1    3    3  502    0 -0.50076797460E+02  0.42782019441E+01 -0.13545451141E+02  0.52220113963E+02  0.41800000000E+01 0. -1.
         -5    1    3    3    0  502  0.47468155125E+02  0.57473265805E+02 -0.11741157745E+03  0.13913789186E+03  0.41800000000E+01 0. -1.
        -11    1    1    2    0    0 -0.15367733672E+02  0.75305505051E+00  0.11309371180E+02  0.19095449893E+02  0.00000000000E+00 0. -1.
         11    1    1    2    0    0  0.17976376007E+02 -0.62504522800E+02 -0.11781409479E+03  0.13457386966E+03  0.00000000000E+00 0.  1.
</event>
<event>
 7    1  0.2766180E-009  0.2766737E+03  0.7561462E-02  0.1097520E+00
          1   -1    0    0  501    0  0.00000000000E+00  0.00000000000E+00  0.48175527832E+03  0.48175527832E+03  0.00000000000E+00 0. -1.
         -1   -1    0    0    0  501 -0.00000000000E+00 -0.00000000000E+00 -0.20142862638E+03  0.20142862638E+03  0.00000000000E+00 0.  1.
         25    2    1    2    0    0  0.26149228763E+03 -0.64743842760E+02  0.26572873063E+03  0.39853417635E+03  0.12509096599E+03 0.  0.
          5    1    3    3  502    0 -0.18026069898E+01  0.78673005284E+01  0.49020211211E+02  0.49855765130E+02  0.41800000000E+01 0.  1.
         -5    1    3    3    0  502  0.26329489462E+03 -0.72611143288E+02  0.21670851942E+03  0.34867841122E+03  0.41800000000E+01 0.  1.
        -11    1    1    2    0    0 -0.22285636504E+03  0.43676819453E+02 -0.20976350617E+02  0.22806277925E+03  0.00000000000E+00 0.  1.
         11    1    1    2    0    0 -0.38635922594E+02  0.21067023307E+02  0.35574271932E+02  0.56586949107E+02  0.00000000000E+00 0. -1.
</event>
<event>
 7    1  0.2766180E-009  0.1264869E+03  0.7561462E-02  0.1232764E+00
          3   -1    0    0  501    0  0.00000000000E+00  0.00000000000E+00  0.93004858665E+02  0.93004858665E+02  0.00000000000E+00 0. -1.
         -3   -1    0    0    0  501 -0.00000000000E+00 -0.00000000000E+00 -0.29078656059E+03  0.29078656059E+03  0.00000000000E+00 0.  1.
         25    2    1    2    0    0 -0.39985405627E+02  0.10733618662E+03 -0.50162031561E+02  0.17687191917E+03  0.12509019449E+03 0.  0.
          5    1    3    3  502    0 -0.86945643709E+01  0.10624627509E+03 -0.80056851288E+02  0.13338080168E+03  0.41800000000E+01 0. -1.
         -5    1    3    3    0  502 -0.31290841256E+02  0.10899115376E+01  0.29894819727E+02  0.43491117486E+02  0.41800000000E+01 0. -1.
        -11    1    1    2    0    0  0.22021367981E+02 -0.50428897478E+02 -0.86817070537E+01  0.55708045971E+02  0.00000000000E+00 0. -1.
         11    1    1    2    0    0  0.17964037646E+02 -0.56907289147E+02 -0.13893796331E+03  0.15121145412E+03  0.00000000000E+00 0.  1.
</event>
<event>
 7    1  0.2766180E-009  0.1053409E+03  0.7561462E-02  0.1269449E+00
          1   -1    0    0  501    0  0.00000000000E+00  0.00000000000E+00  0.34713545869E+03  0.34713545869E+03  0.00000000000E+00 0. -1.
         -1   -1    0    0    0  501 -0.00000000000E+00 -0.00000000000E+00 -0.36814649409E+02  0.36814649409E+02  0.00000000000E+00 0.  1.
         25    2    1    2    0    0  0.56339851574E+01  0.26745614290E+02  0.14865695888E+03  0.19619121993E+03  0.12508010905E+03 0.  0.
          5    1    3    3  502    0 -0.37963484841E+02 -0.33980248518E+02  0.77891778412E+02  0.93169120500E+02  0.41800000000E+01 0. -1.
         -5    1    3    3    0  502  0.43597469998E+02  0.60725862807E+02  0.70765180472E+02  0.10302209943E+03  0.41800000000E+01 0. -1.
        -11    1    1    2    0    0  0.13991345106E+02  0.25385452760E+02  0.19135979613E+02  0.34732760694E+02  0.00000000000E+00 0.  1.
         11    1    1    2    0    0 -0.19625330263E+02 -0.52131067050E+02  0.14252787078E+03  0.15302612747E+03  0.00000000000E+00 0. -1.
</event>
<event>
 7    1  0.2766180E-009  0.1905271E+03  0.7561462E-02  0.1157987E+00
         -2   -1    0    0    0  501 -0.00000000000E+00  0.00000000000E+00  0.20597271134E+02  0.20597271134E+02  0.00000000000E+00 0.  1.
          2   -1    0    0  501    0  0.00000000000E+00 -0.00000000000E+00 -0.22961186047E+04  0.22961186047E+04  0.00000000000E+00 0. -1.
         25    2    1    2    0    0 -0.30593110780E+02 -0.15716350961E+03 -0.17039648292E+04  0.17160366562E+04  0.12509739808E+03 0.  0.
          5    1    3    3  502    0  0.25757170769E+02  0.90363758218E+01 -0.24217763981E+03  0.24374693754E+03  0.41800000000E+01 0. -1.
         -5    1    3    3    0  502 -0.56350281549E+02 -0.16619988543E+03 -0.14617871894E+04  0.14722897186E+04  0.41800000000E+01 0. -1.
        -11    1    1    2    0    0  0.41059879957E+02  0.31378119680E+02 -0.24900746629E+03  0.25431322892E+03  0.00000000000E+00 0. -1.
         11    1    1    2    0    0 -0.10466769177E+02  0.12578538993E+03 -0.32254903810E+03  0.34636599076E+03  0.00000000000E+00 0.  1.
</event>
<event>
 7    1  0.2766180E-009  0.1221825E+03  0.7561462E-02  0.1239539E+00
          2   -1    0    0  501    0  0.00000000000E+00  0.00000000000E+00  0.19144530579E+03  0.19144530579E+03  0.00000000000E+00 0. -1.
         -2   -1    0    0    0  501 -0.00000000000E+00 -0.00000000000E+00 -0.19501141705E+03  0.19501141705E+03  0.00000000000E+00 0.  1.
         25    2    1    2    0    0 -0.10958289453E+03 -0.29705571701E+02  0.11031026484E+03  0.20176209141E+03  0.12509498486E+03 0.  0.
          5    1    3    3  502    0  0.82998924218E+01 -0.16421082162E+01 -0.21006635215E+02  0.23029022052E+02  0.41800000000E+01 0. -1.
         -5    1    3    3    0  502 -0.11788278695E+03 -0.28063463485E+02  0.13131690005E+03  0.17873306936E+03  0.41800000000E+01 0. -1.
        -11    1    1    2    0    0  0.13895898315E+02  0.18420290758E+01 -0.77257319193E+02  0.78518675676E+02  0.00000000000E+00 0.  1.
         11    1    1    2    0    0  0.95686996218E+02  0.27863542626E+02 -0.36619056900E+02  0.10617595576E+03  0.00000000000E+00 0. -1.
</event>
<event>
 7    1  0.3605591E-009  0.1534853E+03  0.7561462E-02  0.1196255E+00
         -1   -1    0    0    0  501 -0.00000000000E+00  0.00000000000E+00  0.17938179498E+03  0.17938179498E+03  0.00000000000E+00 0.  1.
          1   -1    0    0  501    0  0.00000000000E+00 -0.00000000000E+00 -0.19982596257E+03  0.19982596257E+03  0.00000000000E+00 0. -1.
         25    2    1    2    0    0  0.13690839862E+03  0.21671250447E+02  0.58175987375E+02  0.19557272159E+03  0.12510272266E+03 0.  0.
          5    1    3    3  502    0  0.77898633750E+02  0.51596269006E+02 -0.17298459379E+02  0.95116145908E+02  0.41800000000E+01 0.  1.
         -5    1    3    3    0  502  0.59009764867E+02 -0.29925018559E+02  0.75474446755E+02  0.10045657568E+03  0.41800000000E+01 0.  1.
        -11    1    1    2    0    0 -0.70669750327E+02 -0.36095005057E+02  0.61635524473E+00  0.79356429450E+02  0.00000000000E+00 0.  1.
         11    1    1    2    0    0 -0.66238648290E+02  0.14423754610E+02 -0.79236510207E+02  0.10427860650E+03  0.00000000000E+00 0. -1.
</event>
<event>
 7    1  0.2766180E-009  0.8721174E+02  0.7561462E-02  0.1309748E+00
          2   -1    0    0  501    0  0.00000000000E+00  0.00000000000E+00  0.53816502964E+03  0.53816502964E+03  0.00000000000E+00 0. -1.
         -2   -1    0    0    0  501 -0.00000000000E+00 -0.00000000000E+00 -0.23144720108E+02  0.23144720108E+02  0.00000000000E+00 0.  1.
         25    2    1    2    0    0 -0.24659896118E+02 -0.36576384534E+01  0.30073497728E+03  0.32667269499E+03  0.12510809044E+03 0.  0.
          5    1    3    3  502    0 -0.32775167227E+02  0.35658099230E+02  0.40346202992E+02  0.63174362864E+02  0.41800000000E+01 0. -1.
         -5    1    3    3    0  502  0.81152711092E+01 -0.39315737683E+02  0.26038877429E+03  0.26349833212E+03  0.41800000000E+01 0. -1.
        -11    1    1    2    0    0  0.41516509475E+02 -0.27657548759E+02  0.69513586032E+02  0.85561084644E+02  0.00000000000E+00 0.  1.
         11    1    1    2    0    0 -0.16856613357E+02  0.31315187212E+02  0.14477174622E+03  0.14907597012E+03  0.00000000000E+00 0. -1.
</event>
<event>
 7    1  0.2766180E-009  0.1638911E+03  0.7561462E-02  0.1184372E+00
         -2   -1    0    0    0  501 -0.00000000000E+00  0.00000000000E+00  0.75991981109E+02  0.75991981109E+02  0.00000000000E+00 0.  1.
          2   -1    0    0  501    0  0.00000000000E+00 -0.00000000000E+00 -0.45126800422E+03  0.45126800422E+03  0.00000000000E+00 0. -1.
         25    2    1    2    0    0 -0.13084808363E+03  0.72585452021E+02 -0.18295552349E+03  0.26741298336E+03  0.12508841377E+03 0.  0.
          5    1    3    3  502    0  0.12588670903E+02  0.16441443206E+02 -0.78407284616E+02  0.81203265763E+02  0.41800000000E+01 0. -1.
         -5    1    3    3    0  502 -0.14343675453E+03  0.56144008815E+02 -0.10454823888E+03  0.18620971760E+03  0.41800000000E+01 0. -1.
        -11    1    1    2    0    0  0.99426710536E+02 -0.39631898126E+02 -0.66425676547E+02  0.12597114202E+03  0.00000000000E+00 0.  1.
         11    1    1    2    0    0  0.31421373090E+02 -0.32953553895E+02 -0.12589482307E+03  0.13387585995E+03  0.00000000000E+00 0. -1.
</event>
<event>
 7    1  0.2766180E-009  0.1700936E+03  0.7561462E-02  0.1177750E+00
          2   -1    0    0  501    0  0.00000000000E+00  0.00000000000E+00  0.99699033833E+03  0.99699033833E+03  0.00000000000E+00 0. -1.
         -2   -1    0    0    0  501 -0.00000000000E+00 -0.00000000000E+00 -0.39518937326E+02  0.39518937326E+02  0.00000000000E+00 0.  1.
         25    2    1    2    0    0 -0.12625964895E+03 -0.73767720411E+02  0.29658644603E+03  0.35354571569E+03  0.12509147689E+03 0.  0.
          5    1    3    3  502    0 -0.37531834675E+01 -0.50585159852E+02  0.16302532444E+03  0.17078546071E+03  0.41800000000E+01 0.  1.
         -5    1    3    3    0  502 -0.12250646548E+03 -0.23182560558E+02  0.13356112159E+03  0.18276025498E+03  0.41800000000E+01 0.  1.
        -11    1    1    2    0    0  0.90428965794E+01  0.42185054739E+02  0.97045333931E+02  0.10620334109E+03  0.00000000000E+00 0.  1.
         11    1    1    2    0    0  0.11721675237E+03  0.31582665672E+02  0.56383962105E+03  0.57676021887E+03  0.00000000000E+00 0. -1.
</event>
<event>
 7    1  0.2766180E-009  0.1912374E+03  0.7561462E-02  0.1157350E+00
          1   -1    0    0  501    0  0.00000000000E+00  0.00000000000E+00  0.50562967720E+03  0.50562967720E+03  0.00000000000E+00 0.  1.
         -1   -1    0    0    0  501 -0.00000000000E+00 -0.00000000000E+00 -0.97423748799E+02  0.97423748799E+02  0.00000000000E+00 0. -1.
         25    2    1    2    0    0 -0.86485577851E+02  0.14998987756E+03  0.29766154077E+03  0.36637186801E+03  0.12509689954E+03 0.  0.
          5    1    3    3  502    0 -0.38739974241E+02 -0.83692560880E+01  0.10560857816E+03  0.11287813886E+03  0.41800000000E+01 0. -1.
         -5    1    3    3    0  502 -0.47745603610E+02  0.15835913365E+03  0.19205296261E+03  0.25349372916E+03  0.41800000000E+01 0. -1.
        -11    1    1    2    0    0  0.35563319130E+02 -0.28963916248E+02  0.93673629730E+02  0.10429960220E+03  0.00000000000E+00 0.  1.
         11    1    1    2    0    0  0.50922258721E+02 -0.12102596131E+03  0.16870757905E+02  0.13238195579E+03  0.00000000000E+00 0. -1.
</event>
<event>
 7    1  0.2766180E-009  0.1620286E+03  0.7561462E-02  0.1186425E+00
         -3   -1    0    0    0  501 -0.00000000000E+00  0.00000000000E+00  0.34173011857E+03  0.34173011857E+03  0.00000000000E+00 0.  1.
          3   -1    0    0  501    0  0.00000000000E+00 -0.00000000000E+00 -0.94010127292E+02  0.94010127292E+02  0.00000000000E+00 0. -1.
         25    2    1    2    0    0  0.14265219958E+02 -0.12473205429E+03  0.50093465245E+02  0.18416965086E+03  0.12509006024E+03 0.  0.
          5    1    3    3  502    0  0.63531222009E+02 -0.68404713663E+02  0.56073542168E+02  0.10898227174E+03  0.41800000000E+01 0.  1.
         -5    1    3    3    0  502 -0.49266002051E+02 -0.56327340626E+02 -0.59800769233E+01  0.75187379128E+02  0.41800000000E+01 0.  1.
        -11    1    1    2    0    0 -0.52028155210E+02  0.51197874026E+02  0.91509219600E+02  0.11705592044E+03  0.00000000000E+00 0.  1.
         11    1    1    2    0    0  0.37762935252E+02  0.73534180263E+02  0.10611730643E+03  0.13451467455E+03  0.00000000000E+00 0. -1.
</event>
<event>
 7    1  0.2766180E-009  0.1068169E+03  0.7561462E-02  0.1266581E+00
          1   -1    0    0  501    0  0.00000000000E+00  0.00000000000E+00  0.53959945072E+02  0.53959945072E+02  0.00000000000E+00 0. -1.
         -1   -1    0    0    0  501 -0.00000000000E+00 -0.00000000000E+00 -0.25985823010E+03  0.25985823010E+03  0.00000000000E+00 0.  1.
         25    2    1    2    0    0  0.16410308525E+02  0.49326188033E+01 -0.16199507494E+03  0.20538841176E+03  0.12509343079E+03 0.  0.
          5    1    3    3  502    0 -0.32211830629E+02  0.47176373374E+02 -0.49553136050E+02  0.75737691605E+02  0.41800000000E+01 0. -1.
         -5    1    3    3    0  502  0.48622139154E+02 -0.42243754571E+02 -0.11244193889E+03  0.12965072016E+03  0.41800000000E+01 0. -1.
        -11    1    1    2    0    0  0.34081185843E+02 -0.19493032590E+02  0.10505173414E+01  0.39276063126E+02  0.00000000000E+00 0. -1.
         11    1    1    2    0    0 -0.50491494368E+02  0.14560413787E+02 -0.44953727431E+02  0.69153700284E+02  0.00000000000E+00 0.  1.
</event>
<event>
 7    1  0.2766180E-009  0.9848546E+02  0.7561462E-02  0.1283513E+00
          1   -1    0    0  501    0  0.00000000000E+00  0.00000000000E+00  0.15452845393E+04  0.15452845393E+04  0.00000000000E+00 0. -1.
         -1   -1    0    0    0  501 -0.00000000000E+00 -0.00000000000E+00 -0.10284074032E+02  0.10284074032E+02  0.00000000000E+00 0.  1.
         25    2    1    2    0    0  0.36785123970E+00  0.49398940375E+02  0.11024533842E+04  0.11106266655E+04  0.12509090753E+03 0.  0.
          5    1    3    3  502    0  0.38085390314E+02  0.76525726459E+01  0.11295721805E+03  0.11952348862E+03  0.41800000000E+01 0. -1.
         -5    1    3    3    0  502 -0.37717539074E+02  0.41746367729E+02  0.98949616620E+03  0.99110317692E+03  0.41800000000E+01 0. -1.
        -11    1    1    2    0    0 -0.40033783049E+02 -0.25747263564E+01  0.22357822762E+03  0.22714875493E+03  0.00000000000E+00 0.  1.
         11    1    1    2    0    0  0.39665931809E+02 -0.46824214018E+02  0.20896885342E+03  0.21779319288E+03  0.00000000000E+00 0. -1.
</event>
<event>
 7    1  0.2766180E-009  0.9556613E+02  0.7561462E-02  0.1289906E+00
         -1   -1    0    0    0  501 -0.00000000000E+00  0.00000000000E+00  0.26039362527E+03  0.26039362527E+03  0.00000000000E+00 0.  1.
          1   -1    0    0  501    0  0.00000000000E+00 -0.00000000000E+00 -0.58226027740E+02  0.58226027740E+02  0.00000000000E+00 0. -1.
         25    2    1    2    0    0 -0.50596666183E+02  0.84843965916E+01  0.74870758990E+02  0.15454937731E+03  0.12509145398E+03 0.  0.
          5    1    3    3  502    0  0.18689408874E+02 -0.29815038127E+02 -0.11553503463E+02  0.37271790202E+02  0.41800000000E+01 0. -1.
         -5    1    3    3    0  502 -0.69286075057E+02  0.38299434718E+02  0.86424262453E+02  0.11727758710E+03  0.41800000000E+01 0. -1.
        -11    1    1    2    0    0  0.40888682072E+02  0.20580368095E+02  0.12525674437E+03  0.13335924371E+03  0.00000000000E+00 0.  1.
         11    1    1    2    0    0  0.97079841110E+01 -0.29064764686E+02  0.20400941676E+01  0.30711031991E+02  0.00000000000E+00 0. -1.
</event>
<event>
 7    1  0.2766180E-009  0.1015393E+03  0.7561462E-02  0.1277092E+00
         -1   -1    0    0    0  501 -0.00000000000E+00  0.00000000000E+00  0.12333034831E+03  0.12333034831E+03  0.00000000000E+00 0.  1.
          1   -1    0    0  501    0  0.00000000000E+00 -0.00000000000E+00 -0.12831404979E+03  0.12831404979E+03  0.00000000000E+00 0. -1.
         25    2    1    2    0    0 -0.57974990947E+02  0.16299869550E+02  0.19511066743E+02  0.14019706076E+03  0.12509096210E+03 0.  0.
          5    1    3    3  502    0 -0.44731913951E+02 -0.45857995393E+02  0.37068232171E+02  0.74131141253E+02  0.41800000000E+01 0.  1.
         -5    1    3    3    0  502 -0.13243076996E+02  0.62157864943E+02 -0.17557165428E+02  0.66065919508E+02  0.41800000000E+01 0.  1.
        -11    1    1    2    0    0  0.19415043913E+02 -0.28731258169E+02 -0.51983545371E+02  0.62487743722E+02  0.00000000000E+00 0. -1.
         11    1    1    2    0    0  0.38559947034E+02  0.12431388619E+02  0.27488777146E+02  0.48959593618E+02  0.00000000000E+00 0.  1.
</event>
<event>
 7    1  0.2766180E-009  0.1205117E+03  0.7561462E-02  0.1242255E+00
         -2   -1    0    0    0  501 -0.00000000000E+00  0.00000000000E+00  0.54771744277E+03  0.54771744277E+03  0.00000000000E+00 0.  1.
          2   -1    0    0  501    0  0.00000000000E+00 -0.00000000000E+00 -0.41898296193E+02  0.41898296193E+02  0.00000000000E+00 0. -1.
         25    2    1    2    0    0  0.35449765506E+00  0.68867946642E+02  0.41724709828E+03  0.44100434687E+03  0.12508706245E+03 0.  0.
          5    1    3    3  502    0 -0.53240788206E+02 -0.66341485246E+00  0.18964977983E+03  0.19702673179E+03  0.41800000000E+01 0.  1.
         -5    1    3    3    0  502  0.53595285861E+02  0.69531361495E+02  0.22759731844E+03  0.24397761508E+03  0.41800000000E+01 0.  1.
        -11    1    1    2    0    0  0.35413253610E+02 -0.42317643390E+02  0.88230807470E+02  0.10406515680E+03  0.00000000000E+00 0.  1.
         11    1    1    2    0    0 -0.35767751265E+02 -0.26550303253E+02  0.34124082896E+00  0.44546235292E+02  0.00000000000E+00 0. -1.
</event>
<event>
 7    1  0.2766180E-009  0.9706382E+02  0.7561462E-02  0.1286594E+00
         -2   -1    0    0    0  501 -0.00000000000E+00  0.00000000000E+00  0.12525257793E+03  0.12525257793E+03  0.00000000000E+00 0.  1.
          2   -1    0    0  501    0  0.00000000000E+00 -0.00000000000E+00 -0.98966387725E+02  0.98966387725E+02  0.00000000000E+00 0. -1.
         25    2    1    2    0    0 -0.20873712986E+02 -0.17724731387E+01  0.25578160540E+02  0.12939025420E+03  0.12509493207E+03 0.  0.
          5    1    3    3  502    0 -0.24427926170E+02 -0.54228332252E+02  0.43369798034E+02  0.73728199336E+02  0.41800000000E+01 0.  1.
         -5    1    3    3    0  502  0.35542131846E+01  0.52455859114E+02 -0.17791637494E+02  0.55662054862E+02  0.41800000000E+01 0.  1.
        -11    1    1    2    0    0 -0.30434311026E+02  0.85553960699E+00  0.23713589091E+02  0.38591625299E+02  0.00000000000E+00 0.  1.
         11    1    1    2    0    0  0.51308024012E+02  0.91693353166E+00 -0.23005559425E+02  0.56237086158E+02  0.00000000000E+00 0. -1.
</event>
<event>
 7    1  0.2766180E-009  0.1197818E+03  0.7561462E-02  0.1243457E+00
         -2   -1    0    0    0  501 -0.00000000000E+00  0.00000000000E+00  0.13836253939E+03  0.13836253939E+03  0.00000000000E+00 0.  1.
          2   -1    0    0  501    0  0.00000000000E+00 -0.00000000000E+00 -0.13183892414E+03  0.13183892414E+03  0.00000000000E+00 0. -1.
         25    2    1    2    0    0  0.74770357149E+02 -0.22068217455E+02 -0.46333435264E+01  0.14746997685E+03  0.12509321992E+03 0.  0.
          5    1    3    3  502    0  0.50503880332E+00 -0.42321429340E+02  0.40004545950E+02  0.58388308266E+02  0.41800000000E+01 0. -1.
         -5    1    3    3    0  502  0.74265318345E+02  0.20253211885E+02 -0.44637889476E+02  0.89081668583E+02  0.41800000000E+01 0. -1.
        -11    1    1    2    0    0 -0.83293764036E+01 -0.32758445040E+02  0.13897537146E+02  0.36546351000E+02  0.00000000000E+00 0.  1.
         11    1    1    2    0    0 -0.66440980745E+02  0.54826662495E+02 -0.27405783615E+01  0.86185135682E+02  0.00000000000E+00 0. -1.
</event>
<event>
 7    1  0.2766180E-009  0.1045192E+03  0.7561462E-02  0.1271070E+00
          2   -1    0    0  501    0  0.00000000000E+00  0.00000000000E+00  0.55982302397E+03  0.55982302397E+03  0.00000000000E+00 0. -1.
         -2   -1    0    0    0  501 -0.00000000000E+00 -0.00000000000E+00 -0.32941116072E+02  0.32941116072E+02  0.00000000000E+00 0.  1.
         25    2    1    2    0    0 -0.43362226964E+02  0.67093829904E+02  0.33993022176E+03  0.37091974816E+03  0.12508812563E+03 0.  0.
          5    1    3    3  502    0 -0.38011935426E+02  0.19185278763E+01  0.27843554108E+03  0.28105588576E+03  0.41800000000E+01 0.  1.
         -5    1    3    3    0  502 -0.53502915383E+01  0.65175302028E+02  0.61494680682E+02  0.89863862404E+02  0.41800000000E+01 0.  1.
        -11    1    1    2    0    0  0.21235835421E+01  0.14044685122E+02  0.32706162500E+00  0.14208087716E+02  0.00000000000E+00 0.  1.
         11    1    1    2    0    0  0.41238643422E+02 -0.81138515027E+02  0.18662462451E+03  0.20763630416E+03  0.00000000000E+00 0. -1.
</event>
<event>
 7    1  0.2863313E-009  0.2024960E+03  0.7561462E-02  0.1147650E+00
          3   -1    0    0  501    0  0.00000000000E+00  0.00000000000E+00  0.82689104847E+03  0.82689104847E+03  0.00000000000E+00 0. -1.
         -3   -1    0    0    0  501 -0.00000000000E+00 -0.00000000000E+00 -0.63282485387E+02  0.63282485387E+02  0.00000000000E+00 0.  1.
         25    2    1    2    0    0 -0.13014671710E+03  0.14252803144E+03  0.28592987690E+03  0.36695293274E+03  0.12508458188E+03 0.  0.
          5    1    3    3  502    0 -0.82809725846E+02  0.89712069881E+02  0.26670372243E+03  0.29334971303E+03  0.41800000000E+01 0. -1.
         -5    1    3    3    0  502 -0.47336991257E+02  0.52815961556E+02  0.19226154476E+02  0.73603219714E+02  0.41800000000E+01 0. -1.
        -11    1    1    2    0    0  0.88608385447E+02 -0.14526337232E+03  0.35501855557E+03  0.39368905002E+03  0.00000000000E+00 0. -1.
         11    1    1    2    0    0  0.41538331657E+02  0.27353408848E+01  0.12266013062E+03  0.12953155110E+03  0.00000000000E+00 0.  1.
</event>
<event>
 7    1  0.2766180E-009  0.1183946E+03  0.7561462E-02  0.1245769E+00
         -2   -1    0    0    0  501 -0.00000000000E+00  0.00000000000E+00  0.30302215012E+03  0.30302215012E+03  0.00000000000E+00 0.  1.
          2   -1    0    0  501    0  0.00000000000E+00 -0.00000000000E+00 -0.66359519420E+02  0.66359519420E+02  0.00000000000E+00 0. -1.
         25    2    1    2    0    0  0.82705811272E+02 -0.46502183524E+01  0.18339637858E+03  0.23694760632E+03  0.12509220886E+03 0.  0.
          5    1    3    3  502    0  0.92005416165E+02  0.42658962449E+02  0.12887140754E+03  0.16404296926E+03  0.41800000000E+01 0. -1.
         -5    1    3    3    0  502 -0.92996048922E+01 -0.47309180802E+02  0.54524971037E+02  0.72904637067E+02  0.41800000000E+01 0. -1.
        -11    1    1    2    0    0 -0.72421501611E+01 -0.75369007343E+01  0.54988640670E+02  0.55973245523E+02  0.00000000000E+00 0.  1.
         11    1    1    2    0    0 -0.75463661111E+02  0.12187119087E+02 -0.17223885487E+01  0.76460817693E+02  0.00000000000E+00 0. -1.
</event>
<event>
 7    1  0.2766180E-009  0.1510474E+03  0.7561462E-02  0.1199192E+00
          1   -1    0    0  501    0  0.00000000000E+00  0.00000000000E+00  0.10998770576E+04  0.10998770576E+04  0.00000000000E+00 0. -1.
         -1   -1    0    0    0  501 -0.00000000000E+00 -0.00000000000E+00 -0.27431778399E+02  0.27431778399E+02  0.00000000000E+00 0.  1.
         25    2    1    2    0    0 -0.12037968411E+03 -0.15925762090E+02  0.37780002945E+03  0.41608243901E+03  0.12508731171E+03 0.  0.
          5    1    3    3  502    0 -0.56461913503E+02  0.45907649987E+02  0.95891316782E+02  0.12044947919E+03  0.41800000000E+01 0.  1.
         -5    1    3    3    0  502 -0.63917770609E+02 -0.61833412077E+02  0.28190871267E+03  0.29563295981E+03  0.41800000000E+01 0.  1.
        -11    1    1    2    0    0  0.13255333279E+02  0.29358143464E+02  0.66738149045E+02  0.74105229140E+02  0.00000000000E+00 0.  1.
         11    1    1    2    0    0  0.10712435083E+03 -0.13432381374E+02  0.62790710074E+03  0.63712116789E+03  0.00000000000E+00 0. -1.
</event>
<event>
 7    1  0.2766180E-009  0.3017506E+03  0.7561462E-02  0.1084369E+00
          2   -1    0    0  501    0  0.00000000000E+00  0.00000000000E+00  0.75100499067E+03  0.75100499067E+03  0.00000000000E+00 0. -1.
         -2   -1    0    0    0  501 -0.00000000000E+00 -0.00000000000E+00 -0.12666354805E+03  0.12666354805E+03  0.00000000000E+00 0.  1.
         25    2    1    2    0    0  0.10701976532E+01 -0.28755082821E+03  0.34582275763E+03  0.46682710264E+03  0.12509012726E+03 0.  0.
          5    1    3    3  502    0 -0.58742836747E+02 -0.15626366458E+03  0.21321282321E+03  0.27082509876E+03  0.41800000000E+01 0.  1.
         -5    1    3    3    0  502  0.59813034400E+02 -0.13128716363E+03  0.13260993442E+03  0.19600200388E+03  0.41800000000E+01 0.  1.
        -11    1    1    2    0    0  0.22243856857E+02  0.21063562281E+03  0.24472482438E+03  0.32365474573E+03  0.00000000000E+00 0. -1.
         11    1    1    2    0    0 -0.23314054510E+02  0.76915205400E+02  0.33793860607E+02  0.87186690350E+02  0.00000000000E+00 0.  1.
</event>
<event>
 7    1  0.2766180E-009  0.1203227E+03  0.7561462E-02  0.1242566E+00
         -2   -1    0    0    0  501 -0.00000000000E+00  0.00000000000E+00  0.66544083863E+02  0.66544083863E+02  0.00000000000E+00 0.  1.
          2   -1    0    0  501    0  0.00000000000E+00 -0.00000000000E+00 -0.31111442325E+03  0.31111442325E+03  0.00000000000E+00 0. -1.
         25    2    1    2    0    0  0.66687110256E+02 -0.12688717328E+02 -0.46895868998E+02  0.14985068925E+03  0.12509129593E+03 0.  0.
          5    1    3    3  502    0 -0.32735658536E+02 -0.20636131391E+02  0.14144489440E+01  0.38947995126E+02  0.41800000000E+01 0.  1.
         -5    1    3    3    0  502  0.99422768792E+02  0.79474140622E+01 -0.48310317942E+02  0.11090269413E+03  0.41800000000E+01 0.  1.
        -11    1    1    2    0    0 -0.79098444523E+02 -0.61487378389E+01 -0.10045886756E+03  0.12800919879E+03  0.00000000000E+00 0.  1.
         11    1    1    2    0    0  0.12411334266E+02  0.18837455167E+02 -0.97215602825E+02  0.99798619069E+02  0.00000000000E+00 0. -1.
</event>
<event>
 7    1  0.2766180E-009  0.8006723E+02  0.7561462E-02  0.1328861E+00
         -2   -1    0    0    0  501 -0.00000000000E+00  0.00000000000E+00  0.15619540343E+03  0.15619540343E+03  0.00000000000E+00 0.  1.
          2   -1    0    0  501    0  0.00000000000E+00 -0.00000000000E+00 -0.10576157144E+03  0.10576157144E+03  0.00000000000E+00 0. -1.
         25    2    1    2    0    0  0.13189815089E+02 -0.48552805232E+02 -0.44640805293E+02  0.14202751185E+03  0.12509063317E+03 0.  0.
          5    1    3    3  502    0 -0.41613573599E+01 -0.72946693411E+02  0.15418431017E+02  0.74791292205E+02  0.41800000000E+01 0.  1.
         -5    1    3    3    0  502  0.17351172449E+02  0.24393888179E+02 -0.60059236310E+02  0.67236219644E+02  0.41800000000E+01 0.  1.
        -11    1    1    2    0    0  0.78269622584E+01  0.18132076720E+02  0.75605279554E+02  0.78142125904E+02  0.00000000000E+00 0.  1.
         11    1    1    2    0    0 -0.21016777347E+02  0.30420728512E+02  0.19469357729E+02  0.41787337121E+02  0.00000000000E+00 0. -1.
</event>
<event>
 7    1  0.2766180E-009  0.1167403E+03  0.7561462E-02  0.1248573E+00
         -1   -1    0    0    0  501 -0.00000000000E+00  0.00000000000E+00  0.23701622781E+02  0.23701622781E+02  0.00000000000E+00 0.  1.
          1   -1    0    0  501    0  0.00000000000E+00 -0.00000000000E+00 -0.12581990055E+04  0.12581990055E+04  0.00000000000E+00 0. -1.
         25    2    1    2    0    0  0.52457136475E+02 -0.85303094741E+02 -0.97732092717E+03  0.99037095736E+03  0.12510023724E+03 0.  0.
          5    1    3    3  502    0  0.68809091364E+02 -0.58496862860E+02 -0.92353707117E+03  0.92795192130E+03  0.41800000000E+01 0. -1.
         -5    1    3    3    0  502 -0.16351954889E+02 -0.26806231881E+02 -0.53783855995E+02  0.62419036055E+02  0.41800000000E+01 0. -1.
        -11    1    1    2    0    0 -0.59511129960E+02  0.57654868604E+02 -0.24812508619E+03  0.26159456580E+03  0.00000000000E+00 0. -1.
         11    1    1    2    0    0  0.70539934849E+01  0.27648226137E+02 -0.90513693989E+01  0.29935105154E+02  0.00000000000E+00 0.  1.
</event>
<event>
 7    1  0.3169489E-009  0.1499261E+03  0.7561462E-02  0.1200564E+00
          2   -1    0    0  501    0  0.00000000000E+00  0.00000000000E+00  0.63183919076E+03  0.63183919076E+03  0.00000000000E+00 0. -1.
         -2   -1    0    0    0  501 -0.00000000000E+00 -0.00000000000E+00 -0.42653713976E+02  0.42653713976E+02  0.00000000000E+00 0.  1.
         25    2    1    2    0    0  0.49100725722E+01  0.12244573950E+03  0.31250640822E+03  0.35822483867E+03  0.12509081472E+03 0.  0.
          5    1    3    3  502    0  0.42465634501E+02  0.26728625830E+02  0.19786914265E+03  0.20417497292E+03  0.41800000000E+01 0.  1.
         -5    1    3    3    0  502 -0.37555561929E+02  0.95717113674E+02  0.11463726557E+03  0.15404986575E+03  0.41800000000E+01 0.  1.
        -11    1    1    2    0    0  0.37358048578E+02 -0.46170990006E+02  0.15952188356E+03  0.17021931573E+03  0.00000000000E+00 0. -1.
         11    1    1    2    0    0 -0.42268121150E+02 -0.76274749499E+02  0.11715718500E+03  0.14604875033E+03  0.00000000000E+00 0.  1.
</event>
<event>
 7    1  0.2766180E-009  0.2225095E+03  0.7561462E-02  0.1132026E+00
         -2   -1    0    0    0  501 -0.00000000000E+00  0.00000000000E+00  0.92533193394E+02  0.92533193394E+02  0.00000000000E+00 0. -1.
          2   -1    0    0  501    0  0.00000000000E+00 -0.00000000000E+00 -0.59009851059E+03  0.59009851059E+03  0.00000000000E+00 0.  1.
         25    2    1    2    0    0  0.10429018510E+03  0.17835080161E+03 -0.25926962863E+03  0.35433564841E+03  0.12509020848E+03 0.  0.
          5    1    3    3  502    0  0.10570604424E+03  0.76709438567E+02 -0.96723429053E+02  0.16257613564E+03  0.41800000000E+01 0. -1.
         -5    1    3    3    0  502 -0.14158591324E+01  0.10164136304E+03 -0.16254619958E+03  0.19175951276E+03  0.41800000000E+01 0. -1.
        -11    1    1    2    0    0 -0.40325433984E+02 -0.27649819009E+02 -0.10974222624E+03  0.12014162201E+03  0.00000000000E+00 0.  1.
         11    1    1    2    0    0 -0.63964751119E+02 -0.15070098260E+03 -0.12855346232E+03  0.20815443357E+03  0.00000000000E+00 0. -1.
</event>
<event>
 7    1  0.2766180E-009  0.1363994E+03  0.7561462E-02  0.1218258E+00
          1   -1    0    0  501    0  0.00000000000E+00  0.00000000000E+00  0.13663244158E+04  0.13663244158E+04  0.00000000000E+00 0. -1.
         -1   -1    0    0    0  501 -0.00000000000E+00 -0.00000000000E+00 -0.28362472227E+02  0.28362472227E+02  0.00000000000E+00 0.  1.
         25    2    1    2    0    0 -0.12583028447E+03  0.12363244422E+02  0.10731365831E+04  0.10877756321E+04  0.12509032548E+03 0.  0.
          5    1    3    3  502    0 -0.10865377425E+03 -0.50273483088E+01  0.10433721263E+04  0.10490346911E+04  0.41800000000E+01 0. -1.
         -5    1    3    3    0  502 -0.17176510218E+02  0.17390592731E+02  0.29764456825E+02  0.38740940991E+02  0.41800000000E+01 0. -1.
        -11    1    1    2    0    0  0.10399211889E+03  0.13985533662E+02  0.24691568188E+03  0.26828587347E+03  0.00000000000E+00 0. -1.
         11    1    1    2    0    0  0.21838165576E+02 -0.26348778084E+02  0.17909678601E+02  0.38625382455E+02  0.00000000000E+00 0.  1.
</event>
<event>
 7    1  0.2766180E-009  0.7975344E+02  0.7561462E-02  0.1329753E+00
          2   -1    0    0  501    0  0.00000000000E+00  0.00000000000E+00  0.62607857504E+03  0.62607857504E+03  0.00000000000E+00 0. -1.
         -2   -1    0    0    0  501 -0.00000000000E+00 -0.00000000000E+00 -0.19843258694E+02  0.19843258694E+02  0.00000000000E+00 0.  1.
         25    2    1    2    0    0 -0.31160421870E+02 -0.18276209180E+01  0.38405922288E+03  0.40512217166E+03  0.12509266647E+03 0.  0.
          5    1    3    3  502    0 -0.50739829658E+02 -0.26888439471E+02  0.36113631095E+03  0.36569717797E+03  0.41800000000E+01 0.  1.
         -5    1    3    3    0  502  0.19579407789E+02  0.25060818553E+02  0.22922911925E+02  0.39424993685E+02  0.41800000000E+01 0.  1.
        -11    1    1    2    0    0  0.36430655597E+02  0.26229276374E+02  0.20649682097E+03  0.21131991074E+03  0.00000000000E+00 0. -1.
         11    1    1    2    0    0 -0.52702337272E+01 -0.24401655456E+02  0.15679272504E+02  0.29479751335E+02  0.00000000000E+00 0.  1.
</event>
<event>
 7    1  0.2766180E-009  0.2431014E+03  0.7561462E-02  0.1117744E+00
          3   -1    0    0  501    0  0.00000000000E+00  0.00000000000E+00  0.22580717643E+03  0.22580717643E+03  0.00000000000E+00 0. -1.
         -3   -1    0    0    0  501 -0.00000000000E+00 -0.00000000000E+00 -0.44074442332E+03  0.44074442332E+03  0.00000000000E+00 0.  1.
         25    2    1    2    0    0 -0.18192959073E+02  0.24182328539E+03  0.69742010591E+02  0.28164049102E+03  0.12509169848E+03 0.  0.
          5    1    3    3  502    0  0.63174678678E+00  0.80006757311E+01  0.44796909813E+02  0.45701700679E+02  0.41800000000E+01 0. -1.
         -5    1    3    3    0  502 -0.18824705859E+02  0.23382260965E+03  0.24945100779E+02  0.23593879034E+03  0.41800000000E+01 0. -1.
        -11    1    1    2    0    0  0.61029409780E+01 -0.10671790190E+03 -0.60328552976E+02  0.12274156092E+03  0.00000000000E+00 0. -1.
         11    1    1    2    0    0  0.12090018095E+02 -0.13510538349E+03 -0.22435070451E+03  0.26216954781E+03  0.00000000000E+00 0.  1.
</event>
<event>
 7    1  0.3805150E-009  0.1259088E+03  0.7561462E-02  0.1233656E+00
         -1   -1    0    0    0  501 -0.00000000000E+00  0.00000000000E+00  0.74332880255E+02  0.74332880255E+02  0.00000000000E+00 0.  1.
          1   -1    0    0  501    0  0.00000000000E+00 -0.00000000000E+00 -0.34439227508E+03  0.34439227508E+03  0.00000000000E+00 0. -1.
         25    2    1    2    0    0 -0.81597076281E+02 -0.47133923254E+02 -0.52887824072E+02  0.16530097190E+03  0.12509036652E+03 0.  0.
          5    1    3    3  502    0 -0.10052793182E+03 -0.70976582147E+02 -0.29316353570E+02  0.12657196086E+03  0.41800000000E+01 0. -1.
         -5    1    3    3    0  502  0.18930855538E+02  0.23842658893E+02 -0.23571470503E+02  0.38729011040E+02  0.41800000000E+01 0. -1.
        -11    1    1    2    0    0  0.58089611371E+01  0.14163723645E+02  0.52178085554E+01  0.16173454273E+02  0.00000000000E+00 0.  1.
         11    1    1    2    0    0  0.75788115144E+02  0.32970199609E+02 -0.22238937930E+03  0.23725072916E+03  0.00000000000E+00 0. -1.
</event>
<event>
 7    1  0.2766180E-009  0.1188939E+03  0.7561462E-02  0.1244933E+00
         -2   -1    0    0    0  501 -0.00000000000E+00  0.00000000000E+00  0.19662438968E+02  0.19662438968E+02  0.00000000000E+00 0.  1.
          2   -1    0    0  501    0  0.00000000000E+00 -0.00000000000E+00 -0.99320148696E+03  0.99320148696E+03  0.00000000000E+00 0. -1.
         25    2    1    2    0    0 -0.57028446638E+02 -0.12339230041E+01 -0.78339953757E+03  0.79537197638E+03  0.12509188241E+03 0.  0.
          5    1    3    3  502    0  0.27923773490E+02  0.33097199542E+02 -0.18937478199E+03  0.19430759686E+03  0.41800000000E+01 0.  1.
         -5    1    3    3    0  502 -0.84952220128E+02 -0.34331122546E+02 -0.59402475558E+03  0.60106437952E+03  0.41800000000E+01 0.  1.
        -11    1    1    2    0    0  0.78886397898E+02 -0.70167636985E+01 -0.16585340930E+03  0.18379241585E+03  0.00000000000E+00 0. -1.
         11    1    1    2    0    0 -0.21857951260E+02  0.82506867026E+01 -0.24286101117E+02  0.33699533703E+02  0.00000000000E+00 0.  1.
</event>
<event>
 7    1  0.2766180E-009  0.1116149E+03  0.7561462E-02  0.1257608E+00
         -1   -1    0    0    0  501 -0.00000000000E+00  0.00000000000E+00  0.84656346641E+02  0.84656346641E+02  0.00000000000E+00 0.  1.
          1   -1    0    0  501    0  0.00000000000E+00 -0.00000000000E+00 -0.14760160529E+03  0.14760160529E+03  0.00000000000E+00 0. -1.
         25    2    1    2    0    0 -0.25940336788E+02  0.55627259760E+01 -0.38795865373E+02  0.13361631452E+03  0.12507739741E+03 0.  0.
          5    1    3    3  502    0 -0.64345506506E+02 -0.33699713828E+02 -0.20844556591E+02  0.75683438473E+02  0.41800000000E+01 0.  1.
         -5    1    3    3    0  502  0.38405169718E+02  0.39262439804E+02 -0.17951308782E+02  0.57932876050E+02  0.41800000000E+01 0.  1.
        -11    1    1    2    0    0  0.37520763619E+02  0.36149621469E+02 -0.16718512550E+02  0.54718474913E+02  0.00000000000E+00 0.  1.
         11    1    1    2    0    0 -0.11580426831E+02 -0.41712347445E+02 -0.74308807216E+01  0.43923162492E+02  0.00000000000E+00 0. -1.
</event>
<event>
 7    1  0.2766180E-009  0.1363829E+03  0.7561462E-02  0.1218281E+00
         -1   -1    0    0    0  501 -0.00000000000E+00  0.00000000000E+00  0.36430422932E+03  0.36430422932E+03  0.00000000000E+00 0.  1.
          1   -1    0    0  501    0  0.00000000000E+00 -0.00000000000E+00 -0.85974418803E+02  0.85974418803E+02  0.00000000000E+00 0. -1.
         25    2    1    2    0    0  0.10811456084E+03 -0.93111654475E+00  0.25952322200E+03  0.30771907638E+03  0.12509637073E+03 0.  0.
          5    1    3    3  502    0  0.55440800990E+02  0.37551427433E+02  0.38762906388E+02  0.77484368929E+02  0.41800000000E+01 0. -1.
         -5    1    3    3    0  502  0.52673759849E+02 -0.38482543978E+02  0.22076031561E+03  0.23023470746E+03  0.41800000000E+01 0. -1.
        -11    1    1    2    0    0 -0.11931301596E+03 -0.15611798813E+02  0.22013162628E+02  0.12232703449E+03  0.00000000000E+00 0.  1.
         11    1    1    2    0    0  0.11198455119E+02  0.16542915358E+02 -0.32065741160E+01  0.20232537240E+02  0.00000000000E+00 0. -1.
</event>
<event>
 7    1  0.2766180E-009  0.2972518E+03  0.7561462E-02  0.1086623E+00
          2   -1    0    0  501    0  0.00000000000E+00  0.00000000000E+00  0.77562640400E+03  0.77562640400E+03  0.00000000000E+00 0. -1.
         -2   -1    0    0    0  501 -0.00000000000E+00 -0.00000000000E+00 -0.12337301225E+03  0.12337301225E+03  0.00000000000E+00 0.  1.
         25    2    1    2    0    0  0.90007054160E+02  0.27400977687E+03  0.29666304078E+03  0.43224889457E+03  0.12509004544E+03 0.  0.
          5    1    3    3  502    0  0.13309748350E+02  0.56661361934E-01  0.61686947824E+02  0.63244798549E+02  0.41800000000E+01 0. -1.
         -5    1    3    3    0  502  0.76697305809E+02  0.27395311551E+03  0.23497609296E+03  0.36900409602E+03  0.41800000000E+01 0. -1.
        -11    1    1    2    0    0  0.17226412346E+01 -0.93863772616E+02  0.71172970698E+02  0.11780902792E+03  0.00000000000E+00 0.  1.
         11    1    1    2    0    0 -0.91729695394E+02 -0.18014600425E+03  0.28441738027E+03  0.34894149376E+03  0.00000000000E+00 0. -1.
</event>
<event>
 7    1  0.2766180E-009  0.1886787E+03  0.7561462E-02  0.1159658E+00
          3   -1    0    0  501    0  0.00000000000E+00  0.00000000000E+00  0.47901491086E+03  0.47901491086E+03  0.00000000000E+00 0. -1.
         -3   -1    0    0    0  501 -0.00000000000E+00 -0.00000000000E+00 -0.11104389926E+03  0.11104389926E+03  0.00000000000E+00 0.  1.
         25    2    1    2    0    0  0.17623054499E+03  0.73034211166E+01  0.32043381384E+03  0.38656807414E+03  0.12508597822E+03 0.  0.
          5    1    3    3  502    0  0.13473964178E+02  0.21836854773E+02 -0.93908105575E+00  0.26014423121E+02  0.41800000000E+01 0. -1.
         -5    1    3    3    0  502  0.16275658081E+03 -0.14533433657E+02  0.32137289490E+03  0.36055365102E+03  0.41800000000E+01 0. -1.
        -11    1    1    2    0    0 -0.19305449267E+02  0.20912119666E+02  0.32714144698E+02  0.43361646459E+02  0.00000000000E+00 0. -1.
         11    1    1    2    0    0 -0.15692509572E+03 -0.28215540783E+02  0.14823053064E+02  0.16012908952E+03  0.00000000000E+00 0.  1.
</event>
<event>
 7    1  0.2766180E-009  0.7138934E+02  0.7561462E-02  0.1355431E+00
         -2   -1    0    0    0  501 -0.00000000000E+00  0.00000000000E+00  0.35701270988E+02  0.35701270988E+02  0.00000000000E+00 0.  1.
          2   -1    0    0  501    0  0.00000000000E+00 -0.00000000000E+00 -0.36819570748E+03  0.36819570748E+03  0.00000000000E+00 0. -1.
         25    2    1    2    0    0  0.23088685970E+02 -0.38731380641E+02 -0.14652664057E+03  0.19786155592E+03  0.12508369857E+03 0.  0.
          5    1    3    3  502    0 -0.14248824642E+02 -0.28094363185E+02 -0.15473190146E+03  0.15796124833E+03  0.41800000000E+01 0. -1.
         -5    1    3    3    0  502  0.37337510612E+02 -0.10637017456E+02  0.82052608870E+01  0.39900307584E+02  0.41800000000E+01 0. -1.
        -11    1    1    2    0    0  0.18090176112E+02  0.19193535528E+02 -0.17847285019E+02  0.31846065069E+02  0.00000000000E+00 0.  1.
         11    1    1    2    0    0 -0.41178862082E+02  0.19537845113E+02 -0.16812051091E+03  0.17418935749E+03  0.00000000000E+00 0. -1.
</event>
<event>
 7    1  0.2766180E-009  0.1422785E+03  0.7561462E-02  0.1210296E+00
          3   -1    0    0  501    0  0.00000000000E+00  0.00000000000E+00  0.13642103152E+03  0.13642103152E+03  0.00000000000E+00 0. -1.
         -3   -1    0    0    0  501 -0.00000000000E+00 -0.00000000000E+00 -0.22036621697E+03  0.22036621697E+03  0.00000000000E+00 0.  1.
         25    2    1    2    0    0 -0.17746550619E+02  0.11976963374E+03 -0.10466531487E+03  0.20313086800E+03  0.12509043198E+03 0.  0.
          5    1    3    3  502    0 -0.44401400082E+02  0.11157418229E+02 -0.73957209958E+02  0.87081074957E+02  0.41800000000E+01 0. -1.
         -5    1    3    3    0  502  0.26654849463E+02  0.10861221551E+03 -0.30708104912E+02  0.11604979305E+03  0.41800000000E+01 0. -1.
        -11    1    1    2    0    0  0.19111763331E+02 -0.23051771513E+02 -0.31725974669E+02  0.43625464309E+02  0.00000000000E+00 0.  1.
         11    1    1    2    0    0 -0.13652127119E+01 -0.96717862231E+02  0.52446104094E+02  0.11003091618E+03  0.00000000000E+00 0. -1.
</event>
<event>
 7    1  0.2766180E-009  0.7768512E+02  0.7561462E-02  0.1335752E+00
         -2   -1    0    0    0  501 -0.00000000000E+00  0.00000000000E+00  0.13381674732E+02  0.13381674732E+02  0.00000000000E+00 0.  1.
          2   -1    0    0  501    0  0.00000000000E+00 -0.00000000000E+00 -0.13952092726E+04  0.13952092726E+04  0.00000000000E+00 0. -1.
         25    2    1    2    0    0  0.92746435223E+01 -0.32519183339E+02 -0.10972321231E+04  0.11048575232E+04  0.12509315865E+03 0.  0.
          5    1    3    3  502    0 -0.25577765960E+02 -0.39526042360E+01 -0.48357410318E+02  0.55006878883E+02  0.41800000000E+01 0. -1.
         -5    1    3    3    0  502  0.34852409483E+02 -0.28566579103E+02 -0.10488747128E+04  0.10498506443E+04  0.41800000000E+01 0. -1.
        -11    1    1    2    0    0  0.21786623097E+01  0.56909253378E+02 -0.26330022520E+03  0.26938897208E+03  0.00000000000E+00 0.  1.
         11    1    1    2    0    0 -0.11453305832E+02 -0.24390070039E+02 -0.21295249551E+02  0.34344452018E+02  0.00000000000E+00 0. -1.
</event>
<event>
 7    1  0.2766180E-009  0.1121898E+03  0.7561462E-02  0.1256568E+00
         -2   -1    0    0    0  501 -0.00000000000E+00  0.00000000000E+00  0.13417357966E+02  0.13417357966E+02  0.00000000000E+00 0.  1.
          2   -1    0    0  501    0  0.00000000000E+00 -0.00000000000E+00 -0.11145911739E+04  0.11145911739E+04  0.00000000000E+00 0. -1.
         25    2    1    2    0    0  0.12884169221E+02 -0.48894745911E+02 -0.73984737103E+03  0.75204884793E+03  0.12508652710E+03 0.  0.
          5    1    3    3  502    0 -0.41807229275E+02  0.16809299044E+02 -0.35020748469E+03  0.35311917491E+03  0.41800000000E+01 0. -1.
         -5    1    3    3    0  502  0.54691398496E+02 -0.65704044956E+02 -0.38963988634E+03  0.39892967302E+03  0.41800000000E+01 0. -1.
        -11    1    1    2    0    0  0.32379582167E+02  0.10088712503E+02 -0.61204512320E+02  0.69972936123E+02  0.00000000000E+00 0.  1.
         11    1    1    2    0    0 -0.45263751389E+02  0.38806033409E+02 -0.30012193262E+03  0.30598674784E+03  0.00000000000E+00 0. -1.
</event>
<event>
 7    1  0.2766180E-009  0.1167269E+03  0.7561462E-02  0.1248596E+00
         -3   -1    0    0    0  501 -0.00000000000E+00  0.00000000000E+00  0.30843530175E+03  0.30843530175E+03  0.00000000000E+00 0.  1.
          3   -1    0    0  501    0  0.00000000000E+00 -0.00000000000E+00 -0.65922474823E+02  0.65922474823E+02  0.00000000000E+00 0. -1.
         25    2    1    2    0    0  0.58586234481E+02 -0.91408900417E+00  0.36026755578E+02  0.14275451040E+03  0.12509092969E+03 0.  0.
          5    1    3    3  502    0 -0.65274236120E+01  0.48192526870E+02  0.36732737212E+02  0.61089223994E+02  0.41800000000E+01 0. -1.
         -5    1    3    3    0  502  0.65113658093E+02 -0.49106615874E+02 -0.70598163424E+00  0.81665286401E+02  0.41800000000E+01 0. -1.
        -11    1    1    2    0    0 -0.66625289112E+02  0.29807191284E+02  0.16489687481E+03  0.18032852554E+03  0.00000000000E+00 0. -1.
         11    1    1    2    0    0  0.80390546312E+01 -0.28893102280E+02  0.41589196540E+02  0.51274740639E+02  0.00000000000E+00 0.  1.
</event>
<event>
 7    1  0.2766180E-009  0.1169634E+03  0.7561462E-02  0.1248192E+00
          1   -1    0    0  501    0  0.00000000000E+00  0.00000000000E+00  0.33461784801E+03  0.33461784801E+03  0.00000000000E+00 0. -1.
         -1   -1    0    0    0  501 -0.00000000000E+00 -0.00000000000E+00 -0.57131166807E+02  0.57131166807E+02  0.00000000000E+00 0.  1.
         25    2    1    2    0    0  0.16685900294E+02  0.74978911392E+02  0.20630979245E+03  0.25319939757E+03  0.12508376413E+03 0.  0.
          5    1    3    3  502    0 -0.25092739710E+02  0.68147513761E+02  0.19651698033E+03  0.20954742942E+03  0.41800000000E+01 0. -1.
         -5    1    3    3    0  502  0.41778640004E+02  0.68313976307E+01  0.97928121138E+01  0.43651968149E+02  0.41800000000E+01 0. -1.
        -11    1    1    2    0    0  0.12381953097E+02 -0.86497976788E+02  0.56089636711E+02  0.10383284691E+03  0.00000000000E+00 0. -1.
         11    1    1    2    0    0 -0.29067853391E+02  0.11519065396E+02  0.15087252046E+02  0.34716770337E+02  0.00000000000E+00 0.  1.
</event>
<event>
 7    1  0.2766180E-009  0.1958054E+03  0.7561462E-02  0.1153327E+00
         -3   -1    0    0    0  501 -0.00000000000E+00  0.00000000000E+00  0.56786539443E+03  0.56786539443E+03  0.00000000000E+00 0.  1.
          3   -1    0    0  501    0  0.00000000000E+00 -0.00000000000E+00 -0.89750722338E+02  0.89750722338E+02  0.00000000000E+00 0. -1.
         25    2    1    2    0    0  0.48334382509E+02  0.17196318929E+03  0.11976961352E+03  0.24879649355E+03  0.12508950346E+03 0.  0.
          5    1    3    3  502    0  0.60950909793E+02  0.35509033451E+02  0.78499105018E+02  0.10561953773E+03  0.41800000000E+01 0.  1.
         -5    1    3    3    0  502 -0.12616527284E+02  0.13645415584E+03  0.41270508500E+02  0.14317695582E+03  0.41800000000E+01 0.  1.
        -11    1    1    2    0    0 -0.55841006586E+02 -0.13436099137E+03  0.20920332384E+03  0.25482763729E+03  0.00000000000E+00 0. -1.
         11    1    1    2    0    0  0.75066240772E+01 -0.37602197921E+02  0.14914173473E+03  0.15399198594E+03  0.00000000000E+00 0.  1.
</event>
<event>
 7    1  0.2766180E-009  0.1802297E+03  0.7561462E-02  0.1167581E+00
         -2   -1    0    0    0  501 -0.00000000000E+00  0.00000000000E+00  0.19757228504E+03  0.19757228504E+03  0.00000000000E+00 0.  1.
          2   -1    0    0  501    0  0.00000000000E+00 -0.00000000000E+00 -0.21057995469E+03  0.21057995469E+03  0.00000000000E+00 0. -1.
         25    2    1    2    0    0 -0.73056652062E+01 -0.14756169174E+03 -0.96986584108E+02  0.21652160653E+03  0.12508949989E+03 0.  0.
          5    1    3    3  502    0 -0.52008283344E+02 -0.13025257473E+03 -0.49157206511E+02  0.14867581549E+03  0.41800000000E+01 0. -1.
         -5    1    3    3    0  502  0.44702618138E+02 -0.17309117016E+02 -0.47829377596E+02  0.67845791037E+02  0.41800000000E+01 0. -1.
        -11    1    1    2    0    0 -0.40514727737E+02  0.71522195199E+02  0.44998912914E+02  0.93711097172E+02  0.00000000000E+00 0. -1.
         11    1    1    2    0    0  0.47820392944E+02  0.76039496545E+02  0.38980001541E+02  0.97919536030E+02  0.00000000000E+00 0.  1.
</event>
<event>
 7    1  0.2766180E-009  0.1665126E+03  0.7561462E-02  0.1181534E+00
          1   -1    0    0  501    0  0.00000000000E+00  0.00000000000E+00  0.35552962612E+03  0.35552962612E+03  0.00000000000E+00 0. -1.
         -1   -1    0    0    0  501 -0.00000000000E+00 -0.00000000000E+00 -0.15780602196E+03  0.15780602196E+03  0.00000000000E+00 0.  1.
         25    2    1    2    0    0 -0.15101331742E+03 -0.83654512990E+01 -0.55454107486E+02  0.20395588433E+03  0.12509133424E+03 0.  0.
          5    1    3    3  502    0 -0.91943765867E+00  0.44759118343E+01 -0.52872135691E+02  0.53233582303E+02  0.41800000000E+01 0.  1.
         -5    1    3    3    0  502 -0.15009387976E+03 -0.12841363133E+02 -0.25819717953E+01  0.15072230202E+03  0.41800000000E+01 0.  1.
        -11    1    1    2    0    0  0.66578014976E+02  0.48767785048E+02  0.97610357729E+02  0.12782296692E+03  0.00000000000E+00 0.  1.
         11    1    1    2    0    0  0.84435302443E+02 -0.40402333749E+02  0.15556735392E+03  0.18155679684E+03  0.00000000000E+00 0. -1.
</event>
<event>
 7    1  0.2766180E-009  0.6602229E+02  0.7561462E-02  0.1374167E+00
         -2   -1    0    0    0  501 -0.00000000000E+00  0.00000000000E+00  0.32811362892E+02  0.32811362892E+02  0.00000000000E+00 0.  1.
          2   -1    0    0  501    0  0.00000000000E+00 -0.00000000000E+00 -0.40177755655E+03  0.40177755655E+03  0.00000000000E+00 0. -1.
         25    2    1    2    0    0 -0.29671489699E+02  0.56098598223E+01 -0.26206377025E+03  0.29195327483E+03  0.12508967654E+03 0.  0.
          5    1    3    3  502    0 -0.50071733606E+02 -0.60222278719E+01 -0.26325121354E+03  0.26807110916E+03  0.41800000000E+01 0.  1.
         -5    1    3    3    0  502  0.20400243907E+02  0.11632087694E+02  0.11874432890E+01  0.23882165672E+02  0.41800000000E+01 0.  1.
        -11    1    1    2    0    0 -0.11313228984E+02  0.85971850145E+01  0.10374698067E+02  0.17593609641E+02  0.00000000000E+00 0.  1.
         11    1    1    2    0    0  0.40984718683E+02 -0.14207044837E+02 -0.11727712147E+03  0.12504203497E+03  0.00000000000E+00 0. -1.
</event>
<event>
 7    1  0.2766180E-009  0.9391097E+02  0.7561462E-02  0.1293648E+00
          1   -1    0    0  501    0  0.00000000000E+00  0.00000000000E+00  0.13153082845E+03  0.13153082845E+03  0.00000000000E+00 0. -1.
         -1   -1    0    0    0  501 -0.00000000000E+00 -0.00000000000E+00 -0.11492573007E+03  0.11492573007E+03  0.00000000000E+00 0.  1.
         25    2    1    2    0    0 -0.54994271042E+01 -0.55407901876E+02  0.36097516326E+02  0.14159495008E+03  0.12508325194E+03 0.  0.
          5    1    3    3  502    0 -0.50937390206E+02  0.69316416439E+00 -0.14743127934E+02  0.53197090323E+02  0.41800000000E+01 0. -1.
         -5    1    3    3    0  502  0.45437963102E+02 -0.56101066040E+02  0.50840644260E+02  0.88397859762E+02  0.41800000000E+01 0. -1.
        -11    1    1    2    0    0  0.19117022301E+02  0.34498077063E+02  0.29920383145E+02  0.49505627864E+02  0.00000000000E+00 0. -1.
         11    1    1    2    0    0 -0.13617595197E+02  0.20909824813E+02 -0.49412801091E+02  0.55355980565E+02  0.00000000000E+00 0.  1.
</event>
<event>
 7    1  0.2766180E-009  0.1342728E+03  0.7561462E-02  0.1221250E+00
         -2   -1    0    0    0  501 -0.00000000000E+00  0.00000000000E+00  0.70349976520E+03  0.70349976520E+03  0.00000000000E+00 0.  1.
          2   -1    0    0  501    0  0.00000000000E+00 -0.00000000000E+00 -0.66735094318E+02  0.66735094318E+02  0.00000000000E+00 0. -1.
         25    2    1    2    0    0  0.11527583313E+03 -0.25676092086E+02  0.74483785267E+02  0.18742676353E+03  0.12503270776E+03 0.  0.
          5    1    3    3  502    0  0.10150810982E+03  0.18657078017E+02  0.45617052239E+01  0.10339373517E+03  0.41800000000E+01 0. -1.
         -5    1    3    3    0  502  0.13767723315E+02 -0.44333170103E+02  0.69922080043E+02  0.84033028353E+02  0.41800000000E+01 0. -1.
        -11    1    1    2    0    0 -0.21290018076E+02  0.93366569917E+01  0.15906519372E+02  0.28168340242E+02  0.00000000000E+00 0. -1.
         11    1    1    2    0    0 -0.93985815053E+02  0.16339435094E+02  0.54637436624E+03  0.55463975575E+03  0.00000000000E+00 0.  1.
</event>
<event>
 7    1  0.2766180E-009  0.1058143E+03  0.7561462E-02  0.1268524E+00
         -2   -1    0    0    0  501 -0.00000000000E+00  0.00000000000E+00  0.42125605947E+03  0.42125605947E+03  0.00000000000E+00 0.  1.
          2   -1    0    0  501    0  0.00000000000E+00 -0.00000000000E+00 -0.30304024053E+02  0.30304024053E+02  0.00000000000E+00 0. -1.
         25    2    1    2    0    0 -0.23434869934E+02 -0.22808210782E+02  0.23123897677E+03  0.26492823759E+03  0.12508436789E+03 0.  0.
          5    1    3    3  502    0  0.35481189357E+01  0.47042445626E+02  0.13402554812E+03  0.14214746142E+03  0.41800000000E+01 0.  1.
         -5    1    3    3    0  502 -0.26982988869E+02 -0.69850656408E+02  0.97213428646E+02  0.12278077617E+03  0.41800000000E+01 0.  1.
        -11    1    1    2    0    0  0.68884183298E+01  0.53745797266E+02  0.12932158318E+03  0.14021459591E+03  0.00000000000E+00 0.  1.
         11    1    1    2    0    0  0.16546451604E+02 -0.30937586484E+02  0.30391475476E+02  0.46417250024E+02  0.00000000000E+00 0. -1.
</event>
<event>
 7    1  0.2766180E-009  0.8615934E+02  0.7561462E-02  0.1312428E+00
         -2   -1    0    0    0  501 -0.00000000000E+00  0.00000000000E+00  0.55067369965E+02  0.55067369965E+02  0.00000000000E+00 0.  1.
          2   -1    0    0  501    0  0.00000000000E+00 -0.00000000000E+00 -0.25998280365E+03  0.25998280365E+03  0.00000000000E+00 0. -1.
         25    2    1    2    0    0 -0.42207392131E+02  0.20620555239E+02 -0.13391633084E+03  0.18917642601E+03  0.12508982869E+03 0.  0.
          5    1    3    3  502    0 -0.35488087186E+02 -0.23932196678E+02  0.47923650243E+01  0.43273473774E+02  0.41800000000E+01 0. -1.
         -5    1    3    3    0  502 -0.67193049447E+01  0.44552751917E+02 -0.13870869586E+03  0.14590295223E+03  0.41800000000E+01 0. -1.
        -11    1    1    2    0    0 -0.11483729468E+01  0.22725135797E+02 -0.59225708674E+02  0.63446316877E+02  0.00000000000E+00 0. -1.
         11    1    1    2    0    0  0.43355765077E+02 -0.43345691036E+02 -0.11773394168E+02  0.62427430726E+02  0.00000000000E+00 0.  1.
</event>
<event>
 7    1  0.2766180E-009  0.1167992E+03  0.7561462E-02  0.1248473E+00
          2   -1    0    0  501    0  0.00000000000E+00  0.00000000000E+00  0.31244591717E+03  0.31244591717E+03  0.00000000000E+00 0. -1.
         -2   -1    0    0    0  501 -0.00000000000E+00 -0.00000000000E+00 -0.66082404266E+02  0.66082404266E+02  0.00000000000E+00 0.  1.
         25    2    1    2    0    0  0.93129419529E+02  0.62427359555E+01  0.12207795241E+03  0.19814969119E+03  0.12509281802E+03 0.  0.
          5    1    3    3  502    0 -0.13478925382E+01  0.38493630523E+02  0.81625883216E+02  0.90353935254E+02  0.41800000000E+01 0.  1.
         -5    1    3    3    0  502  0.94477312067E+02 -0.32250894568E+02  0.40452069193E+02  0.10779575594E+03  0.41800000000E+01 0.  1.
        -11    1    1    2    0    0 -0.27769245126E+02  0.60765096840E+01 -0.10316609711E+02  0.30240492402E+02  0.00000000000E+00 0.  1.
         11    1    1    2    0    0 -0.65360174403E+02 -0.12319245640E+02  0.13460217021E+03  0.15013813785E+03  0.00000000000E+00 0. -1.
</event>
<event>
 7    1  0.2766180E-009  0.1053502E+03  0.7561462E-02  0.1269431E+00
         -1   -1    0    0    0  501 -0.00000000000E+00  0.00000000000E+00  0.13561044965E+02  0.13561044965E+02  0.00000000000E+00 0.  1.
          1   -1    0    0  501    0  0.00000000000E+00 -0.00000000000E+00 -0.87472278655E+03  0.87472278655E+03  0.00000000000E+00 0. -1.
         25    2    1    2    0    0 -0.15042422158E+02  0.93033422359E-01 -0.51099871427E+03  0.52630224408E+03  0.12509229802E+03 0.  0.
          5    1    3    3  502    0  0.52619373645E+02 -0.10883509256E+02 -0.16583138303E+03  0.17436963398E+03  0.41800000000E+01 0.  1.
         -5    1    3    3    0  502 -0.67661795803E+02  0.10976542678E+02 -0.34516733124E+03  0.35193261011E+03  0.41800000000E+01 0.  1.
        -11    1    1    2    0    0  0.26335271370E+01  0.43105493942E+02 -0.12159075367E+03  0.12903228453E+03  0.00000000000E+00 0.  1.
         11    1    1    2    0    0  0.12408895021E+02 -0.43198527364E+02 -0.22857227364E+03  0.23294930290E+03  0.00000000000E+00 0. -1.
</event>
<event>
 7    1  0.2766180E-009  0.9798298E+02  0.7561462E-02  0.1284596E+00
         -2   -1    0    0    0  501 -0.00000000000E+00  0.00000000000E+00  0.25212220666E+02  0.25212220666E+02  0.00000000000E+00 0.  1.
          2   -1    0    0  501    0  0.00000000000E+00 -0.00000000000E+00 -0.47614514791E+03  0.47614514791E+03  0.00000000000E+00 0. -1.
         25    2    1    2    0    0 -0.44404099276E+01  0.22899637564E+02 -0.27603606885E+03  0.30395190140E+03  0.12508691545E+03 0.  0.
          5    1    3    3  502    0 -0.59648022623E+02  0.29480740994E+02 -0.10812080534E+03  0.12702197306E+03  0.41800000000E+01 0.  1.
         -5    1    3    3    0  502  0.55207612696E+02 -0.65811034306E+01 -0.16791526352E+03  0.17692992834E+03  0.41800000000E+01 0.  1.
        -11    1    1    2    0    0  0.26422994197E+02  0.14516338800E+02 -0.13543631085E+03  0.13875119103E+03  0.00000000000E+00 0. -1.
         11    1    1    2    0    0 -0.21982584269E+02 -0.37415976364E+02 -0.39460547540E+02  0.58654276149E+02  0.00000000000E+00 0.  1.
</event>
<event>
 7    1  0.2766180E-009  0.1519039E+03  0.7561462E-02  0.1198153E+00
          2   -1    0    0  501    0  0.00000000000E+00  0.00000000000E+00  0.28373505911E+03  0.28373505911E+03  0.00000000000E+00 0. -1.
         -2   -1    0    0    0  501 -0.00000000000E+00 -0.00000000000E+00 -0.17270211200E+03  0.17270211200E+03  0.00000000000E+00 0.  1.
         25    2    1    2    0    0  0.82271637381E+02 -0.73076788985E+02  0.21975047305E+03  0.27576620773E+03  0.12509153255E+03 0.  0.
          5    1    3    3  502    0  0.80862146525E+02 -0.10288373396E+03  0.14604012166E+03  0.19613500195E+03  0.41800000000E+01 0. -1.
         -5    1    3    3    0  502  0.14094908555E+01  0.29806944971E+02  0.73710351385E+02  0.79631205782E+02  0.41800000000E+01 0. -1.
        -11    1    1    2    0    0 -0.33174824672E+02  0.85836215378E+02 -0.57102815175E+02  0.10830122974E+03  0.00000000000E+00 0. -1.
         11    1    1    2    0    0 -0.49096812709E+02 -0.12759426393E+02 -0.51614710760E+02  0.72369733639E+02  0.00000000000E+00 0.  1.
</event>
<event>
 7    1  0.2766180E-009  0.7334429E+02  0.7561462E-02  0.1349076E+00
          1   -1    0    0  501    0  0.00000000000E+00  0.00000000000E+00  0.69877257290E+02  0.69877257290E+02  0.00000000000E+00 0. -1.
         -1   -1    0    0    0  501 -0.00000000000E+00 -0.00000000000E+00 -0.17629957676E+03  0.17629957676E+03  0.00000000000E+00 0.  1.
         25    2    1    2    0    0 -0.32299872290E+02  0.13648375064E+01 -0.29730315620E+02  0.13257720192E+03  0.12509068020E+03 0.  0.
          5    1    3    3  502    0  0.64942652005E+01 -0.31534459790E+02 -0.63542022517E+02  0.71355859327E+02  0.41800000000E+01 0.  1.
         -5    1    3    3    0  502 -0.38794137491E+02  0.32899297296E+02  0.33811706897E+02  0.61221342598E+02  0.41800000000E+01 0.  1.
        -11    1    1    2    0    0  0.22753468215E+02 -0.27305571717E+02 -0.78219125903E+02  0.85915925297E+02  0.00000000000E+00 0.  1.
         11    1    1    2    0    0  0.95464040755E+01  0.25940734211E+02  0.15271220498E+01  0.27683706831E+02  0.00000000000E+00 0. -1.
</event>
<event>
 7    1  0.2766180E-009  0.7461520E+02  0.7561462E-02  0.1345067E+00
          1   -1    0    0  501    0  0.00000000000E+00  0.00000000000E+00  0.34837553398E+02  0.34837553398E+02  0.00000000000E+00 0. -1.
         -1   -1    0    0    0  501 -0.00000000000E+00 -0.00000000000E+00 -0.55438184468E+03  0.55438184468E+03  0.00000000000E+00 0.  1.
         25    2    1    2    0    0  0.63938509956E+02  0.15722473998E+02 -0.40368273524E+03  0.42771783368E+03  0.12508982882E+03 0.  0.
          5    1    3    3  502    0  0.40566218227E+02  0.95105579216E+01 -0.26110374928E+02  0.49348686428E+02  0.41800000000E+01 0. -1.
         -5    1    3    3    0  502  0.23372291729E+02  0.62119160768E+01 -0.37757236031E+03  0.37836914725E+03  0.41800000000E+01 0. -1.
        -11    1    1    2    0    0 -0.24410621219E+02 -0.31843942905E+02 -0.23093508821E+01  0.40190150902E+02  0.00000000000E+00 0. -1.
         11    1    1    2    0    0 -0.39527888737E+02  0.16121468906E+02 -0.11355220516E+03  0.12131141350E+03  0.00000000000E+00 0.  1.
</event>
<event>
 7    1  0.2766180E-009  0.1243832E+03  0.7561462E-02  0.1236036E+00
         -3   -1    0    0    0  501 -0.00000000000E+00  0.00000000000E+00  0.48912650998E+02  0.48912650998E+02  0.00000000000E+00 0.  1.
          3   -1    0    0  501    0  0.00000000000E+00 -0.00000000000E+00 -0.53619248190E+03  0.53619248190E+03  0.00000000000E+00 0. -1.
         25    2    1    2    0    0  0.88027516652E+02  0.75020429813E+02 -0.19665345687E+03  0.26018807531E+03  0.12509334058E+03 0.  0.
          5    1    3    3  502    0  0.46807265686E+02  0.12470023053E+02 -0.17568061940E+03  0.18228432195E+03  0.41800000000E+01 0. -1.
         -5    1    3    3    0  502  0.41220250967E+02  0.62550406760E+02 -0.20972837466E+02  0.77903753356E+02  0.41800000000E+01 0. -1.
        -11    1    1    2    0    0 -0.48648873379E+02 -0.10873142401E+02 -0.42119002349E+02  0.65260619562E+02  0.00000000000E+00 0.  1.
         11    1    1    2    0    0 -0.39378643273E+02 -0.64147287413E+02 -0.24850737169E+03  0.25965643803E+03  0.00000000000E+00 0. -1.
</event>
<event>
 7    1  0.2766180E-009  0.1501910E+03  0.7561462E-02  0.1200238E+00
          2   -1    0    0  501    0  0.00000000000E+00  0.00000000000E+00  0.88970904384E+03  0.88970904384E+03  0.00000000000E+00 0. -1.
         -2   -1    0    0    0  501 -0.00000000000E+00 -0.00000000000E+00 -0.29829035314E+02  0.29829035314E+02  0.00000000000E+00 0.  1.
         25    2    1    2    0    0  0.60237911073E+02 -0.78627229718E+02  0.57717240482E+03  0.59881964647E+03  0.12508451913E+03 0.  0.
          5    1    3    3  502    0  0.57330845333E+02 -0.10695749805E+03  0.52852818046E+03  0.54229718988E+03  0.41800000000E+01 0.  1.
         -5    1    3    3    0  502  0.29070657396E+01  0.28330268328E+02  0.48644224356E+02  0.56522456581E+02  0.41800000000E+01 0.  1.
        -11    1    1    2    0    0 -0.25515734499E+01  0.91114097667E+02  0.15078273640E+03  0.17619228961E+03  0.00000000000E+00 0.  1.
         11    1    1    2    0    0 -0.57686337623E+02 -0.12486867949E+02  0.13192486731E+03  0.14452614308E+03  0.00000000000E+00 0. -1.
</event>
<event>
 7    1  0.2766180E-009  0.1112829E+03  0.7561462E-02  0.1258213E+00
          1   -1    0    0  501    0  0.00000000000E+00  0.00000000000E+00  0.23459938734E+03  0.23459938734E+03  0.00000000000E+00 0. -1.
         -1   -1    0    0    0  501 -0.00000000000E+00 -0.00000000000E+00 -0.54245398846E+02  0.54245398846E+02  0.00000000000E+00 0.  1.
         25    2    1    2    0    0  0.12880170951E+02  0.29293913499E+02  0.11985822437E+03  0.17617457955E+03  0.12508979318E+03 0.  0.
          5    1    3    3  502    0  0.10948161903E+02  0.78458256799E+02  0.66963035347E+02  0.10381271989E+03  0.41800000000E+01 0. -1.
         -5    1    3    3    0  502  0.19320090481E+01 -0.49164343301E+02  0.52895189020E+02  0.72361859654E+02  0.41800000000E+01 0. -1.
        -11    1    1    2    0    0 -0.32722296057E+02 -0.53404438290E+02  0.48518727552E+02  0.79226571374E+02  0.00000000000E+00 0. -1.
         11    1    1    2    0    0  0.19842125106E+02  0.24110524791E+02  0.11977036572E+02  0.33443635261E+02  0.00000000000E+00 0.  1.
</event>
<event>
 7    1  0.2766180E-009  0.1219746E+03  0.7561462E-02  0.1239875E+00
         -2   -1    0    0    0  501 -0.00000000000E+00  0.00000000000E+00  0.30123751978E+03  0.30123751978E+03  0.00000000000E+00 0.  1.
          2   -1    0    0  501    0  0.00000000000E+00 -0.00000000000E+00 -0.86944570918E+02  0.86944570918E+02  0.00000000000E+00 0. -1.
         25    2    1    2    0    0 -0.83702986378E+02 -0.57870880518E+02  0.39354113478E+02  0.16598296607E+03  0.12508545094E+03 0.  0.
          5    1    3    3  502    0  0.17442334272E+02 -0.32925826822E+02 -0.23492774950E+02  0.44246219857E+02  0.41800000000E+01 0. -1.
         -5    1    3    3    0  502 -0.10114532065E+03 -0.24945053696E+02  0.62846888428E+02  0.12173674621E+03  0.41800000000E+01 0. -1.
        -11    1    1    2    0    0  0.48881193636E+02  0.39366191828E+02  0.25668659505E+02  0.67808172303E+02  0.00000000000E+00 0. -1.
         11    1    1    2    0    0  0.34821792742E+02  0.18504688690E+02  0.14927017587E+03  0.15439095232E+03  0.00000000000E+00 0.  1.
</event>
<event>
 7    1  0.2766180E-009  0.1138498E+03  0.7561462E-02  0.1253602E+00
          1   -1    0    0  501    0  0.00000000000E+00  0.00000000000E+00  0.56784348820E+03  0.56784348820E+03  0.00000000000E+00 0. -1.
         -1   -1    0    0    0  501 -0.00000000000E+00 -0.00000000000E+00 -0.25899798681E+02  0.25899798681E+02  0.00000000000E+00 0.  1.
         25    2    1    2    0    0 -0.31454744019E+02  0.43160745941E+02  0.32867738171E+03  0.35570811430E+03  0.12508873019E+03 0.  0.
          5    1    3    3  502    0 -0.19838365148E+02  0.80847221961E+02  0.14021246531E+03  0.16311603802E+03  0.41800000000E+01 0.  1.
         -5    1    3    3    0  502 -0.11616378871E+02 -0.37686476020E+02  0.18846491640E+03  0.19259207628E+03  0.41800000000E+01 0.  1.
        -11    1    1    2    0    0 -0.30799285564E+02 -0.25488812965E+02  0.98081715977E+02  0.10591646986E+03  0.00000000000E+00 0.  1.
         11    1    1    2    0    0  0.62254029583E+02 -0.17671932975E+02  0.11518459183E+03  0.13211870272E+03  0.00000000000E+00 0. -1.
</event>
<event>
 7    1  0.2766180E-009  0.1222782E+03  0.7561462E-02  0.1239385E+00
          2   -1    0    0  501    0  0.00000000000E+00  0.00000000000E+00  0.54970275882E+02  0.54970275882E+02  0.00000000000E+00 0. -1.
         -2   -1    0    0    0  501 -0.00000000000E+00 -0.00000000000E+00 -0.37603547876E+03  0.37603547876E+03  0.00000000000E+00 0.  1.
         25    2    1    2    0    0  0.60873325118E+01  0.66220786370E+02 -0.73720304779E+02  0.15970174720E+03  0.12509083323E+03 0.  0.
          5    1    3    3  502    0 -0.59034682166E+02  0.32971366560E+02 -0.27613362012E+02  0.73158559806E+02  0.41800000000E+01 0. -1.
         -5    1    3    3    0  502  0.65122014678E+02  0.33249419810E+02 -0.46106942767E+02  0.86543187397E+02  0.41800000000E+01 0. -1.
        -11    1    1    2    0    0  0.30795215259E+02 -0.58171784284E+02 -0.20115545642E+03  0.21165022895E+03  0.00000000000E+00 0.  1.
         11    1    1    2    0    0 -0.36882547771E+02 -0.80490020860E+01 -0.46189441680E+02  0.59653778484E+02  0.00000000000E+00 0. -1.
</event>
<event>
 7    1  0.2766180E-009  0.1170918E+03  0.7561462E-02  0.1247973E+00
          2   -1    0    0  501    0  0.00000000000E+00  0.00000000000E+00  0.11871902536E+03  0.11871902536E+03  0.00000000000E+00 0. -1.
         -2   -1    0    0    0  501 -0.00000000000E+00 -0.00000000000E+00 -0.17150096014E+03  0.17150096014E+03  0.00000000000E+00 0.  1.
         25    2    1    2    0    0 -0.76405450194E+01 -0.60155609945E+02  0.42594279410E+02  0.14539789563E+03  0.12509676286E+03 0.  0.
          5    1    3    3  502    0 -0.56331177206E+02 -0.68077194962E+02  0.35785831687E+02  0.95424337298E+02  0.41800000000E+01 0. -1.
         -5    1    3    3    0  502  0.48690632186E+02  0.79215850173E+01  0.68084477235E+01  0.49973558331E+02  0.41800000000E+01 0. -1.
        -11    1    1    2    0    0  0.20945523989E+02 -0.11116479273E+02 -0.59245882935E+02  0.63815090154E+02  0.00000000000E+00 0.  1.
         11    1    1    2    0    0 -0.13304978969E+02  0.71272089218E+02 -0.36130331259E+02  0.81006999721E+02  0.00000000000E+00 0. -1.
</event>
<event>
 7    1  0.2766180E-009  0.2508010E+03  0.7561462E-02  0.1112800E+00
         -2   -1    0    0    0  501 -0.00000000000E+00  0.00000000000E+00  0.47314936091E+03  0.47314936091E+03  0.00000000000E+00 0.  1.
          2   -1    0    0  501    0  0.00000000000E+00 -0.00000000000E+00 -0.15485638384E+03  0.15485638384E+03  0.00000000000E+00 0. -1.
         25    2    1    2    0    0 -0.15499726908E+03 -0.18457159214E+03  0.96445524825E+02  0.28816763264E+03  0.12509204291E+03 0.  0.
          5    1    3    3  502    0 -0.60823729709E+02 -0.14753675252E+02 -0.14646213000E+02  0.64414136527E+02  0.41800000000E+01 0.  1.
         -5    1    3    3    0  502 -0.94173539370E+02 -0.16981791688E+03  0.11109173782E+03  0.22375349612E+03  0.41800000000E+01 0.  1.
        -11    1    1    2    0    0  0.85183587137E+02  0.68985819000E+02  0.47883129363E+02  0.11961639026E+03  0.00000000000E+00 0.  1.
         11    1    1    2    0    0  0.69813681941E+02  0.11558577314E+03  0.17396432288E+03  0.22022172185E+03  0.00000000000E+00 0. -1.
</event>
<event>
 7    1  0.2766180E-009  0.9927847E+02  0.7561462E-02  0.1281821E+00
         -4   -1    0    0    0  501 -0.00000000000E+00  0.00000000000E+00  0.13530920813E+03  0.13530920813E+03  0.00000000000E+00 0. -1.
          4   -1    0    0  501    0  0.00000000000E+00 -0.00000000000E+00 -0.15687073732E+03  0.15687073732E+03  0.00000000000E+00 0.  1.
         25    2    1    2    0    0  0.10625704116E+02  0.32952082326E+02  0.79999847647E+02  0.15243997096E+03  0.12505688228E+03 0.  0.
          5    1    3    3  502    0 -0.36210719403E+02 -0.12352012091E+02 -0.11374701830E+02  0.40132837479E+02  0.41800000000E+01 0. -1.
         -5    1    3    3    0  502  0.46836423519E+02  0.45304094417E+02  0.91374549477E+02  0.11230713348E+03  0.41800000000E+01 0. -1.
        -11    1    1    2    0    0 -0.52561152547E+01  0.30573264749E+02 -0.23292911847E+02  0.38793182485E+02  0.00000000000E+00 0.  1.
         11    1    1    2    0    0 -0.53695888610E+01 -0.63525347075E+02 -0.78268464990E+02  0.10094679201E+03  0.00000000000E+00 0. -1.
</event>
<event>
 7    1  0.2766180E-009  0.3551151E+03  0.7561462E-02  0.1060535E+00
          2   -1    0    0  501    0  0.00000000000E+00  0.00000000000E+00  0.17250780752E+04  0.17250780752E+04  0.00000000000E+00 0. -1.
         -2   -1    0    0    0  501 -0.00000000000E+00 -0.00000000000E+00 -0.75948339929E+02  0.75948339929E+02  0.00000000000E+00 0.  1.
         25    2    1    2    0    0  0.33808294356E+03 -0.67202060999E+02  0.78782185457E+03  0.86898049874E+03  0.12509052296E+03 0.  0.
          5    1    3    3  502    0  0.31067277875E+03 -0.21754195389E+02  0.70191603991E+03  0.76791563336E+03  0.41800000000E+01 0. -1.
         -5    1    3    3    0  502  0.27410164810E+02 -0.45447865610E+02  0.85905814656E+02  0.10106486538E+03  0.41800000000E+01 0. -1.
        -11    1    1    2    0    0 -0.90117120289E+02  0.28809176258E+02  0.34889615041E+03  0.36149631779E+03  0.00000000000E+00 0. -1.
         11    1    1    2    0    0 -0.24796582327E+03  0.38392884741E+02  0.51241173025E+03  0.57054959855E+03  0.00000000000E+00 0.  1.
</event>
<event>
 7    1  0.2766180E-009  0.2295472E+03  0.7561462E-02  0.1126959E+00
          1   -1    0    0  501    0  0.00000000000E+00  0.00000000000E+00  0.18223789536E+03  0.18223789536E+03  0.00000000000E+00 0. -1.
         -1   -1    0    0    0  501 -0.00000000000E+00 -0.00000000000E+00 -0.36249472401E+03  0.36249472401E+03  0.00000000000E+00 0.  1.
         25    2    1    2    0    0 -0.22287104725E+03 -0.53606275480E+02 -0.53157670684E+02  0.26649353667E+03  0.12509168902E+03 0.  0.
          5    1    3    3  502    0 -0.13575225160E+03 -0.37839675891E+02 -0.93434207400E+02  0.16913881399E+03  0.41800000000E+01 0. -1.
         -5    1    3    3    0  502 -0.87118795645E+02 -0.15766599589E+02  0.40276536715E+02  0.97354722674E+02  0.41800000000E+01 0. -1.
        -11    1    1    2    0    0  0.18150827001E+03  0.39376014613E+02 -0.14005563458E+03  0.23261836425E+03  0.00000000000E+00 0.  1.
         11    1    1    2    0    0  0.41362777236E+02  0.14230260867E+02  0.12956476612E+02  0.45620718442E+02  0.00000000000E+00 0. -1.
</event>
<event>
 7    1  0.2766180E-009  0.1671525E+03  0.7561462E-02  0.1180850E+00
         -2   -1    0    0    0  501 -0.00000000000E+00  0.00000000000E+00  0.23718372095E+03  0.23718372095E+03  0.00000000000E+00 0.  1.
          2   -1    0    0  501    0  0.00000000000E+00 -0.00000000000E+00 -0.15248133410E+03  0.15248133410E+03  0.00000000000E+00 0. -1.
         25    2    1    2    0    0  0.11312472323E+03  0.85003364097E+02 -0.22387580999E+02  0.19018071171E+03  0.12507887275E+03 0.  0.
          5    1    3    3  502    0 -0.64204545140E+01  0.35940300943E+02 -0.45871701997E+02  0.58775955221E+02  0.41800000000E+01 0. -1.
         -5    1    3    3    0  502  0.11954517775E+03  0.49063063154E+02  0.23484120998E+02  0.13140475649E+03  0.41800000000E+01 0. -1.
        -11    1    1    2    0    0 -0.12706855221E+03 -0.87256778842E+02  0.96962279667E+02  0.18210394310E+03  0.00000000000E+00 0.  1.
         11    1    1    2    0    0  0.13943828982E+02  0.22534147452E+01  0.10127688184E+02  0.17380400245E+02  0.00000000000E+00 0. -1.
</event>
<event>
 7    1  0.2766180E-009  0.1148792E+03  0.7561462E-02  0.1251792E+00
         -2   -1    0    0    0  501 -0.00000000000E+00  0.00000000000E+00  0.19835600839E+02  0.19835600839E+02  0.00000000000E+00 0.  1.
          2   -1    0    0  501    0  0.00000000000E+00 -0.00000000000E+00 -0.14017794812E+04  0.14017794812E+04  0.00000000000E+00 0. -1.
         25    2    1    2    0    0  0.63983247905E+02  0.17999048193E+01 -0.12050404783E+04  0.12132041091E+04  0.12507821749E+03 0.  0.
          5    1    3    3  502    0  0.98640374079E+02  0.19600961630E+02 -0.81190242731E+03  0.81811805076E+03  0.41800000000E+01 0.  1.
         -5    1    3    3    0  502 -0.34657126174E+02 -0.17801056810E+02 -0.39313805096E+03  0.39508605839E+03  0.41800000000E+01 0.  1.
        -11    1    1    2    0    0 -0.49708956831E+02  0.27872691497E+02 -0.45443927486E+02  0.72890451129E+02  0.00000000000E+00 0. -1.
         11    1    1    2    0    0 -0.14274291074E+02 -0.29672596317E+02 -0.13145947463E+03  0.13552052180E+03  0.00000000000E+00 0.  1.
</event>
<event>
 7    1  0.2766180E-009  0.1020621E+03  0.7561462E-02  0.1276018E+00
         -1   -1    0    0    0  501 -0.00000000000E+00  0.00000000000E+00  0.18774914010E+03  0.18774914010E+03  0.00000000000E+00 0.  1.
          1   -1    0    0  501    0  0.00000000000E+00 -0.00000000000E+00 -0.81692927612E+02  0.81692927612E+02  0.00000000000E+00 0. -1.
         25    2    1    2    0    0 -0.46659709582E+02 -0.72426418318E+01  0.95050975372E+02  0.16405141584E+03  0.12509434344E+03 0.  0.
          5    1    3    3  502    0  0.26430790714E+02  0.32024780970E+02  0.61793048617E+02  0.74565585569E+02  0.41800000000E+01 0.  1.
         -5    1    3    3    0  502 -0.73090500296E+02 -0.39267422801E+02  0.33257926756E+02  0.89485830270E+02  0.41800000000E+01 0.  1.
        -11    1    1    2    0    0  0.45561743754E+02 -0.21620383459E+02  0.40071848255E+02  0.64413247841E+02  0.00000000000E+00 0.  1.
         11    1    1    2    0    0  0.10979658277E+01  0.28863025291E+02 -0.29066611141E+02  0.40977404031E+02  0.00000000000E+00 0. -1.
</event>
<event>
 7    1  0.2766180E-009  0.1510751E+03  0.7561462E-02  0.1199158E+00
         -2   -1    0    0    0  501 -0.00000000000E+00  0.00000000000E+00  0.23668032404E+02  0.23668032404E+02  0.00000000000E+00 0.  1.
          2   -1    0    0  501    0  0.00000000000E+00 -0.00000000000E+00 -0.10306727678E+04  0.10306727678E+04  0.00000000000E+00 0. -1.
         25    2    1    2    0    0 -0.35832471359E+02  0.10591389697E+03 -0.47680737135E+03  0.50546469203E+03  0.12509023120E+03 0.  0.
          5    1    3    3  502    0  0.14149729444E+02 -0.24108194366E+02 -0.72624975566E+02  0.77931247616E+02  0.41800000000E+01 0. -1.
         -5    1    3    3    0  502 -0.49982200803E+02  0.13002209134E+03 -0.40418239579E+03  0.42753344442E+03  0.41800000000E+01 0. -1.
        -11    1    1    2    0    0 -0.63668246500E+01 -0.88734214835E+02 -0.25837494570E+03  0.27326161440E+03  0.00000000000E+00 0.  1.
         11    1    1    2    0    0  0.42199296009E+02 -0.17179682135E+02 -0.27182241829E+03  0.27561449372E+03  0.00000000000E+00 0. -1.
</event>
<event>
 7    1  0.2766180E-009  0.9523686E+02  0.7561462E-02  0.1290644E+00
         -1   -1    0    0    0  501 -0.00000000000E+00  0.00000000000E+00  0.10595532843E+03  0.10595532843E+03  0.00000000000E+00 0.  1.
          1   -1    0    0  501    0  0.00000000000E+00 -0.00000000000E+00 -0.32085225410E+03  0.32085225410E+03  0.00000000000E+00 0. -1.
         25    2    1    2    0    0 -0.25480854445E+02  0.86237998428E+02 -0.25067771805E+03  0.29423464030E+03  0.12509372051E+03 0.  0.
          5    1    3    3  502    0 -0.16356510744E+02  0.43528479141E+02 -0.76885290105E+01  0.47316485694E+02  0.41800000000E+01 0. -1.
         -5    1    3    3    0  502 -0.91243437008E+01  0.42709519287E+02 -0.24298918904E+03  0.24691815461E+03  0.41800000000E+01 0. -1.
        -11    1    1    2    0    0  0.31354292069E+02 -0.30083510181E+02 -0.24578998071E+02  0.49922303254E+02  0.00000000000E+00 0. -1.
         11    1    1    2    0    0 -0.58734376247E+01 -0.56154488247E+02  0.60359790453E+02  0.82650638978E+02  0.00000000000E+00 0.  1.
</event>
<event>
 7    1  0.2766180E-009  0.1867035E+03  0.7561462E-02  0.1161469E+00
          1   -1    0    0  501    0  0.00000000000E+00  0.00000000000E+00  0.34993376902E+03  0.34993376902E+03  0.00000000000E+00 0. -1.
         -1   -1    0    0    0  501 -0.00000000000E+00 -0.00000000000E+00 -0.16663327071E+03  0.16663327071E+03  0.00000000000E+00 0.  1.
         25    2    1    2    0    0 -0.10254067585E+03 -0.12848299766E+03  0.24275079634E+03  0.31874531956E+03  0.12509260061E+03 0.  0.
          5    1    3    3  502    0 -0.10060188371E+03 -0.54030512843E+02  0.20604180460E+03  0.23560715814E+03  0.41800000000E+01 0. -1.
         -5    1    3    3    0  502 -0.19387921449E+01 -0.74452484818E+02  0.36708991744E+02  0.83138161426E+02  0.41800000000E+01 0. -1.
        -11    1    1    2    0    0  0.22629284882E+02 -0.99345001931E+01  0.54685717909E+01  0.25311738498E+02  0.00000000000E+00 0. -1.
         11    1    1    2    0    0  0.79911390969E+02  0.13841749785E+03 -0.64918869824E+02  0.17250998168E+03  0.00000000000E+00 0.  1.
</event>
<event>
 7    1  0.2766180E-009  0.1996380E+03  0.7561462E-02  0.1150045E+00
         -2   -1    0    0    0  501 -0.00000000000E+00  0.00000000000E+00  0.12473277313E+03  0.12473277313E+03  0.00000000000E+00 0.  1.
          2   -1    0    0  501    0  0.00000000000E+00 -0.00000000000E+00 -0.35852181661E+03  0.35852181661E+03  0.00000000000E+00 0. -1.
         25    2    1    2    0    0  0.15267341755E+03 -0.77768847224E+02 -0.18777412635E+03  0.28330827713E+03  0.12508913357E+03 0.  0.
          5    1    3    3  502    0  0.13676694030E+02  0.31943115079E+02 -0.32293933611E+02  0.47621267398E+02  0.41800000000E+01 0.  1.
         -5    1    3    3    0  502  0.13899672352E+03 -0.10971196230E+03 -0.15548019274E+03  0.23568700973E+03  0.41800000000E+01 0.  1.
        -11    1    1    2    0    0 -0.95449174983E+02  0.63877893926E+01  0.38735800513E+01  0.95741075201E+02  0.00000000000E+00 0.  1.
         11    1    1    2    0    0 -0.57224242565E+02  0.71381057831E+02 -0.49888497180E+02  0.10420523742E+03  0.00000000000E+00 0. -1.
</event>
<event>
 7    1  0.2766180E-009  0.1231773E+03  0.7561462E-02  0.1237946E+00
          1   -1    0    0  501    0  0.00000000000E+00  0.00000000000E+00  0.79746204225E+03  0.79746204225E+03  0.00000000000E+00 0. -1.
         -1   -1    0    0    0  501 -0.00000000000E+00 -0.00000000000E+00 -0.27255980201E+02  0.27255980201E+02  0.00000000000E+00 0.  1.
         25    2    1    2    0    0  0.77736704801E+02 -0.62058718000E+02  0.46558293725E+03  0.49223964285E+03  0.12505244812E+03 0.  0.
          5    1    3    3  502    0  0.10042350989E+02 -0.52127467055E+02  0.57224129191E+02  0.78167736290E+02  0.41800000000E+01 0. -1.
         -5    1    3    3    0  502  0.67694353812E+02 -0.99312509448E+01  0.40835880806E+03  0.41407190656E+03  0.41800000000E+01 0. -1.
        -11    1    1    2    0    0  0.13042871865E+02  0.21461568289E+02  0.23926441411E+02  0.34687029542E+02  0.00000000000E+00 0.  1.
         11    1    1    2    0    0 -0.90779576666E+02  0.40597149711E+02  0.28069668339E+03  0.29779135006E+03  0.00000000000E+00 0. -1.
</event>
<event>
 7    1  0.2766180E-009  0.1124414E+03  0.7561462E-02  0.1256114E+00
          1   -1    0    0  501    0  0.00000000000E+00  0.00000000000E+00  0.12773285598E+04  0.12773285598E+04  0.00000000000E+00 0. -1.
         -1   -1    0    0    0  501 -0.00000000000E+00 -0.00000000000E+00 -0.14737727417E+02  0.14737727417E+02  0.00000000000E+00 0.  1.
         25    2    1    2    0    0  0.23833152157E+01  0.63866058311E+02  0.94490543715E+03  0.95528960661E+03  0.12508954296E+03 0.  0.
          5    1    3    3  502    0 -0.42951938074E+02 -0.14584712214E+02  0.43509215939E+03  0.43747027600E+03  0.41800000000E+01 0.  1.
         -5    1    3    3    0  502  0.45335253290E+02  0.78450770525E+02  0.50981327775E+03  0.51781933062E+03  0.41800000000E+01 0.  1.
        -11    1    1    2    0    0 -0.31608708415E+02 -0.39394283833E+02  0.27478471110E+03  0.27938800529E+03  0.00000000000E+00 0. -1.
         11    1    1    2    0    0  0.29225393200E+02 -0.24471774478E+02  0.42900684099E+02  0.57388675276E+02  0.00000000000E+00 0.  1.
</event>
<event>
 7    1  0.2766180E-009  0.1185049E+03  0.7561462E-02  0.1245584E+00
         -1   -1    0    0    0  501 -0.00000000000E+00  0.00000000000E+00  0.92498961928E+02  0.92498961928E+02  0.00000000000E+00 0.  1.
          1   -1    0    0  501    0  0.00000000000E+00 -0.00000000000E+00 -0.17574297717E+03  0.17574297717E+03  0.00000000000E+00 0. -1.
         25    2    1    2    0    0 -0.60405617747E+02 -0.25542034270E+02 -0.31874762288E+02  0.14479290691E+03  0.12509097189E+03 0.  0.
          5    1    3    3  502    0  0.28945161810E+02  0.67281702229E+01  0.20393601122E+02  0.36283081918E+02  0.41800000000E+01 0.  1.
         -5    1    3    3    0  502 -0.89350779557E+02 -0.32270204493E+02 -0.52268363410E+02  0.10850982499E+03  0.41800000000E+01 0.  1.
        -11    1    1    2    0    0  0.84053613536E+02  0.12726481695E+02 -0.43075811601E+02  0.95302144938E+02  0.00000000000E+00 0.  1.
         11    1    1    2    0    0 -0.23647995789E+02  0.12815552575E+02 -0.82934413559E+01  0.28146887256E+02  0.00000000000E+00 0. -1.
</event>
<event>
 7    1  0.2766180E-009  0.1595513E+03  0.7561462E-02  0.1189204E+00
          3   -1    0    0  501    0  0.00000000000E+00  0.00000000000E+00  0.94420169780E+02  0.94420169780E+02  0.00000000000E+00 0. -1.
         -3   -1    0    0    0  501 -0.00000000000E+00 -0.00000000000E+00 -0.34995414307E+03  0.34995414307E+03  0.00000000000E+00 0.  1.
         25    2    1    2    0    0 -0.14420442526E+03  0.12592843649E+02 -0.15112258837E+03  0.24380337281E+03  0.12509417213E+03 0.  0.
          5    1    3    3  502    0 -0.12049314609E+03 -0.69700702838E+01 -0.38151038307E+02  0.12664973059E+03  0.41800000000E+01 0. -1.
         -5    1    3    3    0  502 -0.23711279169E+02  0.19562913933E+02 -0.11297155007E+03  0.11715364222E+03  0.41800000000E+01 0. -1.
        -11    1    1    2    0    0  0.89408917636E+02 -0.48582227851E+02 -0.42086841062E+02  0.11011580089E+03  0.00000000000E+00 0. -1.
         11    1    1    2    0    0  0.54795507624E+02  0.35989384201E+02 -0.62324543856E+02  0.90455139145E+02  0.00000000000E+00 0.  1.
</event>
<event>
 7    1  0.2766180E-009  0.1171946E+03  0.7561462E-02  0.1247798E+00
          2   -1    0    0  501    0  0.00000000000E+00  0.00000000000E+00  0.12804591311E+03  0.12804591311E+03  0.00000000000E+00 0. -1.
         -2   -1    0    0    0  501 -0.00000000000E+00 -0.00000000000E+00 -0.13326336387E+03  0.13326336387E+03  0.00000000000E+00 0.  1.
         25    2    1    2    0    0 -0.72241821327E+02 -0.12613941892E+02 -0.56364631535E+01  0.14511157067E+03  0.12509039111E+03 0.  0.
          5    1    3    3  502    0 -0.45621470092E+00  0.43101134386E+02 -0.27830245606E+02  0.51477285163E+02  0.41800000000E+01 0. -1.
         -5    1    3    3    0  502 -0.71785606626E+02 -0.55715076278E+02  0.22193782452E+02  0.93634285510E+02  0.41800000000E+01 0. -1.
        -11    1    1    2    0    0  0.15577915033E+02  0.35684808425E+02  0.29118064550E+02  0.48620352448E+02  0.00000000000E+00 0. -1.
         11    1    1    2    0    0  0.56663906294E+02 -0.23070866533E+02 -0.28699052159E+02  0.67577353854E+02  0.00000000000E+00 0.  1.
</event>
<event>
 7    1  0.2766180E-009  0.1365177E+03  0.7561462E-02  0.1218093E+00
         -3   -1    0    0    0  501 -0.00000000000E+00  0.00000000000E+00  0.13746840980E+03  0.13746840980E+03  0.00000000000E+00 0.  1.
          3   -1    0    0  501    0  0.00000000000E+00 -0.00000000000E+00 -0.20224785004E+03  0.20224785004E+03  0.00000000000E+00 0. -1.
         25    2    1    2    0    0 -0.55963074290E+02  0.11043442321E+03 -0.58418234518E+02  0.18544017524E+03  0.12509093075E+03 0.  0.
          5    1    3    3  502    0 -0.76426439135E+02  0.99093971423E+02 -0.31199077192E+01  0.12525103591E+03  0.41800000000E+01 0. -1.
         -5    1    3    3    0  502  0.20463364845E+02  0.11340451790E+02 -0.55298326799E+02  0.60189139339E+02  0.41800000000E+01 0. -1.
        -11    1    1    2    0    0  0.13035894273E+02 -0.33667511683E+02  0.40796585797E+02  0.54477493473E+02  0.00000000000E+00 0.  1.
         11    1    1    2    0    0  0.42927180016E+02 -0.76766911531E+02 -0.47157791516E+02  0.99798591127E+02  0.00000000000E+00 0. -1.
</event>
<event>
 7    1  0.2766180E-009  0.1272766E+03  0.7561462E-02  0.1231554E+00
          1   -1    0    0  501    0  0.00000000000E+00  0.00000000000E+00  0.25560401216E+03  0.25560401216E+03  0.00000000000E+00 0. -1.
         -1   -1    0    0    0  501 -0.00000000000E+00 -0.00000000000E+00 -0.94338711079E+02  0.94338711079E+02  0.00000000000E+00 0.  1.
         25    2    1    2    0    0  0.24049305155E+02 -0.85543713139E+02  0.16619788809E+03  0.22619662797E+03  0.12508829108E+03 0.  0.
          5    1    3    3  502    0  0.73212030769E+02 -0.66192325578E+02  0.91835055511E+02  0.13487985482E+03  0.41800000000E+01 0.  1.
         -5    1    3    3    0  502 -0.49162725615E+02 -0.19351387561E+02  0.74362832577E+02  0.91316773154E+02  0.41800000000E+01 0.  1.
        -11    1    1    2    0    0 -0.40044199135E+02  0.68842100818E+02  0.27199032481E+02  0.84157947321E+02  0.00000000000E+00 0. -1.
         11    1    1    2    0    0  0.15994893980E+02  0.16701612321E+02 -0.32131619483E+02  0.39588147951E+02  0.00000000000E+00 0.  1.
</event>
<event>
 7    1  0.2766180E-009  0.1266067E+03  0.7561462E-02  0.1232579E+00
          2   -1    0    0  501    0  0.00000000000E+00  0.00000000000E+00  0.45136943004E+02  0.45136943004E+02  0.00000000000E+00 0. -1.
         -2   -1    0    0    0  501 -0.00000000000E+00 -0.00000000000E+00 -0.48865938193E+03  0.48865938193E+03  0.00000000000E+00 0.  1.
         25    2    1    2    0    0  0.56407590208E+02 -0.80428479216E+02 -0.20033396976E+03  0.25579257062E+03  0.12508230587E+03 0.  0.
          5    1    3    3  502    0  0.81649938373E+02 -0.15220793761E+02 -0.73905601098E+02  0.11125598983E+03  0.41800000000E+01 0. -1.
         -5    1    3    3    0  502 -0.25242348165E+02 -0.65207685455E+02 -0.12642836867E+03  0.14453658079E+03  0.41800000000E+01 0. -1.
        -11    1    1    2    0    0 -0.24269271626E+02  0.19553460539E+02 -0.69385942940E+01  0.31929288359E+02  0.00000000000E+00 0. -1.
         11    1    1    2    0    0 -0.32138318582E+02  0.60875018678E+02 -0.23624987487E+03  0.24607446596E+03  0.00000000000E+00 0.  1.
</event>
<event>
 7    1  0.2766180E-009  0.5487380E+02  0.7561462E-02  0.1420697E+00
          2   -1    0    0  501    0  0.00000000000E+00  0.00000000000E+00  0.22735321571E+03  0.22735321571E+03  0.00000000000E+00 0. -1.
         -2   -1    0    0    0  501 -0.00000000000E+00 -0.00000000000E+00 -0.80446759092E+02  0.80446759092E+02  0.00000000000E+00 0.  1.
         25    2    1    2    0    0  0.94655788692E+01  0.34288682602E+02  0.16365487433E+03  0.20903356676E+03  0.12508718242E+03 0.  0.
          5    1    3    3  502    0  0.86156885942E+01 -0.11804036852E+02  0.16200292571E+03  0.16271442996E+03  0.41800000000E+01 0. -1.
         -5    1    3    3    0  502  0.84989027501E+00  0.46092719455E+02  0.16519486115E+01  0.46319136806E+02  0.41800000000E+01 0. -1.
        -11    1    1    2    0    0  0.10523250382E+02 -0.26797281760E+01 -0.48503713344E+02  0.49704425858E+02  0.00000000000E+00 0.  1.
         11    1    1    2    0    0 -0.19988829251E+02 -0.31608954426E+02  0.31755295637E+02  0.49061982183E+02  0.00000000000E+00 0. -1.
</event>
<event>
 7    1  0.2766180E-009  0.1184744E+03  0.7561462E-02  0.1245635E+00
          1   -1    0    0  501    0  0.00000000000E+00  0.00000000000E+00  0.11052716831E+04  0.11052716831E+04  0.00000000000E+00 0. -1.
         -1   -1    0    0    0  501 -0.00000000000E+00 -0.00000000000E+00 -0.13522945157E+02  0.13522945157E+02  0.00000000000E+00 0.  1.
         25    2    1    2    0    0 -0.51899902712E+02 -0.21656434613E+02  0.61734753112E+03  0.63239950180E+03  0.12509418306E+03 0.  0.
          5    1    3    3  502    0 -0.36717781244E+01 -0.66215702375E+02  0.39393993157E+03  0.39950487266E+03  0.41800000000E+01 0. -1.
         -5    1    3    3    0  502 -0.48228124587E+02  0.44559267761E+02  0.22340759955E+03  0.23289462914E+03  0.41800000000E+01 0. -1.
        -11    1    1    2    0    0  0.26411159200E+02 -0.34256941285E+02  0.25085308576E+03  0.25455521600E+03  0.00000000000E+00 0.  1.
         11    1    1    2    0    0  0.25488743512E+02  0.55913375898E+02  0.22354812105E+03  0.23183991044E+03  0.00000000000E+00 0. -1.
</event>
<event>
 7    1  0.2766180E-009  0.1186653E+03  0.7561462E-02  0.1245315E+00
         -2   -1    0    0    0  501 -0.00000000000E+00  0.00000000000E+00  0.56651595484E+03  0.56651595484E+03  0.00000000000E+00 0.  1.
          2   -1    0    0  501    0  0.00000000000E+00 -0.00000000000E+00 -0.46486985159E+02  0.46486985159E+02  0.00000000000E+00 0. -1.
         25    2    1    2    0    0 -0.67174802131E+02  0.60109411185E+01  0.12210101417E+03  0.18735753921E+03  0.12508239037E+03 0.  0.
          5    1    3    3  502    0 -0.37555102488E+02  0.32593660292E+02  0.13610126285E+03  0.14496123125E+03  0.41800000000E+01 0.  1.
         -5    1    3    3    0  502 -0.29619699643E+02 -0.26582719174E+02 -0.14000248682E+02  0.42396307962E+02  0.41800000000E+01 0.  1.
        -11    1    1    2    0    0  0.22816614423E+02 -0.67693028806E+02  0.23977203096E+03  0.25018707175E+03  0.00000000000E+00 0. -1.
         11    1    1    2    0    0  0.44358187708E+02  0.61682087688E+02  0.15815592455E+03  0.17545832904E+03  0.00000000000E+00 0.  1.
</event>
<event>
 7    1  0.2766180E-009  0.1200695E+03  0.7561462E-02  0.1242982E+00
          2   -1    0    0  501    0  0.00000000000E+00  0.00000000000E+00  0.67577108483E+02  0.67577108483E+02  0.00000000000E+00 0.  1.
         -2   -1    0    0    0  501 -0.00000000000E+00 -0.00000000000E+00 -0.29437870201E+03  0.29437870201E+03  0.00000000000E+00 0. -1.
         25    2    1    2    0    0 -0.60190778621E-01  0.59398749769E+02 -0.21163298028E+03  0.25291103998E+03  0.12508901112E+03 0.  0.
          5    1    3    3  502    0 -0.78620708698E+01  0.97873241007E+02 -0.16216286850E+03  0.18961870104E+03  0.41800000000E+01 0. -1.
         -5    1    3    3    0  502  0.78018800912E+01 -0.38474491238E+02 -0.49470111772E+02  0.63292338934E+02  0.41800000000E+01 0. -1.
        -11    1    1    2    0    0 -0.31666232488E+02 -0.62941691073E+02 -0.26342772359E+02  0.75221994195E+02  0.00000000000E+00 0. -1.
         11    1    1    2    0    0  0.31726423267E+02  0.35429413040E+01  0.11174159108E+02  0.33822776323E+02  0.00000000000E+00 0.  1.
</event>
<event>
 7    1  0.2766180E-009  0.1242396E+03  0.7561462E-02  0.1236262E+00
          1   -1    0    0  501    0  0.00000000000E+00  0.00000000000E+00  0.21931435375E+03  0.21931435375E+03  0.00000000000E+00 0. -1.
         -1   -1    0    0    0  501 -0.00000000000E+00 -0.00000000000E+00 -0.98247732283E+02  0.98247732283E+02  0.00000000000E+00 0.  1.
         25    2    1    2    0    0 -0.32778711561E+02  0.90000103695E+02  0.10508676084E+03  0.18938027383E+03  0.12508876134E+03 0.  0.
          5    1    3    3  502    0 -0.28490727170E+02 -0.24315867189E+01  0.91262919504E+02  0.95728924705E+02  0.41800000000E+01 0.  1.
         -5    1    3    3    0  502 -0.42879843909E+01  0.92431690414E+02  0.13823841336E+02  0.93651349121E+02  0.41800000000E+01 0.  1.
        -11    1    1    2    0    0  0.21920947169E+02  0.11583531499E+02  0.10474221646E+00  0.24793489018E+02  0.00000000000E+00 0.  1.
         11    1    1    2    0    0  0.10857764393E+02 -0.10158363519E+03  0.15875118406E+02  0.10338832319E+03  0.00000000000E+00 0. -1.
</event>
<event>
 7    1  0.2766180E-009  0.7979921E+02  0.7561462E-02  0.1329622E+00
         -2   -1    0    0    0  501 -0.00000000000E+00  0.00000000000E+00  0.21246712568E+03  0.21246712568E+03  0.00000000000E+00 0.  1.
          2   -1    0    0  501    0  0.00000000000E+00 -0.00000000000E+00 -0.61937199004E+02  0.61937199004E+02  0.00000000000E+00 0. -1.
         25    2    1    2    0    0 -0.30770995120E+02 -0.37606402771E+01  0.10911536542E+03  0.16886299860E+03  0.12509017856E+03 0.  0.
          5    1    3    3  502    0 -0.53984922148E+02  0.16253230504E+02  0.11409909291E+01  0.56544792699E+02  0.41800000000E+01 0.  1.
         -5    1    3    3    0  502  0.23213927028E+02 -0.20013870781E+02  0.10797437449E+03  0.11231820590E+03  0.41800000000E+01 0.  1.
        -11    1    1    2    0    0  0.47065683614E+02 -0.12925749832E+02  0.58824731295E+02  0.76436919056E+02  0.00000000000E+00 0.  1.
         11    1    1    2    0    0 -0.16294688494E+02  0.16686390109E+02 -0.17410170030E+02  0.29104407029E+02  0.00000000000E+00 0. -1.
</event>
<event>
 7    1  0.2766180E-009  0.1345160E+03  0.7561462E-02  0.1220905E+00
          3   -1    0    0  501    0  0.00000000000E+00  0.00000000000E+00  0.28922853824E+02  0.28922853824E+02  0.00000000000E+00 0. -1.
         -3   -1    0    0    0  501 -0.00000000000E+00 -0.00000000000E+00 -0.66033851821E+03  0.66033851821E+03  0.00000000000E+00 0.  1.
         25    2    1    2    0    0 -0.62415719862E+02  0.53754616232E+02 -0.32031117173E+03  0.35360087212E+03  0.12509615973E+03 0.  0.
          5    1    3    3  502    0  0.65273082413E+00  0.80464781821E+02 -0.18846844326E+03  0.20497032389E+03  0.41800000000E+01 0.  1.
         -5    1    3    3    0  502 -0.63068450686E+02 -0.26710165589E+02 -0.13184272847E+03  0.14863054824E+03  0.41800000000E+01 0.  1.
        -11    1    1    2    0    0 -0.17822887033E+02  0.70456714487E+01 -0.20273235248E+02  0.27898043941E+02  0.00000000000E+00 0. -1.
         11    1    1    2    0    0  0.80238606895E+02 -0.60800287681E+02 -0.29083125741E+03  0.30776245597E+03  0.00000000000E+00 0.  1.
</event>
<event>
 7    1  0.2766180E-009  0.1005033E+03  0.7561462E-02  0.1279241E+00
         -1   -1    0    0    0  501 -0.00000000000E+00  0.00000000000E+00  0.37913114376E+02  0.37913114376E+02  0.00000000000E+00 0.  1.
          1   -1    0    0  501    0  0.00000000000E+00 -0.00000000000E+00 -0.98818298054E+03  0.98818298054E+03  0.00000000000E+00 0. -1.
         25    2    1    2    0    0 -0.21522277657E+02  0.18720949154E+02 -0.89756822887E+03  0.90669124097E+03  0.12508636459E+03 0.  0.
          5    1    3    3  502    0 -0.64921293230E+02  0.30693947371E+02 -0.71492869330E+03  0.71853837867E+03  0.41800000000E+01 0. -1.
         -5    1    3    3    0  502  0.43399015573E+02 -0.11972998217E+02 -0.18263953557E+03  0.18815286230E+03  0.41800000000E+01 0. -1.
        -11    1    1    2    0    0  0.36886731064E+02 -0.42043395448E+02 -0.67610129005E+02  0.87746268146E+02  0.00000000000E+00 0. -1.
         11    1    1    2    0    0 -0.15364453407E+02  0.23322446294E+02  0.14908491710E+02  0.31658585798E+02  0.00000000000E+00 0.  1.
</event>
<event>
 7    1  0.2766180E-009  0.1319125E+03  0.7561462E-02  0.1224645E+00
         -1   -1    0    0    0  501 -0.00000000000E+00  0.00000000000E+00  0.17512152954E+03  0.17512152954E+03  0.00000000000E+00 0.  1.
          1   -1    0    0  501    0  0.00000000000E+00 -0.00000000000E+00 -0.11633787854E+03  0.11633787854E+03  0.00000000000E+00 0. -1.
         25    2    1    2    0    0 -0.58525110490E+02  0.67151367901E+02  0.44946514036E+02  0.16000650514E+03  0.12508955910E+03 0.  0.
          5    1    3    3  502    0  0.21949289624E+02 -0.16312208709E+02 -0.12719992955E+02  0.30448810958E+02  0.41800000000E+01 0.  1.
         -5    1    3    3    0  502 -0.80474400114E+02  0.83463576610E+02  0.57666506991E+02  0.12955769419E+03  0.41800000000E+01 0.  1.
        -11    1    1    2    0    0  0.74139980761E+02 -0.72443158428E+02 -0.81432883314E+01  0.10397625255E+03  0.00000000000E+00 0.  1.
         11    1    1    2    0    0 -0.15614870271E+02  0.52917905269E+01  0.21980425290E+02  0.27476650387E+02  0.00000000000E+00 0. -1.
</event>
<event>
 7    1  0.2766180E-009  0.9138971E+02  0.7561462E-02  0.1299521E+00
          1   -1    0    0  501    0  0.00000000000E+00  0.00000000000E+00  0.36331354844E+03  0.36331354844E+03  0.00000000000E+00 0. -1.
         -1   -1    0    0    0  501 -0.00000000000E+00 -0.00000000000E+00 -0.40808001212E+02  0.40808001212E+02  0.00000000000E+00 0.  1.
         25    2    1    2    0    0 -0.29736121825E+02 -0.29928444775E+02  0.24008415902E+03  0.27398529035E+03  0.12509031605E+03 0.  0.
          5    1    3    3  502    0 -0.34837755667E+02 -0.74728383638E+02  0.12007527520E+03  0.14571734507E+03  0.41800000000E+01 0.  1.
         -5    1    3    3    0  502  0.51016338422E+01  0.44799938864E+02  0.12000888383E+03  0.12826794528E+03  0.41800000000E+01 0.  1.
        -11    1    1    2    0    0  0.13860965551E+02  0.35504911361E+02  0.99263325713E+02  0.10632936061E+03  0.00000000000E+00 0. -1.
         11    1    1    2    0    0  0.15875156273E+02 -0.55764665868E+01 -0.16841937503E+02  0.23806898688E+02  0.00000000000E+00 0.  1.
</event>
<event>
 7    1  0.2766180E-009  0.2854814E+03  0.7561462E-02  0.1092732E+00
         -2   -1    0    0    0  501 -0.00000000000E+00  0.00000000000E+00  0.91976487739E+02  0.91976487739E+02  0.00000000000E+00 0. -1.
          2   -1    0    0  501    0  0.00000000000E+00 -0.00000000000E+00 -0.11994492342E+04  0.11994492342E+04  0.00000000000E+00 0.  1.
         25    2    1    2    0    0  0.26529653615E+03  0.22326380894E+02 -0.88514938813E+03  0.93274728636E+03  0.12508933418E+03 0.  0.
          5    1    3    3  502    0 -0.75489216771E+01 -0.15691339026E+02 -0.40045281512E+02  0.43866858906E+02  0.41800000000E+01 0. -1.
         -5    1    3    3    0  502  0.27284545782E+03  0.38017719920E+02 -0.84510410662E+03  0.88888042745E+03  0.41800000000E+01 0. -1.
        -11    1    1    2    0    0 -0.18341737801E+03  0.21497539010E+02 -0.11870821364E+03  0.21953523345E+03  0.00000000000E+00 0. -1.
         11    1    1    2    0    0 -0.81879158136E+02 -0.43823919904E+02 -0.10361514471E+03  0.13914320216E+03  0.00000000000E+00 0.  1.
</event>
<event>
 7    1  0.2766180E-009  0.1228648E+03  0.7561462E-02  0.1238444E+00
          1   -1    0    0  501    0  0.00000000000E+00  0.00000000000E+00  0.62716958190E+03  0.62716958190E+03  0.00000000000E+00 0. -1.
         -1   -1    0    0    0  501 -0.00000000000E+00 -0.00000000000E+00 -0.59364426074E+02  0.59364426074E+02  0.00000000000E+00 0.  1.
         25    2    1    2    0    0 -0.55696587781E+02 -0.75397773060E+02  0.52992613457E+03  0.55249981906E+03  0.12508959944E+03 0.  0.
          5    1    3    3  502    0 -0.69950536609E+02  0.34890731247E+01  0.32336464143E+03  0.33088882564E+03  0.41800000000E+01 0. -1.
         -5    1    3    3    0  502  0.14253948828E+02 -0.78886846184E+02  0.20656149314E+03  0.22161099342E+03  0.41800000000E+01 0. -1.
        -11    1    1    2    0    0  0.39041733267E+02  0.64484379989E+02 -0.15590304777E+02  0.76977592857E+02  0.00000000000E+00 0.  1.
         11    1    1    2    0    0  0.16654854515E+02  0.10913393070E+02  0.53469326031E+02  0.57056596055E+02  0.00000000000E+00 0. -1.
</event>
<event>
 7    1  0.2766180E-009  0.9834439E+02  0.7561462E-02  0.1283816E+00
         -1   -1    0    0    0  501 -0.00000000000E+00  0.00000000000E+00  0.22289635088E+03  0.22289635088E+03  0.00000000000E+00 0.  1.
          1   -1    0    0  501    0  0.00000000000E+00 -0.00000000000E+00 -0.66490171779E+02  0.66490171779E+02  0.00000000000E+00 0. -1.
         25    2    1    2    0    0 -0.60076569544E+01 -0.41658554479E+02  0.42940049098E+02  0.13879223602E+03  0.12509160587E+03 0.  0.
          5    1    3    3  502    0 -0.32321772495E+02 -0.63635156935E+02 -0.13369119918E+02  0.72734695591E+02  0.41800000000E+01 0. -1.
         -5    1    3    3    0  502  0.26314115541E+02  0.21976602456E+02  0.56309169016E+02  0.66057540429E+02  0.41800000000E+01 0. -1.
        -11    1    1    2    0    0 -0.29593686540E+01 -0.24103596603E+02  0.62065453957E+02  0.66647294070E+02  0.00000000000E+00 0.  1.
         11    1    1    2    0    0  0.89670256084E+01  0.65762151082E+02  0.51400676045E+02  0.83946992567E+02  0.00000000000E+00 0. -1.
</event>
<event>
 7    1  0.2766180E-009  0.1651410E+03  0.7561462E-02  0.1183012E+00
         -1   -1    0    0    0  501 -0.00000000000E+00  0.00000000000E+00  0.20149354887E+03  0.20149354887E+03  0.00000000000E+00 0.  1.
          1   -1    0    0  501    0  0.00000000000E+00 -0.00000000000E+00 -0.16192321396E+03  0.16192321396E+03  0.00000000000E+00 0. -1.
         25    2    1    2    0    0  0.20572034525E+02  0.14241605550E+03  0.24320943384E+02  0.19220970822E+03  0.12509005627E+03 0.  0.
          5    1    3    3  502    0 -0.48302363661E+02  0.39883989983E+02  0.27598234437E+02  0.68578319725E+02  0.41800000000E+01 0. -1.
         -5    1    3    3    0  502  0.68874398185E+02  0.10253206551E+03 -0.32772910534E+01  0.12363138849E+03  0.41800000000E+01 0. -1.
        -11    1    1    2    0    0 -0.15092371429E+02 -0.11140265085E+03  0.51098973504E+02  0.12348860427E+03  0.00000000000E+00 0.  1.
         11    1    1    2    0    0 -0.54796630960E+01 -0.31013404645E+02 -0.35849581975E+02  0.47718450343E+02  0.00000000000E+00 0. -1.
</event>
<event>
 6    1  0.2766180E-009  0.1515726E+03  0.7561462E-02  0.1198554E+00
         -2   -1    0    0    0  501 -0.00000000000E+00  0.00000000000E+00  0.48857272408E+03  0.48857272408E+03  0.00000000000E+00 0.  1.
          2   -1    0    0  501    0  0.00000000000E+00 -0.00000000000E+00 -0.11176174906E+03  0.11176174906E+03  0.00000000000E+00 0. -1.
          5    1    1    2  502    0 -0.25745022041E+02  0.29677045250E+02  0.11573085072E+03  0.12228914663E+03  0.41800000000E+01 0. -1.
         -5    1    1    2    0  502 -0.30881070863E+02 -0.12082155325E+03  0.30533362091E+03  0.32984478278E+03  0.41800000000E+01 0. -1.
        -11    1    1    2    0    0  0.79794823560E+02  0.80555793876E+02 -0.46663772309E+02  0.12261303944E+03  0.00000000000E+00 0.  1.
         11    1    1    2    0    0 -0.23168730656E+02  0.10588714125E+02  0.24102756909E+01  0.25587504293E+02  0.00000000000E+00 0. -1.
</event>
<event>
 7    1  0.2766180E-009  0.7754968E+02  0.7561462E-02  0.1336152E+00
          2   -1    0    0  501    0  0.00000000000E+00  0.00000000000E+00  0.65672770871E+03  0.65672770871E+03  0.00000000000E+00 0. -1.
         -2   -1    0    0    0  501 -0.00000000000E+00 -0.00000000000E+00 -0.20885289395E+02  0.20885289395E+02  0.00000000000E+00 0.  1.
         25    2    1    2    0    0 -0.90005749623E+01 -0.43209289242E+02  0.36403984345E+03  0.38745421041E+03  0.12509078512E+03 0.  0.
          5    1    3    3  502    0 -0.59899876143E+01  0.37077587914E+01 -0.85768371422E+01  0.11860099588E+02  0.41800000000E+01 0. -1.
         -5    1    3    3    0  502 -0.30105873480E+01 -0.46917048033E+02  0.37261668059E+03  0.37559411082E+03  0.41800000000E+01 0. -1.
        -11    1    1    2    0    0  0.16888062739E+02  0.69882384469E+02  0.16892975642E+03  0.18359198492E+03  0.00000000000E+00 0.  1.
         11    1    1    2    0    0 -0.78874877768E+01 -0.26673095228E+02  0.10287281944E+03  0.10656680277E+03  0.00000000000E+00 0. -1.
</event>
<event>
 7    1  0.2766180E-009  0.1446506E+03  0.7561462E-02  0.1207205E+00
          2   -1    0    0  501    0  0.00000000000E+00  0.00000000000E+00  0.26965943457E+04  0.26965943457E+04  0.00000000000E+00 0. -1.
         -2   -1    0    0    0  501 -0.00000000000E+00 -0.00000000000E+00 -0.28369670062E+02  0.28369670062E+02  0.00000000000E+00 0.  1.
         25    2    1    2    0    0  0.90014797639E+02 -0.94053239200E+02  0.24448184637E+04  0.24514753726E+04  0.12508199792E+03 0.  0.
          5    1    3    3  502    0  0.59855262100E+02 -0.38448007127E+02  0.20778169061E+04  0.20790385925E+04  0.41800000000E+01 0.  1.
         -5    1    3    3    0  502  0.30159535539E+02 -0.55605232073E+02  0.36700155762E+03  0.37243678002E+03  0.41800000000E+01 0.  1.
        -11    1    1    2    0    0 -0.51972016920E+02 -0.12921352623E+01  0.50949394591E+02  0.72791489650E+02  0.00000000000E+00 0. -1.
         11    1    1    2    0    0 -0.38042780719E+02  0.95345374462E+02  0.17245681736E+03  0.20069715356E+03  0.00000000000E+00 0.  1.
</event>
<event>
 7    1  0.2766180E-009  0.2797122E+03  0.7561462E-02  0.1095846E+00
         -2   -1    0    0    0  501 -0.00000000000E+00  0.00000000000E+00  0.33090229650E+02  0.33090229650E+02  0.00000000000E+00 0.  1.
          2   -1    0    0  501    0  0.00000000000E+00 -0.00000000000E+00 -0.28099461046E+04  0.28099461046E+04  0.00000000000E+00 0. -1.
         25    2    1    2    0    0 -0.20402217875E+02  0.25814416246E+03 -0.19618100498E+04  0.19827760130E+04  0.12508951673E+03 0.  0.
          5    1    3    3  502    0 -0.62897603133E+02  0.69100195522E+02 -0.67713491772E+03  0.68356427254E+03  0.41800000000E+01 0.  1.
         -5    1    3    3    0  502  0.42495385258E+02  0.18904396694E+03 -0.12846751320E+04  0.12992117404E+04  0.41800000000E+01 0.  1.
        -11    1    1    2    0    0 -0.26076571293E+02 -0.32322933079E+02 -0.83745319007E+02  0.93477473376E+02  0.00000000000E+00 0.  1.
         11    1    1    2    0    0  0.46478789168E+02 -0.22582122938E+03 -0.73130050616E+03  0.76678284788E+03  0.00000000000E+00 0. -1.
</event>
<event>
 7    1  0.2766180E-009  0.1124617E+03  0.7561462E-02  0.1256078E+00
          2   -1    0    0  501    0  0.00000000000E+00  0.00000000000E+00  0.66918217914E+02  0.66918217914E+02  0.00000000000E+00 0. -1.
         -2   -1    0    0    0  501 -0.00000000000E+00 -0.00000000000E+00 -0.26659096740E+03  0.26659096740E+03  0.00000000000E+00 0.  1.
         25    2    1    2    0    0  0.58510378982E+02 -0.39278700750E+02 -0.68122339318E+02  0.15891648503E+03  0.12509002885E+03 0.  0.
          5    1    3    3  502    0  0.26752776610E+02 -0.78256633151E+02 -0.12372719885E+02  0.83727942085E+02  0.41800000000E+01 0.  1.
         -5    1    3    3    0  502  0.31757602372E+02  0.38977932401E+02 -0.55749619433E+02  0.75188542941E+02  0.41800000000E+01 0.  1.
        -11    1    1    2    0    0  0.10288312995E+02  0.16021272083E+02  0.52148571183E+01  0.19741460893E+02  0.00000000000E+00 0. -1.
         11    1    1    2    0    0 -0.68798691977E+02  0.23257428667E+02 -0.13676526729E+03  0.15485123939E+03  0.00000000000E+00 0.  1.
</event>
<event>
 7    1  0.2766180E-009  0.9933748E+02  0.7561462E-02  0.1281695E+00
         -2   -1    0    0    0  501 -0.00000000000E+00  0.00000000000E+00  0.59741487067E+02  0.59741487067E+02  0.00000000000E+00 0.  1.
          2   -1    0    0  501    0  0.00000000000E+00 -0.00000000000E+00 -0.20379996610E+03  0.20379996610E+03  0.00000000000E+00 0. -1.
         25    2    1    2    0    0 -0.15512256914E+02  0.20795967958E+01 -0.10378370865E+03  0.16329066192E+03  0.12509127567E+03 0.  0.
          5    1    3    3  502    0 -0.13003503327E+01 -0.60883543412E+02 -0.56417459112E+02  0.83119786225E+02  0.41800000000E+01 0.  1.
         -5    1    3    3    0  502 -0.14211906582E+02  0.62963140208E+02 -0.47366249541E+02  0.80170875691E+02  0.41800000000E+01 0.  1.
        -11    1    1    2    0    0  0.13550517285E+02 -0.36263103969E+02  0.94771515093E+01  0.39855308666E+02  0.00000000000E+00 0. -1.
         11    1    1    2    0    0  0.19617396291E+01  0.34183507173E+02 -0.49751921888E+02  0.60395482584E+02  0.00000000000E+00 0.  1.
</event>
<event>
 7    1  0.2766180E-009  0.1661319E+03  0.7561462E-02  0.1181943E+00
         -2   -1    0    0    0  501 -0.00000000000E+00  0.00000000000E+00  0.52613679605E+02  0.52613679605E+02  0.00000000000E+00 0.  1.
          2   -1    0    0  501    0  0.00000000000E+00 -0.00000000000E+00 -0.70271772413E+03  0.70271772413E+03  0.00000000000E+00 0. -1.
         25    2    1    2    0    0  0.12980173840E+03 -0.87675402876E+02 -0.27914377945E+03  0.34366321427E+03  0.12509071778E+03 0.  0.
          5    1    3    3  502    0 -0.10739587730E+01 -0.24345437241E+02  0.42822458795E+01  0.25093101276E+02  0.41800000000E+01 0. -1.
         -5    1    3    3    0  502  0.13087569718E+03 -0.63329965635E+02 -0.28342602533E+03  0.31857011299E+03  0.41800000000E+01 0. -1.
        -11    1    1    2    0    0 -0.51311135671E+02  0.59790053514E+02 -0.95054139531E+02  0.12346243390E+03  0.00000000000E+00 0.  1.
         11    1    1    2    0    0 -0.78490602734E+02  0.27885349362E+02 -0.27590612554E+03  0.28820575556E+03  0.00000000000E+00 0. -1.
</event>
<event>
 7    1  0.2766180E-009  0.9690770E+02  0.7561462E-02  0.1286936E+00
         -1   -1    0    0    0  501 -0.00000000000E+00  0.00000000000E+00  0.12499887743E+03  0.12499887743E+03  0.00000000000E+00 0.  1.
          1   -1    0    0  501    0  0.00000000000E+00 -0.00000000000E+00 -0.11940576359E+03  0.11940576359E+03  0.00000000000E+00 0. -1.
         25    2    1    2    0    0 -0.30033116622E+02  0.39651570082E+02  0.31029779354E+02  0.13814732624E+03  0.12509037308E+03 0.  0.
          5    1    3    3  502    0 -0.74867764653E+01  0.68610509580E+02 -0.22849549946E+02  0.72821893545E+02  0.41800000000E+01 0.  1.
         -5    1    3    3    0  502 -0.22546340157E+02 -0.28958939498E+02  0.53879329299E+02  0.65325432697E+02  0.41800000000E+01 0.  1.
        -11    1    1    2    0    0 -0.23934944602E+02 -0.16123914017E+02 -0.36316378585E+02  0.46386868076E+02  0.00000000000E+00 0. -1.
         11    1    1    2    0    0  0.53968061224E+02 -0.23527656065E+02  0.10879713062E+02  0.59870446703E+02  0.00000000000E+00 0.  1.
</event>
<event>
 7    1  0.2766180E-009  0.1223095E+03  0.7561462E-02  0.1239335E+00
         -2   -1    0    0    0  501 -0.00000000000E+00  0.00000000000E+00  0.15783184199E+03  0.15783184199E+03  0.00000000000E+00 0. -1.
          2   -1    0    0  501    0  0.00000000000E+00 -0.00000000000E+00 -0.11868332064E+03  0.11868332064E+03  0.00000000000E+00 0.  1.
         25    2    1    2    0    0  0.52788307531E+02  0.45553834990E+02  0.58429912890E+02  0.15467110801E+03  0.12508932663E+03 0.  0.
          5    1    3    3  502    0  0.42520426921E+02 -0.39034275617E+02  0.22150326930E+02  0.61965883853E+02  0.41800000000E+01 0. -1.
         -5    1    3    3    0  502  0.10267880609E+02  0.84588110607E+02  0.36279585960E+02  0.92705224155E+02  0.41800000000E+01 0. -1.
        -11    1    1    2    0    0 -0.47802404342E+02  0.72918364456E+01 -0.42054736904E+02  0.64084644305E+02  0.00000000000E+00 0.  1.
         11    1    1    2    0    0 -0.49859031886E+01 -0.52845671435E+02  0.22773345365E+02  0.57759410309E+02  0.00000000000E+00 0. -1.
</event>
<event>
 7    1  0.2766180E-009  0.9684968E+02  0.7561462E-02  0.1287064E+00
         -2   -1    0    0    0  501 -0.00000000000E+00  0.00000000000E+00  0.67072236757E+02  0.67072236757E+02  0.00000000000E+00 0.  1.
          2   -1    0    0  501    0  0.00000000000E+00 -0.00000000000E+00 -0.19069176937E+03  0.19069176937E+03  0.00000000000E+00 0. -1.
         25    2    1    2    0    0  0.12072289648E+02  0.29197431831E+00 -0.10783177906E+03  0.16559060099E+03  0.12508688634E+03 0.  0.
          5    1    3    3  502    0 -0.53247531257E+02 -0.20154296771E+02 -0.49945514282E+02  0.75851974663E+02  0.41800000000E+01 0.  1.
         -5    1    3    3    0  502  0.65319820905E+02  0.20446271089E+02 -0.57886264782E+02  0.89738626326E+02  0.41800000000E+01 0.  1.
        -11    1    1    2    0    0 -0.30817153663E+02 -0.23102327797E+02  0.21893776407E+02  0.44302956503E+02  0.00000000000E+00 0.  1.
         11    1    1    2    0    0  0.18744864016E+02  0.22810353479E+02 -0.37681529958E+02  0.47870448638E+02  0.00000000000E+00 0. -1.
</event>
<event>
 7    1  0.2789900E-009  0.1333653E+03  0.7561462E-02  0.1222546E+00
          2   -1    0    0  501    0  0.00000000000E+00  0.00000000000E+00  0.79206383772E+03  0.79206383772E+03  0.00000000000E+00 0.  1.
         -2   -1    0    0    0  501 -0.00000000000E+00 -0.00000000000E+00 -0.26522805779E+02  0.26522805779E+02  0.00000000000E+00 0. -1.
         25    2    1    2    0    0 -0.59445943485E+02 -0.74524999423E+02  0.44246092796E+03  0.46958439842E+03  0.12510011483E+03 0.  0.
          5    1    3    3  502    0 -0.89395489066E+02 -0.86589993637E+02  0.34086661038E+03  0.36290067365E+03  0.41800000000E+01 0. -1.
         -5    1    3    3    0  502  0.29949545581E+02  0.12064994215E+02  0.10159431758E+03  0.10668372477E+03  0.41800000000E+01 0. -1.
        -11    1    1    2    0    0  0.30306085653E+02  0.74584229194E+02  0.30325148088E+03  0.31375583935E+03  0.00000000000E+00 0.  1.
         11    1    1    2    0    0  0.29139857833E+02 -0.59229771315E-01  0.19828623101E+02  0.35246405728E+02  0.00000000000E+00 0. -1.
</event>
<event>
 7    1  0.2766180E-009  0.9856315E+02  0.7561462E-02  0.1283347E+00
         -1   -1    0    0    0  501 -0.00000000000E+00  0.00000000000E+00  0.14885837899E+03  0.14885837899E+03  0.00000000000E+00 0.  1.
          1   -1    0    0  501    0  0.00000000000E+00 -0.00000000000E+00 -0.10914314461E+03  0.10914314461E+03  0.00000000000E+00 0. -1.
         25    2    1    2    0    0 -0.20780097722E+02 -0.54499706494E+02 -0.85206700096E+01  0.13828312889E+03  0.12509033315E+03 0.  0.
          5    1    3    3  502    0  0.52394059592E+01 -0.80106015281E+02  0.29293135542E+02  0.85556912339E+02  0.41800000000E+01 0. -1.
         -5    1    3    3    0  502 -0.26019503681E+02  0.25606308787E+02 -0.37813805552E+02  0.52726216551E+02  0.41800000000E+01 0. -1.
        -11    1    1    2    0    0 -0.12557697203E+02 -0.35537637340E+01  0.51072353844E+02  0.52713473826E+02  0.00000000000E+00 0.  1.
         11    1    1    2    0    0  0.33337794925E+02  0.58053470228E+02 -0.28364494539E+01  0.67004920875E+02  0.00000000000E+00 0. -1.
</event>
<event>
 7    1  0.2766180E-009  0.2126476E+03  0.7561462E-02  0.1139486E+00
         -2   -1    0    0    0  501 -0.00000000000E+00  0.00000000000E+00  0.18715752782E+03  0.18715752782E+03  0.00000000000E+00 0.  1.
          2   -1    0    0  501    0  0.00000000000E+00 -0.00000000000E+00 -0.31663473261E+03  0.31663473261E+03  0.00000000000E+00 0. -1.
         25    2    1    2    0    0 -0.18542679936E+03 -0.42561188243E+02 -0.17661693716E+03  0.28816200869E+03  0.12509695477E+03 0.  0.
          5    1    3    3  502    0 -0.84823946196E+02 -0.70940904826E+02 -0.13744744313E+03  0.17645675348E+03  0.41800000000E+01 0.  1.
         -5    1    3    3    0  502 -0.10060285317E+03  0.28379716582E+02 -0.39169494029E+02  0.11170525521E+03  0.41800000000E+01 0.  1.
        -11    1    1    2    0    0  0.27507334830E+02  0.44242050674E+02  0.17406945485E+02  0.54927354464E+02  0.00000000000E+00 0. -1.
         11    1    1    2    0    0  0.15791946453E+03 -0.16808624302E+01  0.29732786891E+02  0.16070289728E+03  0.00000000000E+00 0.  1.
</event>
<event>
 7    1  0.2766180E-009  0.3234472E+03  0.7561462E-02  0.1074074E+00
          1   -1    0    0  501    0  0.00000000000E+00  0.00000000000E+00  0.29291850266E+03  0.29291850266E+03  0.00000000000E+00 0. -1.
         -1   -1    0    0    0  501 -0.00000000000E+00 -0.00000000000E+00 -0.45007702462E+03  0.45007702462E+03  0.00000000000E+00 0.  1.
         25    2    1    2    0    0 -0.31113400401E+03 -0.13910095838E+02 -0.23466041600E+03  0.40952548613E+03  0.12509098182E+03 0.  0.
          5    1    3    3  502    0 -0.18049991915E+03 -0.68715239471E+02 -0.14851202994E+03  0.24367047500E+03  0.41800000000E+01 0.  1.
         -5    1    3    3    0  502 -0.13063408486E+03  0.54805143632E+02 -0.86148386060E+02  0.16585501113E+03  0.41800000000E+01 0.  1.
        -11    1    1    2    0    0  0.12879208858E+03  0.14816177875E+02 -0.12278440332E+02  0.13022166219E+03  0.00000000000E+00 0.  1.
         11    1    1    2    0    0  0.18234191543E+03 -0.90608203695E+00  0.89780334374E+02  0.20324837895E+03  0.00000000000E+00 0. -1.
</event>
<event>
 6    1  0.3237876E-009  0.7236688E+02  0.7561462E-02  0.1352224E+00
         -1   -1    0    0    0  501 -0.00000000000E+00  0.00000000000E+00  0.17576896597E+02  0.17576896597E+02  0.00000000000E+00 0.  1.
          1   -1    0    0  501    0  0.00000000000E+00 -0.00000000000E+00 -0.78161847194E+03  0.78161847194E+03  0.00000000000E+00 0. -1.
          5    1    1    2  502    0  0.43070191423E+01  0.15348778839E+02 -0.41238925214E+01  0.16988652544E+02  0.41800000000E+01 0.  1.
         -5    1    1    2    0  502 -0.10597532399E+02 -0.36726008358E+02 -0.55858011334E+03  0.55990206537E+03  0.41800000000E+01 0.  1.
        -11    1    1    2    0    0 -0.95991709126E+01 -0.32365195508E+02 -0.45208735640E+02  0.56422333704E+02  0.00000000000E+00 0.  1.
         11    1    1    2    0    0  0.15889684169E+02  0.53742425027E+02 -0.15612883385E+03  0.16588231693E+03  0.00000000000E+00 0. -1.
</event>
<event>
 7    1  0.2766180E-009  0.1467148E+03  0.7561462E-02  0.1204569E+00
          2   -1    0    0  501    0  0.00000000000E+00  0.00000000000E+00  0.70880674178E+02  0.70880674178E+02  0.00000000000E+00 0. -1.
         -2   -1    0    0    0  501 -0.00000000000E+00 -0.00000000000E+00 -0.39175877218E+03  0.39175877218E+03  0.00000000000E+00 0.  1.
         25    2    1    2    0    0 -0.70229962082E+02 -0.98541449146E+02 -0.14085610012E+03  0.22389670343E+03  0.12508648245E+03 0.  0.
          5    1    3    3  502    0 -0.73621949260E+01  0.28970551314E+02 -0.13824890769E+02  0.33197812614E+02  0.41800000000E+01 0.  1.
         -5    1    3    3    0  502 -0.62867767156E+02 -0.12751200046E+03 -0.12703120935E+03  0.19069889081E+03  0.41800000000E+01 0.  1.
        -11    1    1    2    0    0  0.32473046058E+02  0.46988703291E+02 -0.16284843105E+03  0.17257476193E+03  0.00000000000E+00 0.  1.
         11    1    1    2    0    0  0.37756916024E+02  0.51552745855E+02 -0.17173566830E+02  0.66167981006E+02  0.00000000000E+00 0. -1.
</event>
<event>
 7    1  0.4147783E-009  0.1905603E+03  0.7561462E-02  0.1157957E+00
         -2   -1    0    0    0  501 -0.00000000000E+00  0.00000000000E+00  0.60057913527E+02  0.60057913527E+02  0.00000000000E+00 0.  1.
          2   -1    0    0  501    0  0.00000000000E+00 -0.00000000000E+00 -0.69891147522E+03  0.69891147522E+03  0.00000000000E+00 0. -1.
         25    2    1    2    0    0 -0.13127765836E+03  0.10048377532E+03 -0.42912790623E+03  0.47658097474E+03  0.12509137815E+03 0.  0.
          5    1    3    3  502    0  0.14414413534E+02 -0.37041224424E+01 -0.51353451287E+01  0.16289260578E+02  0.41800000000E+01 0. -1.
         -5    1    3    3    0  502 -0.14569207190E+03  0.10418789776E+03 -0.42399256110E+03  0.46029171416E+03  0.41800000000E+01 0. -1.
        -11    1    1    2    0    0  0.30736615647E+02 -0.77490871977E+02 -0.70852107983E+02  0.10940564879E+03  0.00000000000E+00 0.  1.
         11    1    1    2    0    0  0.10054104271E+03 -0.22992903343E+02 -0.13887354748E+03  0.17298276522E+03  0.00000000000E+00 0. -1.
</event>
<event>
 7    1  0.2766180E-009  0.1479769E+03  0.7561462E-02  0.1202981E+00
          2   -1    0    0  501    0  0.00000000000E+00  0.00000000000E+00  0.14077745549E+04  0.14077745549E+04  0.00000000000E+00 0. -1.
         -2   -1    0    0    0  501 -0.00000000000E+00 -0.00000000000E+00 -0.21726438552E+02  0.21726438552E+02  0.00000000000E+00 0.  1.
         25    2    1    2    0    0  0.32249971367E+02  0.10842069944E+03  0.10348537629E+04  0.10485060506E+04  0.12509004350E+03 0.  0.
          5    1    3    3  502    0  0.28445644046E+02  0.13090075655E+03  0.97750847959E+03  0.98665316237E+03  0.41800000000E+01 0. -1.
         -5    1    3    3    0  502  0.38043273202E+01 -0.22480057106E+02  0.57345283277E+02  0.61852888274E+02  0.41800000000E+01 0. -1.
        -11    1    1    2    0    0 -0.54524916322E+02 -0.42383679028E+02  0.10954864909E+03  0.12949999716E+03  0.00000000000E+00 0. -1.
         11    1    1    2    0    0  0.22274944955E+02 -0.66037020412E+02  0.24164570441E+03  0.25149494567E+03  0.00000000000E+00 0.  1.
</event>
<event>
 7    1  0.2766180E-009  0.1071541E+03  0.7561462E-02  0.1265933E+00
          1   -1    0    0  501    0  0.00000000000E+00  0.00000000000E+00  0.46160578916E+03  0.46160578916E+03  0.00000000000E+00 0. -1.
         -1   -1    0    0    0  501 -0.00000000000E+00 -0.00000000000E+00 -0.37723173765E+02  0.37723173765E+02  0.00000000000E+00 0.  1.
         25    2    1    2    0    0 -0.73374480445E+02  0.59306941367E+01  0.21221972789E+03  0.25710650973E+03  0.12509019515E+03 0.  0.
          5    1    3    3  502    0  0.13344926088E+02  0.43431100395E+02  0.10286209019E+03  0.11252746123E+03  0.41800000000E+01 0.  1.
         -5    1    3    3    0  502 -0.86719406533E+02 -0.37500406258E+02  0.10935763771E+03  0.14457904850E+03  0.41800000000E+01 0.  1.
        -11    1    1    2    0    0  0.61968233230E+02 -0.81074711606E+01  0.21949307054E+03  0.22821700426E+03  0.00000000000E+00 0. -1.
         11    1    1    2    0    0  0.11406247215E+02  0.21767770240E+01 -0.78301830341E+01  0.14005448943E+02  0.00000000000E+00 0.  1.
</event>
<event>
 7    1  0.2766180E-009  0.1496525E+03  0.7561462E-02  0.1200901E+00
          3   -1    0    0  501    0  0.00000000000E+00  0.00000000000E+00  0.18948493235E+02  0.18948493235E+02  0.00000000000E+00 0. -1.
         -3   -1    0    0    0  501 -0.00000000000E+00 -0.00000000000E+00 -0.15098003063E+04  0.15098003063E+04  0.00000000000E+00 0.  1.
         25    2    1    2    0    0  0.10528362824E+03 -0.12805339333E+02 -0.10871578363E+04  0.10994614458E+04  0.12511870606E+03 0.  0.
          5    1    3    3  502    0  0.49883416304E+01 -0.48347987331E+02 -0.19672213633E+03  0.20268074095E+03  0.41800000000E+01 0. -1.
         -5    1    3    3    0  502  0.10029528660E+03  0.35542647997E+02 -0.89043569997E+03  0.89678070481E+03  0.41800000000E+01 0. -1.
        -11    1    1    2    0    0 -0.10910047017E+03  0.40276155007E+02 -0.29462893710E+03  0.31675115126E+03  0.00000000000E+00 0. -1.
         11    1    1    2    0    0  0.38168419337E+01 -0.27470815674E+02 -0.10906503965E+03  0.11253620249E+03  0.00000000000E+00 0.  1.
</event>
<event>
 7    1  0.2766180E-009  0.1251375E+03  0.7561462E-02  0.1234855E+00
         -2   -1    0    0    0  501 -0.00000000000E+00  0.00000000000E+00  0.20972189850E+03  0.20972189850E+03  0.00000000000E+00 0.  1.
          2   -1    0    0  501    0  0.00000000000E+00 -0.00000000000E+00 -0.10241930920E+03  0.10241930920E+03  0.00000000000E+00 0. -1.
         25    2    1    2    0    0 -0.49006410260E+02  0.73989797894E+02  0.13383298302E+02  0.15395548152E+03  0.12508820559E+03 0.  0.
          5    1    3    3  502    0 -0.72891700668E+02 -0.51515914616E+00 -0.59456203618E+01  0.73254953530E+02  0.41800000000E+01 0. -1.
         -5    1    3    3    0  502  0.23885290408E+02  0.74504957040E+02  0.19328918664E+02  0.80700527992E+02  0.41800000000E+01 0. -1.
        -11    1    1    2    0    0  0.50430640460E+02 -0.38640621764E+02  0.64814841582E+01  0.63862013627E+02  0.00000000000E+00 0. -1.
         11    1    1    2    0    0 -0.14242302004E+01 -0.35349176130E+02  0.87437806843E+02  0.94323712556E+02  0.00000000000E+00 0.  1.
</event>
<event>
 7    1  0.2766180E-009  0.1280260E+03  0.7561462E-02  0.1230415E+00
         -1   -1    0    0    0  501 -0.00000000000E+00  0.00000000000E+00  0.62434650674E+03  0.62434650674E+03  0.00000000000E+00 0.  1.
          1   -1    0    0  501    0  0.00000000000E+00 -0.00000000000E+00 -0.34772551299E+02  0.34772551299E+02  0.00000000000E+00 0. -1.
         25    2    1    2    0    0  0.29821091452E+02  0.79380498962E+02  0.20670355877E+03  0.25605444750E+03  0.12508780023E+03 0.  0.
          5    1    3    3  502    0 -0.17327257873E+02  0.90762910540E+02  0.17505249977E+03  0.19798734775E+03  0.41800000000E+01 0. -1.
         -5    1    3    3    0  502  0.47148349325E+02 -0.11382411578E+02  0.31651059005E+02  0.58067099752E+02  0.41800000000E+01 0. -1.
        -11    1    1    2    0    0 -0.12512283298E+02  0.14647979110E+02  0.19834262767E+02  0.27649927755E+02  0.00000000000E+00 0. -1.
         11    1    1    2    0    0 -0.17308808154E+02 -0.94028478072E+02  0.36303613391E+03  0.37541468278E+03  0.00000000000E+00 0.  1.
</event>
<event>
 7    1  0.2766180E-009  0.1179734E+03  0.7561462E-02  0.1246478E+00
          4   -1    0    0  501    0  0.00000000000E+00  0.00000000000E+00  0.36472913526E+03  0.36472913526E+03  0.00000000000E+00 0. -1.
         -4   -1    0    0    0  501 -0.00000000000E+00 -0.00000000000E+00 -0.56800734741E+02  0.56800734741E+02  0.00000000000E+00 0.  1.
         25    2    1    2    0    0  0.72632356236E+02  0.39936163144E+02  0.10068339946E+03  0.18070647664E+03  0.12508927802E+03 0.  0.
          5    1    3    3  502    0  0.85523349202E+02  0.73698231751E+02  0.68396559322E+02  0.13206526549E+03  0.41800000000E+01 0. -1.
         -5    1    3    3    0  502 -0.12890992966E+02 -0.33762068607E+02  0.32286840138E+02  0.48641211152E+02  0.41800000000E+01 0. -1.
        -11    1    1    2    0    0 -0.58435642337E+02 -0.42381298460E+02  0.21330971201E+03  0.22519309934E+03  0.00000000000E+00 0. -1.
         11    1    1    2    0    0 -0.14196713899E+02  0.24451353164E+01 -0.60647109476E+01  0.15630294019E+02  0.00000000000E+00 0.  1.
</event>
<event>
 7    1  0.2766180E-009  0.1214157E+03  0.7561462E-02  0.1240780E+00
          2   -1    0    0  501    0  0.00000000000E+00  0.00000000000E+00  0.48715868463E+02  0.48715868463E+02  0.00000000000E+00 0. -1.
         -2   -1    0    0    0  501 -0.00000000000E+00 -0.00000000000E+00 -0.45290873311E+03  0.45290873311E+03  0.00000000000E+00 0.  1.
         25    2    1    2    0    0 -0.46955330134E+01 -0.97459645417E+02 -0.26551610229E+03  0.30929947351E+03  0.12508770212E+03 0.  0.
          5    1    3    3  502    0  0.24556211231E+01  0.22221993427E+02 -0.11293906507E+03  0.11520656182E+03  0.41800000000E+01 0. -1.
         -5    1    3    3    0  502 -0.71511541365E+01 -0.11968163884E+03 -0.15257703722E+03  0.19409291169E+03  0.41800000000E+01 0. -1.
        -11    1    1    2    0    0  0.11906664370E+02  0.30024800417E+02 -0.11661841109E+03  0.12100872325E+03  0.00000000000E+00 0.  1.
         11    1    1    2    0    0 -0.72111313562E+01  0.67434845000E+02 -0.22058351266E+02  0.71316404818E+02  0.00000000000E+00 0. -1.
</event>
<event>
 6    1  0.2766180E-009  0.1267824E+03  0.7561462E-02  0.1232310E+00
          1   -1    0    0  501    0  0.00000000000E+00  0.00000000000E+00  0.23795506649E+03  0.23795506649E+03  0.00000000000E+00 0. -1.
         -1   -1    0    0    0  501 -0.00000000000E+00 -0.00000000000E+00 -0.80258825019E+02  0.80258825019E+02  0.00000000000E+00 0.  1.
          5    1    1    2  502    0 -0.58949726212E+02 -0.20908238152E+02  0.61998156840E+02  0.88167275645E+02  0.41800000000E+01 0.  1.
         -5    1    1    2    0  502  0.59483905072E+02 -0.57993059069E+02  0.48733710076E+02  0.96405273510E+02  0.41800000000E+01 0.  1.
        -11    1    1    2    0    0 -0.36574987845E+02  0.47086971024E+02 -0.85184881914E+01  0.60228541549E+02  0.00000000000E+00 0.  1.
         11    1    1    2    0    0  0.36040808985E+02  0.31814326197E+02  0.55482862749E+02  0.73412800808E+02  0.00000000000E+00 0. -1.
</event>
<event>
 7    1  0.2766180E-009  0.1148647E+03  0.7561462E-02  0.1251817E+00
          1   -1    0    0  501    0  0.00000000000E+00  0.00000000000E+00  0.32821789728E+02  0.32821789728E+02  0.00000000000E+00 0. -1.
         -1   -1    0    0    0  501 -0.00000000000E+00 -0.00000000000E+00 -0.45543928772E+03  0.45543928772E+03  0.00000000000E+00 0.  1.
         25    2    1    2    0    0 -0.39302480286E+02  0.29262424989E+02 -0.17691180038E+03  0.22213864768E+03  0.12508724637E+03 0.  0.
          5    1    3    3  502    0  0.42029678636E+02  0.25723568874E+02 -0.91888888616E+02  0.10435150278E+03  0.41800000000E+01 0.  1.
         -5    1    3    3    0  502 -0.81332158922E+02  0.35388561148E+01 -0.85022911766E+02  0.11778714490E+03  0.41800000000E+01 0.  1.
        -11    1    1    2    0    0 -0.94677712844E+01 -0.46178205441E+02 -0.83331128608E+02  0.95739972561E+02  0.00000000000E+00 0. -1.
         11    1    1    2    0    0  0.48770251570E+02  0.16915780452E+02 -0.16237456901E+03  0.17038245721E+03  0.00000000000E+00 0.  1.
</event>
<event>
 7    1  0.2766180E-009  0.1052975E+03  0.7561462E-02  0.1269535E+00
         -1   -1    0    0    0  501 -0.00000000000E+00  0.00000000000E+00  0.11548415705E+03  0.11548415705E+03  0.00000000000E+00 0.  1.
          1   -1    0    0  501    0  0.00000000000E+00 -0.00000000000E+00 -0.12543304622E+03  0.12543304622E+03  0.00000000000E+00 0. -1.
         25    2    1    2    0    0 -0.43115287436E+02 -0.24612652904E+02  0.89691614481E+01  0.13487409750E+03  0.12508343466E+03 0.  0.
          5    1    3    3  502    0 -0.18458185028E+02 -0.61680531763E+02  0.43980247740E+02  0.78082822595E+02  0.41800000000E+01 0. -1.
         -5    1    3    3    0  502 -0.24657102407E+02  0.37067878858E+02 -0.35011086292E+02  0.56791274907E+02  0.41800000000E+01 0. -1.
        -11    1    1    2    0    0  0.62200519694E+02 -0.88610238595E+01 -0.23836518028E+02  0.67198229037E+02  0.00000000000E+00 0. -1.
         11    1    1    2    0    0 -0.19085232258E+02  0.33473676764E+02  0.49184674029E+01  0.38844876728E+02  0.00000000000E+00 0.  1.
</event>
<event>
 7    1  0.2766180E-009  0.1252092E+03  0.7561462E-02  0.1234743E+00
          2   -1    0    0  501    0  0.00000000000E+00  0.00000000000E+00  0.19795268155E+03  0.19795268155E+03  0.00000000000E+00 0. -1.
         -2   -1    0    0    0  501 -0.00000000000E+00 -0.00000000000E+00 -0.93828408851E+02  0.93828408851E+02  0.00000000000E+00 0.  1.
         25    2    1    2    0    0  0.40825280292E+02  0.72207540286E+02  0.55269347975E+02  0.15994306238E+03  0.12508577054E+03 0.  0.
          5    1    3    3  502    0 -0.39604614957E+02  0.38027189991E+02 -0.24651732988E+01  0.55119344915E+02  0.41800000000E+01 0. -1.
         -5    1    3    3    0  502  0.80429895249E+02  0.34180350295E+02  0.57734521274E+02  0.10482371746E+03  0.41800000000E+01 0. -1.
        -11    1    1    2    0    0  0.44112187014E+01  0.11718801692E+02 -0.13110400620E+02  0.18129306880E+02  0.00000000000E+00 0.  1.
         11    1    1    2    0    0 -0.45236498994E+02 -0.83926341978E+02  0.61965325345E+02  0.11370872114E+03  0.00000000000E+00 0. -1.
</event>
<event>
 7    1  0.2766180E-009  0.1433051E+03  0.7561462E-02  0.1208950E+00
          1   -1    0    0  501    0  0.00000000000E+00  0.00000000000E+00  0.32746263830E+03  0.32746263830E+03  0.00000000000E+00 0. -1.
         -1   -1    0    0    0  501 -0.00000000000E+00 -0.00000000000E+00 -0.87502986651E+02  0.87502986651E+02  0.00000000000E+00 0.  1.
         25    2    1    2    0    0 -0.14921432395E+01 -0.12744407282E+03  0.15873853661E+03  0.23893478715E+03  0.12509073235E+03 0.  0.
          5    1    3    3  502    0 -0.48931554697E+01 -0.26268901975E+01  0.10111332570E+03  0.10135196376E+03  0.41800000000E+01 0. -1.
         -5    1    3    3    0  502  0.34010122302E+01 -0.12481718262E+03  0.57625210903E+02  0.13758282340E+03  0.41800000000E+01 0. -1.
        -11    1    1    2    0    0  0.30623459856E+02  0.12109948326E+03  0.74592751300E+02  0.14548869264E+03  0.00000000000E+00 0. -1.
         11    1    1    2    0    0 -0.29131316616E+02  0.63445895576E+01  0.66283637389E+01  0.30542145149E+02  0.00000000000E+00 0.  1.
</event>
<event>
 7    1  0.2766180E-009  0.1386615E+03  0.7561462E-02  0.1215141E+00
          2   -1    0    0  501    0  0.00000000000E+00  0.00000000000E+00  0.55521812012E+03  0.55521812012E+03  0.00000000000E+00 0. -1.
         -2   -1    0    0    0  501 -0.00000000000E+00 -0.00000000000E+00 -0.36039206025E+02  0.36039206025E+02  0.00000000000E+00 0.  1.
         25    2    1    2    0    0  0.67722336138E+02  0.56969241178E+02  0.24954404475E+03  0.29283380405E+03  0.12509035642E+03 0.  0.
          5    1    3    3  502    0  0.86874649953E+02 -0.46312079473E+01  0.16300825840E+03  0.18481833675E+03  0.41800000000E+01 0. -1.
         -5    1    3    3    0  502 -0.19152313816E+02  0.61600449125E+02  0.86535786358E+02  0.10801546731E+03  0.41800000000E+01 0. -1.
        -11    1    1    2    0    0 -0.71273998998E+02 -0.77182320034E+02  0.20119028104E+03  0.22696832961E+03  0.00000000000E+00 0.  1.
         11    1    1    2    0    0  0.35516628599E+01  0.20213078857E+02  0.68444588299E+02  0.71455192487E+02  0.00000000000E+00 0. -1.
</event>
<event>
 7    1  0.2766180E-009  0.1019357E+03  0.7561462E-02  0.1276277E+00
          2   -1    0    0  501    0  0.00000000000E+00  0.00000000000E+00  0.12484762001E+03  0.12484762001E+03  0.00000000000E+00 0. -1.
         -2   -1    0    0    0  501 -0.00000000000E+00 -0.00000000000E+00 -0.14540221919E+03  0.14540221919E+03  0.00000000000E+00 0.  1.
         25    2    1    2    0    0 -0.18446719065E+02  0.48154501259E+02  0.52157743538E+02  0.14500928975E+03  0.12509247167E+03 0.  0.
          5    1    3    3  502    0 -0.60522339541E+02 -0.23840138715E+01 -0.41220692116E+00  0.60714738081E+02  0.41800000000E+01 0.  1.
         -5    1    3    3    0  502  0.42075620476E+02  0.50538515130E+02  0.52569950459E+02  0.84294551670E+02  0.41800000000E+01 0.  1.
        -11    1    1    2    0    0 -0.40087223278E+00 -0.56606866920E+02 -0.78272434709E+01  0.57146861868E+02  0.00000000000E+00 0. -1.
         11    1    1    2    0    0  0.18847591298E+02  0.84523656613E+01 -0.64885099248E+02  0.68093687574E+02  0.00000000000E+00 0.  1.
</event>
<event>
 7    1  0.2766180E-009  0.1000254E+03  0.7561462E-02  0.1280242E+00
          1   -1    0    0  501    0  0.00000000000E+00  0.00000000000E+00  0.26636618093E+02  0.26636618093E+02  0.00000000000E+00 0. -1.
         -1   -1    0    0    0  501 -0.00000000000E+00 -0.00000000000E+00 -0.63292698510E+03  0.63292698510E+03  0.00000000000E+00 0.  1.
         25    2    1    2    0    0  0.56361426849E+02  0.50113407764E+01 -0.23078350247E+03  0.26853576960E+03  0.12509480632E+03 0.  0.
          5    1    3    3  502    0  0.71083082534E+02  0.16563055329E+02 -0.23728325954E+03  0.24829006642E+03  0.41800000000E+01 0. -1.
         -5    1    3    3    0  502 -0.14721655685E+02 -0.11551714553E+02  0.64997570683E+01  0.20245703178E+02  0.41800000000E+01 0. -1.
        -11    1    1    2    0    0 -0.81865662995E+02 -0.71439334931E+01 -0.30976533524E+03  0.32048024194E+03  0.00000000000E+00 0.  1.
         11    1    1    2    0    0  0.25504236146E+02  0.21325927166E+01 -0.65741529300E+02  0.70547591652E+02  0.00000000000E+00 0. -1.
</event>
<event>
 7    1  0.2766180E-009  0.1286207E+03  0.7561462E-02  0.1229517E+00
          1   -1    0    0  501    0  0.00000000000E+00  0.00000000000E+00  0.71667008626E+03  0.71667008626E+03  0.00000000000E+00 0. -1.
         -1   -1    0    0    0  501 -0.00000000000E+00 -0.00000000000E+00 -0.28112325086E+02  0.28112325086E+02  0.00000000000E+00 0.  1.
         25    2    1    2    0    0  0.13264316270E+02 -0.73276375988E+02  0.51332628022E+03  0.53356957779E+03  0.12508898839E+03 0.  0.
          5    1    3    3  502    0 -0.52902634729E+02 -0.50746406698E+02  0.30801861808E+03  0.31664937714E+03  0.41800000000E+01 0.  1.
         -5    1    3    3    0  502  0.66166951000E+02 -0.22529969290E+02  0.20530766213E+03  0.21692020065E+03  0.41800000000E+01 0.  1.
        -11    1    1    2    0    0  0.22290851307E+02  0.74954100246E+02  0.92344629152E+02  0.12100632103E+03  0.00000000000E+00 0.  1.
         11    1    1    2    0    0 -0.35555167578E+02 -0.16777242584E+01  0.82886851804E+02  0.90206512526E+02  0.00000000000E+00 0. -1.
</event>
<event>
 7    1  0.2766180E-009  0.1806883E+03  0.7561462E-02  0.1167139E+00
         -1   -1    0    0    0  501 -0.00000000000E+00  0.00000000000E+00  0.59888385165E+03  0.59888385165E+03  0.00000000000E+00 0.  1.
          1   -1    0    0  501    0  0.00000000000E+00 -0.00000000000E+00 -0.64271498954E+02  0.64271498954E+02  0.00000000000E+00 0. -1.
         25    2    1    2    0    0  0.21098423358E+02  0.14978872101E+03  0.18303917068E+03  0.26838845802E+03  0.12508885636E+03 0.  0.
          5    1    3    3  502    0  0.56104075470E+02  0.12942327244E+03  0.91462846717E+02  0.16816948434E+03  0.41800000000E+01 0.  1.
         -5    1    3    3    0  502 -0.35005652112E+02  0.20365448570E+02  0.91576323964E+02  0.10021897368E+03  0.41800000000E+01 0.  1.
        -11    1    1    2    0    0 -0.57685423699E+02 -0.63356552628E+02  0.16607470545E+03  0.18687554323E+03  0.00000000000E+00 0.  1.
         11    1    1    2    0    0  0.36587000342E+02 -0.86432168384E+02  0.18549847657E+03  0.20789134935E+03  0.00000000000E+00 0. -1.
</event>
<event>
 7    1  0.2766180E-009  0.9352421E+02  0.7561462E-02  0.1294535E+00
          4   -1    0    0  501    0  0.00000000000E+00  0.00000000000E+00  0.24523542409E+03  0.24523542409E+03  0.00000000000E+00 0.  1.
         -4   -1    0    0    0  501 -0.00000000000E+00 -0.00000000000E+00 -0.69011110907E+02  0.69011110907E+02  0.00000000000E+00 0. -1.
         25    2    1    2    0    0 -0.38138970565E+02 -0.35977428137E+02  0.15399483039E+03  0.20520822937E+03  0.12508818170E+03 0.  0.
          5    1    3    3  502    0 -0.26941685017E+01  0.39826162556E+02  0.14868631017E+02  0.42801055549E+02  0.41800000000E+01 0.  1.
         -5    1    3    3    0  502 -0.35444802064E+02 -0.75803590692E+02  0.13912619938E+03  0.16240717382E+03  0.41800000000E+01 0.  1.
        -11    1    1    2    0    0  0.26335416198E+02  0.11568596806E+01 -0.33280931391E+02  0.42456010940E+02  0.00000000000E+00 0. -1.
         11    1    1    2    0    0  0.11803554367E+02  0.34820568456E+02  0.55510414178E+02  0.66582294685E+02  0.00000000000E+00 0.  1.
</event>
<event>
 7    1  0.2766180E-009  0.9662588E+02  0.7561462E-02  0.1287556E+00
         -2   -1    0    0    0  501 -0.00000000000E+00  0.00000000000E+00  0.87463172983E+02  0.87463172983E+02  0.00000000000E+00 0.  1.
          2   -1    0    0  501    0  0.00000000000E+00 -0.00000000000E+00 -0.14874667838E+03  0.14874667838E+03  0.00000000000E+00 0. -1.
         25    2    1    2    0    0  0.31982517543E+02  0.39650205299E+01 -0.48851717327E+02  0.13810079501E+03  0.12508691570E+03 0.  0.
          5    1    3    3  502    0  0.63813123773E+02  0.85326397870E+00  0.15774960089E+02  0.65872335551E+02  0.41800000000E+01 0.  1.
         -5    1    3    3    0  502 -0.31830606230E+02  0.31117565512E+01 -0.64626677416E+02  0.72228459458E+02  0.41800000000E+01 0.  1.
        -11    1    1    2    0    0 -0.36329789011E+02 -0.43836479027E+02 -0.36487949725E+01  0.57050891035E+02  0.00000000000E+00 0. -1.
         11    1    1    2    0    0  0.43472714678E+01  0.39871458497E+02 -0.87829931018E+01  0.41058165324E+02  0.00000000000E+00 0.  1.
</event>
<event>
 7    1  0.2766180E-009  0.7082480E+02  0.7561462E-02  0.1357311E+00
         -1   -1    0    0    0  501 -0.00000000000E+00  0.00000000000E+00  0.49964918391E+02  0.49964918391E+02  0.00000000000E+00 0.  1.
          1   -1    0    0  501    0  0.00000000000E+00 -0.00000000000E+00 -0.40932956800E+03  0.40932956800E+03  0.00000000000E+00 0. -1.
         25    2    1    2    0    0  0.59392885591E+02 -0.15316414779E+02 -0.83836433575E+02  0.16259853164E+03  0.12509047715E+03 0.  0.
          5    1    3    3  502    0  0.44765520451E+02 -0.18729436462E+02 -0.11657305957E+03  0.12633880729E+03  0.41800000000E+01 0.  1.
         -5    1    3    3    0  502  0.14627365140E+02  0.34130216830E+01  0.32736625993E+02  0.36259724341E+02  0.41800000000E+01 0.  1.
        -11    1    1    2    0    0 -0.36601922255E+01  0.21013621175E+02 -0.70952183492E+01  0.22479132666E+02  0.00000000000E+00 0.  1.
         11    1    1    2    0    0 -0.55732693365E+02 -0.56972063960E+01 -0.26843299768E+03  0.27421682209E+03  0.00000000000E+00 0. -1.
</event>
<event>
 7    1  0.2766180E-009  0.1082482E+03  0.7561462E-02  0.1263849E+00
          1   -1    0    0  501    0  0.00000000000E+00  0.00000000000E+00  0.10362282882E+04  0.10362282882E+04  0.00000000000E+00 0. -1.
         -1   -1    0    0    0  501 -0.00000000000E+00 -0.00000000000E+00 -0.14857348893E+02  0.14857348893E+02  0.00000000000E+00 0.  1.
         25    2    1    2    0    0  0.26547544782E+02  0.26361292267E+02  0.76774393700E+03  0.77876741248E+03  0.12509292581E+03 0.  0.
          5    1    3    3  502    0 -0.46670941405E+02  0.16201349366E+02  0.43891815252E+03  0.44170949447E+03  0.41800000000E+01 0.  1.
         -5    1    3    3    0  502  0.73218486187E+02  0.10159942901E+02  0.32882578448E+03  0.33705791801E+03  0.41800000000E+01 0.  1.
        -11    1    1    2    0    0 -0.54483436394E+02 -0.33612035455E+02  0.21349115222E+03  0.22288267282E+03  0.00000000000E+00 0. -1.
         11    1    1    2    0    0  0.27935891612E+02  0.72507431884E+01  0.40135850042E+02  0.49435551737E+02  0.00000000000E+00 0.  1.
</event>
<event>
 7    1  0.2766180E-009  0.1796858E+03  0.7561462E-02  0.1168107E+00
         -1   -1    0    0    0  501 -0.00000000000E+00  0.00000000000E+00  0.25123209084E+03  0.25123209084E+03  0.00000000000E+00 0.  1.
          1   -1    0    0  501    0  0.00000000000E+00 -0.00000000000E+00 -0.15294607074E+03  0.15294607074E+03  0.00000000000E+00 0. -1.
         25    2    1    2    0    0  0.15339146523E+03 -0.80707732198E+01  0.10777578462E+03  0.22551671751E+03  0.12509233046E+03 0.  0.
          5    1    3    3  502    0  0.96713080459E+02  0.56118034626E+02  0.53291122268E+02  0.12393574890E+03  0.41800000000E+01 0. -1.
         -5    1    3    3    0  502  0.56678384775E+02 -0.64188807846E+02  0.54484662352E+02  0.10158096862E+03  0.41800000000E+01 0. -1.
        -11    1    1    2    0    0 -0.10099817150E+03 -0.19003299269E+02 -0.42344509103E+02  0.11115220862E+03  0.00000000000E+00 0. -1.
         11    1    1    2    0    0 -0.52393293733E+02  0.27074072489E+02  0.32854744575E+02  0.67509235446E+02  0.00000000000E+00 0.  1.
</event>
<event>
 7    1  0.2934441E-009  0.1449392E+03  0.7561462E-02  0.1206833E+00
         -2   -1    0    0    0  501 -0.00000000000E+00  0.00000000000E+00  0.13982425827E+02  0.13982425827E+02  0.00000000000E+00 0.  1.
          2   -1    0    0  501    0  0.00000000000E+00 -0.00000000000E+00 -0.15156320700E+04  0.15156320700E+04  0.00000000000E+00 0. -1.
         25    2    1    2    0    0 -0.95041485798E+02  0.14880744281E+02 -0.86428529118E+03  0.87857235882E+03  0.12508399006E+03 0.  0.
          5    1    3    3  502    0  0.18806760831E+02  0.36436599552E+02 -0.26300560085E+03  0.26621558654E+03  0.41800000000E+01 0.  1.
         -5    1    3    3    0  502 -0.11384824663E+03 -0.21555855272E+02 -0.60127969032E+03  0.61235677228E+03  0.41800000000E+01 0.  1.
        -11    1    1    2    0    0  0.36785471610E+02  0.38823084263E+02 -0.24963037240E+03  0.25529536936E+03  0.00000000000E+00 0. -1.
         11    1    1    2    0    0  0.58256014188E+02 -0.53703828544E+02 -0.38773398055E+03  0.39574676759E+03  0.00000000000E+00 0.  1.
</event>
<event>
 7    1  0.2766180E-009  0.1267903E+03  0.7561462E-02  0.1232298E+00
         -2   -1    0    0    0  501 -0.00000000000E+00  0.00000000000E+00  0.79239073153E+02  0.79239073153E+02  0.00000000000E+00 0.  1.
          2   -1    0    0  501    0  0.00000000000E+00 -0.00000000000E+00 -0.24644915675E+03  0.24644915675E+03  0.00000000000E+00 0. -1.
         25    2    1    2    0    0 -0.47877177257E+01 -0.72022306327E+02 -0.15023238374E+03  0.20839398358E+03  0.12509255940E+03 0.  0.
          5    1    3    3  502    0 -0.99276075880E-01  0.35936844116E+02 -0.41125646664E+02  0.54774609394E+02  0.41800000000E+01 0. -1.
         -5    1    3    3    0  502 -0.46884416498E+01 -0.10795915044E+03 -0.10910673707E+03  0.15361937418E+03  0.41800000000E+01 0. -1.
        -11    1    1    2    0    0 -0.23446985693E+00 -0.18548373060E+02  0.11970949141E+02  0.22077154314E+02  0.00000000000E+00 0. -1.
         11    1    1    2    0    0  0.50221875826E+01  0.90570679387E+02 -0.28948649005E+02  0.95217092016E+02  0.00000000000E+00 0.  1.
</event>
<event>
 7    1  0.2766180E-009  0.1250396E+03  0.7561462E-02  0.1235007E+00
          1   -1    0    0  501    0  0.00000000000E+00  0.00000000000E+00  0.87184887757E+02  0.87184887757E+02  0.00000000000E+00 0. -1.
         -1   -1    0    0    0  501 -0.00000000000E+00 -0.00000000000E+00 -0.21979461319E+03  0.21979461319E+03  0.00000000000E+00 0.  1.
         25    2    1    2    0    0 -0.22420403733E+02 -0.84187447205E+02 -0.76752310795E+02  0.17067199724E+03  0.12509121735E+03 0.  0.
          5    1    3    3  502    0  0.37087404781E+02 -0.72270737423E+02 -0.73700674465E+02  0.10976245669E+03  0.41800000000E+01 0. -1.
         -5    1    3    3    0  502 -0.59507808514E+02 -0.11916709782E+02 -0.30516363302E+01  0.60909540554E+02  0.41800000000E+01 0. -1.
        -11    1    1    2    0    0 -0.94242066733E+01  0.73817786771E+02 -0.67879239576E+02  0.10072473619E+03  0.00000000000E+00 0.  1.
         11    1    1    2    0    0  0.31844610406E+02  0.10369660434E+02  0.12021824937E+02  0.35582767518E+02  0.00000000000E+00 0. -1.
</event>
<event>
 7    1  0.2766180E-009  0.1115053E+03  0.7561462E-02  0.1257808E+00
          2   -1    0    0  501    0  0.00000000000E+00  0.00000000000E+00  0.51055035561E+03  0.51055035561E+03  0.00000000000E+00 0. -1.
         -2   -1    0    0    0  501 -0.00000000000E+00 -0.00000000000E+00 -0.30805595888E+02  0.30805595888E+02  0.00000000000E+00 0.  1.
         25    2    1    2    0    0  0.24146905239E+02  0.41496944272E+02  0.17837690303E+03  0.22309422803E+03  0.12509054972E+03 0.  0.
          5    1    3    3  502    0  0.11313612633E+02 -0.38469723217E+02  0.19650113052E+02  0.44849936212E+02  0.41800000000E+01 0. -1.
         -5    1    3    3    0  502  0.12833292606E+02  0.79966667489E+02  0.15872678998E+03  0.17824429182E+03  0.41800000000E+01 0. -1.
        -11    1    1    2    0    0  0.23519768621E+02  0.14832119184E+02  0.10022358095E+03  0.10400931426E+03  0.00000000000E+00 0. -1.
         11    1    1    2    0    0 -0.47666673860E+02 -0.56329063455E+02  0.20114427574E+03  0.21425240920E+03  0.00000000000E+00 0.  1.
</event>
<event>
 7    1  0.2766180E-009  0.1079206E+03  0.7561462E-02  0.1264470E+00
         -2   -1    0    0    0  501 -0.00000000000E+00  0.00000000000E+00  0.16978486422E+02  0.16978486422E+02  0.00000000000E+00 0.  1.
          2   -1    0    0  501    0  0.00000000000E+00 -0.00000000000E+00 -0.10842739762E+04  0.10842739762E+04  0.00000000000E+00 0. -1.
         25    2    1    2    0    0 -0.32816040182E+02 -0.63487924393E+02 -0.76120553796E+03  0.77471871751E+03  0.12509041210E+03 0.  0.
          5    1    3    3  502    0 -0.16116966297E+02 -0.83605079620E+02 -0.27772426683E+03  0.29051300613E+03  0.41800000000E+01 0.  1.
         -5    1    3    3    0  502 -0.16699073885E+02  0.20117155227E+02 -0.48348127113E+03  0.48420571138E+03  0.41800000000E+01 0.  1.
        -11    1    1    2    0    0 -0.87925408098E+01 -0.13787137358E+02 -0.13946161106E+02  0.21491610922E+02  0.00000000000E+00 0.  1.
         11    1    1    2    0    0  0.41608580992E+02  0.77275061751E+02 -0.29214379067E+03  0.30504213416E+03  0.00000000000E+00 0. -1.
</event>
<event>
 7    1  0.2766180E-009  0.8326633E+02  0.7561462E-02  0.1320030E+00
         -1   -1    0    0    0  501 -0.00000000000E+00  0.00000000000E+00  0.63469661994E+02  0.63469661994E+02  0.00000000000E+00 0.  1.
          1   -1    0    0  501    0  0.00000000000E+00 -0.00000000000E+00 -0.19622187534E+03  0.19622187534E+03  0.00000000000E+00 0. -1.
         25    2    1    2    0    0 -0.13475704438E+02  0.22386248735E+01 -0.94574689654E+02  0.15741132601E+03  0.12508935839E+03 0.  0.
          5    1    3    3  502    0 -0.14390634724E+02  0.38658466783E+02  0.13245630576E+02  0.43525699892E+02  0.41800000000E+01 0.  1.
         -5    1    3    3    0  502  0.91493028608E+00 -0.36419841909E+02 -0.10782032023E+03  0.11388562612E+03  0.41800000000E+01 0.  1.
        -11    1    1    2    0    0  0.11033974450E+02 -0.44612543053E+02 -0.11758828125E+01  0.45971842362E+02  0.00000000000E+00 0.  1.
         11    1    1    2    0    0  0.24417299875E+01  0.42373918179E+02 -0.37001640878E+02  0.56308368959E+02  0.00000000000E+00 0. -1.
</event>
<event>
 7    1  0.2766180E-009  0.1104542E+03  0.7561462E-02  0.1259731E+00
          2   -1    0    0  501    0  0.00000000000E+00  0.00000000000E+00  0.12710077158E+02  0.12710077158E+02  0.00000000000E+00 0. -1.
         -2   -1    0    0    0  501 -0.00000000000E+00 -0.00000000000E+00 -0.14313676302E+04  0.14313676302E+04  0.00000000000E+00 0.  1.
         25    2    1    2    0    0 -0.59978995891E+02  0.41261497204E+02 -0.93605007519E+03  0.94717308785E+03  0.12508846465E+03 0.  0.
          5    1    3    3  502    0  0.16225235198E+02 -0.50231061397E+01 -0.57457457779E+03  0.57484076725E+03  0.41800000000E+01 0.  1.
         -5    1    3    3    0  502 -0.76204231089E+02  0.46284603343E+02 -0.36147549740E+03  0.37233232060E+03  0.41800000000E+01 0.  1.
        -11    1    1    2    0    0  0.64250398371E+02  0.79701950763E+01 -0.20655259018E+03  0.21646156751E+03  0.00000000000E+00 0. -1.
         11    1    1    2    0    0 -0.42714024806E+01 -0.49231692280E+02 -0.27605488772E+03  0.28044305204E+03  0.00000000000E+00 0.  1.
</event>
<event>
 7    1  0.2766180E-009  0.9864071E+02  0.7561462E-02  0.1283181E+00
         -2   -1    0    0    0  501 -0.00000000000E+00  0.00000000000E+00  0.15145024236E+03  0.15145024236E+03  0.00000000000E+00 0.  1.
          2   -1    0    0  501    0  0.00000000000E+00 -0.00000000000E+00 -0.79788674020E+02  0.79788674020E+02  0.00000000000E+00 0. -1.
         25    2    1    2    0    0  0.12003043725E+02 -0.64708681227E+01  0.39864702859E+02  0.13198805609E+03  0.12508280147E+03 0.  0.
          5    1    3    3  502    0 -0.32766522079E+02  0.39311066807E+02 -0.79560024930E+01  0.51959362182E+02  0.41800000000E+01 0.  1.
         -5    1    3    3    0  502  0.44769565804E+02 -0.45781934930E+02  0.47820705352E+02  0.80028693908E+02  0.41800000000E+01 0.  1.
        -11    1    1    2    0    0  0.26669047409E+02 -0.21319412745E+02  0.38161128369E+02  0.51205733740E+02  0.00000000000E+00 0.  1.
         11    1    1    2    0    0 -0.38672091135E+02  0.27790280868E+02 -0.63642628854E+01  0.48045126553E+02  0.00000000000E+00 0. -1.
</event>
<event>
 7    1  0.2766180E-009  0.1179476E+03  0.7561462E-02  0.1246522E+00
         -4   -1    0    0    0  501 -0.00000000000E+00  0.00000000000E+00  0.55466427902E+03  0.55466427902E+03  0.00000000000E+00 0.  1.
          4   -1    0    0  501    0  0.00000000000E+00 -0.00000000000E+00 -0.82636227571E+02  0.82636227571E+02  0.00000000000E+00 0. -1.
         25    2    1    2    0    0 -0.65110920217E+01 -0.97630888482E+02  0.47698680236E+03  0.50273066615E+03  0.12509008094E+03 0.  0.
          5    1    3    3  502    0 -0.22682564077E+02 -0.47348550048E+01  0.31017443210E+03  0.31106682287E+03  0.41800000000E+01 0. -1.
         -5    1    3    3    0  502  0.16171472055E+02 -0.92896033477E+02  0.16681237027E+03  0.19166384327E+03  0.41800000000E+01 0. -1.
        -11    1    1    2    0    0  0.35442186455E+02  0.39754743222E+02 -0.34482704341E+02  0.63447971505E+02  0.00000000000E+00 0. -1.
         11    1    1    2    0    0 -0.28931094434E+02  0.57876145260E+02  0.29523953422E+02  0.71121868936E+02  0.00000000000E+00 0.  1.
</event>
<event>
 7    1  0.2766180E-009  0.1200390E+03  0.7561462E-02  0.1243033E+00
         -1   -1    0    0    0  501 -0.00000000000E+00  0.00000000000E+00  0.27095474705E+02  0.27095474705E+02  0.00000000000E+00 0.  1.
          1   -1    0    0  501    0  0.00000000000E+00 -0.00000000000E+00 -0.92285188792E+03  0.92285188792E+03  0.00000000000E+00 0. -1.
         25    2    1    2    0    0 -0.73342275009E+02 -0.65593087717E+02 -0.65018448866E+03  0.66937958227E+03  0.12509042092E+03 0.  0.
          5    1    3    3  502    0 -0.69087286901E+02 -0.74474982657E+02 -0.65077041937E+03  0.65866470027E+03  0.41800000000E+01 0. -1.
         -5    1    3    3    0  502 -0.42549881085E+01  0.88818949400E+01  0.58593070805E+00  0.10714882002E+02  0.41800000000E+01 0. -1.
        -11    1    1    2    0    0  0.41571743953E+02  0.82011120533E+02 -0.21379296079E+03  0.23272615640E+03  0.00000000000E+00 0. -1.
         11    1    1    2    0    0  0.31770531057E+02 -0.16418032816E+02 -0.31778963757E+02  0.47841623955E+02  0.00000000000E+00 0.  1.
</event>
<event>
 7    1  0.2766180E-009  0.1136724E+03  0.7561462E-02  0.1253916E+00
         -2   -1    0    0    0  501 -0.00000000000E+00  0.00000000000E+00  0.36111587237E+03  0.36111587237E+03  0.00000000000E+00 0.  1.
          2   -1    0    0  501    0  0.00000000000E+00 -0.00000000000E+00 -0.58821915219E+02  0.58821915219E+02  0.00000000000E+00 0. -1.
         25    2    1    2    0    0  0.31527605732E+02 -0.44610997993E+02  0.27400764528E+03  0.30612148420E+03  0.12508414108E+03 0.  0.
          5    1    3    3  502    0  0.55317332033E+02  0.11647595134E+02  0.56006226286E+02  0.79685905143E+02  0.41800000000E+01 0.  1.
         -5    1    3    3    0  502 -0.23789726300E+02 -0.56258593126E+02  0.21800141900E+03  0.22643557906E+03  0.41800000000E+01 0.  1.
        -11    1    1    2    0    0 -0.38750022239E+02 -0.20559258324E+02  0.46289451398E+01  0.44109800039E+02  0.00000000000E+00 0. -1.
         11    1    1    2    0    0  0.72224165063E+01  0.65170256317E+02  0.23657366724E+02  0.69706503347E+02  0.00000000000E+00 0.  1.
</event>
<event>
 7    1  0.2766180E-009  0.1255511E+03  0.7561462E-02  0.1234210E+00
          2   -1    0    0  501    0  0.00000000000E+00  0.00000000000E+00  0.30548983994E+03  0.30548983994E+03  0.00000000000E+00 0. -1.
         -2   -1    0    0    0  501 -0.00000000000E+00 -0.00000000000E+00 -0.13445901028E+03  0.13445901028E+03  0.00000000000E+00 0.  1.
         25    2    1    2    0    0 -0.54771569546E+02  0.75401866886E+02  0.24088705112E+03  0.28698429839E+03  0.12509216507E+03 0.  0.
          5    1    3    3  502    0  0.40365224078E+02  0.15526806887E+02  0.63774989750E+02  0.77169649245E+02  0.41800000000E+01 0.  1.
         -5    1    3    3    0  502 -0.95136793625E+02  0.59875059999E+02  0.17711206137E+03  0.20981464914E+03  0.41800000000E+01 0.  1.
        -11    1    1    2    0    0  0.11616636240E+02 -0.31632672060E+02  0.23576156661E+02  0.41126722968E+02  0.00000000000E+00 0. -1.
         11    1    1    2    0    0  0.43154933306E+02 -0.43769194826E+02 -0.93432378126E+02  0.11183782887E+03  0.00000000000E+00 0.  1.
</event>
<event>
 7    1  0.2766180E-009  0.1509463E+03  0.7561462E-02  0.1199315E+00
         -2   -1    0    0    0  501 -0.00000000000E+00  0.00000000000E+00  0.33295009417E+03  0.33295009417E+03  0.00000000000E+00 0.  1.
          2   -1    0    0  501    0  0.00000000000E+00 -0.00000000000E+00 -0.11544093971E+03  0.11544093971E+03  0.00000000000E+00 0. -1.
         25    2    1    2    0    0 -0.11398085602E+03  0.41681599372E+02 -0.15087800317E+02  0.17494284986E+03  0.12509343601E+03 0.  0.
          5    1    3    3  502    0 -0.18298530720E+02 -0.35841676382E+02  0.22275057581E+02  0.46185631777E+02  0.41800000000E+01 0.  1.
         -5    1    3    3    0  502 -0.95682325297E+02  0.77523275754E+02 -0.37362857898E+02  0.12875721808E+03  0.41800000000E+01 0.  1.
        -11    1    1    2    0    0  0.37277450816E+02 -0.48545366757E+02  0.66574878811E+02  0.90434923905E+02  0.00000000000E+00 0. -1.
         11    1    1    2    0    0  0.76703405201E+02  0.68637673854E+01  0.16602207596E+03  0.18301326012E+03  0.00000000000E+00 0.  1.
</event>
<event>
 7    1  0.2766180E-009  0.1297225E+03  0.7561462E-02  0.1227868E+00
         -2   -1    0    0    0  501 -0.00000000000E+00  0.00000000000E+00  0.51729920628E+02  0.51729920628E+02  0.00000000000E+00 0.  1.
          2   -1    0    0  501    0  0.00000000000E+00 -0.00000000000E+00 -0.38921401542E+03  0.38921401542E+03  0.00000000000E+00 0. -1.
         25    2    1    2    0    0  0.89641143495E+02 -0.20007874774E+02 -0.18223904947E+03  0.23936480107E+03  0.12509431315E+03 0.  0.
          5    1    3    3  502    0  0.10230785476E+03 -0.37401955930E+02 -0.81078098243E+02  0.13585629859E+03  0.41800000000E+01 0. -1.
         -5    1    3    3    0  502 -0.12666711263E+02  0.17394081155E+02 -0.10116095122E+03  0.10350850248E+03  0.41800000000E+01 0. -1.
        -11    1    1    2    0    0 -0.70310647199E+02 -0.28829047438E+02 -0.94964102161E+02  0.12162599140E+03  0.00000000000E+00 0.  1.
         11    1    1    2    0    0 -0.19330496296E+02  0.48836922213E+02 -0.60280943167E+02  0.79953143574E+02  0.00000000000E+00 0. -1.
</event>
<event>
 7    1  0.2766180E-009  0.1125262E+03  0.7561462E-02  0.1255962E+00
          2   -1    0    0  501    0  0.00000000000E+00  0.00000000000E+00  0.15478632633E+03  0.15478632633E+03  0.00000000000E+00 0. -1.
         -2   -1    0    0    0  501 -0.00000000000E+00 -0.00000000000E+00 -0.19815632075E+03  0.19815632075E+03  0.00000000000E+00 0.  1.
         25    2    1    2    0    0 -0.20451933069E+02 -0.26738701597E+02 -0.15532928507E+03  0.20225661730E+03  0.12508921901E+03 0.  0.
          5    1    3    3  502    0  0.49631400282E+02  0.27733439806E+01 -0.85191583557E+02  0.98722062578E+02  0.41800000000E+01 0.  1.
         -5    1    3    3    0  502 -0.70083333351E+02 -0.29512045577E+02 -0.70137701514E+02  0.10353455472E+03  0.41800000000E+01 0.  1.
        -11    1    1    2    0    0 -0.17204473522E+02 -0.27824464762E+02  0.24158459453E+02  0.40667258471E+02  0.00000000000E+00 0.  1.
         11    1    1    2    0    0  0.37656406591E+02  0.54563166359E+02  0.87800831195E+02  0.11001877130E+03  0.00000000000E+00 0. -1.
</event>
<event>
 7    1  0.2766180E-009  0.1128825E+03  0.7561462E-02  0.1255323E+00
         -1   -1    0    0    0  501 -0.00000000000E+00  0.00000000000E+00  0.49145241286E+03  0.49145241286E+03  0.00000000000E+00 0.  1.
          1   -1    0    0  501    0  0.00000000000E+00 -0.00000000000E+00 -0.36590390006E+02  0.36590390006E+02  0.00000000000E+00 0. -1.
         25    2    1    2    0    0  0.31910819779E+02 -0.64118863167E+02  0.31768608267E+03  0.34885604133E+03  0.12508621594E+03 0.  0.
          5    1    3    3  502    0  0.41927043813E+02  0.49809598703E+01  0.24242450304E+03  0.24610932335E+03  0.41800000000E+01 0. -1.
         -5    1    3    3    0  502 -0.10016224033E+02 -0.69099823037E+02  0.75261579624E+02  0.10274671798E+03  0.41800000000E+01 0. -1.
        -11    1    1    2    0    0 -0.60311312093E+02  0.59304390134E+02  0.87067851448E+02  0.12138894435E+03  0.00000000000E+00 0. -1.
         11    1    1    2    0    0  0.28400492314E+02  0.48144730337E+01  0.50108088743E+02  0.57797817189E+02  0.00000000000E+00 0.  1.
</event>
<event>
 7    1  0.2766180E-009  0.8471483E+02  0.7561462E-02  0.1316180E+00
         -2   -1    0    0    0  501 -0.00000000000E+00  0.00000000000E+00  0.13596670346E+02  0.13596670346E+02  0.00000000000E+00 0.  1.
          2   -1    0    0  501    0  0.00000000000E+00 -0.00000000000E+00 -0.92450034975E+03  0.92450034975E+03  0.00000000000E+00 0. -1.
         25    2    1    2    0    0 -0.32178001378E+02 -0.54223416176E+01 -0.55261209357E+03  0.56753180149E+03  0.12508954468E+03 0.  0.
          5    1    3    3  502    0 -0.35628485074E+02 -0.34791039019E+02 -0.52331699162E+03  0.52569758556E+03  0.41800000000E+01 0. -1.
         -5    1    3    3    0  502  0.34504836952E+01  0.29368697402E+02 -0.29295101950E+02  0.41834215937E+02  0.41800000000E+01 0. -1.
        -11    1    1    2    0    0 -0.25444891782E+02  0.17285450031E+02 -0.72073700784E+02  0.78363560698E+02  0.00000000000E+00 0.  1.
         11    1    1    2    0    0  0.57622893161E+02 -0.11863108414E+02 -0.28621788505E+03  0.29220165790E+03  0.00000000000E+00 0. -1.
</event>
<event>
 7    1  0.2766180E-009  0.9813837E+02  0.7561462E-02  0.1284260E+00
          3   -1    0    0  501    0  0.00000000000E+00  0.00000000000E+00  0.38120055980E+03  0.38120055980E+03  0.00000000000E+00 0. -1.
         -3   -1    0    0    0  501 -0.00000000000E+00 -0.00000000000E+00 -0.34286616277E+02  0.34286616277E+02  0.00000000000E+00 0.  1.
         25    2    1    2    0    0 -0.21576773856E+02  0.18481283108E+01  0.24629159257E+03  0.27708464623E+03  0.12508948741E+03 0.  0.
          5    1    3    3  502    0 -0.30017127514E+02  0.59316683476E+02  0.10606944710E+03  0.12525053649E+03  0.41800000000E+01 0.  1.
         -5    1    3    3    0  502  0.84403536580E+01 -0.57468555165E+02  0.14022214547E+03  0.15183410974E+03  0.41800000000E+01 0.  1.
        -11    1    1    2    0    0  0.36234370269E+02 -0.25005127830E+02  0.11987949690E+02  0.45627808893E+02  0.00000000000E+00 0.  1.
         11    1    1    2    0    0 -0.14657596414E+02  0.23156999519E+02  0.88634401264E+02  0.92774720947E+02  0.00000000000E+00 0. -1.
</event>
<event>
 7    1  0.2766180E-009  0.1223026E+03  0.7561462E-02  0.1239346E+00
          1   -1    0    0  501    0  0.00000000000E+00  0.00000000000E+00  0.37603212444E+02  0.37603212444E+02  0.00000000000E+00 0. -1.
         -1   -1    0    0    0  501 -0.00000000000E+00 -0.00000000000E+00 -0.66994901368E+03  0.66994901368E+03  0.00000000000E+00 0.  1.
         25    2    1    2    0    0  0.10683066827E+03  0.10082858002E+02 -0.24391964739E+03  0.29438960500E+03  0.12511590403E+03 0.  0.
          5    1    3    3  502    0  0.40792964331E+02  0.73235697634E+01 -0.16986095238E-01  0.41655411431E+02  0.41800000000E+01 0.  1.
         -5    1    3    3    0  502  0.66037703935E+02  0.27592882385E+01 -0.24390266129E+03  0.25273419357E+03  0.41800000000E+01 0.  1.
        -11    1    1    2    0    0 -0.47581419439E+02  0.37619622488E+02 -0.22271584329E+03  0.23082801893E+03  0.00000000000E+00 0.  1.
         11    1    1    2    0    0 -0.59249248827E+02 -0.47702480490E+02 -0.16571031056E+03  0.18233460219E+03  0.00000000000E+00 0. -1.
</event>
<event>
 7    1  0.2766180E-009  0.2995540E+03  0.7561462E-02  0.1085464E+00
         -2   -1    0    0    0  501 -0.00000000000E+00  0.00000000000E+00  0.39816582211E+02  0.39816582211E+02  0.00000000000E+00 0.  1.
          2   -1    0    0  501    0  0.00000000000E+00 -0.00000000000E+00 -0.25202063299E+04  0.25202063299E+04  0.00000000000E+00 0. -1.
         25    2    1    2    0    0  0.28413521256E+03  0.34135739010E+02 -0.15980281550E+04  0.16282627408E+04  0.12508997167E+03 0.  0.
          5    1    3    3  502    0  0.29496528192E+03  0.30318383546E+02 -0.15688100822E+04  0.15965920795E+04  0.41800000000E+01 0.  1.
         -5    1    3    3    0  502 -0.10830069359E+02  0.38173554642E+01 -0.29218072812E+02  0.31670661249E+02  0.41800000000E+01 0.  1.
        -11    1    1    2    0    0 -0.22132929353E+03 -0.57179463665E+01 -0.56144112652E+03  0.60351925374E+03  0.00000000000E+00 0.  1.
         11    1    1    2    0    0 -0.62805919023E+02 -0.28417792643E+02 -0.32092046617E+03  0.32824091764E+03  0.00000000000E+00 0. -1.
</event>
<event>
 7    1  0.2766180E-009  0.1114080E+03  0.7561462E-02  0.1257985E+00
         -2   -1    0    0    0  501 -0.00000000000E+00  0.00000000000E+00  0.59125111883E+02  0.59125111883E+02  0.00000000000E+00 0.  1.
          2   -1    0    0  501    0  0.00000000000E+00 -0.00000000000E+00 -0.27950725406E+03  0.27950725406E+03  0.00000000000E+00 0. -1.
         25    2    1    2    0    0  0.13976365070E+02  0.59474384955E+02 -0.16316972576E+03  0.21448746285E+03  0.12509185053E+03 0.  0.
          5    1    3    3  502    0  0.42811748345E+02  0.79356771469E+02 -0.68063992591E+02  0.11305097285E+03  0.41800000000E+01 0.  1.
         -5    1    3    3    0  502 -0.28835383274E+02 -0.19882386514E+02 -0.95105733171E+02  0.10143649000E+03  0.41800000000E+01 0.  1.
        -11    1    1    2    0    0  0.14452338719E+02  0.12991909901E+02  0.94953141954E+01  0.21629165703E+02  0.00000000000E+00 0.  1.
         11    1    1    2    0    0 -0.28428703790E+02 -0.72466294856E+02 -0.66707730605E+02  0.10251573739E+03  0.00000000000E+00 0. -1.
</event>
<event>
 7    1  0.3120666E-009  0.1120327E+03  0.7561462E-02  0.1256851E+00
          1   -1    0    0  501    0  0.00000000000E+00  0.00000000000E+00  0.17403672626E+04  0.17403672626E+04  0.00000000000E+00 0. -1.
         -1   -1    0    0    0  501 -0.00000000000E+00 -0.00000000000E+00 -0.10703897263E+02  0.10703897263E+02  0.00000000000E+00 0.  1.
         25    2    1    2    0    0 -0.14378409908E+02 -0.61167329772E+02  0.12887042194E+04  0.12962844707E+04  0.12508670242E+03 0.  0.
          5    1    3    3  502    0  0.12582804937E+02 -0.81203560484E+02  0.48974376602E+03  0.49660726330E+03  0.41800000000E+01 0. -1.
         -5    1    3    3    0  502 -0.26961214845E+02  0.20036230712E+02  0.79896045336E+03  0.79967720743E+03  0.41800000000E+01 0. -1.
        -11    1    1    2    0    0 -0.22899494406E+02  0.66450955532E+02  0.23020094528E+03  0.24069190169E+03  0.00000000000E+00 0.  1.
         11    1    1    2    0    0  0.37277904314E+02 -0.52836257603E+01  0.21075820065E+03  0.21409478740E+03  0.00000000000E+00 0. -1.
</event>
<event>
 7    1  0.2766180E-009  0.1032970E+03  0.7561462E-02  0.1273512E+00
          2   -1    0    0  501    0  0.00000000000E+00  0.00000000000E+00  0.19706639006E+03  0.19706639006E+03  0.00000000000E+00 0. -1.
         -2   -1    0    0    0  501 -0.00000000000E+00 -0.00000000000E+00 -0.73713256751E+02  0.73713256751E+02  0.00000000000E+00 0.  1.
         25    2    1    2    0    0  0.30728067014E+02  0.40505578590E+02  0.68106208413E+02  0.15122893029E+03  0.12508724049E+03 0.  0.
          5    1    3    3  502    0  0.97213464764E+01  0.66249024267E+02  0.89228077625E+02  0.11163583668E+03  0.41800000000E+01 0.  1.
         -5    1    3    3    0  502  0.21006720537E+02 -0.25743445676E+02 -0.21121869211E+02  0.39593093615E+02  0.41800000000E+01 0.  1.
        -11    1    1    2    0    0  0.29322624990E+02 -0.35080481555E+02  0.23394722227E+02  0.51359220697E+02  0.00000000000E+00 0.  1.
         11    1    1    2    0    0 -0.60050692004E+02 -0.54250970348E+01  0.31852202668E+02  0.68191495824E+02  0.00000000000E+00 0. -1.
</event>
<event>
 7    1  0.2766180E-009  0.9302715E+02  0.7561462E-02  0.1295682E+00
          1   -1    0    0  501    0  0.00000000000E+00  0.00000000000E+00  0.24949189535E+03  0.24949189535E+03  0.00000000000E+00 0. -1.
         -1   -1    0    0    0  501 -0.00000000000E+00 -0.00000000000E+00 -0.56355861621E+02  0.56355861621E+02  0.00000000000E+00 0.  1.
         25    2    1    2    0    0  0.41985428010E+02 -0.24571548254E+02  0.10856545968E+03  0.17262031821E+03  0.12507908728E+03 0.  0.
          5    1    3    3  502    0 -0.21833358589E+02 -0.11257088159E+01  0.10175731192E+03  0.10416326462E+03  0.41800000000E+01 0. -1.
         -5    1    3    3    0  502  0.63818786598E+02 -0.23445839438E+02  0.68081477593E+01  0.68457053587E+02  0.41800000000E+01 0. -1.
        -11    1    1    2    0    0 -0.65076991136E+02  0.47568913936E+01  0.78711880194E+02  0.10224090607E+03  0.00000000000E+00 0. -1.
         11    1    1    2    0    0  0.23091563126E+02  0.19814656861E+02  0.58586938503E+01  0.30986532683E+02  0.00000000000E+00 0.  1.
</event>
<event>
 7    1  0.2766180E-009  0.1589680E+03  0.7561462E-02  0.1189867E+00
          1   -1    0    0  501    0  0.00000000000E+00  0.00000000000E+00  0.21609405885E+03  0.21609405885E+03  0.00000000000E+00 0. -1.
         -1   -1    0    0    0  501 -0.00000000000E+00 -0.00000000000E+00 -0.37639414383E+03  0.37639414383E+03  0.00000000000E+00 0.  1.
         25    2    1    2    0    0  0.55968569417E+02  0.13136552602E+03 -0.31178307448E+03  0.36502594262E+03  0.12508345642E+03 0.  0.
          5    1    3    3  502    0  0.72503644050E+02  0.81074961432E+02 -0.10392614615E+03  0.15049267100E+03  0.41800000000E+01 0. -1.
         -5    1    3    3    0  502 -0.16535074633E+02  0.50290564584E+02 -0.20785692833E+03  0.21453327162E+03  0.41800000000E+01 0. -1.
        -11    1    1    2    0    0  0.34939938928E+01 -0.71579192561E+02  0.25908989231E+02  0.76204097816E+02  0.00000000000E+00 0.  1.
         11    1    1    2    0    0 -0.59462563310E+02 -0.59786333455E+02  0.12557400026E+03  0.15125816224E+03  0.00000000000E+00 0. -1.
</event>
<event>
 7    1  0.2766180E-009  0.1516670E+03  0.7561462E-02  0.1198439E+00
          2   -1    0    0  501    0  0.00000000000E+00  0.00000000000E+00  0.81335274646E+02  0.81335274646E+02  0.00000000000E+00 0. -1.
         -2   -1    0    0    0  501 -0.00000000000E+00 -0.00000000000E+00 -0.51831054242E+03  0.51831054242E+03  0.00000000000E+00 0.  1.
         25    2    1    2    0    0  0.11688109198E+03 -0.37839329691E+02 -0.47947668207E+02  0.18176908470E+03  0.12509203306E+03 0.  0.
          5    1    3    3  502    0  0.13052842832E+03 -0.20199365470E+02 -0.38831689474E+01  0.13220528116E+03  0.41800000000E+01 0.  1.
         -5    1    3    3    0  502 -0.13647336341E+02 -0.17639964221E+02 -0.44064499259E+02  0.49563803546E+02  0.41800000000E+01 0.  1.
        -11    1    1    2    0    0 -0.62228035041E+02  0.62801936576E+02 -0.18250944558E+03  0.20279573296E+03  0.00000000000E+00 0. -1.
         11    1    1    2    0    0 -0.54653056938E+02 -0.24962606885E+02 -0.20651815399E+03  0.21508099940E+03  0.00000000000E+00 0.  1.
</event>
<event>
 7    1  0.2766180E-009  0.9867857E+02  0.7561462E-02  0.1283100E+00
          2   -1    0    0  501    0  0.00000000000E+00  0.00000000000E+00  0.53752122789E+02  0.53752122789E+02  0.00000000000E+00 0. -1.
         -2   -1    0    0    0  501 -0.00000000000E+00 -0.00000000000E+00 -0.25041968456E+03  0.25041968456E+03  0.00000000000E+00 0.  1.
         25    2    1    2    0    0 -0.39171721767E+01  0.14853587473E+02 -0.64891614897E+02  0.14175713654E+03  0.12509272871E+03 0.  0.
          5    1    3    3  502    0 -0.16148572012E+02  0.63679542590E+02 -0.63147337432E+02  0.91219072278E+02  0.41800000000E+01 0.  1.
         -5    1    3    3    0  502  0.12231399835E+02 -0.48825955117E+02 -0.17442774652E+01  0.50538064258E+02  0.41800000000E+01 0.  1.
        -11    1    1    2    0    0  0.18231135687E+02  0.29353536994E+02 -0.10082926082E+03  0.10658585404E+03  0.00000000000E+00 0.  1.
         11    1    1    2    0    0 -0.14313963510E+02 -0.44207124467E+02 -0.30946686045E+02  0.55828816772E+02  0.00000000000E+00 0. -1.
</event>
<event>
 7    1  0.2766180E-009  0.1010728E+03  0.7561462E-02  0.1278056E+00
         -2   -1    0    0    0  501 -0.00000000000E+00  0.00000000000E+00  0.23632457515E+03  0.23632457515E+03  0.00000000000E+00 0.  1.
          2   -1    0    0  501    0  0.00000000000E+00 -0.00000000000E+00 -0.52546574307E+02  0.52546574307E+02  0.00000000000E+00 0. -1.
         25    2    1    2    0    0  0.22121336305E+01  0.25424700470E+01  0.12317457230E+03  0.17558450606E+03  0.12508631347E+03 0.  0.
          5    1    3    3  502    0 -0.21698173662E+02 -0.56772379627E+02  0.63893755867E+02  0.88282491286E+02  0.41800000000E+01 0.  1.
         -5    1    3    3    0  502  0.23910307292E+02  0.59314849674E+02  0.59280816428E+02  0.87302014771E+02  0.41800000000E+01 0.  1.
        -11    1    1    2    0    0 -0.39547586641E+02  0.15374968889E+01 -0.27115941433E+01  0.39670243869E+02  0.00000000000E+00 0. -1.
         11    1    1    2    0    0  0.37335453011E+02 -0.40799669358E+01  0.63315022695E+02  0.73616399535E+02  0.00000000000E+00 0.  1.
</event>
<event>
 7    1  0.2766180E-009  0.1078669E+03  0.7561462E-02  0.1264572E+00
         -1   -1    0    0    0  501 -0.00000000000E+00  0.00000000000E+00  0.65307115901E+02  0.65307115901E+02  0.00000000000E+00 0.  1.
          1   -1    0    0  501    0  0.00000000000E+00 -0.00000000000E+00 -0.21769505179E+03  0.21769505179E+03  0.00000000000E+00 0. -1.
         25    2    1    2    0    0 -0.31892731916E+02 -0.89932563584E+01 -0.68463878809E+02  0.14639995824E+03  0.12509044752E+03 0.  0.
          5    1    3    3  502    0 -0.60263086777E+02  0.37816502868E+02 -0.22305376820E+02  0.74677504994E+02  0.41800000000E+01 0. -1.
         -5    1    3    3    0  502  0.28370354861E+02 -0.46809759226E+02 -0.46158501989E+02  0.71722453246E+02  0.41800000000E+01 0. -1.
        -11    1    1    2    0    0  0.59799474771E+02 -0.13317093301E+01 -0.15203511070E+02  0.61716265129E+02  0.00000000000E+00 0.  1.
         11    1    1    2    0    0 -0.27906742855E+02  0.10324965688E+02 -0.68720546009E+02  0.74885944322E+02  0.00000000000E+00 0. -1.
</event>
<event>
 7    1  0.2826813E-009  0.1115440E+03  0.7561462E-02  0.1257737E+00
          1   -1    0    0  501    0  0.00000000000E+00  0.00000000000E+00  0.19858118911E+03  0.19858118911E+03  0.00000000000E+00 0. -1.
         -1   -1    0    0    0  501 -0.00000000000E+00 -0.00000000000E+00 -0.88576938346E+02  0.88576938346E+02  0.00000000000E+00 0.  1.
         25    2    1    2    0    0 -0.24088612699E+02 -0.70953667666E+02  0.77277814328E+02  0.16503305220E+03  0.12509741610E+03 0.  0.
          5    1    3    3  502    0 -0.49236963549E+02 -0.28678062457E+01  0.77938905479E+02  0.92327938780E+02  0.41800000000E+01 0. -1.
         -5    1    3    3    0  502  0.25148350850E+02 -0.68085861420E+02 -0.66109115087E+00  0.72705113419E+02  0.41800000000E+01 0. -1.
        -11    1    1    2    0    0  0.47289994910E+02  0.38422676123E+02 -0.12051072394E+02  0.62111786360E+02  0.00000000000E+00 0.  1.
         11    1    1    2    0    0 -0.23201382210E+02  0.32530991542E+02  0.44777508835E+02  0.60013288901E+02  0.00000000000E+00 0. -1.
</event>
<event>
 7    1  0.2766180E-009  0.9647586E+02  0.7561462E-02  0.1287886E+00
          1   -1    0    0  501    0  0.00000000000E+00  0.00000000000E+00  0.25322721017E+03  0.25322721017E+03  0.00000000000E+00 0. -1.
         -1   -1    0    0    0  501 -0.00000000000E+00 -0.00000000000E+00 -0.91893632594E+02  0.91893632594E+02  0.00000000000E+00 0.  1.
         25    2    1    2    0    0 -0.35900021369E+02 -0.29562597403E+01 -0.26348640984E+02  0.13280983924E+03  0.12508657606E+03 0.  0.
          5    1    3    3  502    0 -0.64010042011E+02 -0.17129003894E+02 -0.57863041805E+02  0.88069814690E+02  0.41800000000E+01 0.  1.
         -5    1    3    3    0  502  0.28110020643E+02  0.14172744153E+02  0.31514400821E+02  0.44740024547E+02  0.41800000000E+01 0.  1.
        -11    1    1    2    0    0  0.25874519415E+02  0.44820370813E+02  0.70382202135E+02  0.87361380324E+02  0.00000000000E+00 0. -1.
         11    1    1    2    0    0  0.10025501954E+02 -0.41864111073E+02  0.11730001643E+03  0.12494962320E+03  0.00000000000E+00 0.  1.
</event>
<event>
 7    1  0.2766180E-009  0.1140182E+03  0.7561462E-02  0.1253305E+00
         -2   -1    0    0    0  501 -0.00000000000E+00  0.00000000000E+00  0.26442141392E+02  0.26442141392E+02  0.00000000000E+00 0.  1.
          2   -1    0    0  501    0  0.00000000000E+00 -0.00000000000E+00 -0.65494859722E+03  0.65494859722E+03  0.00000000000E+00 0. -1.
         25    2    1    2    0    0 -0.11649626206E+02 -0.64362699945E+02 -0.25625272100E+03  0.29255736204E+03  0.12508430010E+03 0.  0.
          5    1    3    3  502    0 -0.14065774697E+02 -0.94822859455E+02 -0.23825289330E+03  0.25684846556E+03  0.41800000000E+01 0. -1.
         -5    1    3    3    0  502  0.24161484912E+01  0.30460159511E+02 -0.17999827694E+02  0.35708896482E+02  0.41800000000E+01 0. -1.
        -11    1    1    2    0    0 -0.29191807949E+02  0.50099857810E+02 -0.29161161942E+03  0.29732052399E+03  0.00000000000E+00 0. -1.
         11    1    1    2    0    0  0.40841434155E+02  0.14262842134E+02 -0.80642115402E+02  0.91512852573E+02  0.00000000000E+00 0.  1.
</event>
<event>
 7    1  0.2766180E-009  0.1637196E+03  0.7561462E-02  0.1184560E+00
         -1   -1    0    0    0  501 -0.00000000000E+00  0.00000000000E+00  0.66245395035E+03  0.66245395035E+03  0.00000000000E+00 0.  1.
          1   -1    0    0  501    0  0.00000000000E+00 -0.00000000000E+00 -0.51734461082E+02  0.51734461082E+02  0.00000000000E+00 0. -1.
         25    2    1    2    0    0 -0.11711359943E+03  0.28310357421E+02  0.15826320623E+03  0.23497168320E+03  0.12508947978E+03 0.  0.
          5    1    3    3  502    0 -0.12319527947E+03  0.62803227755E+02  0.12353532437E+03  0.18547175275E+03  0.41800000000E+01 0. -1.
         -5    1    3    3    0  502  0.60816800439E+01 -0.34492870333E+02  0.34727881854E+02  0.49499930445E+02  0.41800000000E+01 0. -1.
        -11    1    1    2    0    0  0.61485426901E+02  0.34027518899E+02  0.15379858075E+03  0.16909267638E+03  0.00000000000E+00 0. -1.
         11    1    1    2    0    0  0.55628172529E+02 -0.62337876321E+02  0.29865770229E+03  0.31012405186E+03  0.00000000000E+00 0.  1.
</event>
<event>
 7    1  0.2766180E-009  0.8292914E+02  0.7561462E-02  0.1320939E+00
          1   -1    0    0  501    0  0.00000000000E+00  0.00000000000E+00  0.10250352073E+03  0.10250352073E+03  0.00000000000E+00 0. -1.
         -1   -1    0    0    0  501 -0.00000000000E+00 -0.00000000000E+00 -0.21352529988E+03  0.21352529988E+03  0.00000000000E+00 0.  1.
         25    2    1    2    0    0 -0.45790141581E+02  0.16230784438E+02  0.34722301072E+02  0.13860659457E+03  0.12508386961E+03 0.  0.
          5    1    3    3  502    0 -0.16934638426E+02  0.31313360291E+02 -0.41964755810E+02  0.55188963040E+02  0.41800000000E+01 0.  1.
         -5    1    3    3    0  502 -0.28855503155E+02 -0.15082575853E+02  0.76687056882E+02  0.83417631529E+02  0.41800000000E+01 0.  1.
        -11    1    1    2    0    0 -0.24499663604E+02 -0.10531101035E+02 -0.20299373872E+02  0.33514208707E+02  0.00000000000E+00 0. -1.
         11    1    1    2    0    0  0.70289805185E+02 -0.56996834029E+01 -0.12544470635E+03  0.14390801734E+03  0.00000000000E+00 0.  1.
</event>
<event>
 7    1  0.2766180E-009  0.2689209E+03  0.7561462E-02  0.1101899E+00
          2   -1    0    0  501    0  0.00000000000E+00  0.00000000000E+00  0.80212101411E+03  0.80212101411E+03  0.00000000000E+00 0. -1.
         -2   -1    0    0    0  501 -0.00000000000E+00 -0.00000000000E+00 -0.10244387922E+03  0.10244387922E+03  0.00000000000E+00 0.  1.
         25    2    1    2    0    0 -0.20396684602E+02 -0.25900535300E+03  0.43593237690E+03  0.52267040763E+03  0.12509004822E+03 0.  0.
          5    1    3    3  502    0 -0.31093420672E+02 -0.15343070133E+03  0.14680069506E+03  0.21465250381E+03  0.41800000000E+01 0. -1.
         -5    1    3    3    0  502  0.10696736070E+02 -0.10557465167E+03  0.28913168183E+03  0.30801790382E+03  0.41800000000E+01 0. -1.
        -11    1    1    2    0    0 -0.21984971459E+02  0.20601551461E+03  0.21317082591E+03  0.29726676950E+03  0.00000000000E+00 0.  1.
         11    1    1    2    0    0  0.42381656061E+02  0.52989838395E+02  0.50573932081E+02  0.84627716203E+02  0.00000000000E+00 0. -1.
</event>
<event>
 7    1  0.2766180E-009  0.1088930E+03  0.7561462E-02  0.1262634E+00
         -1   -1    0    0    0  501 -0.00000000000E+00  0.00000000000E+00  0.27905348174E+03  0.27905348174E+03  0.00000000000E+00 0.  1.
          1   -1    0    0  501    0  0.00000000000E+00 -0.00000000000E+00 -0.51077689581E+02  0.51077689581E+02  0.00000000000E+00 0. -1.
         25    2    1    2    0    0 -0.10325149501E+02 -0.27708357624E+02  0.18356300170E+03  0.22409520619E+03  0.12509565958E+03 0.  0.
          5    1    3    3  502    0 -0.66603519180E+02 -0.29508691429E+01  0.10026900906E+03  0.12048270820E+03  0.41800000000E+01 0.  1.
         -5    1    3    3    0  502  0.56278369679E+02 -0.24757488481E+02  0.83293992640E+02  0.10361249799E+03  0.41800000000E+01 0.  1.
        -11    1    1    2    0    0  0.24778541506E+02 -0.24705776682E+02 -0.12813117460E+01  0.35014186845E+02  0.00000000000E+00 0.  1.
         11    1    1    2    0    0 -0.14453392005E+02  0.52414134306E+02  0.45694102201E+02  0.71021778290E+02  0.00000000000E+00 0. -1.
</event>
<event>
 7    1  0.2766180E-009  0.2055662E+03  0.7561462E-02  0.1145126E+00
          2   -1    0    0  501    0  0.00000000000E+00  0.00000000000E+00  0.82628934901E+03  0.82628934901E+03  0.00000000000E+00 0.  1.
         -2   -1    0    0    0  501 -0.00000000000E+00 -0.00000000000E+00 -0.58651192239E+02  0.58651192239E+02  0.00000000000E+00 0. -1.
         25    2    1    2    0    0  0.57518487311E+02  0.18172849191E+03  0.36738019818E+03  0.43237846267E+03  0.12509717750E+03 0.  0.
          5    1    3    3  502    0  0.89772139378E+02  0.13685818246E+03  0.21506776251E+03  0.27029763962E+03  0.41800000000E+01 0.  1.
         -5    1    3    3    0  502 -0.32253652066E+02  0.44870309447E+02  0.15231243567E+03  0.16208082305E+03  0.41800000000E+01 0.  1.
        -11    1    1    2    0    0 -0.11755350301E+02 -0.74203614326E+02  0.71742921832E+02  0.10388171867E+03  0.00000000000E+00 0. -1.
         11    1    1    2    0    0 -0.45763137010E+02 -0.10752487758E+03  0.32851503676E+03  0.34868035991E+03  0.00000000000E+00 0.  1.
</event>
<event>
 7    1  0.2766180E-009  0.2480125E+03  0.7561462E-02  0.1114567E+00
         -1   -1    0    0    0  501 -0.00000000000E+00  0.00000000000E+00  0.17221650594E+03  0.17221650594E+03  0.00000000000E+00 0.  1.
          1   -1    0    0  501    0  0.00000000000E+00 -0.00000000000E+00 -0.44537367759E+03  0.44537367759E+03  0.00000000000E+00 0. -1.
         25    2    1    2    0    0  0.11305719585E+03  0.20037331225E+03 -0.18383198308E+02  0.26251905800E+03  0.12508764942E+03 0.  0.
          5    1    3    3  502    0  0.64924330028E+02  0.11383845514E+02  0.40201413325E+01  0.66169437844E+02  0.41800000000E+01 0. -1.
         -5    1    3    3    0  502  0.48132865826E+02  0.18898946673E+03 -0.22403339641E+02  0.19634962016E+03  0.41800000000E+01 0. -1.
        -11    1    1    2    0    0 -0.51766631933E+02 -0.47693502330E+02 -0.29987674208E+02  0.76509574241E+02  0.00000000000E+00 0.  1.
         11    1    1    2    0    0 -0.61290563921E+02 -0.15267980992E+03 -0.22478629913E+03  0.27856155129E+03  0.00000000000E+00 0. -1.
</event>
<event>
 7    1  0.2766180E-009  0.1290622E+03  0.7561462E-02  0.1228854E+00
         -2   -1    0    0    0  501 -0.00000000000E+00  0.00000000000E+00  0.80767104883E+03  0.80767104883E+03  0.00000000000E+00 0.  1.
          2   -1    0    0  501    0  0.00000000000E+00 -0.00000000000E+00 -0.25798282900E+02  0.25798282900E+02  0.00000000000E+00 0. -1.
         25    2    1    2    0    0  0.69622913824E+02  0.35672065845E+02  0.57711348740E+03  0.59567344982E+03  0.12508810927E+03 0.  0.
          5    1    3    3  502    0 -0.63459436475E+01  0.65273261442E+02  0.27217810851E+03  0.27999868716E+03  0.41800000000E+01 0.  1.
         -5    1    3    3    0  502  0.75968857471E+02 -0.29601195598E+02  0.30493537888E+03  0.31567476266E+03  0.41800000000E+01 0.  1.
        -11    1    1    2    0    0  0.15858831328E+02 -0.17048381574E+02  0.92975142656E+02  0.95846371853E+02  0.00000000000E+00 0.  1.
         11    1    1    2    0    0 -0.85481745152E+02 -0.18623684271E+02  0.11178413588E+03  0.14194951005E+03  0.00000000000E+00 0. -1.
</event>
<event>
 7    1  0.2766180E-009  0.8931835E+02  0.7561462E-02  0.1304511E+00
          1   -1    0    0  501    0  0.00000000000E+00  0.00000000000E+00  0.36590078713E+03  0.36590078713E+03  0.00000000000E+00 0. -1.
         -1   -1    0    0    0  501 -0.00000000000E+00 -0.00000000000E+00 -0.32812794504E+02  0.32812794504E+02  0.00000000000E+00 0.  1.
         25    2    1    2    0    0 -0.31301194120E+01 -0.19033371461E+02  0.20982082224E+03  0.24503774389E+03  0.12508657645E+03 0.  0.
          5    1    3    3  502    0 -0.28220106239E+02  0.24051019552E+02  0.18585120836E+03  0.18955993772E+03  0.41800000000E+01 0. -1.
         -5    1    3    3    0  502  0.25089986827E+02 -0.43084391013E+02  0.23969613877E+02  0.55477806170E+02  0.41800000000E+01 0. -1.
        -11    1    1    2    0    0  0.41555561448E+02  0.30090621228E+02  0.61426766090E+02  0.80034728496E+02  0.00000000000E+00 0.  1.
         11    1    1    2    0    0 -0.38425442036E+02 -0.11057249767E+02  0.61840404295E+02  0.73641109249E+02  0.00000000000E+00 0. -1.
</event>
<event>
 7    1  0.2766180E-009  0.1137978E+03  0.7561462E-02  0.1253694E+00
         -1   -1    0    0    0  501 -0.00000000000E+00  0.00000000000E+00  0.38865202616E+02  0.38865202616E+02  0.00000000000E+00 0. -1.
          1   -1    0    0  501    0  0.00000000000E+00 -0.00000000000E+00 -0.56331909315E+03  0.56331909315E+03  0.00000000000E+00 0.  1.
         25    2    1    2    0    0 -0.11726450110E+02  0.95850337962E+02 -0.22600471739E+03  0.27577222042E+03  0.12508952136E+03 0.  0.
          5    1    3    3  502    0  0.15076958948E+00  0.11694329564E+02 -0.17728448013E+03  0.17771898990E+03  0.41800000000E+01 0.  1.
         -5    1    3    3    0  502 -0.11877219700E+02  0.84156008398E+02 -0.48720237253E+02  0.98053230519E+02  0.41800000000E+01 0.  1.
        -11    1    1    2    0    0  0.28066534888E+02  0.44879055756E+01 -0.43727749622E+02  0.52153501935E+02  0.00000000000E+00 0.  1.
         11    1    1    2    0    0 -0.16340084778E+02 -0.10033824354E+03 -0.25472142352E+03  0.27425857340E+03  0.00000000000E+00 0. -1.
</event>
<event>
 7    1  0.2766180E-009  0.7292074E+02  0.7561462E-02  0.1350433E+00
          1   -1    0    0  501    0  0.00000000000E+00  0.00000000000E+00  0.33054403996E+02  0.33054403996E+02  0.00000000000E+00 0. -1.
         -1   -1    0    0    0  501 -0.00000000000E+00 -0.00000000000E+00 -0.47790833110E+03  0.47790833110E+03  0.00000000000E+00 0.  1.
         25    2    1    2    0    0  0.32931572020E+02 -0.12887485427E+02 -0.14198270473E+03  0.19250258895E+03  0.12509029776E+03 0.  0.
          5    1    3    3  502    0  0.18423141396E+02 -0.29237615525E+02 -0.16007811539E+03  0.16381918607E+03  0.41800000000E+01 0. -1.
         -5    1    3    3    0  502  0.14508430624E+02  0.16350130098E+02  0.18095410660E+02  0.28683402872E+02  0.41800000000E+01 0. -1.
        -11    1    1    2    0    0 -0.28763378743E+02  0.46624476024E+02 -0.24747065404E+03  0.25346182816E+03  0.00000000000E+00 0.  1.
         11    1    1    2    0    0 -0.41681932771E+01 -0.33736990597E+02 -0.55400568335E+02  0.64998317990E+02  0.00000000000E+00 0. -1.
</event>
<event>
 7    1  0.2766180E-009  0.1206658E+03  0.7561462E-02  0.1242003E+00
         -3   -1    0    0    0  501 -0.00000000000E+00  0.00000000000E+00  0.14837431364E+03  0.14837431364E+03  0.00000000000E+00 0.  1.
          3   -1    0    0  501    0  0.00000000000E+00 -0.00000000000E+00 -0.14690278554E+03  0.14690278554E+03  0.00000000000E+00 0. -1.
         25    2    1    2    0    0  0.75116260834E+02 -0.33856685071E+02  0.57178525687E+02  0.16032940667E+03  0.12508959620E+03 0.  0.
          5    1    3    3  502    0 -0.25988285095E+02 -0.20029269054E+02 -0.13921569052E+02  0.35886558290E+02  0.41800000000E+01 0.  1.
         -5    1    3    3    0  502  0.10110454593E+03 -0.13827416018E+02  0.71100094739E+02  0.12444284838E+03  0.41800000000E+01 0.  1.
        -11    1    1    2    0    0 -0.39519541647E+02 -0.17838067314E+02  0.95575224524E+01  0.44399741586E+02  0.00000000000E+00 0.  1.
         11    1    1    2    0    0 -0.35596719187E+02  0.51694752385E+02 -0.65264520038E+02  0.90547950925E+02  0.00000000000E+00 0. -1.
</event>
<event>
 7    1  0.2766180E-009  0.1884012E+03  0.7561462E-02  0.1159911E+00
         -2   -1    0    0    0  501 -0.00000000000E+00  0.00000000000E+00  0.41097711657E+02  0.41097711657E+02  0.00000000000E+00 0. -1.
          2   -1    0    0  501    0  0.00000000000E+00 -0.00000000000E+00 -0.10241682276E+04  0.10241682276E+04  0.00000000000E+00 0.  1.
         25    2    1    2    0    0  0.12942325924E+01 -0.16266072436E+03 -0.66933430878E+03  0.70008312091E+03  0.12509105879E+03 0.  0.
          5    1    3    3  502    0  0.28504517455E+02 -0.19823780867E+01 -0.36246761103E+02  0.46343688121E+02  0.41800000000E+01 0.  1.
         -5    1    3    3    0  502 -0.27210284862E+02 -0.16067834627E+03 -0.63308754768E+03  0.65373943279E+03  0.41800000000E+01 0.  1.
        -11    1    1    2    0    0 -0.31369714045E+02  0.16041720980E+02 -0.82818789364E+02  0.90001931329E+02  0.00000000000E+00 0. -1.
         11    1    1    2    0    0  0.30075481452E+02  0.14661900337E+03 -0.23091741779E+03  0.27518088700E+03  0.00000000000E+00 0.  1.
</event>
<event>
 7    1  0.2766180E-009  0.9731324E+02  0.7561462E-02  0.1286049E+00
         -2   -1    0    0    0  501 -0.00000000000E+00  0.00000000000E+00  0.20736486992E+03  0.20736486992E+03  0.00000000000E+00 0.  1.
          2   -1    0    0  501    0  0.00000000000E+00 -0.00000000000E+00 -0.63655873654E+02  0.63655873654E+02  0.00000000000E+00 0. -1.
         25    2    1    2    0    0 -0.17105575799E+01  0.32238047478E+02  0.44535242358E+02  0.13665053708E+03  0.12509102190E+03 0.  0.
          5    1    3    3  502    0  0.51532301820E+02  0.13535582359E+02 -0.13987732917E+02  0.55244177909E+02  0.41800000000E+01 0. -1.
         -5    1    3    3    0  502 -0.53242859400E+02  0.18702465120E+02  0.58522975275E+02  0.81406359173E+02  0.41800000000E+01 0. -1.
        -11    1    1    2    0    0 -0.33859680537E+02  0.36631579023E+01  0.64939382474E+02  0.73328167085E+02  0.00000000000E+00 0.  1.
         11    1    1    2    0    0  0.35570238117E+02 -0.35901205381E+02  0.34234371436E+02  0.61042039408E+02  0.00000000000E+00 0. -1.
</event>
<event>
 7    1  0.2766180E-009  0.1041926E+03  0.7561462E-02  0.1271719E+00
         -2   -1    0    0    0  501 -0.00000000000E+00  0.00000000000E+00  0.11947719585E+02  0.11947719585E+02  0.00000000000E+00 0.  1.
          2   -1    0    0  501    0  0.00000000000E+00 -0.00000000000E+00 -0.98128889077E+03  0.98128889077E+03  0.00000000000E+00 0. -1.
         25    2    1    2    0    0 -0.63336287757E+01  0.21104353784E+02 -0.56550739299E+03  0.57959811646E+03  0.12509938640E+03 0.  0.
          5    1    3    3  502    0 -0.62838455765E+02  0.14740095340E+02 -0.38201401600E+03  0.38745080043E+03  0.41800000000E+01 0. -1.
         -5    1    3    3    0  502  0.56504826989E+02  0.63642584439E+01 -0.18349337699E+03  0.19214731603E+03  0.41800000000E+01 0. -1.
        -11    1    1    2    0    0 -0.38556747793E+02 -0.44611180925E+01 -0.23350984780E+03  0.23671369499E+03  0.00000000000E+00 0. -1.
         11    1    1    2    0    0  0.44890376569E+02 -0.16643235692E+02 -0.17032393040E+03  0.17692479891E+03  0.00000000000E+00 0.  1.
</event>
<event>
 7    1  0.2766180E-009  0.1078135E+03  0.7561462E-02  0.1264673E+00
         -1   -1    0    0    0  501 -0.00000000000E+00  0.00000000000E+00  0.75216567396E+02  0.75216567396E+02  0.00000000000E+00 0.  1.
          1   -1    0    0  501    0  0.00000000000E+00 -0.00000000000E+00 -0.16338742941E+03  0.16338742941E+03  0.00000000000E+00 0. -1.
         25    2    1    2    0    0  0.19132083589E+01 -0.19038387175E+02 -0.65314982709E+02  0.14240559865E+03  0.12508871655E+03 0.  0.
          5    1    3    3  502    0 -0.59202016432E+02 -0.69231711927E+01 -0.13487722906E+02  0.61255204825E+02  0.41800000000E+01 0.  1.
         -5    1    3    3    0  502  0.61115224790E+02 -0.12115215982E+02 -0.51827259803E+02  0.81150393826E+02  0.41800000000E+01 0.  1.
        -11    1    1    2    0    0  0.23302870335E+02 -0.30179526600E+02 -0.10123136562E+02  0.39450037839E+02  0.00000000000E+00 0.  1.
         11    1    1    2    0    0 -0.25216078694E+02  0.49217913775E+02 -0.12732742746E+02  0.56748360319E+02  0.00000000000E+00 0. -1.
</event>
<event>
 7    1  0.2766180E-009  0.1355187E+03  0.7561462E-02  0.1219489E+00
          2   -1    0    0  501    0  0.00000000000E+00  0.00000000000E+00  0.77802766166E+03  0.77802766166E+03  0.00000000000E+00 0. -1.
         -2   -1    0    0    0  501 -0.00000000000E+00 -0.00000000000E+00 -0.26104571305E+02  0.26104571305E+02  0.00000000000E+00 0.  1.
         25    2    1    2    0    0 -0.87689026589E+02  0.56887785829E+02  0.37552628300E+03  0.40938181493E+03  0.12509154891E+03 0.  0.
          5    1    3    3  502    0  0.22627640973E+02 -0.15527196340E+02  0.38888695331E+02  0.47779775918E+02  0.41800000000E+01 0.  1.
         -5    1    3    3    0  502 -0.11031666756E+03  0.72414982169E+02  0.33663758767E+03  0.36160203901E+03  0.41800000000E+01 0.  1.
        -11    1    1    2    0    0  0.77843300478E+02 -0.62579224697E+02  0.36585551109E+03  0.37924397660E+03  0.00000000000E+00 0. -1.
         11    1    1    2    0    0  0.98457261107E+01  0.56914388679E+01  0.10541296258E+02  0.15506441430E+02  0.00000000000E+00 0.  1.
</event>
<event>
 7    1  0.2766180E-009  0.1093425E+03  0.7561462E-02  0.1261792E+00
          2   -1    0    0  501    0  0.00000000000E+00  0.00000000000E+00  0.67260196564E+03  0.67260196564E+03  0.00000000000E+00 0. -1.
         -2   -1    0    0    0  501 -0.00000000000E+00 -0.00000000000E+00 -0.22512076744E+02  0.22512076744E+02  0.00000000000E+00 0.  1.
         25    2    1    2    0    0  0.52627482303E+02 -0.13519245409E+02  0.29138649657E+03  0.32171424338E+03  0.12506615098E+03 0.  0.
          5    1    3    3  502    0  0.36619144618E+02  0.42746690114E+02  0.57445475273E+02  0.80533820830E+02  0.41800000000E+01 0. -1.
         -5    1    3    3    0  502  0.16008337685E+02 -0.56265935522E+02  0.23394102130E+03  0.24118042255E+03  0.41800000000E+01 0. -1.
        -11    1    1    2    0    0 -0.24120635691E+02 -0.37828784780E+02  0.14607248214E+03  0.15280704193E+03  0.00000000000E+00 0.  1.
         11    1    1    2    0    0 -0.28506846611E+02  0.51348030189E+02  0.21263091018E+03  0.22059275707E+03  0.00000000000E+00 0. -1.
</event>
<event>
 7    1  0.2766180E-009  0.9572240E+02  0.7561462E-02  0.1289557E+00
         -1   -1    0    0    0  501 -0.00000000000E+00  0.00000000000E+00  0.10221786542E+03  0.10221786542E+03  0.00000000000E+00 0.  1.
          1   -1    0    0  501    0  0.00000000000E+00 -0.00000000000E+00 -0.27271704548E+03  0.27271704548E+03  0.00000000000E+00 0. -1.
         25    2    1    2    0    0 -0.28428589789E+02  0.22251888193E+01 -0.22859921414E+03  0.26213460346E+03  0.12507523113E+03 0.  0.
          5    1    3    3  502    0 -0.13873571403E+02  0.49676384164E+02 -0.19573731363E+03  0.20246181733E+03  0.41800000000E+01 0. -1.
         -5    1    3    3    0  502 -0.14555018385E+02 -0.47451195344E+02 -0.32861900510E+02  0.59672786133E+02  0.41800000000E+01 0. -1.
        -11    1    1    2    0    0  0.12573989161E+02 -0.43707630531E+02  0.50121384366E+02  0.67680243357E+02  0.00000000000E+00 0. -1.
         11    1    1    2    0    0  0.15854600628E+02  0.41482441712E+02  0.79786497251E+01  0.45120064083E+02  0.00000000000E+00 0.  1.
</event>
<event>
 7    1  0.2766180E-009  0.7470081E+02  0.7561462E-02  0.1344800E+00
          1   -1    0    0  501    0  0.00000000000E+00  0.00000000000E+00  0.20333754307E+03  0.20333754307E+03  0.00000000000E+00 0. -1.
         -1   -1    0    0    0  501 -0.00000000000E+00 -0.00000000000E+00 -0.73011854461E+02  0.73011854461E+02  0.00000000000E+00 0.  1.
         25    2    1    2    0    0  0.15285685258E+02 -0.27602790403E+02  0.12482178947E+03  0.17950936106E+03  0.12509022891E+03 0.  0.
          5    1    3    3  502    0 -0.64584003589E+01  0.20589829328E+02  0.12454812075E+03  0.12647275908E+03  0.41800000000E+01 0.  1.
         -5    1    3    3    0  502  0.21744085617E+02 -0.48192619731E+02  0.27366872896E+00  0.53036601987E+02  0.41800000000E+01 0.  1.
        -11    1    1    2    0    0  0.26685034045E+02  0.67772861966E+01  0.32635643647E+02  0.42697867469E+02  0.00000000000E+00 0. -1.
         11    1    1    2    0    0 -0.41970719303E+02  0.20825504206E+02 -0.27131744509E+02  0.54142169003E+02  0.00000000000E+00 0.  1.
</event>
<event>
 7    1  0.2766180E-009  0.2330004E+03  0.7561462E-02  0.1124546E+00
         -2   -1    0    0    0  501 -0.00000000000E+00  0.00000000000E+00  0.17588598093E+03  0.17588598093E+03  0.00000000000E+00 0.  1.
          2   -1    0    0  501    0  0.00000000000E+00 -0.00000000000E+00 -0.37491414451E+03  0.37491414451E+03  0.00000000000E+00 0. -1.
         25    2    1    2    0    0 -0.17545491811E+03 -0.14657840591E+03 -0.59995862234E+02  0.26742666714E+03  0.12509141235E+03 0.  0.
          5    1    3    3  502    0  0.13087469880E+01 -0.18249623782E+02  0.26483168261E+02  0.32459084830E+02  0.41800000000E+01 0. -1.
         -5    1    3    3    0  502 -0.17676366510E+03 -0.12832878213E+03 -0.86479030495E+02  0.23496758231E+03  0.41800000000E+01 0. -1.
        -11    1    1    2    0    0  0.14841163518E+03  0.12021727081E+03 -0.67655698425E+02  0.20262156644E+03  0.00000000000E+00 0.  1.
         11    1    1    2    0    0  0.27043282934E+02  0.26361135097E+02 -0.71376602918E+02  0.80751891864E+02  0.00000000000E+00 0. -1.
</event>
<event>
 7    1  0.2766180E-009  0.2487419E+03  0.7561462E-02  0.1114103E+00
         -2   -1    0    0    0  501 -0.00000000000E+00  0.00000000000E+00  0.26701769880E+02  0.26701769880E+02  0.00000000000E+00 0.  1.
          2   -1    0    0  501    0  0.00000000000E+00 -0.00000000000E+00 -0.24264121084E+04  0.24264121084E+04  0.00000000000E+00 0. -1.
         25    2    1    2    0    0 -0.49744677653E+02 -0.22239260238E+03 -0.10887095973E+04  0.11193164729E+04  0.12509107325E+03 0.  0.
          5    1    3    3  502    0 -0.36620108787E+02 -0.50587300600E+01 -0.25201686111E+03  0.25474809872E+03  0.41800000000E+01 0.  1.
         -5    1    3    3    0  502 -0.13124568865E+02 -0.21733387232E+03 -0.83669273623E+03  0.86456837418E+03  0.41800000000E+01 0.  1.
        -11    1    1    2    0    0  0.90317560585E+01 -0.57873002432E+01 -0.27162390941E+02  0.29203783029E+02  0.00000000000E+00 0.  1.
         11    1    1    2    0    0  0.40712921594E+02  0.22817990262E+03 -0.12838383502E+04  0.13045936223E+04  0.00000000000E+00 0. -1.
</event>
<event>
 7    1  0.2766180E-009  0.1099708E+03  0.7561462E-02  0.1260624E+00
         -2   -1    0    0    0  501 -0.00000000000E+00  0.00000000000E+00  0.48813557837E+02  0.48813557837E+02  0.00000000000E+00 0.  1.
          2   -1    0    0  501    0  0.00000000000E+00 -0.00000000000E+00 -0.33911388241E+03  0.33911388241E+03  0.00000000000E+00 0. -1.
         25    2    1    2    0    0  0.55450735965E+02  0.32580303019E+02 -0.12096598393E+03  0.18551669547E+03  0.12508962693E+03 0.  0.
          5    1    3    3  502    0 -0.26801275770E+02  0.45756932437E+02 -0.26266931630E+02  0.59324778517E+02  0.41800000000E+01 0.  1.
         -5    1    3    3    0  502  0.82252011735E+02 -0.13176629418E+02 -0.94699052303E+02  0.12619191695E+03  0.41800000000E+01 0.  1.
        -11    1    1    2    0    0 -0.22883569105E+02 -0.43368539680E+02 -0.15928462770E+03  0.16666157502E+03  0.00000000000E+00 0.  1.
         11    1    1    2    0    0 -0.32567166861E+02  0.10788236661E+02 -0.10049712941E+02  0.35749169749E+02  0.00000000000E+00 0. -1.
</event>
<event>
 7    1  0.2766180E-009  0.7844423E+02  0.7561462E-02  0.1333525E+00
         -2   -1    0    0    0  501 -0.00000000000E+00  0.00000000000E+00  0.21387801097E+03  0.21387801097E+03  0.00000000000E+00 0.  1.
          2   -1    0    0  501    0  0.00000000000E+00 -0.00000000000E+00 -0.62391615013E+02  0.62391615013E+02  0.00000000000E+00 0. -1.
         25    2    1    2    0    0 -0.29498457420E+02 -0.57842819340E+01  0.53084926133E+02  0.13917193350E+03  0.12508877161E+03 0.  0.
          5    1    3    3  502    0  0.16486954556E+02 -0.27860319902E+02 -0.28186623006E+02  0.43127429926E+02  0.41800000000E+01 0.  1.
         -5    1    3    3    0  502 -0.45985411975E+02  0.22076037968E+02  0.81271549139E+02  0.96044503572E+02  0.41800000000E+01 0.  1.
        -11    1    1    2    0    0 -0.10623295141E+02 -0.21885786570E+02 -0.30774494539E+01  0.24521679155E+02  0.00000000000E+00 0. -1.
         11    1    1    2    0    0  0.40121752561E+02  0.27670068504E+02  0.10147891928E+03  0.11257601333E+03  0.00000000000E+00 0.  1.
</event>
<event>
 7    1  0.2766180E-009  0.1175506E+03  0.7561462E-02  0.1247193E+00
         -1   -1    0    0    0  501 -0.00000000000E+00  0.00000000000E+00  0.29530610726E+03  0.29530610726E+03  0.00000000000E+00 0.  1.
          1   -1    0    0  501    0  0.00000000000E+00 -0.00000000000E+00 -0.55422485512E+02  0.55422485512E+02  0.00000000000E+00 0. -1.
         25    2    1    2    0    0  0.21964966640E+02  0.62079775527E+02  0.15279504331E+03  0.20815924844E+03  0.12509032401E+03 0.  0.
          5    1    3    3  502    0 -0.20324196624E+02 -0.20704802094E+02  0.93094417062E+02  0.97600228926E+02  0.41800000000E+01 0.  1.
         -5    1    3    3    0  502  0.42289163264E+02  0.82784577621E+02  0.59700626246E+02  0.11055901951E+03  0.41800000000E+01 0.  1.
        -11    1    1    2    0    0 -0.54221003607E+02 -0.16086156475E+02  0.47299006834E+02  0.73728405040E+02  0.00000000000E+00 0.  1.
         11    1    1    2    0    0  0.32256036967E+02 -0.45993619052E+02  0.39789571605E+02  0.68840939293E+02  0.00000000000E+00 0. -1.
</event>
<event>
 7    1  0.2766180E-009  0.2279363E+03  0.7561462E-02  0.1128101E+00
          1   -1    0    0  501    0  0.00000000000E+00  0.00000000000E+00  0.55888978702E+03  0.55888978702E+03  0.00000000000E+00 0. -1.
         -1   -1    0    0    0  501 -0.00000000000E+00 -0.00000000000E+00 -0.10102797368E+03  0.10102797368E+03  0.00000000000E+00 0.  1.
         25    2    1    2    0    0  0.20731560097E+03  0.42131300049E+02  0.24797092523E+03  0.34913035635E+03  0.12509045174E+03 0.  0.
          5    1    3    3  502    0  0.22181051800E+03  0.48418181740E+02  0.24167881325E+03  0.33161777303E+03  0.41800000000E+01 0.  1.
         -5    1    3    3    0  502 -0.14494917035E+02 -0.62868816908E+01  0.62921119868E+01  0.17512583319E+02  0.41800000000E+01 0.  1.
        -11    1    1    2    0    0 -0.13626604201E+03 -0.18148894533E+02  0.75364181648E+02  0.15677237146E+03  0.00000000000E+00 0.  1.
         11    1    1    2    0    0 -0.71049558954E+02 -0.23982405516E+02  0.13452670646E+03  0.15401503288E+03  0.00000000000E+00 0. -1.
</event>
<event>
 7    1  0.2766180E-009  0.1450679E+03  0.7561462E-02  0.1206668E+00
          1   -1    0    0  501    0  0.00000000000E+00  0.00000000000E+00  0.34672936456E+03  0.34672936456E+03  0.00000000000E+00 0. -1.
         -1   -1    0    0    0  501 -0.00000000000E+00 -0.00000000000E+00 -0.63733333560E+02  0.63733333560E+02  0.00000000000E+00 0.  1.
         25    2    1    2    0    0 -0.34338433982E+02 -0.94062744858E+02  0.14113671874E+03  0.21352791814E+03  0.12509064886E+03 0.  0.
          5    1    3    3  502    0  0.40867672587E+02 -0.55391463491E+02  0.94118041142E+02  0.11667929962E+03  0.41800000000E+01 0.  1.
         -5    1    3    3    0  502 -0.75206106569E+02 -0.38671281367E+02  0.47018677598E+02  0.96848618529E+02  0.41800000000E+01 0.  1.
        -11    1    1    2    0    0  0.77279095705E+01  0.10674583057E+03  0.10814282629E+03  0.15214882125E+03  0.00000000000E+00 0.  1.
         11    1    1    2    0    0  0.26610524411E+02 -0.12683085711E+02  0.33716485970E+02  0.44785958723E+02  0.00000000000E+00 0. -1.
</event>
<event>
 6    1  0.2766180E-009  0.9805593E+02  0.7561462E-02  0.1284438E+00
         -2   -1    0    0    0  501 -0.00000000000E+00  0.00000000000E+00  0.42550020501E+02  0.42550020501E+02  0.00000000000E+00 0.  1.
          2   -1    0    0  501    0  0.00000000000E+00 -0.00000000000E+00 -0.39615682037E+03  0.39615682037E+03  0.00000000000E+00 0. -1.
          5    1    1    2  502    0 -0.45963218352E+02 -0.52294054314E+02 -0.12917520640E+02  0.70933915001E+02  0.41800000000E+01 0. -1.
         -5    1    1    2    0  502  0.23556365032E+02  0.33881861759E+02 -0.71964451034E+02  0.83061648806E+02  0.41800000000E+01 0. -1.
        -11    1    1    2    0    0 -0.18117045327E+02  0.36315937651E+02 -0.68295358059E+02  0.79443883284E+02  0.00000000000E+00 0.  1.
         11    1    1    2    0    0  0.40523898648E+02 -0.17903745095E+02 -0.20042947014E+03  0.20526739378E+03  0.00000000000E+00 0. -1.
</event>
<event>
 7    1  0.2766180E-009  0.7183772E+02  0.7561462E-02  0.1353953E+00
         -2   -1    0    0    0  501 -0.00000000000E+00  0.00000000000E+00  0.20287179547E+02  0.20287179547E+02  0.00000000000E+00 0.  1.
          2   -1    0    0  501    0  0.00000000000E+00 -0.00000000000E+00 -0.69364647363E+03  0.69364647363E+03  0.00000000000E+00 0. -1.
         25    2    1    2    0    0 -0.34340018687E+02 -0.15183046560E+02 -0.29785343919E+03  0.32522982139E+03  0.12509198093E+03 0.  0.
          5    1    3    3  502    0 -0.31881658931E+02 -0.32235655325E+01 -0.57279398389E+01  0.32819403495E+02  0.41800000000E+01 0.  1.
         -5    1    3    3    0  502 -0.24583597555E+01 -0.11959481027E+02 -0.29212549936E+03  0.29241041789E+03  0.41800000000E+01 0.  1.
        -11    1    1    2    0    0 -0.11195553117E+01  0.49261373380E+02 -0.14957367049E+03  0.15748085348E+03  0.00000000000E+00 0. -1.
         11    1    1    2    0    0  0.35459573998E+02 -0.34078326820E+02 -0.22593218440E+03  0.23122297830E+03  0.00000000000E+00 0.  1.
</event>
<event>
 7    1  0.2766180E-009  0.1457814E+03  0.7561462E-02  0.1205755E+00
         -1   -1    0    0    0  501 -0.00000000000E+00  0.00000000000E+00  0.84980922764E+02  0.84980922764E+02  0.00000000000E+00 0.  1.
          1   -1    0    0  501    0  0.00000000000E+00 -0.00000000000E+00 -0.28831571912E+03  0.28831571912E+03  0.00000000000E+00 0. -1.
         25    2    1    2    0    0  0.98575069119E+02  0.52738256580E+02 -0.11640859828E+03  0.20419717549E+03  0.12508859567E+03 0.  0.
          5    1    3    3  502    0  0.45215043446E+02 -0.35444531103E+02 -0.71163889002E+02  0.91555919726E+02  0.41800000000E+01 0. -1.
         -5    1    3    3    0  502  0.53360025673E+02  0.88182787684E+02 -0.45244709277E+02  0.11264125577E+03  0.41800000000E+01 0. -1.
        -11    1    1    2    0    0 -0.37515472354E+02  0.14280043220E+02  0.44381040828E+01  0.40385976132E+02  0.00000000000E+00 0.  1.
         11    1    1    2    0    0 -0.61059596766E+02 -0.67018299800E+02 -0.91364302160E+02  0.12871349026E+03  0.00000000000E+00 0. -1.
</event>
<event>
 7    1  0.2766180E-009  0.1046926E+03  0.7561462E-02  0.1270726E+00
         -1   -1    0    0    0  501 -0.00000000000E+00  0.00000000000E+00  0.33154927959E+02  0.33154927959E+02  0.00000000000E+00 0.  1.
          1   -1    0    0  501    0  0.00000000000E+00 -0.00000000000E+00 -0.38231362701E+03  0.38231362701E+03  0.00000000000E+00 0. -1.
         25    2    1    2    0    0 -0.22889950533E+02  0.24234622881E+02 -0.19400575856E+03  0.23323126750E+03  0.12508926014E+03 0.  0.
          5    1    3    3  502    0  0.27431074357E+02  0.56039724045E+02 -0.13748160560E+03  0.15103502504E+03  0.41800000000E+01 0. -1.
         -5    1    3    3    0  502 -0.50321024890E+02 -0.31805101164E+02 -0.56524152963E+02  0.82196242458E+02  0.41800000000E+01 0. -1.
        -11    1    1    2    0    0  0.53307848378E+02 -0.14662459610E+02 -0.13114208009E+03  0.14231991987E+03  0.00000000000E+00 0. -1.
         11    1    1    2    0    0 -0.30417897846E+02 -0.95721632712E+01 -0.24010860392E+02  0.39917367596E+02  0.00000000000E+00 0.  1.
</event>
<event>
 7    1  0.2766180E-009  0.6230616E+02  0.7561462E-02  0.1388401E+00
          2   -1    0    0  501    0  0.00000000000E+00  0.00000000000E+00  0.32825844556E+03  0.32825844556E+03  0.00000000000E+00 0. -1.
         -2   -1    0    0    0  501 -0.00000000000E+00 -0.00000000000E+00 -0.47604607342E+02  0.47604607342E+02  0.00000000000E+00 0.  1.
         25    2    1    2    0    0  0.33825434828E+02 -0.12183767180E+02  0.22228273746E+03  0.25758407241E+03  0.12508930715E+03 0.  0.
          5    1    3    3  502    0  0.23253074313E+02 -0.18563818979E+02 -0.45395033817E+01  0.30387502876E+02  0.41800000000E+01 0. -1.
         -5    1    3    3    0  502  0.10572360515E+02  0.63800517990E+01  0.22682224084E+03  0.22719656954E+03  0.41800000000E+01 0. -1.
        -11    1    1    2    0    0  0.60512903367E+00  0.38305998154E+02 -0.79422379197E+01  0.39125373083E+02  0.00000000000E+00 0.  1.
         11    1    1    2    0    0 -0.34430563862E+02 -0.26122230974E+02  0.66313338676E+02  0.79153607405E+02  0.00000000000E+00 0. -1.
</event>
<event>
 7    1  0.2766180E-009  0.1115165E+03  0.7561462E-02  0.1257787E+00
         -1   -1    0    0    0  501 -0.00000000000E+00  0.00000000000E+00  0.60090578197E+02  0.60090578197E+02  0.00000000000E+00 0.  1.
          1   -1    0    0  501    0  0.00000000000E+00 -0.00000000000E+00 -0.44985846121E+03  0.44985846121E+03  0.00000000000E+00 0. -1.
         25    2    1    2    0    0 -0.43701413895E+02  0.55207435329E+02 -0.50862342615E+02  0.15229101201E+03  0.12509156626E+03 0.  0.
          5    1    3    3  502    0 -0.88469911506E+01  0.88970692239E+02 -0.52106313560E+02  0.10356926978E+03  0.41800000000E+01 0.  1.
         -5    1    3    3    0  502 -0.34854422744E+02 -0.33763256910E+02  0.12439709454E+01  0.48721742228E+02  0.41800000000E+01 0.  1.
        -11    1    1    2    0    0  0.31310330763E+02 -0.62881156468E+02 -0.33538731654E+03  0.34266460096E+03  0.00000000000E+00 0.  1.
         11    1    1    2    0    0  0.12391083132E+02  0.76737211390E+01 -0.35182238532E+01  0.14993426439E+02  0.00000000000E+00 0. -1.
</event>
<event>
 7    1  0.2766180E-009  0.1363106E+03  0.7561462E-02  0.1218381E+00
         -2   -1    0    0    0  501 -0.00000000000E+00  0.00000000000E+00  0.89085233589E+02  0.89085233589E+02  0.00000000000E+00 0.  1.
          2   -1    0    0  501    0  0.00000000000E+00 -0.00000000000E+00 -0.40021358728E+03  0.40021358728E+03  0.00000000000E+00 0. -1.
         25    2    1    2    0    0  0.95839911569E+01 -0.10398618067E+03 -0.30982128923E+03  0.35005939913E+03  0.12508945999E+03 0.  0.
          5    1    3    3  502    0 -0.25823325946E+02 -0.10191775470E+01 -0.17386769428E+03  0.17582755871E+03  0.41800000000E+01 0.  1.
         -5    1    3    3    0  502  0.35407317102E+02 -0.10296700312E+03 -0.13595359494E+03  0.17423184042E+03  0.41800000000E+01 0.  1.
        -11    1    1    2    0    0  0.22047971038E+02  0.10351974902E+03  0.83294374100E+01  0.10616887958E+03  0.00000000000E+00 0. -1.
         11    1    1    2    0    0 -0.31631962195E+02  0.46643165637E+00 -0.96365018726E+01  0.33070542166E+02  0.00000000000E+00 0.  1.
</event>
<event>
 7    1  0.2766180E-009  0.1442550E+03  0.7561462E-02  0.1207716E+00
          2   -1    0    0  501    0  0.00000000000E+00  0.00000000000E+00  0.12037240953E+04  0.12037240953E+04  0.00000000000E+00 0. -1.
         -2   -1    0    0    0  501 -0.00000000000E+00 -0.00000000000E+00 -0.19292780100E+02  0.19292780100E+02  0.00000000000E+00 0.  1.
         25    2    1    2    0    0  0.86321194960E+02  0.61663966092E+02  0.70016344009E+03  0.71911827855E+03  0.12509381397E+03 0.  0.
          5    1    3    3  502    0  0.11794288705E+03  0.44586447492E+02  0.58307922616E+03  0.59657131366E+03  0.41800000000E+01 0.  1.
         -5    1    3    3    0  502 -0.31621692085E+02  0.17077518599E+02  0.11708421393E+03  0.12254696489E+03  0.41800000000E+01 0.  1.
        -11    1    1    2    0    0 -0.87015073131E+02 -0.73750321650E+02  0.47539840795E+03  0.48889096860E+03  0.00000000000E+00 0. -1.
         11    1    1    2    0    0  0.69387817042E+00  0.12086355559E+02  0.88694671230E+01  0.15007628215E+02  0.00000000000E+00 0.  1.
</event>
<event>
 7    1  0.2766180E-009  0.1133476E+03  0.7561462E-02  0.1254493E+00
          3   -1    0    0  501    0  0.00000000000E+00  0.00000000000E+00  0.28060832297E+03  0.28060832297E+03  0.00000000000E+00 0. -1.
         -3   -1    0    0    0  501 -0.00000000000E+00 -0.00000000000E+00 -0.54326484478E+02  0.54326484478E+02  0.00000000000E+00 0.  1.
         25    2    1    2    0    0  0.30463672599E+02 -0.17309945858E+02  0.18324088386E+03  0.22461800848E+03  0.12509339968E+03 0.  0.
          5    1    3    3  502    0 -0.46754948851E+02  0.36527742348E+01  0.90840515557E+02  0.10231734784E+03  0.41800000000E+01 0. -1.
         -5    1    3    3    0  502  0.77218621451E+02 -0.20962720093E+02  0.92400368301E+02  0.12230066065E+03  0.41800000000E+01 0. -1.
        -11    1    1    2    0    0 -0.54836079453E+02  0.38655372403E+02  0.18271202125E+02  0.69534669428E+02  0.00000000000E+00 0. -1.
         11    1    1    2    0    0  0.24372406854E+02 -0.21345426545E+02  0.24769752513E+02  0.40782129540E+02  0.00000000000E+00 0.  1.
</event>
<event>
 7    1  0.2766180E-009  0.1150775E+03  0.7561462E-02  0.1251446E+00
         -4   -1    0    0    0  501 -0.00000000000E+00  0.00000000000E+00  0.29797311900E+03  0.29797311900E+03  0.00000000000E+00 0.  1.
          4   -1    0    0  501    0  0.00000000000E+00 -0.00000000000E+00 -0.49527576208E+02  0.49527576208E+02  0.00000000000E+00 0. -1.
         25    2    1    2    0    0  0.26572534800E+02  0.41458986172E+02  0.10287043322E+03  0.16927368300E+03  0.12508519731E+03 0.  0.
          5    1    3    3  502    0  0.47862691516E+02  0.75422483973E+02  0.48918604698E+02  0.10193081288E+03  0.41800000000E+01 0. -1.
         -5    1    3    3    0  502 -0.21290156717E+02 -0.33963497801E+02  0.53951828525E+02  0.67342870128E+02  0.41800000000E+01 0. -1.
        -11    1    1    2    0    0 -0.32019944316E+02  0.20636476718E+02  0.74614973267E+02  0.83776698675E+02  0.00000000000E+00 0.  1.
         11    1    1    2    0    0  0.54474095164E+01 -0.62095462890E+02  0.70960136306E+02  0.94450313533E+02  0.00000000000E+00 0. -1.
</event>
<event>
 7    1  0.2766180E-009  0.1689143E+03  0.7561462E-02  0.1178985E+00
         -2   -1    0    0    0  501 -0.00000000000E+00  0.00000000000E+00  0.20274073252E+03  0.20274073252E+03  0.00000000000E+00 0.  1.
          2   -1    0    0  501    0  0.00000000000E+00 -0.00000000000E+00 -0.15973248900E+03  0.15973248900E+03  0.00000000000E+00 0. -1.
         25    2    1    2    0    0 -0.13436308254E+03  0.59762526122E+01  0.73253756683E+02  0.19774306579E+03  0.12508818352E+03 0.  0.
          5    1    3    3  502    0 -0.10393126128E+03 -0.47669599816E+02  0.20006442419E+02  0.11615432819E+03  0.41800000000E+01 0. -1.
         -5    1    3    3    0  502 -0.30431821255E+02  0.53645852429E+02  0.53247314263E+02  0.81588737605E+02  0.41800000000E+01 0. -1.
        -11    1    1    2    0    0  0.11877787431E+03  0.29894542099E+02 -0.18337329876E+02  0.12384718301E+03  0.00000000000E+00 0.  1.
         11    1    1    2    0    0  0.15585208226E+02 -0.35870794711E+02 -0.11908183286E+02  0.40882972713E+02  0.00000000000E+00 0. -1.
</event>
<event>
 7    1  0.2766180E-009  0.1524448E+03  0.7561462E-02  0.1197501E+00
          2   -1    0    0  501    0  0.00000000000E+00  0.00000000000E+00  0.60396609994E+03  0.60396609994E+03  0.00000000000E+00 0. -1.
         -2   -1    0    0    0  501 -0.00000000000E+00 -0.00000000000E+00 -0.54824526157E+02  0.54824526157E+02  0.00000000000E+00 0.  1.
         25    2    1    2    0    0  0.74670859751E+02 -0.98578730104E+02  0.14836467128E+03  0.23011503252E+03  0.12508936477E+03 0.  0.
          5    1    3    3  502    0  0.38535497775E+02 -0.11677926682E+03  0.14368712068E+03  0.18917146401E+03  0.41800000000E+01 0.  1.
         -5    1    3    3    0  502  0.36135361976E+02  0.18200536721E+02  0.46775506093E+01  0.40943568503E+02  0.41800000000E+01 0.  1.
        -11    1    1    2    0    0 -0.59467585320E+02  0.22491519869E+02  0.10374790290E+03  0.12167945400E+03  0.00000000000E+00 0.  1.
         11    1    1    2    0    0 -0.15203274431E+02  0.76087210235E+02  0.29702899960E+03  0.30699613958E+03  0.00000000000E+00 0. -1.
</event>
<event>
 7    1  0.2766180E-009  0.1294923E+03  0.7561462E-02  0.1228211E+00
          1   -1    0    0  501    0  0.00000000000E+00  0.00000000000E+00  0.85974205953E+02  0.85974205953E+02  0.00000000000E+00 0. -1.
         -1   -1    0    0    0  501 -0.00000000000E+00 -0.00000000000E+00 -0.19736825267E+03  0.19736825267E+03  0.00000000000E+00 0.  1.
         25    2    1    2    0    0 -0.63887755427E+02  0.51352158266E+02 -0.59246273124E+02  0.16085972806E+03  0.12508813605E+03 0.  0.
          5    1    3    3  502    0 -0.15160165960E+01  0.79499170215E+02 -0.42635399685E+02  0.90319798923E+02  0.41800000000E+01 0. -1.
         -5    1    3    3    0  502 -0.62371738831E+02 -0.28147011949E+02 -0.16610873439E+02  0.70539929138E+02  0.41800000000E+01 0. -1.
        -11    1    1    2    0    0 -0.16563173645E+02 -0.26859025335E+01 -0.70254242971E+01  0.18190914770E+02  0.00000000000E+00 0.  1.
         11    1    1    2    0    0  0.80450929072E+02 -0.48666255733E+02 -0.45122349300E+02  0.10429181580E+03  0.00000000000E+00 0. -1.
</event>
<event>
 7    1  0.2766180E-009  0.2301746E+03  0.7561462E-02  0.1126517E+00
         -2   -1    0    0    0  501 -0.00000000000E+00  0.00000000000E+00  0.12797898196E+03  0.12797898196E+03  0.00000000000E+00 0.  1.
          2   -1    0    0  501    0  0.00000000000E+00 -0.00000000000E+00 -0.55934312426E+03  0.55934312426E+03  0.00000000000E+00 0. -1.
         25    2    1    2    0    0  0.19127146801E+03 -0.11575148591E+03 -0.34802400723E+03  0.43214781751E+03  0.12509134904E+03 0.  0.
          5    1    3    3  502    0  0.70872203797E+02 -0.30955440233E+02 -0.32631494237E+02  0.84044008514E+02  0.41800000000E+01 0.  1.
         -5    1    3    3    0  502  0.12039926422E+03 -0.84796045674E+02 -0.31539251299E+03  0.34810380900E+03  0.41800000000E+01 0.  1.
        -11    1    1    2    0    0 -0.31980366092E+02 -0.90291435771E+01 -0.32626750749E+02  0.46570098922E+02  0.00000000000E+00 0. -1.
         11    1    1    2    0    0 -0.15929110192E+03  0.12478062948E+03 -0.50713384317E+02  0.20860418978E+03  0.00000000000E+00 0.  1.
</event>
<event>
 7    1  0.2766180E-009  0.1252764E+03  0.7561462E-02  0.1234638E+00
         -4   -1    0    0    0  501 -0.00000000000E+00  0.00000000000E+00  0.34755571014E+03  0.34755571014E+03  0.00000000000E+00 0. -1.
          4   -1    0    0  501    0  0.00000000000E+00 -0.00000000000E+00 -0.49606373920E+02  0.49606373920E+02  0.00000000000E+00 0.  1.
         25    2    1    2    0    0 -0.30478632869E+02  0.66329392641E+02  0.16201115881E+03  0.21729871218E+03  0.12507029761E+03 0.  0.
          5    1    3    3  502    0 -0.71150308083E+02  0.17217309944E+02  0.12063249513E+03  0.14116824495E+03  0.41800000000E+01 0. -1.
         -5    1    3    3    0  502  0.40671675214E+02  0.49112082697E+02  0.41378663685E+02  0.76130467225E+02  0.41800000000E+01 0. -1.
        -11    1    1    2    0    0 -0.25559801431E+02 -0.47974233874E+02  0.40936845429E+02  0.68048922686E+02  0.00000000000E+00 0.  1.
         11    1    1    2    0    0  0.56038434300E+02 -0.18355158767E+02  0.95001331981E+02  0.11181444920E+03  0.00000000000E+00 0. -1.
</event>
<event>
 7    1  0.3056874E-009  0.7900391E+02  0.7561462E-02  0.1331902E+00
         -1   -1    0    0    0  501 -0.00000000000E+00  0.00000000000E+00  0.86572670975E+02  0.86572670975E+02  0.00000000000E+00 0.  1.
          1   -1    0    0  501    0  0.00000000000E+00 -0.00000000000E+00 -0.19593954264E+03  0.19593954264E+03  0.00000000000E+00 0. -1.
         25    2    1    2    0    0  0.58590640690E+02  0.29851399787E+02 -0.92619700300E+02  0.16897690485E+03  0.12510322235E+03 0.  0.
          5    1    3    3  502    0  0.56204621856E+02  0.22705539332E+02 -0.12311244310E+03  0.13729037504E+03  0.41800000000E+01 0.  1.
         -5    1    3    3    0  502  0.23860188331E+01  0.71458604543E+01  0.30492742798E+02  0.31686529801E+02  0.41800000000E+01 0.  1.
        -11    1    1    2    0    0 -0.22606207682E+02  0.17902663077E+02 -0.40058212042E+02  0.49357940830E+02  0.00000000000E+00 0. -1.
         11    1    1    2    0    0 -0.35984433007E+02 -0.47754062864E+02  0.23311040672E+02  0.64177367943E+02  0.00000000000E+00 0.  1.
</event>
<event>
 7    1  0.2766180E-009  0.1846209E+03  0.7561462E-02  0.1163404E+00
          3   -1    0    0  501    0  0.00000000000E+00  0.00000000000E+00  0.11122903441E+03  0.11122903441E+03  0.00000000000E+00 0. -1.
         -3   -1    0    0    0  501 -0.00000000000E+00 -0.00000000000E+00 -0.39655993381E+03  0.39655993381E+03  0.00000000000E+00 0.  1.
         25    2    1    2    0    0 -0.84033707252E+02 -0.14724521298E+03 -0.22170376954E+03  0.30584811544E+03  0.12509073344E+03 0.  0.
          5    1    3    3  502    0 -0.37442482914E+02 -0.12890018959E+03 -0.21724759190E+03  0.25540396823E+03  0.41800000000E+01 0. -1.
         -5    1    3    3    0  502 -0.46591224337E+02 -0.18345023395E+02 -0.44561776373E+01  0.50444147210E+02  0.41800000000E+01 0. -1.
        -11    1    1    2    0    0  0.17945479436E+02  0.10442033691E+03 -0.62843314625E+02  0.12318656252E+03  0.00000000000E+00 0. -1.
         11    1    1    2    0    0  0.66088227816E+02  0.42824876077E+02 -0.78381523556E+00  0.78754290253E+02  0.00000000000E+00 0.  1.
</event>
<event>
 7    1  0.2766180E-009  0.8580979E+02  0.7561462E-02  0.1313328E+00
          2   -1    0    0  501    0  0.00000000000E+00  0.00000000000E+00  0.13297960498E+03  0.13297960498E+03  0.00000000000E+00 0. -1.
         -2   -1    0    0    0  501 -0.00000000000E+00 -0.00000000000E+00 -0.10537787609E+03  0.10537787609E+03  0.00000000000E+00 0.  1.
         25    2    1    2    0    0 -0.31032552082E+01 -0.16056758976E+02  0.65026224906E+02  0.14193320659E+03  0.12509666464E+03 0.  0.
          5    1    3    3  502    0  0.26924119705E+02  0.45820277126E+02  0.46096803821E+02  0.70475483257E+02  0.41800000000E+01 0. -1.
         -5    1    3    3    0  502 -0.30027374914E+02 -0.61877036102E+02  0.18929421085E+02  0.71457723331E+02  0.41800000000E+01 0. -1.
        -11    1    1    2    0    0 -0.87067851528E+00  0.32488406504E+02  0.18914650733E+02  0.37603439346E+02  0.00000000000E+00 0. -1.
         11    1    1    2    0    0  0.39739337235E+01 -0.16431647528E+02 -0.56339146747E+02  0.58820835134E+02  0.00000000000E+00 0.  1.
</event>
<event>
 7    1  0.2766180E-009  0.1810788E+03  0.7561462E-02  0.1166763E+00
         -4   -1    0    0    0  501 -0.00000000000E+00  0.00000000000E+00  0.14010157205E+04  0.14010157205E+04  0.00000000000E+00 0.  1.
          4   -1    0    0  501    0  0.00000000000E+00 -0.00000000000E+00 -0.27042841791E+02  0.27042841791E+02  0.00000000000E+00 0. -1.
         25    2    1    2    0    0 -0.13412234031E+03 -0.52787754376E+02  0.45968424799E+03  0.49772749511E+03  0.12509077645E+03 0.  0.
          5    1    3    3  502    0 -0.11975380701E+03 -0.90143725003E+02  0.34460229058E+03  0.37581255503E+03  0.41800000000E+01 0.  1.
         -5    1    3    3    0  502 -0.14368533299E+02  0.37355970627E+02  0.11508195741E+03  0.12191494007E+03  0.41800000000E+01 0.  1.
        -11    1    1    2    0    0 -0.32791558992E+00  0.36537917408E+02  0.18474715136E+03  0.18832587946E+03  0.00000000000E+00 0. -1.
         11    1    1    2    0    0  0.13445025590E+03  0.16249836968E+02  0.72954147940E+03  0.74200518777E+03  0.00000000000E+00 0.  1.
</event>
<event>
 7    1  0.2766180E-009  0.1402490E+03  0.7561462E-02  0.1212994E+00
          2   -1    0    0  501    0  0.00000000000E+00  0.00000000000E+00  0.13103504837E+03  0.13103504837E+03  0.00000000000E+00 0. -1.
         -2   -1    0    0    0  501 -0.00000000000E+00 -0.00000000000E+00 -0.18030405327E+03  0.18030405327E+03  0.00000000000E+00 0.  1.
         25    2    1    2    0    0 -0.68173619739E+02 -0.68458897745E+02 -0.77553035638E+02  0.17605608474E+03  0.12508800313E+03 0.  0.
          5    1    3    3  502    0  0.16452886920E+02 -0.64694502811E+02 -0.10000536562E+02  0.67628095593E+02  0.41800000000E+01 0.  1.
         -5    1    3    3    0  502 -0.84626506659E+02 -0.37643949338E+01 -0.67552499076E+02  0.10842798914E+03  0.41800000000E+01 0.  1.
        -11    1    1    2    0    0  0.38745388514E+02 -0.14039144838E+02 -0.51461778812E+01  0.41530541360E+02  0.00000000000E+00 0.  1.
         11    1    1    2    0    0  0.29428231225E+02  0.82498042583E+02  0.33430208613E+02  0.93752475546E+02  0.00000000000E+00 0. -1.
</event>
<event>
 7    1  0.2766180E-009  0.1017686E+03  0.7561462E-02  0.1276620E+00
          1   -1    0    0  501    0  0.00000000000E+00  0.00000000000E+00  0.20942428771E+03  0.20942428771E+03  0.00000000000E+00 0. -1.
         -1   -1    0    0    0  501 -0.00000000000E+00 -0.00000000000E+00 -0.72628316799E+02  0.72628316799E+02  0.00000000000E+00 0.  1.
         25    2    1    2    0    0 -0.56281837520E+02 -0.20105449971E+02  0.61822499686E+02  0.15179120198E+03  0.12508666267E+03 0.  0.
          5    1    3    3  502    0  0.21848323500E+02  0.12218988846E+02 -0.21311557040E+02  0.33140727084E+02  0.41800000000E+01 0.  1.
         -5    1    3    3    0  502 -0.78130161020E+02 -0.32324438817E+02  0.83134056726E+02  0.11865047490E+03  0.41800000000E+01 0.  1.
        -11    1    1    2    0    0  0.52655044808E+02  0.44437681100E+02  0.79548156844E+02  0.10523863598E+03  0.00000000000E+00 0. -1.
         11    1    1    2    0    0  0.36267927120E+01 -0.24332231130E+02 -0.45746856211E+01  0.25022766547E+02  0.00000000000E+00 0.  1.
</event>
<event>
 7    1  0.2766180E-009  0.1361650E+03  0.7561462E-02  0.1218584E+00
         -1   -1    0    0    0  501 -0.00000000000E+00  0.00000000000E+00  0.12334081736E+03  0.12334081736E+03  0.00000000000E+00 0.  1.
          1   -1    0    0  501    0  0.00000000000E+00 -0.00000000000E+00 -0.23452539484E+03  0.23452539484E+03  0.00000000000E+00 0. -1.
         25    2    1    2    0    0 -0.10217218913E+00  0.98951730914E+02  0.31421873577E+02  0.16255578635E+03  0.12508234907E+03 0.  0.
          5    1    3    3  502    0  0.42570999027E+01 -0.22079641400E+02  0.34432463878E+02  0.41336429849E+02  0.41800000000E+01 0.  1.
         -5    1    3    3    0  502 -0.43592720918E+01  0.12103137231E+03 -0.30105903013E+01  0.12121935650E+03  0.41800000000E+01 0.  1.
        -11    1    1    2    0    0 -0.40763607878E+02 -0.49187795093E+02 -0.44108653842E+02  0.77631721977E+02  0.00000000000E+00 0.  1.
         11    1    1    2    0    0  0.40865780067E+02 -0.49763935821E+02 -0.98497797215E+02  0.11767870387E+03  0.00000000000E+00 0. -1.
</event>
<event>
 7    1  0.2766180E-009  0.8444525E+02  0.7561462E-02  0.1316890E+00
          3   -1    0    0  501    0  0.00000000000E+00  0.00000000000E+00  0.73657403523E+02  0.73657403523E+02  0.00000000000E+00 0. -1.
         -3   -1    0    0    0  501 -0.00000000000E+00 -0.00000000000E+00 -0.22540438391E+03  0.22540438391E+03  0.00000000000E+00 0.  1.
         25    2    1    2    0    0  0.40372933880E+02 -0.39831281960E+02 -0.12779655752E+03  0.18760020114E+03  0.12508145562E+03 0.  0.
          5    1    3    3  502    0  0.72327964259E+02 -0.26853131267E+02 -0.13164604284E+03  0.15264526874E+03  0.41800000000E+01 0.  1.
         -5    1    3    3    0  502 -0.31955030380E+02 -0.12978150694E+02  0.38494853161E+01  0.34954932402E+02  0.41800000000E+01 0.  1.
        -11    1    1    2    0    0 -0.26662708173E+02  0.29137708133E+02  0.33280420746E+02  0.51647772918E+02  0.00000000000E+00 0. -1.
         11    1    1    2    0    0 -0.13710225707E+02  0.10693573827E+02 -0.57230843613E+02  0.59813813378E+02  0.00000000000E+00 0.  1.
</event>
<event>
 7    1  0.2766180E-009  0.2575220E+03  0.7561462E-02  0.1108641E+00
         -2   -1    0    0    0  501 -0.00000000000E+00  0.00000000000E+00  0.25752241960E+03  0.25752241960E+03  0.00000000000E+00 0.  1.
          2   -1    0    0  501    0  0.00000000000E+00 -0.00000000000E+00 -0.29126970030E+03  0.29126970030E+03  0.00000000000E+00 0. -1.
         25    2    1    2    0    0  0.77421875878E+01 -0.25046452108E+03 -0.85029344714E+01  0.28019924811E+03  0.12508757315E+03 0.  0.
          5    1    3    3  502    0 -0.31935436926E+02 -0.66228446698E+02 -0.47589571933E+02  0.87683060168E+02  0.41800000000E+01 0.  1.
         -5    1    3    3    0  502  0.39677624514E+02 -0.18423607438E+03  0.39086637461E+02  0.19251618794E+03  0.41800000000E+01 0.  1.
        -11    1    1    2    0    0 -0.12272215927E+02  0.30428641954E+02  0.26887956252E+02  0.42420180650E+02  0.00000000000E+00 0.  1.
         11    1    1    2    0    0  0.45300283394E+01  0.22003587912E+03 -0.52132302476E+02  0.22617269114E+03  0.00000000000E+00 0. -1.
</event>
<event>
 7    1  0.2766180E-009  0.4567664E+03  0.7561462E-02  0.1025723E+00
          1   -1    0    0  501    0  0.00000000000E+00  0.00000000000E+00  0.11187495150E+04  0.11187495150E+04  0.00000000000E+00 0. -1.
         -1   -1    0    0    0  501 -0.00000000000E+00 -0.00000000000E+00 -0.25671015946E+03  0.25671015946E+03  0.00000000000E+00 0.  1.
         25    2    1    2    0    0  0.44055449408E+03  0.53316515516E+02  0.79324550110E+03  0.91750556628E+03  0.12508847294E+03 0.  0.
          5    1    3    3  502    0  0.19166457761E+03 -0.38359344104E+02  0.35250138568E+03  0.40308987695E+03  0.41800000000E+01 0.  1.
         -5    1    3    3    0  502  0.24888991646E+03  0.91675859620E+02  0.44074411542E+03  0.51441568933E+03  0.41800000000E+01 0.  1.
        -11    1    1    2    0    0 -0.32161851624E+03 -0.78768658098E+02  0.51253334288E+02  0.33506697206E+03  0.00000000000E+00 0.  1.
         11    1    1    2    0    0 -0.11893597783E+03  0.25452142582E+02  0.17540520188E+02  0.12288713616E+03  0.00000000000E+00 0. -1.
</event>
<event>
 7    1  0.2766180E-009  0.1330840E+03  0.7561462E-02  0.1222950E+00
          1   -1    0    0  501    0  0.00000000000E+00  0.00000000000E+00  0.33526774404E+03  0.33526774404E+03  0.00000000000E+00 0. -1.
         -1   -1    0    0    0  501 -0.00000000000E+00 -0.00000000000E+00 -0.58652480928E+02  0.58652480928E+02  0.00000000000E+00 0.  1.
         25    2    1    2    0    0 -0.13596997318E+02  0.79469751167E+02  0.20081637296E+03  0.24995330012E+03  0.12509643042E+03 0.  0.
          5    1    3    3  502    0 -0.11549239740E+02  0.11248938112E+03  0.13484973401E+03  0.17603740786E+03  0.41800000000E+01 0. -1.
         -5    1    3    3    0  502 -0.20477575776E+01 -0.33019629954E+02  0.65966638953E+02  0.73915892257E+02  0.41800000000E+01 0. -1.
        -11    1    1    2    0    0  0.51256831628E+02 -0.52275087967E+02  0.31239593061E+02  0.79598114205E+02  0.00000000000E+00 0.  1.
         11    1    1    2    0    0 -0.37659834310E+02 -0.27194663200E+02  0.44559297090E+02  0.64368810646E+02  0.00000000000E+00 0. -1.
</event>
<event>
 7    1  0.2766180E-009  0.2011839E+03  0.7561462E-02  0.1148744E+00
         -1   -1    0    0    0  501 -0.00000000000E+00  0.00000000000E+00  0.61206071913E+02  0.61206071913E+02  0.00000000000E+00 0.  1.
          1   -1    0    0  501    0  0.00000000000E+00 -0.00000000000E+00 -0.73056608083E+03  0.73056608083E+03  0.00000000000E+00 0. -1.
         25    2    1    2    0    0 -0.85912957297E+02 -0.15253544651E+03 -0.46389781271E+03  0.51136764148E+03  0.12509030914E+03 0.  0.
          5    1    3    3  502    0 -0.47555112636E+02  0.94325947295E+01 -0.10392803701E+03  0.11475614083E+03  0.41800000000E+01 0.  1.
         -5    1    3    3    0  502 -0.38357844661E+02 -0.16196804124E+03 -0.35996977570E+03  0.39661150065E+03  0.41800000000E+01 0.  1.
        -11    1    1    2    0    0  0.96029297844E+02  0.14723949421E+03 -0.17575252940E+03  0.24857603724E+03  0.00000000000E+00 0.  1.
         11    1    1    2    0    0 -0.10116340546E+02  0.52959522978E+01 -0.29709666808E+02  0.31828474023E+02  0.00000000000E+00 0. -1.
</event>
<event>
 7    1  0.2766180E-009  0.1797863E+03  0.7561462E-02  0.1168010E+00
         -2   -1    0    0    0  501 -0.00000000000E+00  0.00000000000E+00  0.31062494190E+03  0.31062494190E+03  0.00000000000E+00 0.  1.
          2   -1    0    0  501    0  0.00000000000E+00 -0.00000000000E+00 -0.13305845352E+03  0.13305845352E+03  0.00000000000E+00 0. -1.
         25    2    1    2    0    0  0.15658714108E+03  0.48338125713E+02  0.36888726843E+02  0.20943839532E+03  0.12509019192E+03 0.  0.
          5    1    3    3  502    0  0.59913990408E+02  0.72138661265E+02  0.54060458478E+02  0.10832210424E+03  0.41800000000E+01 0.  1.
         -5    1    3    3    0  502  0.96673150676E+02 -0.23800535552E+02 -0.17171731635E+02  0.10111629108E+03  0.41800000000E+01 0.  1.
        -11    1    1    2    0    0 -0.46761337695E+02 -0.18505648465E+01 -0.37437477708E+01  0.46947448713E+02  0.00000000000E+00 0. -1.
         11    1    1    2    0    0 -0.10982580339E+03 -0.46487560867E+02  0.14442150931E+03  0.18729755139E+03  0.00000000000E+00 0.  1.
</event>
<event>
 7    1  0.2766180E-009  0.7755853E+02  0.7561462E-02  0.1336126E+00
          1   -1    0    0  501    0  0.00000000000E+00  0.00000000000E+00  0.42056087827E+02  0.42056087827E+02  0.00000000000E+00 0. -1.
         -1   -1    0    0    0  501 -0.00000000000E+00 -0.00000000000E+00 -0.31673171720E+03  0.31673171720E+03  0.00000000000E+00 0.  1.
         25    2    1    2    0    0  0.21188030533E+02  0.25407386893E+02 -0.19742553167E+03  0.23605391718E+03  0.12510053285E+03 0.  0.
          5    1    3    3  502    0 -0.15954936418E+02  0.49953415801E+02 -0.18087987528E+03  0.18837437572E+03  0.41800000000E+01 0.  1.
         -5    1    3    3    0  502  0.37142966950E+02 -0.24546028908E+02 -0.16545656384E+02  0.47679541464E+02  0.41800000000E+01 0.  1.
        -11    1    1    2    0    0 -0.11177736022E+02 -0.39194164771E+02 -0.91728383997E+02  0.10037539920E+03  0.00000000000E+00 0.  1.
         11    1    1    2    0    0 -0.10010294511E+02  0.13786777878E+02  0.14478286288E+02  0.22358488640E+02  0.00000000000E+00 0. -1.
</event>
<event>
 7    1  0.2766180E-009  0.2714469E+03  0.7561462E-02  0.1100454E+00
          2   -1    0    0  501    0  0.00000000000E+00  0.00000000000E+00  0.75456799677E+03  0.75456799677E+03  0.00000000000E+00 0. -1.
         -2   -1    0    0    0  501 -0.00000000000E+00 -0.00000000000E+00 -0.11523146515E+03  0.11523146515E+03  0.00000000000E+00 0.  1.
         25    2    1    2    0    0  0.25639013251E+03  0.53398573263E+02  0.20948655506E+03  0.35793768718E+03  0.12508982165E+03 0.  0.
          5    1    3    3  502    0  0.62468581850E+02  0.56722962554E+02  0.20130660751E+02  0.86847763941E+02  0.41800000000E+01 0.  1.
         -5    1    3    3    0  502  0.19392155066E+03 -0.33243892906E+01  0.18935589431E+03  0.27108992324E+03  0.41800000000E+01 0.  1.
        -11    1    1    2    0    0 -0.16717771397E+03 -0.52402554890E+02  0.20328907511E+03  0.26836703201E+03  0.00000000000E+00 0.  1.
         11    1    1    2    0    0 -0.89212418536E+02 -0.99601837272E+00  0.22656090145E+03  0.24349474274E+03  0.00000000000E+00 0. -1.
</event>
<event>
 7    1  0.2766180E-009  0.9075751E+02  0.7561462E-02  0.1301028E+00
          1   -1    0    0  501    0  0.00000000000E+00  0.00000000000E+00  0.89493455054E+03  0.89493455054E+03  0.00000000000E+00 0. -1.
         -1   -1    0    0    0  501 -0.00000000000E+00 -0.00000000000E+00 -0.18844766424E+02  0.18844766424E+02  0.00000000000E+00 0.  1.
         25    2    1    2    0    0 -0.16161180535E+02  0.40986229893E+02  0.72179428493E+03  0.73387675002E+03  0.12508812756E+03 0.  0.
          5    1    3    3  502    0  0.35976359614E+02  0.43908275139E+02  0.57874004882E+03  0.58153224467E+03  0.41800000000E+01 0. -1.
         -5    1    3    3    0  502 -0.52137540149E+02 -0.29220452463E+01  0.14305423611E+03  0.15234450535E+03  0.41800000000E+01 0. -1.
        -11    1    1    2    0    0 -0.14307515794E+02  0.65595113755E+01  0.15163702122E+00  0.15740241150E+02  0.00000000000E+00 0.  1.
         11    1    1    2    0    0  0.30468696330E+02 -0.47545741268E+02  0.15414386216E+03  0.16416232579E+03  0.00000000000E+00 0. -1.
</event>
<event>
 7    1  0.2766180E-009  0.1285542E+03  0.7561462E-02  0.1229617E+00
          2   -1    0    0  501    0  0.00000000000E+00  0.00000000000E+00  0.56100670955E+03  0.56100670955E+03  0.00000000000E+00 0. -1.
         -2   -1    0    0    0  501 -0.00000000000E+00 -0.00000000000E+00 -0.60117795400E+02  0.60117795400E+02  0.00000000000E+00 0.  1.
         25    2    1    2    0    0 -0.10379328792E+03 -0.66982465175E+02  0.12741055687E+03  0.21712008088E+03  0.12509189527E+03 0.  0.
          5    1    3    3  502    0 -0.95976188193E+02 -0.53997853791E+02  0.15211364524E+03  0.18783830914E+03  0.41800000000E+01 0.  1.
         -5    1    3    3    0  502 -0.78170997303E+01 -0.12984611384E+02 -0.24703088372E+02  0.29281771738E+02  0.41800000000E+01 0.  1.
        -11    1    1    2    0    0  0.79769925781E+02  0.26402460572E+02  0.12195916313E+03  0.14810256060E+03  0.00000000000E+00 0.  1.
         11    1    1    2    0    0  0.24023362143E+02  0.40580004603E+02  0.25151919415E+03  0.25590186347E+03  0.00000000000E+00 0. -1.
</event>
<event>
 7    1  0.2766180E-009  0.1567068E+03  0.7561462E-02  0.1192466E+00
         -1   -1    0    0    0  501 -0.00000000000E+00  0.00000000000E+00  0.19630524087E+02  0.19630524087E+02  0.00000000000E+00 0.  1.
          1   -1    0    0  501    0  0.00000000000E+00 -0.00000000000E+00 -0.12756612552E+04  0.12756612552E+04  0.00000000000E+00 0. -1.
         25    2    1    2    0    0  0.39119651276E+02  0.10591037771E+03 -0.73413203079E+03  0.75321653276E+03  0.12505179474E+03 0.  0.
          5    1    3    3  502    0 -0.44906727739E+02  0.50428083706E+02 -0.28616416642E+03  0.29405273058E+03  0.41800000000E+01 0.  1.
         -5    1    3    3    0  502  0.84026379015E+02  0.55482294001E+02 -0.44796786438E+03  0.45916380218E+03  0.41800000000E+01 0.  1.
        -11    1    1    2    0    0 -0.69045304107E+02 -0.72044764582E+02 -0.32084267802E+03  0.33600256868E+03  0.00000000000E+00 0.  1.
         11    1    1    2    0    0  0.29925652832E+02 -0.33865613125E+02 -0.20105602233E+03  0.20607267787E+03  0.00000000000E+00 0. -1.
</event>
<event>
 7    1  0.2766180E-009  0.1368096E+03  0.7561462E-02  0.1217688E+00
          2   -1    0    0  501    0  0.00000000000E+00  0.00000000000E+00  0.42359665956E+03  0.42359665956E+03  0.00000000000E+00 0. -1.
         -2   -1    0    0    0  501 -0.00000000000E+00 -0.00000000000E+00 -0.65864249354E+02  0.65864249354E+02  0.00000000000E+00 0.  1.
         25    2    1    2    0    0  0.89476170908E+02  0.21618749394E+02  0.63189131492E+02  0.16767140924E+03  0.12508988628E+03 0.  0.
          5    1    3    3  502    0  0.11047682185E+03  0.47648697765E+02  0.40400434473E+02  0.12698501514E+03  0.41800000000E+01 0. -1.
         -5    1    3    3    0  502 -0.21000650946E+02 -0.26029948371E+02  0.22788697020E+02  0.40686394092E+02  0.41800000000E+01 0. -1.
        -11    1    1    2    0    0 -0.98636731932E+02 -0.28914955965E+01  0.17916226094E+03  0.20454017058E+03  0.00000000000E+00 0.  1.
         11    1    1    2    0    0  0.91605610245E+01 -0.18727253798E+02  0.11538101777E+03  0.11724932910E+03  0.00000000000E+00 0. -1.
</event>
<event>
 6    1  0.2766180E-009  0.2924236E+03  0.7561462E-02  0.1089091E+00
         -1   -1    0    0    0  501 -0.00000000000E+00  0.00000000000E+00  0.64384164729E+02  0.64384164729E+02  0.00000000000E+00 0.  1.
          1   -1    0    0  501    0  0.00000000000E+00 -0.00000000000E+00 -0.13825915350E+04  0.13825915350E+04  0.00000000000E+00 0. -1.
          5    1    1    2  502    0  0.34645223073E+01  0.11896773407E+03 -0.34409089830E+03  0.36411721101E+03  0.41800000000E+01 0. -1.
         -5    1    1    2    0  502  0.23083784295E+02 -0.28137158506E+02 -0.14119459435E+03  0.14586962213E+03  0.41800000000E+01 0. -1.
        -11    1    1    2    0    0  0.62967401246E+00  0.16843475138E+03 -0.31990511979E+03  0.36153830728E+03  0.00000000000E+00 0. -1.
         11    1    1    2    0    0 -0.27177980615E+02 -0.25926532695E+03 -0.51301675783E+03  0.57545055931E+03  0.00000000000E+00 0.  1.
</event>
<event>
 7    1  0.2766180E-009  0.1464799E+03  0.7561462E-02  0.1204866E+00
          1   -1    0    0  501    0  0.00000000000E+00  0.00000000000E+00  0.14246185736E+04  0.14246185736E+04  0.00000000000E+00 0. -1.
         -1   -1    0    0    0  501 -0.00000000000E+00 -0.00000000000E+00 -0.28133384147E+02  0.28133384147E+02  0.00000000000E+00 0.  1.
         25    2    1    2    0    0 -0.73360037269E+02  0.10842097721E+03  0.11136400610E+04  0.11282635046E+04  0.12509015503E+03 0.  0.
          5    1    3    3  502    0 -0.50963709286E+02  0.94185261890E+02  0.39970892246E+03  0.41382708746E+03  0.41800000000E+01 0. -1.
         -5    1    3    3    0  502 -0.22396327983E+02  0.14235715323E+02  0.71393113855E+03  0.71443641711E+03  0.41800000000E+01 0. -1.
        -11    1    1    2    0    0  0.51596499498E+02 -0.34403108273E+01  0.97722669642E+02  0.11056109018E+03  0.00000000000E+00 0.  1.
         11    1    1    2    0    0  0.21763537770E+02 -0.10498066639E+03  0.18512245884E+03  0.21392736304E+03  0.00000000000E+00 0. -1.
</event>
<event>
 7    1  0.2766180E-009  0.2316752E+03  0.7561462E-02  0.1125466E+00
          1   -1    0    0  501    0  0.00000000000E+00  0.00000000000E+00  0.77483960858E+03  0.77483960858E+03  0.00000000000E+00 0. -1.
         -1   -1    0    0    0  501 -0.00000000000E+00 -0.00000000000E+00 -0.84904833834E+02  0.84904833834E+02  0.00000000000E+00 0.  1.
         25    2    1    2    0    0  0.15021145317E+03  0.15723853552E+03  0.22942046370E+03  0.33995350564E+03  0.12508876496E+03 0.  0.
          5    1    3    3  502    0  0.44581651489E+02  0.11268639525E+03  0.17519881548E+03  0.21306769973E+03  0.41800000000E+01 0. -1.
         -5    1    3    3    0  502  0.10562980168E+03  0.44552140273E+02  0.54221648213E+02  0.12688580591E+03  0.41800000000E+01 0. -1.
        -11    1    1    2    0    0 -0.61958617249E+02 -0.21720922939E+02  0.64541580558E+02  0.92066738650E+02  0.00000000000E+00 0.  1.
         11    1    1    2    0    0 -0.88252835919E+02 -0.13551761258E+03  0.39597273049E+03  0.42772419812E+03  0.00000000000E+00 0. -1.
</event>
<event>
 7    1  0.2766180E-009  0.8246409E+02  0.7561462E-02  0.1322201E+00
         -4   -1    0    0    0  501 -0.00000000000E+00  0.00000000000E+00  0.28241683313E+03  0.28241683313E+03  0.00000000000E+00 0.  1.
          4   -1    0    0  501    0  0.00000000000E+00 -0.00000000000E+00 -0.75135582779E+02  0.75135582779E+02  0.00000000000E+00 0. -1.
         25    2    1    2    0    0 -0.44329195891E+02  0.65323620399E+02  0.43389101406E+02  0.15415242551E+03  0.12509237858E+03 0.  0.
          5    1    3    3  502    0 -0.28209577039E+02  0.39017679280E+02 -0.41520483066E+02  0.63714852642E+02  0.41800000000E+01 0.  1.
         -5    1    3    3    0  502 -0.16119618852E+02  0.26305941118E+02  0.84909584472E+02  0.90437572863E+02  0.41800000000E+01 0.  1.
        -11    1    1    2    0    0  0.23227843906E+02 -0.59046191635E+02  0.34648207973E+02  0.72294424369E+02  0.00000000000E+00 0. -1.
         11    1    1    2    0    0  0.21101351985E+02 -0.62774287637E+01  0.12924394097E+03  0.13110556603E+03  0.00000000000E+00 0.  1.
</event>
<event>
 7    1  0.2766180E-009  0.1072252E+03  0.7561462E-02  0.1265796E+00
         -1   -1    0    0    0  501 -0.00000000000E+00  0.00000000000E+00  0.24337284381E+02  0.24337284381E+02  0.00000000000E+00 0.  1.
          1   -1    0    0  501    0  0.00000000000E+00 -0.00000000000E+00 -0.53972533647E+03  0.53972533647E+03  0.00000000000E+00 0. -1.
         25    2    1    2    0    0 -0.18224274289E+02  0.11035835942E+01 -0.37473408590E+03  0.39548250787E+03  0.12508971512E+03 0.  0.
          5    1    3    3  502    0  0.19666934752E+02 -0.54882426485E+02 -0.18561311985E+03  0.19459848848E+03  0.41800000000E+01 0.  1.
         -5    1    3    3    0  502 -0.37891209041E+02  0.55986010079E+02 -0.18912096605E+03  0.20088401939E+03  0.41800000000E+01 0.  1.
        -11    1    1    2    0    0 -0.21441499061E+02 -0.31632707531E+02 -0.35674730131E+02  0.52278604014E+02  0.00000000000E+00 0.  1.
         11    1    1    2    0    0  0.39665773350E+02  0.30529123937E+02 -0.10497923606E+03  0.11630150897E+03  0.00000000000E+00 0. -1.
</event>
<event>
 7    1  0.2766180E-009  0.8571359E+02  0.7561462E-02  0.1313577E+00
         -1   -1    0    0    0  501 -0.00000000000E+00  0.00000000000E+00  0.23427227940E+03  0.23427227940E+03  0.00000000000E+00 0.  1.
          1   -1    0    0  501    0  0.00000000000E+00 -0.00000000000E+00 -0.90838142671E+02  0.90838142671E+02  0.00000000000E+00 0. -1.
         25    2    1    2    0    0 -0.71008453897E+02  0.55284469324E+01  0.47235625948E+01  0.14402473972E+03  0.12509216346E+03 0.  0.
          5    1    3    3  502    0  0.66611862010E+01  0.19557026918E+02 -0.45662643344E+02  0.50293121803E+02  0.41800000000E+01 0. -1.
         -5    1    3    3    0  502 -0.77669640098E+02 -0.14028579985E+02  0.50386205939E+02  0.93731617922E+02  0.41800000000E+01 0. -1.
        -11    1    1    2    0    0  0.28543339827E+02 -0.39646254788E+01 -0.67060972522E+01  0.29587366291E+02  0.00000000000E+00 0. -1.
         11    1    1    2    0    0  0.42465114070E+02 -0.15638214537E+01  0.14541667139E+03  0.15149831606E+03  0.00000000000E+00 0.  1.
</event>
<event>
 7    1  0.2766180E-009  0.3275825E+03  0.7561462E-02  0.1072212E+00
          1   -1    0    0  501    0  0.00000000000E+00  0.00000000000E+00  0.18412160592E+04  0.18412160592E+04  0.00000000000E+00 0. -1.
         -1   -1    0    0    0  501 -0.00000000000E+00 -0.00000000000E+00 -0.62067632001E+02  0.62067632001E+02  0.00000000000E+00 0.  1.
         25    2    1    2    0    0  0.25371818759E+03  0.18318208851E+03  0.71432476948E+03  0.78983188659E+03  0.12508371801E+03 0.  0.
          5    1    3    3  502    0  0.30645471186E+02 -0.18606333788E+02  0.71156734291E+02  0.79787804809E+02  0.41800000000E+01 0.  1.
         -5    1    3    3    0  502  0.22307271641E+03  0.20178842230E+03  0.64316803519E+03  0.71004408178E+03  0.41800000000E+01 0.  1.
        -11    1    1    2    0    0 -0.25631281861E+02  0.11421766769E+00  0.38665589174E+02  0.46389691114E+02  0.00000000000E+00 0.  1.
         11    1    1    2    0    0 -0.22808690573E+03 -0.18329630618E+03  0.10261580685E+04  0.10670621135E+04  0.00000000000E+00 0. -1.
</event>
<event>
 7    1  0.2766180E-009  0.1337025E+03  0.7561462E-02  0.1222063E+00
         -2   -1    0    0    0  501 -0.00000000000E+00  0.00000000000E+00  0.70508927147E+02  0.70508927147E+02  0.00000000000E+00 0.  1.
          2   -1    0    0  501    0  0.00000000000E+00 -0.00000000000E+00 -0.27742565269E+03  0.27742565269E+03  0.00000000000E+00 0. -1.
         25    2    1    2    0    0  0.47500996419E+02 -0.70805057264E+02 -0.90507934129E+02  0.17637599171E+03  0.12508838282E+03 0.  0.
          5    1    3    3  502    0  0.84668945906E+02 -0.33238418515E+02 -0.29861825687E+02  0.95827052024E+02  0.41800000000E+01 0.  1.
         -5    1    3    3    0  502 -0.37167949487E+02 -0.37566638749E+02 -0.60646108442E+02  0.80548939690E+02  0.41800000000E+01 0.  1.
        -11    1    1    2    0    0 -0.12621419927E+02  0.84816052858E+02 -0.63706049383E+02  0.10682473399E+03  0.00000000000E+00 0.  1.
         11    1    1    2    0    0 -0.34879576491E+02 -0.14010995594E+02 -0.52702742026E+02  0.64733854132E+02  0.00000000000E+00 0. -1.
</event>
<event>
 7    1  0.2766180E-009  0.1224149E+03  0.7561462E-02  0.1239166E+00
          2   -1    0    0  501    0  0.00000000000E+00  0.00000000000E+00  0.26482710852E+02  0.26482710852E+02  0.00000000000E+00 0. -1.
         -2   -1    0    0    0  501 -0.00000000000E+00 -0.00000000000E+00 -0.70818131701E+03  0.70818131701E+03  0.00000000000E+00 0.  1.
         25    2    1    2    0    0  0.27697731292E+02  0.60543571225E+02 -0.50193633259E+03  0.52155520545E+03  0.12508821697E+03 0.  0.
          5    1    3    3  502    0 -0.48957852391E+02  0.36055878005E+02 -0.20333163143E+03  0.21226898593E+03  0.41800000000E+01 0. -1.
         -5    1    3    3    0  502  0.76655583683E+02  0.24487693220E+02 -0.29860470116E+03  0.30928621952E+03  0.41800000000E+01 0. -1.
        -11    1    1    2    0    0 -0.20007688386E+02  0.16465440019E+02 -0.94375736795E+02  0.97868268633E+02  0.00000000000E+00 0.  1.
         11    1    1    2    0    0 -0.76900429058E+01 -0.77009011244E+02 -0.85386536775E+02  0.11524055378E+03  0.00000000000E+00 0. -1.
</event>
<event>
 7    1  0.2766180E-009  0.9966903E+02  0.7561462E-02  0.1280993E+00
          2   -1    0    0  501    0  0.00000000000E+00  0.00000000000E+00  0.54857849454E+02  0.54857849454E+02  0.00000000000E+00 0. -1.
         -2   -1    0    0    0  501 -0.00000000000E+00 -0.00000000000E+00 -0.27843198931E+03  0.27843198931E+03  0.00000000000E+00 0.  1.
         25    2    1    2    0    0 -0.30169487873E+02  0.34678141410E+02 -0.15560336844E+03  0.20487503167E+03  0.12509435975E+03 0.  0.
          5    1    3    3  502    0 -0.29100323804E+01  0.61677463136E+02 -0.21796674985E+02  0.65613605203E+02  0.41800000000E+01 0.  1.
         -5    1    3    3    0  502 -0.27259455492E+02 -0.26999321726E+02 -0.13380669345E+03  0.13926142646E+03  0.41800000000E+01 0.  1.
        -11    1    1    2    0    0 -0.30702951404E+02 -0.49026827015E+01 -0.49022540870E+02  0.58050986520E+02  0.00000000000E+00 0.  1.
         11    1    1    2    0    0  0.60872439277E+02 -0.29775458709E+02 -0.18948230542E+02  0.70363820572E+02  0.00000000000E+00 0. -1.
</event>
<event>
 7    1  0.2766180E-009  0.8933100E+02  0.7561462E-02  0.1304480E+00
         -2   -1    0    0    0  501 -0.00000000000E+00  0.00000000000E+00  0.58127776824E+02  0.58127776824E+02  0.00000000000E+00 0.  1.
          2   -1    0    0  501    0  0.00000000000E+00 -0.00000000000E+00 -0.24380562694E+03  0.24380562694E+03  0.00000000000E+00 0. -1.
         25    2    1    2    0    0  0.47388874856E+02 -0.13002143474E+02 -0.86860407224E+02  0.16006300435E+03  0.12514261393E+03 0.  0.
          5    1    3    3  502    0 -0.10390113654E+01 -0.26764976107E+02  0.25280746090E+02  0.37067937810E+02  0.41800000000E+01 0.  1.
         -5    1    3    3    0  502  0.48427886222E+02  0.13762832633E+02 -0.11214115331E+03  0.12299506654E+03  0.41800000000E+01 0.  1.
        -11    1    1    2    0    0 -0.16660128300E+02  0.50137684194E+02 -0.60292472956E+02  0.80165638190E+02  0.00000000000E+00 0. -1.
         11    1    1    2    0    0 -0.30728746556E+02 -0.37135540721E+02 -0.38524969940E+02  0.61704761229E+02  0.00000000000E+00 0.  1.
</event>
<event>
 7    1  0.2766180E-009  0.1891995E+03  0.7561462E-02  0.1159185E+00
         -2   -1    0    0    0  501 -0.00000000000E+00  0.00000000000E+00  0.99225440795E+02  0.99225440795E+02  0.00000000000E+00 0.  1.
          2   -1    0    0  501    0  0.00000000000E+00 -0.00000000000E+00 -0.38241365536E+03  0.38241365536E+03  0.00000000000E+00 0. -1.
         25    2    1    2    0    0 -0.91256761893E+02 -0.12588731661E+03 -0.19877471341E+03  0.28166610031E+03  0.12509593239E+03 0.  0.
          5    1    3    3  502    0 -0.54153681699E+02  0.10856806257E+02 -0.37181070491E+02  0.66711287549E+02  0.41800000000E+01 0. -1.
         -5    1    3    3    0  502 -0.37103080194E+02 -0.13674412286E+03 -0.16159364292E+03  0.21495481276E+03  0.41800000000E+01 0. -1.
        -11    1    1    2    0    0  0.26208587432E+02  0.11163283693E+03 -0.51854382346E+02  0.12584775447E+03  0.00000000000E+00 0.  1.
         11    1    1    2    0    0  0.65048174461E+02  0.14254479675E+02 -0.32559118810E+02  0.74125241377E+02  0.00000000000E+00 0. -1.
</event>
<event>
 7    1  0.2766180E-009  0.1609545E+03  0.7561462E-02  0.1187623E+00
         -2   -1    0    0    0  501 -0.00000000000E+00  0.00000000000E+00  0.63846037007E+02  0.63846037007E+02  0.00000000000E+00 0.  1.
          2   -1    0    0  501    0  0.00000000000E+00 -0.00000000000E+00 -0.47320254102E+03  0.47320254102E+03  0.00000000000E+00 0. -1.
         25    2    1    2    0    0 -0.10044567602E+03  0.25095002765E+02 -0.29293757471E+03  0.33493119250E+03  0.12508952008E+03 0.  0.
          5    1    3    3  502    0 -0.92885943542E+02  0.67256532266E+02 -0.24478568130E+03  0.27034929593E+03  0.41800000000E+01 0. -1.
         -5    1    3    3    0  502 -0.75597324828E+01 -0.42161529501E+02 -0.48151893408E+02  0.64581896565E+02  0.41800000000E+01 0. -1.
        -11    1    1    2    0    0  0.80244302715E+02  0.44425000202E+02 -0.76559301116E+02  0.11947407814E+03  0.00000000000E+00 0.  1.
         11    1    1    2    0    0  0.20201373309E+02 -0.69520002966E+02 -0.39859628182E+02  0.82643307381E+02  0.00000000000E+00 0. -1.
</event>
<event>
 7    1  0.2766180E-009  0.7256458E+02  0.7561462E-02  0.1351583E+00
          1   -1    0    0  501    0  0.00000000000E+00  0.00000000000E+00  0.68744228470E+02  0.68744228470E+02  0.00000000000E+00 0. -1.
         -1   -1    0    0    0  501 -0.00000000000E+00 -0.00000000000E+00 -0.18568784053E+03  0.18568784053E+03  0.00000000000E+00 0.  1.
         25    2    1    2    0    0  0.30393894072E+02  0.23136016259E+01 -0.66524055487E+02  0.14491256695E+03  0.12508021646E+03 0.  0.
          5    1    3    3  502    0 -0.13163812457E+02  0.10753793603E+02  0.32169824483E+02  0.36623763358E+02  0.41800000000E+01 0. -1.
         -5    1    3    3    0  502  0.43557706530E+02 -0.84401919771E+01 -0.98693879970E+02  0.10828880359E+03  0.41800000000E+01 0. -1.
        -11    1    1    2    0    0 -0.24779197917E+01  0.35761909395E+02 -0.50957744395E+02  0.62303659313E+02  0.00000000000E+00 0.  1.
         11    1    1    2    0    0 -0.27915974280E+02 -0.38075511021E+02  0.53818782355E+00  0.47215842740E+02  0.00000000000E+00 0. -1.
</event>
<event>
 7    1  0.2766180E-009  0.1752218E+03  0.7561462E-02  0.1172509E+00
          4   -1    0    0  501    0  0.00000000000E+00  0.00000000000E+00  0.86281078880E+03  0.86281078880E+03  0.00000000000E+00 0. -1.
         -4   -1    0    0    0  501 -0.00000000000E+00 -0.00000000000E+00 -0.37964483708E+02  0.37964483708E+02  0.00000000000E+00 0.  1.
         25    2    1    2    0    0 -0.11452735407E+03 -0.84763741174E+02  0.36854061990E+03  0.41445444903E+03  0.12509554410E+03 0.  0.
          5    1    3    3  502    0 -0.10562702181E+03 -0.21935929915E+01  0.18822151414E+03  0.21588582716E+03  0.41800000000E+01 0. -1.
         -5    1    3    3    0  502 -0.89003322614E+01 -0.82570148183E+02  0.18031910577E+03  0.19856862186E+03  0.41800000000E+01 0. -1.
        -11    1    1    2    0    0  0.10928111580E+03  0.39821759560E+02  0.38208097809E+03  0.39939204877E+03  0.00000000000E+00 0.  1.
         11    1    1    2    0    0  0.52462382680E+01  0.44941981614E+02  0.74224707102E+02  0.86928774705E+02  0.00000000000E+00 0. -1.
</event>
<event>
 7    1  0.2766180E-009  0.3735192E+03  0.7561462E-02  0.1053355E+00
          1   -1    0    0  501    0  0.00000000000E+00  0.00000000000E+00  0.12225803727E+04  0.12225803727E+04  0.00000000000E+00 0. -1.
         -1   -1    0    0    0  501 -0.00000000000E+00 -0.00000000000E+00 -0.11505566516E+03  0.11505566516E+03  0.00000000000E+00 0.  1.
         25    2    1    2    0    0 -0.24331286544E+02 -0.35779988699E+03  0.54924771448E+03  0.66778267193E+03  0.12509146428E+03 0.  0.
          5    1    3    3  502    0 -0.74137337240E+02 -0.19332499299E+03  0.32185044907E+03  0.38272193778E+03  0.41800000000E+01 0.  1.
         -5    1    3    3    0  502  0.49806050696E+02 -0.16447489400E+03  0.22739726541E+03  0.28506073416E+03  0.41800000000E+01 0.  1.
        -11    1    1    2    0    0  0.52959182849E+02  0.28376777052E+03  0.46567227623E+03  0.54788638557E+03  0.00000000000E+00 0. -1.
         11    1    1    2    0    0 -0.28627896305E+02  0.74032116472E+02  0.92604716795E+02  0.12196698032E+03  0.00000000000E+00 0.  1.
</event>
<event>
 7    1  0.2766180E-009  0.2886948E+03  0.7561462E-02  0.1091033E+00
          1   -1    0    0  501    0  0.00000000000E+00  0.00000000000E+00  0.34350986473E+03  0.34350986473E+03  0.00000000000E+00 0.  1.
         -1   -1    0    0    0  501 -0.00000000000E+00 -0.00000000000E+00 -0.25334342631E+03  0.25334342631E+03  0.00000000000E+00 0. -1.
         25    2    1    2    0    0  0.83201118792E+02 -0.26084723092E+03  0.45552346218E+02  0.30444427680E+03  0.12509035687E+03 0.  0.
          5    1    3    3  502    0  0.79241242287E+01 -0.20833362508E+03  0.40526495616E+02  0.21242777674E+03  0.41800000000E+01 0.  1.
         -5    1    3    3    0  502  0.75276994563E+02 -0.52513605840E+02  0.50258506025E+01  0.92016500059E+02  0.41800000000E+01 0.  1.
        -11    1    1    2    0    0 -0.72970896044E+02  0.25492569471E+03  0.61110732546E+02  0.27211465070E+03  0.00000000000E+00 0.  1.
         11    1    1    2    0    0 -0.10230222748E+02  0.59215362133E+01 -0.16496640347E+02  0.20294363536E+02  0.00000000000E+00 0. -1.
</event>
<event>
 7    1  0.2766180E-009  0.1552408E+03  0.7561462E-02  0.1194177E+00
         -2   -1    0    0    0  501 -0.00000000000E+00  0.00000000000E+00  0.10835682974E+03  0.10835682974E+03  0.00000000000E+00 0.  1.
          2   -1    0    0  501    0  0.00000000000E+00 -0.00000000000E+00 -0.23874059401E+03  0.23874059401E+03  0.00000000000E+00 0. -1.
         25    2    1    2    0    0 -0.11423267012E+03  0.21842494303E+02 -0.90617582490E+02  0.19335342563E+03  0.12509118061E+03 0.  0.
          5    1    3    3  502    0 -0.11717242377E+03 -0.24246483195E+02 -0.84582206066E+02  0.14659089611E+03  0.41800000000E+01 0. -1.
         -5    1    3    3    0  502  0.29397536519E+01  0.46088977498E+02 -0.60353764235E+01  0.46762529518E+02  0.41800000000E+01 0. -1.
        -11    1    1    2    0    0  0.85244651951E+02  0.25406174045E+02 -0.41783361262E+02  0.98274989922E+02  0.00000000000E+00 0.  1.
         11    1    1    2    0    0  0.28988018169E+02 -0.47248668348E+02  0.20171794830E+01  0.55469008203E+02  0.00000000000E+00 0. -1.
</event>
<event>
 7    1  0.2766180E-009  0.9653271E+02  0.7561462E-02  0.1287761E+00
          1   -1    0    0  501    0  0.00000000000E+00  0.00000000000E+00  0.16327946107E+03  0.16327946107E+03  0.00000000000E+00 0. -1.
         -1   -1    0    0    0  501 -0.00000000000E+00 -0.00000000000E+00 -0.89928864300E+02  0.89928864300E+02  0.00000000000E+00 0.  1.
         25    2    1    2    0    0 -0.58952464943E+01 -0.29025483557E+01 -0.14054177945E+02  0.12604821544E+03  0.12508978367E+03 0.  0.
          5    1    3    3  502    0  0.20450290172E+02 -0.58996083092E+02 -0.13055270382E+02  0.63927026155E+02  0.41800000000E+01 0.  1.
         -5    1    3    3    0  502 -0.26345536666E+02  0.56093534736E+02 -0.99890756324E+00  0.62121189282E+02  0.41800000000E+01 0.  1.
        -11    1    1    2    0    0 -0.40488907093E+01  0.34762114003E+02  0.15332850550E+01  0.35030687247E+02  0.00000000000E+00 0.  1.
         11    1    1    2    0    0  0.99441372035E+01 -0.31859565648E+02  0.85871489662E+02  0.92129422687E+02  0.00000000000E+00 0. -1.
</event>
<event>
 7    1  0.2766180E-009  0.1158837E+03  0.7561462E-02  0.1250046E+00
         -1   -1    0    0    0  501 -0.00000000000E+00  0.00000000000E+00  0.10277390865E+03  0.10277390865E+03  0.00000000000E+00 0.  1.
          1   -1    0    0  501    0  0.00000000000E+00 -0.00000000000E+00 -0.21439013039E+03  0.21439013039E+03  0.00000000000E+00 0. -1.
         25    2    1    2    0    0  0.61926597741E+02 -0.39470761658E+02  0.13158645064E+02  0.14564722752E+03  0.12508845035E+03 0.  0.
          5    1    3    3  502    0 -0.13830958082E+00 -0.51299648045E+02 -0.38216666471E+02  0.64106622242E+02  0.41800000000E+01 0.  1.
         -5    1    3    3    0  502  0.62064907321E+02  0.11828886388E+02  0.51375311535E+02  0.81540605279E+02  0.41800000000E+01 0.  1.
        -11    1    1    2    0    0 -0.48512124070E+02 -0.22568134741E+02 -0.66477884135E+02  0.85334963330E+02  0.00000000000E+00 0.  1.
         11    1    1    2    0    0 -0.13414473671E+02  0.62038896399E+02 -0.58296982667E+02  0.86181848195E+02  0.00000000000E+00 0. -1.
</event>
<event>
 7    1  0.2766180E-009  0.9849846E+02  0.7561462E-02  0.1283486E+00
         -1   -1    0    0    0  501 -0.00000000000E+00  0.00000000000E+00  0.14192598532E+03  0.14192598532E+03  0.00000000000E+00 0.  1.
          1   -1    0    0  501    0  0.00000000000E+00 -0.00000000000E+00 -0.12657724446E+03  0.12657724446E+03  0.00000000000E+00 0. -1.
         25    2    1    2    0    0 -0.34803818025E+02  0.62434948466E+02  0.40178563393E+02  0.14957049419E+03  0.12509031632E+03 0.  0.
          5    1    3    3  502    0 -0.51570798799E+00  0.39421896989E+02 -0.41844568997E+02  0.57643666360E+02  0.41800000000E+01 0.  1.
         -5    1    3    3    0  502 -0.34288110037E+02  0.23013051477E+02  0.82023132389E+02  0.91926827831E+02  0.41800000000E+01 0.  1.
        -11    1    1    2    0    0  0.16767088060E+02 -0.85180848902E+02 -0.13936645432E+02  0.87926914807E+02  0.00000000000E+00 0.  1.
         11    1    1    2    0    0  0.18036729965E+02  0.22745900436E+02 -0.10893177102E+02  0.31005820773E+02  0.00000000000E+00 0. -1.
</event>
<event>
 7    1  0.2766180E-009  0.1148461E+03  0.7561462E-02  0.1251850E+00
         -2   -1    0    0    0  501 -0.00000000000E+00  0.00000000000E+00  0.12856101856E+02  0.12856101856E+02  0.00000000000E+00 0.  1.
          2   -1    0    0  501    0  0.00000000000E+00 -0.00000000000E+00 -0.17011361749E+04  0.17011361749E+04  0.00000000000E+00 0. -1.
         25    2    1    2    0    0  0.53533217266E+02  0.92109279970E+01 -0.14087712171E+04  0.14153565630E+04  0.12508881567E+03 0.  0.
          5    1    3    3  502    0 -0.27028594341E+02 -0.25533062064E+02 -0.72532330096E+03  0.72628771536E+03  0.41800000000E+01 0. -1.
         -5    1    3    3    0  502  0.80561811607E+02  0.34743990061E+02 -0.68344791612E+03  0.68906884763E+03  0.41800000000E+01 0. -1.
        -11    1    1    2    0    0 -0.74007833960E+02 -0.25500621654E+02 -0.22364386956E+03  0.23694729706E+03  0.00000000000E+00 0.  1.
         11    1    1    2    0    0  0.20474616694E+02  0.16289693657E+02 -0.55864986359E+02  0.61688416653E+02  0.00000000000E+00 0. -1.
</event>
<event>
 7    1  0.2766180E-009  0.1198963E+03  0.7561462E-02  0.1243268E+00
          2   -1    0    0  501    0  0.00000000000E+00  0.00000000000E+00  0.72794986057E+03  0.72794986057E+03  0.00000000000E+00 0. -1.
         -2   -1    0    0    0  501 -0.00000000000E+00 -0.00000000000E+00 -0.25469289047E+02  0.25469289047E+02  0.00000000000E+00 0.  1.
         25    2    1    2    0    0  0.70011319099E+00  0.68221202784E+02  0.51713818522E+03  0.53640781299E+03  0.12508723577E+03 0.  0.
          5    1    3    3  502    0 -0.15327746746E+02 -0.34046158700E+02  0.17203006947E+03  0.17608491686E+03  0.41800000000E+01 0. -1.
         -5    1    3    3    0  502  0.16027859937E+02  0.10226736148E+03  0.34510811575E+03  0.36032289613E+03  0.41800000000E+01 0. -1.
        -11    1    1    2    0    0 -0.10796308457E+02  0.12930130419E+02  0.29175639558E+01  0.17095634776E+02  0.00000000000E+00 0.  1.
         11    1    1    2    0    0  0.10096195266E+02 -0.81151333203E+02  0.18242482235E+03  0.19991570186E+03  0.00000000000E+00 0. -1.
</event>
<event>
 7    1  0.3123244E-009  0.1044087E+03  0.7561462E-02  0.1271289E+00
          1   -1    0    0  501    0  0.00000000000E+00  0.00000000000E+00  0.50739857261E+03  0.50739857261E+03  0.00000000000E+00 0. -1.
         -1   -1    0    0    0  501 -0.00000000000E+00 -0.00000000000E+00 -0.36311718760E+02  0.36311718760E+02  0.00000000000E+00 0.  1.
         25    2    1    2    0    0  0.66398871590E+02  0.37544111270E+02  0.31408210643E+03  0.34657654355E+03  0.12509740415E+03 0.  0.
          5    1    3    3  502    0  0.80225630132E+02  0.33159850789E+02  0.31905735272E+03  0.33068231606E+03  0.41800000000E+01 0.  1.
         -5    1    3    3    0  502 -0.13826758542E+02  0.43842604815E+01 -0.49752462924E+01  0.15894227488E+02  0.41800000000E+01 0.  1.
        -11    1    1    2    0    0 -0.63161722176E+01  0.21599691677E+02  0.79463644268E+02  0.82588809607E+02  0.00000000000E+00 0. -1.
         11    1    1    2    0    0 -0.60082699372E+02 -0.59143802947E+02  0.77541103159E+02  0.11454493821E+03  0.00000000000E+00 0.  1.
</event>
<event>
 7    1  0.2766180E-009  0.2488200E+03  0.7561462E-02  0.1114053E+00
         -2   -1    0    0    0  501 -0.00000000000E+00  0.00000000000E+00  0.31723097701E+03  0.31723097701E+03  0.00000000000E+00 0.  1.
          2   -1    0    0  501    0  0.00000000000E+00 -0.00000000000E+00 -0.23034655997E+03  0.23034655997E+03  0.00000000000E+00 0. -1.
         25    2    1    2    0    0  0.35279769461E+02  0.22292744280E+03  0.14678670234E+03  0.29687005814E+03  0.12507673064E+03 0.  0.
          5    1    3    3  502    0 -0.41250715801E+02  0.11170502277E+03  0.94318663257E+02  0.15196419415E+03  0.41800000000E+01 0.  1.
         -5    1    3    3    0  502  0.76530485262E+02  0.11122242004E+03  0.52468039088E+02  0.14490586399E+03  0.41800000000E+01 0.  1.
        -11    1    1    2    0    0  0.31179007488E+02 -0.65949627501E+02 -0.16120031690E+02  0.74708361628E+02  0.00000000000E+00 0.  1.
         11    1    1    2    0    0 -0.66458776949E+02 -0.15697781530E+03 -0.43782253615E+02  0.17599911722E+03  0.00000000000E+00 0. -1.
</event>
<event>
 7    1  0.2766180E-009  0.2898115E+03  0.7561462E-02  0.1090448E+00
          2   -1    0    0  501    0  0.00000000000E+00  0.00000000000E+00  0.10552863755E+04  0.10552863755E+04  0.00000000000E+00 0. -1.
         -2   -1    0    0    0  501 -0.00000000000E+00 -0.00000000000E+00 -0.13248257105E+03  0.13248257105E+03  0.00000000000E+00 0.  1.
         25    2    1    2    0    0  0.27294336108E+03  0.15332451228E+02  0.83084863862E+03  0.88356698991E+03  0.12509197787E+03 0.  0.
          5    1    3    3  502    0  0.28317896744E+03  0.17607023299E+02  0.74909058348E+03  0.80103340101E+03  0.41800000000E+01 0.  1.
         -5    1    3    3    0  502 -0.10235606358E+02 -0.22745720713E+01  0.81758055145E+02  0.82533588900E+02  0.41800000000E+01 0.  1.
        -11    1    1    2    0    0 -0.10972542098E+03  0.32603748244E+02  0.65972282424E+02  0.13211742678E+03  0.00000000000E+00 0.  1.
         11    1    1    2    0    0 -0.16321794010E+03 -0.47936199472E+02  0.25982883397E+02  0.17208452987E+03  0.00000000000E+00 0. -1.
</event>
<event>
 7    1  0.2766180E-009  0.9957806E+02  0.7561462E-02  0.1281186E+00
          1   -1    0    0  501    0  0.00000000000E+00  0.00000000000E+00  0.12325886256E+03  0.12325886256E+03  0.00000000000E+00 0. -1.
         -1   -1    0    0    0  501 -0.00000000000E+00 -0.00000000000E+00 -0.11884197025E+03  0.11884197025E+03  0.00000000000E+00 0.  1.
         25    2    1    2    0    0  0.43564072514E+02 -0.35052914983E+02  0.74624868955E+01  0.13721802043E+03  0.12508621490E+03 0.  0.
          5    1    3    3  502    0 -0.29482920169E+02 -0.44615845326E+02 -0.21716222957E+02  0.57869534086E+02  0.41800000000E+01 0.  1.
         -5    1    3    3    0  502  0.73046992684E+02  0.95629303433E+01  0.29178709852E+02  0.79348486347E+02  0.41800000000E+01 0.  1.
        -11    1    1    2    0    0 -0.34680962657E+02  0.46012954807E+02  0.32842122729E+02  0.66321687299E+02  0.00000000000E+00 0. -1.
         11    1    1    2    0    0 -0.88831098569E+01 -0.10960039824E+02 -0.35887717309E+02  0.38561125078E+02  0.00000000000E+00 0.  1.
</event>
<event>
 7    1  0.2766180E-009  0.1064001E+03  0.7561462E-02  0.1267385E+00
         -2   -1    0    0    0  501 -0.00000000000E+00  0.00000000000E+00  0.14889381196E+02  0.14889381196E+02  0.00000000000E+00 0.  1.
          2   -1    0    0  501    0  0.00000000000E+00 -0.00000000000E+00 -0.10260671682E+04  0.10260671682E+04  0.00000000000E+00 0. -1.
         25    2    1    2    0    0  0.47900251384E+02 -0.17142042589E+02 -0.71227014074E+03  0.72495785846E+03  0.12508740720E+03 0.  0.
          5    1    3    3  502    0  0.69881536278E+02  0.30599737143E+02 -0.31142013129E+03  0.32065517866E+03  0.41800000000E+01 0. -1.
         -5    1    3    3    0  502 -0.21981284894E+02 -0.47741779732E+02 -0.40085000945E+03  0.40430267980E+03  0.41800000000E+01 0. -1.
        -11    1    1    2    0    0 -0.33032999791E+02 -0.23406470071E+02 -0.54982441464E+02  0.68279651330E+02  0.00000000000E+00 0.  1.
         11    1    1    2    0    0 -0.14867251594E+02  0.40548512660E+02 -0.24392520477E+03  0.24771903958E+03  0.00000000000E+00 0. -1.
</event>
<event>
 7    1  0.2766180E-009  0.7008432E+02  0.7561462E-02  0.1359807E+00
          2   -1    0    0  501    0  0.00000000000E+00  0.00000000000E+00  0.23374468998E+03  0.23374468998E+03  0.00000000000E+00 0. -1.
         -2   -1    0    0    0  501 -0.00000000000E+00 -0.00000000000E+00 -0.70897214613E+02  0.70897214613E+02  0.00000000000E+00 0.  1.
         25    2    1    2    0    0  0.62568202881E+02  0.17061016343E+02  0.11037382119E+03  0.17898454752E+03  0.12508888662E+03 0.  0.
          5    1    3    3  502    0  0.43800827596E+02 -0.69233503670E+01 -0.17209515273E+02  0.47750236589E+02  0.41800000000E+01 0. -1.
         -5    1    3    3    0  502  0.18767375286E+02  0.23984366710E+02  0.12758333647E+03  0.13123431093E+03  0.41800000000E+01 0. -1.
        -11    1    1    2    0    0 -0.46315816617E+02 -0.13593719512E+02 -0.19300026566E+02  0.51984950750E+02  0.00000000000E+00 0.  1.
         11    1    1    2    0    0 -0.16252386264E+02 -0.34672968315E+01  0.71773680743E+02  0.73672406327E+02  0.00000000000E+00 0. -1.
</event>
<event>
 7    1  0.2766180E-009  0.1038106E+03  0.7561462E-02  0.1272481E+00
          2   -1    0    0  501    0  0.00000000000E+00  0.00000000000E+00  0.54484936338E+03  0.54484936338E+03  0.00000000000E+00 0. -1.
         -2   -1    0    0    0  501 -0.00000000000E+00 -0.00000000000E+00 -0.27327780826E+02  0.27327780826E+02  0.00000000000E+00 0.  1.
         25    2    1    2    0    0  0.44335354978E+02  0.30604276933E+02  0.32642472323E+03  0.35369854281E+03  0.12508922328E+03 0.  0.
          5    1    3    3  502    0 -0.14030339273E+02 -0.20091337840E+02  0.22364125236E+03  0.22501865352E+03  0.41800000000E+01 0. -1.
         -5    1    3    3    0  502  0.58365694251E+02  0.50695614773E+02  0.10278347087E+03  0.12867988929E+03  0.41800000000E+01 0. -1.
        -11    1    1    2    0    0 -0.20936490319E+02  0.32149881528E+02  0.59072684157E+02  0.70438153885E+02  0.00000000000E+00 0.  1.
         11    1    1    2    0    0 -0.23398864659E+02 -0.62754158460E+02  0.13202417517E+03  0.14804044751E+03  0.00000000000E+00 0. -1.
</event>
<event>
 7    1  0.2766180E-009  0.1025003E+03  0.7561462E-02  0.1275124E+00
          3   -1    0    0  501    0  0.00000000000E+00  0.00000000000E+00  0.21025988982E+03  0.21025988982E+03  0.00000000000E+00 0. -1.
         -3   -1    0    0    0  501 -0.00000000000E+00 -0.00000000000E+00 -0.61742983309E+02  0.61742983309E+02  0.00000000000E+00 0.  1.
         25    2    1    2    0    0 -0.19548225593E+02  0.16867194467E+02  0.11183231153E+03  0.16976969918E+03  0.12509456217E+03 0.  0.
          5    1    3    3  502    0 -0.27141127309E+02  0.67139862004E+02  0.43805318229E+02  0.84739484107E+02  0.41800000000E+01 0.  1.
         -5    1    3    3    0  502  0.75929017159E+01 -0.50272667537E+02  0.68026993301E+02  0.85030215073E+02  0.41800000000E+01 0.  1.
        -11    1    1    2    0    0  0.23603894301E+02  0.27872503987E+02  0.43495316335E+02  0.56796679901E+02  0.00000000000E+00 0. -1.
         11    1    1    2    0    0 -0.40556687079E+01 -0.44739698454E+02 -0.68107213503E+01  0.45436494052E+02  0.00000000000E+00 0.  1.
</event>
<event>
 7    1  0.2766180E-009  0.2235480E+03  0.7561462E-02  0.1131265E+00
         -2   -1    0    0    0  501 -0.00000000000E+00  0.00000000000E+00  0.63859908282E+02  0.63859908282E+02  0.00000000000E+00 0.  1.
          2   -1    0    0  501    0  0.00000000000E+00 -0.00000000000E+00 -0.96555621285E+03  0.96555621285E+03  0.00000000000E+00 0. -1.
         25    2    1    2    0    0 -0.15350903412E+03  0.12687737242E+03 -0.66992414192E+03  0.71000620784E+03  0.12509023965E+03 0.  0.
          5    1    3    3  502    0 -0.15153607040E+03  0.14892578815E+03 -0.61275634966E+03  0.64855985650E+03  0.41800000000E+01 0. -1.
         -5    1    3    3    0  502 -0.19729637137E+01 -0.22048415724E+02 -0.57167792257E+02  0.61446351343E+02  0.41800000000E+01 0. -1.
        -11    1    1    2    0    0  0.13271349979E+03 -0.66984215322E+02 -0.19793741638E+03  0.24754591277E+03  0.00000000000E+00 0. -1.
         11    1    1    2    0    0  0.20795534332E+02 -0.59893157099E+02 -0.33834746267E+02  0.71864000518E+02  0.00000000000E+00 0.  1.
</event>
<event>
 7    1  0.2766180E-009  0.1070707E+03  0.7561462E-02  0.1266093E+00
         -2   -1    0    0    0  501 -0.00000000000E+00  0.00000000000E+00  0.26746709069E+03  0.26746709069E+03  0.00000000000E+00 0.  1.
          2   -1    0    0  501    0  0.00000000000E+00 -0.00000000000E+00 -0.47633441242E+02  0.47633441242E+02  0.00000000000E+00 0. -1.
         25    2    1    2    0    0 -0.26650128692E+02 -0.80258893662E+01  0.98887888910E+02  0.16186879332E+03  0.12509215570E+03 0.  0.
          5    1    3    3  502    0  0.48354465485E+02  0.22429642628E+01  0.58222830657E+02  0.75832418073E+02  0.41800000000E+01 0. -1.
         -5    1    3    3    0  502 -0.75004594177E+02 -0.10268853629E+02  0.40665058253E+02  0.86036375245E+02  0.41800000000E+01 0. -1.
        -11    1    1    2    0    0  0.34877311594E+02 -0.32926668899E+02  0.87247543502E+02  0.99562674913E+02  0.00000000000E+00 0.  1.
         11    1    1    2    0    0 -0.82271829025E+01  0.40952558266E+02  0.33698217031E+02  0.53669063697E+02  0.00000000000E+00 0. -1.
</event>
<event>
 7    1  0.2766180E-009  0.1779221E+03  0.7561462E-02  0.1169829E+00
          1   -1    0    0  501    0  0.00000000000E+00  0.00000000000E+00  0.37752674774E+03  0.37752674774E+03  0.00000000000E+00 0. -1.
         -1   -1    0    0    0  501 -0.00000000000E+00 -0.00000000000E+00 -0.10964572053E+03  0.10964572053E+03  0.00000000000E+00 0.  1.
         25    2    1    2    0    0 -0.14073338997E+03  0.97457933372E+02  0.12088500972E+03  0.24405788876E+03  0.12508849532E+03 0.  0.
          5    1    3    3  502    0 -0.13459775202E+03  0.86253713325E+02  0.43796887395E+02  0.16580680823E+03  0.41800000000E+01 0.  1.
         -5    1    3    3    0  502 -0.61356379505E+01  0.11204220047E+02  0.77088122324E+02  0.78251080526E+02  0.41800000000E+01 0.  1.
        -11    1    1    2    0    0 -0.65161042145E+00 -0.22405447411E+02 -0.43389067236E+01  0.22831004826E+02  0.00000000000E+00 0.  1.
         11    1    1    2    0    0  0.14138500039E+03 -0.75052485962E+02  0.15133492421E+03  0.22028357468E+03  0.00000000000E+00 0. -1.
</event>
<event>
 7    1  0.3148153E-009  0.9876897E+02  0.7561462E-02  0.1282906E+00
         -4   -1    0    0    0  501 -0.00000000000E+00  0.00000000000E+00  0.60381786797E+02  0.60381786797E+02  0.00000000000E+00 0.  1.
          4   -1    0    0  501    0  0.00000000000E+00 -0.00000000000E+00 -0.22097767549E+03  0.22097767549E+03  0.00000000000E+00 0. -1.
         25    2    1    2    0    0 -0.25915601497E+02  0.28203174082E+02 -0.97562922647E+02  0.16319691888E+03  0.12509065923E+03 0.  0.
          5    1    3    3  502    0  0.25346017671E+02  0.63424123093E+02 -0.53491938800E+02  0.86855626868E+02  0.41800000000E+01 0. -1.
         -5    1    3    3    0  502 -0.51261619168E+02 -0.35220949012E+02 -0.44070983846E+02  0.76341292013E+02  0.41800000000E+01 0. -1.
        -11    1    1    2    0    0  0.43152798464E+02 -0.22139199564E+02  0.40175919069E+01  0.48666715703E+02  0.00000000000E+00 0.  1.
         11    1    1    2    0    0 -0.17237196967E+02 -0.60639745173E+01 -0.67050557955E+02  0.69495827704E+02  0.00000000000E+00 0. -1.
</event>
<event>
 7    1  0.2766180E-009  0.1673478E+03  0.7561462E-02  0.1180642E+00
         -2   -1    0    0    0  501 -0.00000000000E+00  0.00000000000E+00  0.12742396960E+03  0.12742396960E+03  0.00000000000E+00 0.  1.
          2   -1    0    0  501    0  0.00000000000E+00 -0.00000000000E+00 -0.24396833316E+03  0.24396833316E+03  0.00000000000E+00 0. -1.
         25    2    1    2    0    0 -0.53932120632E+02  0.12322158155E+03 -0.96207599653E+02  0.20735335605E+03  0.12508908921E+03 0.  0.
          5    1    3    3  502    0 -0.93466941822E+02  0.69107190132E+02 -0.65847437278E+02  0.13366087811E+03  0.41800000000E+01 0.  1.
         -5    1    3    3    0  502  0.39534821191E+02  0.54114391419E+02 -0.30360162375E+02  0.73692477938E+02  0.41800000000E+01 0.  1.
        -11    1    1    2    0    0  0.43533710563E+02 -0.20735630861E+02  0.21575758324E+02  0.52826732720E+02  0.00000000000E+00 0.  1.
         11    1    1    2    0    0  0.10398410069E+02 -0.10248595069E+03 -0.41912522232E+02  0.11121221399E+03  0.00000000000E+00 0. -1.
</event>
<event>
 7    1  0.2766180E-009  0.1646714E+03  0.7561462E-02  0.1183521E+00
         -2   -1    0    0    0  501 -0.00000000000E+00  0.00000000000E+00  0.45461118082E+02  0.45461118082E+02  0.00000000000E+00 0.  1.
          2   -1    0    0  501    0  0.00000000000E+00 -0.00000000000E+00 -0.82747543936E+03  0.82747543936E+03  0.00000000000E+00 0. -1.
         25    2    1    2    0    0 -0.12865325235E+03 -0.52245285285E+02 -0.58725009035E+03  0.61627125341E+03  0.12508541079E+03 0.  0.
          5    1    3    3  502    0 -0.12134796712E+03  0.10304349651E+02 -0.34315260171E+03  0.36414652162E+03  0.41800000000E+01 0.  1.
         -5    1    3    3    0  502 -0.73052852316E+01 -0.62549634936E+02 -0.24409748864E+03  0.25212473179E+03  0.41800000000E+01 0.  1.
        -11    1    1    2    0    0  0.35520886350E+02 -0.37258165433E+01 -0.24769458879E+01  0.35801540986E+02  0.00000000000E+00 0.  1.
         11    1    1    2    0    0  0.93132366001E+02  0.55971101828E+02 -0.19228728504E+03  0.22086376304E+03  0.00000000000E+00 0. -1.
</event>
<event>
 7    1  0.2766180E-009  0.2955627E+03  0.7561462E-02  0.1087480E+00
          1   -1    0    0  501    0  0.00000000000E+00  0.00000000000E+00  0.12972319535E+04  0.12972319535E+04  0.00000000000E+00 0. -1.
         -1   -1    0    0    0  501 -0.00000000000E+00 -0.00000000000E+00 -0.76259741622E+02  0.76259741622E+02  0.00000000000E+00 0.  1.
         25    2    1    2    0    0 -0.20708766670E+01  0.29022071692E+03  0.73833127851E+03  0.80312726922E+03  0.12509188897E+03 0.  0.
          5    1    3    3  502    0 -0.30518095097E+02  0.15494463263E+03  0.25120929564E+03  0.29675372942E+03  0.41800000000E+01 0. -1.
         -5    1    3    3    0  502  0.28447218430E+02  0.13527608428E+03  0.48712198287E+03  0.50637353980E+03  0.41800000000E+01 0. -1.
        -11    1    1    2    0    0 -0.24978024721E+02 -0.14337561584E+03  0.30758705496E+03  0.34027968689E+03  0.00000000000E+00 0. -1.
         11    1    1    2    0    0  0.27048901388E+02 -0.14684510108E+03  0.17505387842E+03  0.23008473901E+03  0.00000000000E+00 0.  1.
</event>
<event>
 7    1  0.2766180E-009  0.1885666E+03  0.7561462E-02  0.1159761E+00
         -2   -1    0    0    0  501 -0.00000000000E+00  0.00000000000E+00  0.32102453992E+02  0.32102453992E+02  0.00000000000E+00 0.  1.
          2   -1    0    0  501    0  0.00000000000E+00 -0.00000000000E+00 -0.11749505371E+04  0.11749505371E+04  0.00000000000E+00 0. -1.
         25    2    1    2    0    0 -0.15952956575E+03 -0.13438045521E+02 -0.61708581474E+03  0.64967101521E+03  0.12508901566E+03 0.  0.
          5    1    3    3  502    0 -0.12273243916E+03  0.47391472699E+02 -0.41759531723E+03  0.43784988829E+03  0.41800000000E+01 0.  1.
         -5    1    3    3    0  502 -0.36797126592E+02 -0.60829518220E+02 -0.19949049751E+03  0.21182112692E+03  0.41800000000E+01 0.  1.
        -11    1    1    2    0    0  0.16720156765E+02  0.26014210201E+02 -0.18690410422E+03  0.18944510273E+03  0.00000000000E+00 0. -1.
         11    1    1    2    0    0  0.14280940898E+03 -0.12576164680E+02 -0.33885816414E+03  0.36793687314E+03  0.00000000000E+00 0.  1.
</event>
<event>
 7    1  0.2766180E-009  0.1139305E+03  0.7561462E-02  0.1253460E+00
         -3   -1    0    0    0  501 -0.00000000000E+00  0.00000000000E+00  0.77332266650E+02  0.77332266650E+02  0.00000000000E+00 0.  1.
          3   -1    0    0  501    0  0.00000000000E+00 -0.00000000000E+00 -0.20817422365E+03  0.20817422365E+03  0.00000000000E+00 0. -1.
         25    2    1    2    0    0 -0.69014705769E+02  0.10558324983E+02 -0.10607678743E+03  0.17825491413E+03  0.12509205307E+03 0.  0.
          5    1    3    3  502    0 -0.10023234305E+03 -0.12380694069E+02 -0.58608461302E+02  0.11684275037E+03  0.41800000000E+01 0. -1.
         -5    1    3    3    0  502  0.31217637279E+02  0.22939019052E+02 -0.47468326126E+02  0.61412163759E+02  0.41800000000E+01 0. -1.
        -11    1    1    2    0    0  0.62421615061E+02 -0.28560156796E+02  0.81837720627E+01  0.69131141378E+02  0.00000000000E+00 0.  1.
         11    1    1    2    0    0  0.65930907079E+01  0.18001831813E+02 -0.32948941634E+02  0.38120434789E+02  0.00000000000E+00 0. -1.
</event>
<event>
 7    1  0.2766180E-009  0.9200900E+02  0.7561462E-02  0.1298058E+00
          1   -1    0    0  501    0  0.00000000000E+00  0.00000000000E+00  0.15397503884E+03  0.15397503884E+03  0.00000000000E+00 0. -1.
         -1   -1    0    0    0  501 -0.00000000000E+00 -0.00000000000E+00 -0.91991611630E+02  0.91991611630E+02  0.00000000000E+00 0.  1.
         25    2    1    2    0    0 -0.27048317120E+02  0.31539164683E+02  0.61606996972E+01  0.13195239895E+03  0.12508857262E+03 0.  0.
          5    1    3    3  502    0 -0.60308904685E+02 -0.87930443537E+01  0.36698081505E+02  0.71265020869E+02  0.41800000000E+01 0.  1.
         -5    1    3    3    0  502  0.33260587564E+02  0.40332209036E+02 -0.30537381808E+02  0.60687378083E+02  0.41800000000E+01 0.  1.
        -11    1    1    2    0    0  0.44463515014E+02 -0.28478184984E+02  0.72512224668E+02  0.89699687367E+02  0.00000000000E+00 0. -1.
         11    1    1    2    0    0 -0.17415197893E+02 -0.30609796989E+01 -0.16689497157E+02  0.24314564149E+02  0.00000000000E+00 0.  1.
</event>
<event>
 7    1  0.2766180E-009  0.1469343E+03  0.7561462E-02  0.1204291E+00
         -2   -1    0    0    0  501 -0.00000000000E+00  0.00000000000E+00  0.11012542102E+03  0.11012542102E+03  0.00000000000E+00 0. -1.
          2   -1    0    0  501    0  0.00000000000E+00 -0.00000000000E+00 -0.24511713323E+03  0.24511713323E+03  0.00000000000E+00 0.  1.
         25    2    1    2    0    0 -0.35262878134E+01  0.11901398138E+03 -0.41696998632E+02  0.17765983034E+03  0.12509041990E+03 0.  0.
          5    1    3    3  502    0 -0.12620828317E+02  0.14330365488E+03 -0.45885634182E+02  0.15105689867E+03  0.41800000000E+01 0. -1.
         -5    1    3    3    0  502  0.90945405038E+01 -0.24289673500E+02  0.41886355504E+01  0.26602931671E+02  0.41800000000E+01 0. -1.
        -11    1    1    2    0    0 -0.84717744716E+01 -0.10452030709E+03 -0.11032113951E+03  0.15220715943E+03  0.00000000000E+00 0.  1.
         11    1    1    2    0    0  0.11998062285E+02 -0.14493674293E+02  0.17026425931E+02  0.25375564488E+02  0.00000000000E+00 0. -1.
</event>
<event>
 7    1  0.2766180E-009  0.1342570E+03  0.7561462E-02  0.1221272E+00
         -1   -1    0    0    0  501 -0.00000000000E+00  0.00000000000E+00  0.24123455444E+02  0.24123455444E+02  0.00000000000E+00 0.  1.
          1   -1    0    0  501    0  0.00000000000E+00 -0.00000000000E+00 -0.90223514346E+03  0.90223514346E+03  0.00000000000E+00 0. -1.
         25    2    1    2    0    0 -0.66735220131E+02  0.11212148141E+01 -0.56908736292E+03  0.58648420391E+03  0.12509375710E+03 0.  0.
          5    1    3    3  502    0 -0.66779684539E+02  0.55620513420E+02 -0.36102194441E+03  0.37135896990E+03  0.41800000000E+01 0. -1.
         -5    1    3    3    0  502  0.44464407427E-01 -0.54499298606E+02 -0.20806541852E+03  0.21512523401E+03  0.41800000000E+01 0. -1.
        -11    1    1    2    0    0  0.94505146672E+02  0.13494716559E+02 -0.15013181197E+03  0.17791259395E+03  0.00000000000E+00 0.  1.
         11    1    1    2    0    0 -0.27769926540E+02 -0.14615931373E+02 -0.15889251313E+03  0.16196180104E+03  0.00000000000E+00 0. -1.
</event>
<event>
 7    1  0.2766180E-009  0.1209404E+03  0.7561462E-02  0.1241554E+00
         -4   -1    0    0    0  501 -0.00000000000E+00  0.00000000000E+00  0.14705544590E+03  0.14705544590E+03  0.00000000000E+00 0.  1.
          4   -1    0    0  501    0  0.00000000000E+00 -0.00000000000E+00 -0.12723969790E+03  0.12723969790E+03  0.00000000000E+00 0. -1.
         25    2    1    2    0    0  0.56793314235E+02 -0.89011917524E+01 -0.47824242534E+02  0.14572373680E+03  0.12507412816E+03 0.  0.
          5    1    3    3  502    0  0.38286199804E+02  0.57125730452E+02 -0.21835786948E+02  0.72273481767E+02  0.41800000000E+01 0. -1.
         -5    1    3    3    0  502  0.18507114431E+02 -0.66026922204E+02 -0.25988455586E+02  0.73450255031E+02  0.41800000000E+01 0. -1.
        -11    1    1    2    0    0 -0.75943852164E+02 -0.10919783513E+02  0.65580953462E+02  0.10093350192E+03  0.00000000000E+00 0.  1.
         11    1    1    2    0    0  0.19150537930E+02  0.19820975265E+02  0.20590370772E+01  0.27637905079E+02  0.00000000000E+00 0. -1.
</event>
<event>
 7    1  0.2766180E-009  0.1151966E+03  0.7561462E-02  0.1251238E+00
         -1   -1    0    0    0  501 -0.00000000000E+00  0.00000000000E+00  0.36874812689E+02  0.36874812689E+02  0.00000000000E+00 0.  1.
          1   -1    0    0  501    0  0.00000000000E+00 -0.00000000000E+00 -0.39782814359E+03  0.39782814359E+03  0.00000000000E+00 0. -1.
         25    2    1    2    0    0 -0.96233539939E+00 -0.79827941807E+01 -0.20250146800E+03  0.23815904304E+03  0.12509290208E+03 0.  0.
          5    1    3    3  502    0 -0.38693428088E+02  0.41914471446E+02 -0.13172335404E+03  0.14360542710E+03  0.41800000000E+01 0. -1.
         -5    1    3    3    0  502  0.37731092689E+02 -0.49897265626E+02 -0.70778113960E+02  0.94553615945E+02  0.41800000000E+01 0. -1.
        -11    1    1    2    0    0 -0.38499212083E+01  0.59065560569E+02 -0.53785245952E+02  0.79977590741E+02  0.00000000000E+00 0. -1.
         11    1    1    2    0    0  0.48122566077E+01 -0.51082766388E+02 -0.10466661695E+03  0.11656632249E+03  0.00000000000E+00 0.  1.
</event>
<event>
 7    1  0.2766180E-009  0.1097137E+03  0.7561462E-02  0.1261101E+00
          1   -1    0    0  501    0  0.00000000000E+00  0.00000000000E+00  0.15263461374E+03  0.15263461374E+03  0.00000000000E+00 0. -1.
         -1   -1    0    0    0  501 -0.00000000000E+00 -0.00000000000E+00 -0.86516029097E+02  0.86516029097E+02  0.00000000000E+00 0.  1.
         25    2    1    2    0    0 -0.12212428175E+01  0.28157130765E+02  0.10989366245E+02  0.12869822227E+03  0.12509256891E+03 0.  0.
          5    1    3    3  502    0  0.61049599765E+02  0.23060330667E+02  0.93456953682E+01  0.66057905688E+02  0.41800000000E+01 0.  1.
         -5    1    3    3    0  502 -0.62270842583E+02  0.50968000983E+01  0.16436708773E+01  0.62640316579E+02  0.41800000000E+01 0.  1.
        -11    1    1    2    0    0 -0.34235074302E+02 -0.41261417357E+02  0.15780845151E+02  0.55888996667E+02  0.00000000000E+00 0.  1.
         11    1    1    2    0    0  0.35456317120E+02  0.13104286592E+02  0.39348373244E+02  0.54563423900E+02  0.00000000000E+00 0. -1.
</event>
<event>
 7    1  0.2766180E-009  0.1086480E+03  0.7561462E-02  0.1263094E+00
          2   -1    0    0  501    0  0.00000000000E+00  0.00000000000E+00  0.51014701540E+03  0.51014701540E+03  0.00000000000E+00 0. -1.
         -2   -1    0    0    0  501 -0.00000000000E+00 -0.00000000000E+00 -0.32719031471E+02  0.32719031471E+02  0.00000000000E+00 0.  1.
         25    2    1    2    0    0  0.56886145418E+02 -0.40042675984E+02  0.19663379199E+03  0.24320878800E+03  0.12508483909E+03 0.  0.
          5    1    3    3  502    0 -0.15546560327E+02 -0.58928745776E+02  0.12681774481E+03  0.14076400611E+03  0.41800000000E+01 0. -1.
         -5    1    3    3    0  502  0.72432705744E+02  0.18886069792E+02  0.69816047179E+02  0.10244478189E+03  0.41800000000E+01 0. -1.
        -11    1    1    2    0    0 -0.40660165453E+02  0.48213514446E+02  0.27246923537E+03  0.27967351725E+03  0.00000000000E+00 0. -1.
         11    1    1    2    0    0 -0.16225979964E+02 -0.81708384625E+01  0.83249565662E+01  0.19983741612E+02  0.00000000000E+00 0.  1.
</event>
<event>
 7    1  0.2766180E-009  0.2115320E+03  0.7561462E-02  0.1140359E+00
         -2   -1    0    0    0  501 -0.00000000000E+00  0.00000000000E+00  0.67508172105E+02  0.67508172105E+02  0.00000000000E+00 0.  1.
          2   -1    0    0  501    0  0.00000000000E+00 -0.00000000000E+00 -0.93055908231E+03  0.93055908231E+03  0.00000000000E+00 0. -1.
         25    2    1    2    0    0 -0.12258081019E+03 -0.16589201325E+03 -0.62909628798E+03  0.67376289513E+03  0.12509230277E+03 0.  0.
          5    1    3    3  502    0 -0.79272700753E+02 -0.14781669319E+03 -0.58724721025E+03  0.61074601449E+03  0.41800000000E+01 0. -1.
         -5    1    3    3    0  502 -0.43308109437E+02 -0.18075320060E+02 -0.41849077734E+02  0.63016880639E+02  0.41800000000E+01 0. -1.
        -11    1    1    2    0    0  0.70821487497E+02  0.11815062742E+03 -0.91424065427E+02  0.16532880448E+03  0.00000000000E+00 0. -1.
         11    1    1    2    0    0  0.51759322693E+02  0.47741385826E+02 -0.14253055679E+03  0.15897555481E+03  0.00000000000E+00 0.  1.
</event>
<event>
 7    1  0.2766180E-009  0.1395038E+03  0.7561462E-02  0.1213998E+00
         -1   -1    0    0    0  501 -0.00000000000E+00  0.00000000000E+00  0.38083344399E+02  0.38083344399E+02  0.00000000000E+00 0.  1.
          1   -1    0    0  501    0  0.00000000000E+00 -0.00000000000E+00 -0.53625828867E+03  0.53625828867E+03  0.00000000000E+00 0. -1.
         25    2    1    2    0    0  0.21020441929E+02  0.87666473803E+02 -0.22027773628E+03  0.26888167669E+03  0.12509118814E+03 0.  0.
          5    1    3    3  502    0  0.63409148559E+02  0.88621977618E+01 -0.10217074146E+03  0.12064655603E+03  0.41800000000E+01 0. -1.
         -5    1    3    3    0  502 -0.42388706630E+02  0.78804276041E+02 -0.11810699482E+03  0.14823512066E+03  0.41800000000E+01 0. -1.
        -11    1    1    2    0    0  0.17387743073E+02 -0.85006717885E+02 -0.16928361878E+03  0.19022465477E+03  0.00000000000E+00 0.  1.
         11    1    1    2    0    0 -0.38408185002E+02 -0.26597559181E+01 -0.10861358922E+03  0.11523530162E+03  0.00000000000E+00 0. -1.
</event>
<event>
 7    1  0.2766180E-009  0.7484284E+02  0.7561462E-02  0.1344358E+00
         -2   -1    0    0    0  501 -0.00000000000E+00  0.00000000000E+00  0.25967276636E+02  0.25967276636E+02  0.00000000000E+00 0. -1.
          2   -1    0    0  501    0  0.00000000000E+00 -0.00000000000E+00 -0.50427144144E+03  0.50427144144E+03  0.00000000000E+00 0.  1.
         25    2    1    2    0    0 -0.12224788525E+02 -0.12026138703E+02 -0.33722374315E+03  0.36008701306E+03  0.12509488622E+03 0.  0.
          5    1    3    3  502    0 -0.35522205277E+02  0.32374957505E+02 -0.27897416866E+03  0.28311486029E+03  0.41800000000E+01 0.  1.
         -5    1    3    3    0  502  0.23297416753E+02 -0.44401096208E+02 -0.58249574498E+02  0.76972152763E+02  0.41800000000E+01 0.  1.
        -11    1    1    2    0    0 -0.14248431303E+02  0.19000679084E+02  0.25953298841E+01  0.23890988625E+02  0.00000000000E+00 0. -1.
         11    1    1    2    0    0  0.26473219828E+02 -0.69745403807E+01 -0.14367575153E+03  0.14626071639E+03  0.00000000000E+00 0.  1.
</event>
<event>
 7    1  0.2766180E-009  0.2120319E+03  0.7561462E-02  0.1139967E+00
          1   -1    0    0  501    0  0.00000000000E+00  0.00000000000E+00  0.44100254247E+03  0.44100254247E+03  0.00000000000E+00 0. -1.
         -1   -1    0    0    0  501 -0.00000000000E+00 -0.00000000000E+00 -0.14138752788E+03  0.14138752788E+03  0.00000000000E+00 0.  1.
         25    2    1    2    0    0  0.52554377040E+02 -0.17433186597E+03  0.30743204251E+03  0.37856971523E+03  0.12508799497E+03 0.  0.
          5    1    3    3  502    0  0.66276066039E+01 -0.17410090748E+03  0.23217370378E+03  0.29030527429E+03  0.41800000000E+01 0. -1.
         -5    1    3    3    0  502  0.45926770436E+02 -0.23095848717E+00  0.75258338731E+02  0.88264440933E+02  0.41800000000E+01 0. -1.
        -11    1    1    2    0    0 -0.72720116434E+02  0.83957033693E+02 -0.45834868587E+01  0.11116657408E+03  0.00000000000E+00 0. -1.
         11    1    1    2    0    0  0.20165739394E+02  0.90374832277E+02 -0.32335410647E+01  0.92653781047E+02  0.00000000000E+00 0.  1.
</event>
<event>
 6    1  0.2766180E-009  0.1397523E+03  0.7561462E-02  0.1213663E+00
          2   -1    0    0  501    0  0.00000000000E+00  0.00000000000E+00  0.83047442625E+03  0.83047442625E+03  0.00000000000E+00 0.  1.
         -2   -1    0    0    0  501 -0.00000000000E+00 -0.00000000000E+00 -0.40331134690E+02  0.40331134690E+02  0.00000000000E+00 0. -1.
          5    1    1    2  502    0  0.19054670268E+02 -0.46831200257E+02  0.58943136774E+01  0.51073056598E+02  0.41800000000E+01 0. -1.
         -5    1    1    2    0  502  0.21726953885E+02 -0.76662997493E+02  0.24703580130E+03  0.25960245614E+03  0.41800000000E+01 0. -1.
        -11    1    1    2    0    0  0.12391133912E+02  0.78070407617E+02  0.18730780990E+03  0.20330456068E+03  0.00000000000E+00 0.  1.
         11    1    1    2    0    0 -0.53172758064E+02  0.45423790133E+02  0.34990536668E+03  0.35682548752E+03  0.00000000000E+00 0. -1.
</event>
<event>
 7    1  0.2766180E-009  0.9998869E+02  0.7561462E-02  0.1280320E+00
         -1   -1    0    0    0  501 -0.00000000000E+00  0.00000000000E+00  0.43126697645E+02  0.43126697645E+02  0.00000000000E+00 0.  1.
          1   -1    0    0  501    0  0.00000000000E+00 -0.00000000000E+00 -0.33203420346E+03  0.33203420346E+03  0.00000000000E+00 0. -1.
         25    2    1    2    0    0 -0.17759525104E+02  0.18891253934E+02 -0.91555969246E+02  0.15717156747E+03  0.12509246944E+03 0.  0.
          5    1    3    3  502    0 -0.62094528522E+02  0.23476417294E+02 -0.14534650680E+02  0.68085248856E+02  0.41800000000E+01 0.  1.
         -5    1    3    3    0  502  0.44335003418E+02 -0.45851633596E+01 -0.77021318565E+02  0.89086318616E+02  0.41800000000E+01 0.  1.
        -11    1    1    2    0    0  0.52188143901E+02 -0.10019232786E+02 -0.14732247755E+03  0.15661385564E+03  0.00000000000E+00 0.  1.
         11    1    1    2    0    0 -0.34428618796E+02 -0.88720211480E+01 -0.50029059023E+02  0.61375477988E+02  0.00000000000E+00 0. -1.
</event>
<event>
 7    1  0.2766180E-009  0.1090812E+03  0.7561462E-02  0.1262281E+00
          2   -1    0    0  501    0  0.00000000000E+00  0.00000000000E+00  0.50479279284E+03  0.50479279284E+03  0.00000000000E+00 0. -1.
         -2   -1    0    0    0  501 -0.00000000000E+00 -0.00000000000E+00 -0.34497046097E+02  0.34497046097E+02  0.00000000000E+00 0.  1.
         25    2    1    2    0    0  0.55318691654E+02 -0.50476414815E+02  0.25310662286E+03  0.29211371241E+03  0.12513765359E+03 0.  0.
          5    1    3    3  502    0  0.62910446338E+02 -0.90007485462E+01  0.23917703561E+03  0.24751134215E+03  0.41800000000E+01 0. -1.
         -5    1    3    3    0  502 -0.75917546844E+01 -0.41475666268E+02  0.13929587251E+02  0.44602370257E+02  0.41800000000E+01 0. -1.
        -11    1    1    2    0    0 -0.38771704027E+02  0.73882696447E+02  0.12229506835E+03  0.14804722763E+03  0.00000000000E+00 0. -1.
         11    1    1    2    0    0 -0.16546987627E+02 -0.23406281633E+02  0.94894055540E+02  0.99128898895E+02  0.00000000000E+00 0.  1.
</event>
<event>
 7    1  0.2766180E-009  0.6602749E+02  0.7561462E-02  0.1374148E+00
          1   -1    0    0  501    0  0.00000000000E+00  0.00000000000E+00  0.17473614872E+03  0.17473614872E+03  0.00000000000E+00 0. -1.
         -1   -1    0    0    0  501 -0.00000000000E+00 -0.00000000000E+00 -0.11250607797E+03  0.11250607797E+03  0.00000000000E+00 0.  1.
         25    2    1    2    0    0  0.49541273406E+02  0.87358325193E+00 -0.41329130798E+02  0.14075395369E+03  0.12509387478E+03 0.  0.
          5    1    3    3  502    0  0.58694496926E+02  0.47448558848E+01 -0.80669485268E+02  0.99962972545E+02  0.41800000000E+01 0.  1.
         -5    1    3    3    0  502 -0.91532235198E+01 -0.38712726329E+01  0.39340354470E+02  0.40790981141E+02  0.41800000000E+01 0.  1.
        -11    1    1    2    0    0 -0.31644993007E+02  0.17855268081E+02  0.11316882118E+03  0.11885873240E+03  0.00000000000E+00 0. -1.
         11    1    1    2    0    0 -0.17896280399E+02 -0.18728851333E+02 -0.96096196337E+01  0.27629540602E+02  0.00000000000E+00 0.  1.
</event>
<event>
 7    1  0.2766180E-009  0.1397240E+03  0.7561462E-02  0.1213701E+00
          2   -1    0    0  501    0  0.00000000000E+00  0.00000000000E+00  0.11478246979E+04  0.11478246979E+04  0.00000000000E+00 0. -1.
         -2   -1    0    0    0  501 -0.00000000000E+00 -0.00000000000E+00 -0.17149264023E+02  0.17149264023E+02  0.00000000000E+00 0.  1.
         25    2    1    2    0    0  0.16126831599E+02 -0.87367732075E+02  0.60142113648E+03  0.62068288011E+03  0.12508660580E+03 0.  0.
          5    1    3    3  502    0 -0.45270878360E+02 -0.79219091214E+02  0.36190963083E+03  0.37325751181E+03  0.41800000000E+01 0. -1.
         -5    1    3    3    0  502  0.61397709959E+02 -0.81486408611E+01  0.23951150565E+03  0.24742536829E+03  0.41800000000E+01 0. -1.
        -11    1    1    2    0    0 -0.53442828333E+02  0.53993567345E+02  0.35185533428E+03  0.35996335574E+03  0.00000000000E+00 0.  1.
         11    1    1    2    0    0  0.37315996734E+02  0.33374164730E+02  0.17739896307E+03  0.18432772603E+03  0.00000000000E+00 0. -1.
</event>
<event>
 7    1  0.2766180E-009  0.1239884E+03  0.7561462E-02  0.1236659E+00
         -2   -1    0    0    0  501 -0.00000000000E+00  0.00000000000E+00  0.11139582361E+04  0.11139582361E+04  0.00000000000E+00 0.  1.
          2   -1    0    0  501    0  0.00000000000E+00 -0.00000000000E+00 -0.19392911319E+02  0.19392911319E+02  0.00000000000E+00 0. -1.
         25    2    1    2    0    0 -0.64974850046E+02  0.68818353972E+02  0.72257266222E+03  0.73940271853E+03  0.12508969183E+03 0.  0.
          5    1    3    3  502    0  0.18546000965E+02  0.11157216328E+02  0.41306601476E+03  0.41365377138E+03  0.41800000000E+01 0.  1.
         -5    1    3    3    0  502 -0.83520851011E+02  0.57661137644E+02  0.30950664746E+03  0.32574894715E+03  0.41800000000E+01 0.  1.
        -11    1    1    2    0    0  0.95625655081E+01 -0.68274370475E+02  0.14904422994E+03  0.16421636582E+03  0.00000000000E+00 0.  1.
         11    1    1    2    0    0  0.55412284538E+02 -0.54398349689E+00  0.22294843266E+03  0.22973206311E+03  0.00000000000E+00 0. -1.
</event>
<event>
 7    1  0.2766180E-009  0.1780048E+03  0.7561462E-02  0.1169748E+00
          1   -1    0    0  501    0  0.00000000000E+00  0.00000000000E+00  0.20067680882E+04  0.20067680882E+04  0.00000000000E+00 0. -1.
         -1   -1    0    0    0  501 -0.00000000000E+00 -0.00000000000E+00 -0.18454174466E+02  0.18454174466E+02  0.00000000000E+00 0.  1.
         25    2    1    2    0    0  0.81292987917E+02 -0.13361166111E+03  0.10595388924E+04  0.10782981589E+04  0.12507449409E+03 0.  0.
          5    1    3    3  502    0 -0.90914606804E+01  0.18321726901E+00  0.45100004529E+01  0.10977282449E+02  0.41800000000E+01 0. -1.
         -5    1    3    3    0  502  0.90384448597E+02 -0.13379487838E+03  0.10550288920E+04  0.10673208765E+04  0.41800000000E+01 0. -1.
        -11    1    1    2    0    0 -0.35570172381E+02 -0.73247387118E+01  0.18860595486E+03  0.19207054738E+03  0.00000000000E+00 0.  1.
         11    1    1    2    0    0 -0.45722815535E+02  0.14093639982E+03  0.74016906641E+03  0.75485355634E+03  0.00000000000E+00 0. -1.
</event>
<event>
 7    1  0.2766180E-009  0.9390284E+02  0.7561462E-02  0.1293666E+00
         -3   -1    0    0    0  501 -0.00000000000E+00  0.00000000000E+00  0.97806696590E+02  0.97806696590E+02  0.00000000000E+00 0.  1.
          3   -1    0    0  501    0  0.00000000000E+00 -0.00000000000E+00 -0.20032499681E+03  0.20032499681E+03  0.00000000000E+00 0. -1.
         25    2    1    2    0    0 -0.83175599703E+02  0.12697903802E+02 -0.37881646260E+02  0.15544753415E+03  0.12509796002E+03 0.  0.
          5    1    3    3  502    0 -0.42556233290E+02  0.27219118907E+02 -0.80199013773E+02  0.94875010598E+02  0.41800000000E+01 0.  1.
         -5    1    3    3    0  502 -0.40619366412E+02 -0.14521215105E+02  0.42317367512E+02  0.60572523548E+02  0.41800000000E+01 0.  1.
        -11    1    1    2    0    0  0.81780873465E+02 -0.78639192446E+00 -0.50911833374E+01  0.81942966903E+02  0.00000000000E+00 0.  1.
         11    1    1    2    0    0  0.13947262373E+01 -0.11911511878E+02 -0.59545470627E+02  0.60741192355E+02  0.00000000000E+00 0. -1.
</event>
<event>
 7    1  0.2766180E-009  0.2938666E+03  0.7561462E-02  0.1088347E+00
          1   -1    0    0  501    0  0.00000000000E+00  0.00000000000E+00  0.52665259684E+03  0.52665259684E+03  0.00000000000E+00 0. -1.
         -1   -1    0    0    0  501 -0.00000000000E+00 -0.00000000000E+00 -0.21210253592E+03  0.21210253592E+03  0.00000000000E+00 0.  1.
         25    2    1    2    0    0  0.27538328819E+03  0.77473865438E+02  0.30707100225E+03  0.43792482333E+03  0.12508954883E+03 0.  0.
          5    1    3    3  502    0  0.24172074464E+03  0.74648099898E+02  0.19114343013E+03  0.31710335932E+03  0.41800000000E+01 0.  1.
         -5    1    3    3    0  502  0.33662543548E+02  0.28257655404E+01  0.11592757212E+03  0.12082146402E+03  0.41800000000E+01 0.  1.
        -11    1    1    2    0    0 -0.19563559281E+03 -0.97305672160E+02  0.27115087516E+01  0.21851551727E+03  0.00000000000E+00 0. -1.
         11    1    1    2    0    0 -0.79747695377E+02  0.19831806722E+02  0.47675499136E+01  0.82314792158E+02  0.00000000000E+00 0.  1.
</event>
<event>
 7    1  0.2766180E-009  0.1439705E+03  0.7561462E-02  0.1208084E+00
         -1   -1    0    0    0  501 -0.00000000000E+00  0.00000000000E+00  0.41150333805E+02  0.41150333805E+02  0.00000000000E+00 0.  1.
          1   -1    0    0  501    0  0.00000000000E+00 -0.00000000000E+00 -0.68521035489E+03  0.68521035489E+03  0.00000000000E+00 0. -1.
         25    2    1    2    0    0  0.10166367822E+03  0.68270647877E+02 -0.28004593327E+03  0.33025535169E+03  0.12508592147E+03 0.  0.
          5    1    3    3  502    0  0.17704356765E+02 -0.70327820944E+01 -0.17496974343E+03  0.17605336631E+03  0.41800000000E+01 0. -1.
         -5    1    3    3    0  502  0.83959321459E+02  0.75303429972E+02 -0.10507618984E+03  0.15420198538E+03  0.41800000000E+01 0. -1.
        -11    1    1    2    0    0 -0.96206063977E+02 -0.96328100908E+01 -0.20898678183E+03  0.23026913114E+03  0.00000000000E+00 0.  1.
         11    1    1    2    0    0 -0.54576142462E+01 -0.58637837786E+02 -0.15502730598E+03  0.16583620586E+03  0.00000000000E+00 0. -1.
</event>
<event>
 7    1  0.2766180E-009  0.1056487E+03  0.7561462E-02  0.1268847E+00
         -1   -1    0    0    0  501 -0.00000000000E+00  0.00000000000E+00  0.77468714359E+02  0.77468714359E+02  0.00000000000E+00 0.  1.
          1   -1    0    0  501    0  0.00000000000E+00 -0.00000000000E+00 -0.26305349154E+03  0.26305349154E+03  0.00000000000E+00 0. -1.
         25    2    1    2    0    0  0.20921995486E+02  0.60221853004E+02 -0.20896423441E+02  0.14194160206E+03  0.12508539647E+03 0.  0.
          5    1    3    3  502    0  0.30910638522E+02  0.86025537644E+02  0.18756869779E+02  0.93408528865E+02  0.41800000000E+01 0. -1.
         -5    1    3    3    0  502 -0.99886430363E+01 -0.25803684640E+02 -0.39653293220E+02  0.48533073197E+02  0.41800000000E+01 0. -1.
        -11    1    1    2    0    0 -0.10879682310E+02  0.13537877050E+02  0.52029872476E+00  0.17375624102E+02  0.00000000000E+00 0.  1.
         11    1    1    2    0    0 -0.10042313176E+02 -0.73759730054E+02 -0.16520865247E+03  0.18120497974E+03  0.00000000000E+00 0. -1.
</event>
<event>
 7    1  0.2766180E-009  0.9154240E+02  0.7561462E-02  0.1299159E+00
          2   -1    0    0  501    0  0.00000000000E+00  0.00000000000E+00  0.10183876149E+04  0.10183876149E+04  0.00000000000E+00 0. -1.
         -2   -1    0    0    0  501 -0.00000000000E+00 -0.00000000000E+00 -0.14160190977E+02  0.14160190977E+02  0.00000000000E+00 0.  1.
         25    2    1    2    0    0  0.26270265374E+02  0.42899089332E+02  0.49789032114E+03  0.51582103274E+03  0.12508440037E+03 0.  0.
          5    1    3    3  502    0  0.44738971774E+02  0.12477566885E+02  0.57766338801E+02  0.74240740629E+02  0.41800000000E+01 0.  1.
         -5    1    3    3    0  502 -0.18468706399E+02  0.30421522447E+02  0.44012398234E+03  0.44158029211E+03  0.41800000000E+01 0.  1.
        -11    1    1    2    0    0 -0.58220721632E+02 -0.21044384088E+02  0.36365710171E+03  0.36888888049E+03  0.00000000000E+00 0. -1.
         11    1    1    2    0    0  0.31950456258E+02 -0.21854705244E+02  0.14268000108E+03  0.14783789266E+03  0.00000000000E+00 0.  1.
</event>
<event>
 7    1  0.2766180E-009  0.1149192E+03  0.7561462E-02  0.1251722E+00
          1   -1    0    0  501    0  0.00000000000E+00  0.00000000000E+00  0.25539087879E+03  0.25539087879E+03  0.00000000000E+00 0. -1.
         -1   -1    0    0    0  501 -0.00000000000E+00 -0.00000000000E+00 -0.11943941788E+03  0.11943941788E+03  0.00000000000E+00 0.  1.
         25    2    1    2    0    0  0.85020255251E+02 -0.53204501453E+02 -0.27635594427E+02  0.16269603498E+03  0.12508841250E+03 0.  0.
          5    1    3    3  502    0  0.86730645136E+01  0.19766728114E+02 -0.50036893550E+02  0.54654448168E+02  0.41800000000E+01 0.  1.
         -5    1    3    3    0  502  0.76347190738E+02 -0.72971229568E+02  0.22401299123E+02  0.10804158681E+03  0.41800000000E+01 0.  1.
        -11    1    1    2    0    0 -0.28011646311E+02  0.72529301889E+01  0.12704786486E+03  0.13030125591E+03  0.00000000000E+00 0. -1.
         11    1    1    2    0    0 -0.57008608940E+02  0.45951571264E+02  0.36539190474E+02  0.81833005783E+02  0.00000000000E+00 0.  1.
</event>
<event>
 7    1  0.3661440E-009  0.1310602E+03  0.7561462E-02  0.1225891E+00
          1   -1    0    0  501    0  0.00000000000E+00  0.00000000000E+00  0.35650278257E+03  0.35650278257E+03  0.00000000000E+00 0. -1.
         -1   -1    0    0    0  501 -0.00000000000E+00 -0.00000000000E+00 -0.69163413165E+02  0.69163413165E+02  0.00000000000E+00 0.  1.
         25    2    1    2    0    0 -0.11297795914E+03 -0.10174448126E+00  0.16614894377E+03  0.23668163847E+03  0.12509475155E+03 0.  0.
          5    1    3    3  502    0 -0.52396601450E+02  0.48075769131E+02  0.13596893649E+03  0.15349823292E+03  0.41800000000E+01 0.  1.
         -5    1    3    3    0  502 -0.60581357693E+02 -0.48177513612E+02  0.30180007286E+02  0.83183405542E+02  0.41800000000E+01 0.  1.
        -11    1    1    2    0    0  0.44451878321E+02 -0.45731718585E+01  0.11085895240E+03  0.11952652724E+03  0.00000000000E+00 0. -1.
         11    1    1    2    0    0  0.68526080822E+02  0.46749163397E+01  0.10331473227E+02  0.69458030023E+02  0.00000000000E+00 0.  1.
</event>
<event>
 7    1  0.2766180E-009  0.1629377E+03  0.7561462E-02  0.1185420E+00
         -1   -1    0    0    0  501 -0.00000000000E+00  0.00000000000E+00  0.23077299230E+04  0.23077299230E+04  0.00000000000E+00 0.  1.
          1   -1    0    0  501    0  0.00000000000E+00 -0.00000000000E+00 -0.16037355249E+02  0.16037355249E+02  0.00000000000E+00 0. -1.
         25    2    1    2    0    0  0.13323752937E+03 -0.48911383727E+02  0.16309172185E+04  0.16418535971E+04  0.12509075965E+03 0.  0.
          5    1    3    3  502    0  0.14626073118E+03 -0.14658134531E+02  0.14333052523E+04  0.14408290950E+04  0.41800000000E+01 0. -1.
         -5    1    3    3    0  502 -0.13023201812E+02 -0.34253249196E+02  0.19761196621E+03  0.20102450213E+03  0.41800000000E+01 0. -1.
        -11    1    1    2    0    0 -0.10069941406E+03  0.37650433151E+02  0.61661333417E+03  0.62591527460E+03  0.00000000000E+00 0.  1.
         11    1    1    2    0    0 -0.32538115307E+02  0.11260950576E+02  0.44162015107E+02  0.55998406530E+02  0.00000000000E+00 0. -1.
</event>
<event>
 7    1  0.2766180E-009  0.1905526E+03  0.7561462E-02  0.1157964E+00
         -1   -1    0    0    0  501 -0.00000000000E+00  0.00000000000E+00  0.19342905575E+03  0.19342905575E+03  0.00000000000E+00 0.  1.
          1   -1    0    0  501    0  0.00000000000E+00 -0.00000000000E+00 -0.23821275454E+03  0.23821275454E+03  0.00000000000E+00 0. -1.
         25    2    1    2    0    0  0.42509772485E+02  0.17405315523E+03 -0.69480521336E+02  0.22929489143E+03  0.12508806013E+03 0.  0.
          5    1    3    3  502    0  0.50957843216E+02  0.17124132908E+03 -0.21132559418E+02  0.17995652819E+03  0.41800000000E+01 0. -1.
         -5    1    3    3    0  502 -0.84480707315E+01  0.28118261503E+01 -0.48347961918E+02  0.49338363238E+02  0.41800000000E+01 0. -1.
        -11    1    1    2    0    0  0.19325595205E+02 -0.56815635749E+02  0.34877314128E+02  0.69411253672E+02  0.00000000000E+00 0.  1.
         11    1    1    2    0    0 -0.61835367690E+02 -0.11723751948E+03 -0.10180491579E+02  0.13293566519E+03  0.00000000000E+00 0. -1.
</event>
<event>
 7    1  0.2766180E-009  0.2925577E+03  0.7561462E-02  0.1089021E+00
         -2   -1    0    0    0  501 -0.00000000000E+00  0.00000000000E+00  0.11155833945E+03  0.11155833945E+03  0.00000000000E+00 0.  1.
          2   -1    0    0  501    0  0.00000000000E+00 -0.00000000000E+00 -0.91704138864E+03  0.91704138864E+03  0.00000000000E+00 0. -1.
         25    2    1    2    0    0  0.26391825311E+03 -0.12226818475E+03 -0.32849739647E+03  0.45624576369E+03  0.12508918444E+03 0.  0.
          5    1    3    3  502    0  0.44735485349E+02 -0.21579036304E+02 -0.14679827802E+01  0.49865276804E+02  0.41800000000E+01 0. -1.
         -5    1    3    3    0  502  0.21918276776E+03 -0.10068914845E+03 -0.32702941369E+03  0.40638048688E+03  0.41800000000E+01 0. -1.
        -11    1    1    2    0    0 -0.12575159805E+03  0.81968676089E+02 -0.34837819517E+03  0.37934113295E+03  0.00000000000E+00 0. -1.
         11    1    1    2    0    0 -0.13816665506E+03  0.40299508661E+02 -0.12860745755E+03  0.19301283145E+03  0.00000000000E+00 0.  1.
</event>
<event>
 7    1  0.2766180E-009  0.1378889E+03  0.7561462E-02  0.1216198E+00
         -1   -1    0    0    0  501 -0.00000000000E+00  0.00000000000E+00  0.16942876162E+03  0.16942876162E+03  0.00000000000E+00 0.  1.
          1   -1    0    0  501    0  0.00000000000E+00 -0.00000000000E+00 -0.30556821795E+03  0.30556821795E+03  0.00000000000E+00 0. -1.
         25    2    1    2    0    0 -0.20363372519E+02 -0.10770618422E+03  0.10359830626E+03  0.19594625695E+03  0.12508811892E+03 0.  0.
          5    1    3    3  502    0 -0.47768306920E+02 -0.86485398763E+02  0.14111721583E+02  0.99890682405E+02  0.41800000000E+01 0.  1.
         -5    1    3    3    0  502  0.27404934402E+02 -0.21220785454E+02  0.89486584677E+02  0.96055574550E+02  0.41800000000E+01 0.  1.
        -11    1    1    2    0    0  0.52004328130E+02  0.94143344188E+02 -0.19382413952E+03  0.22166464865E+03  0.00000000000E+00 0. -1.
         11    1    1    2    0    0 -0.31640955612E+02  0.13562840029E+02 -0.45913623075E+02  0.57386073969E+02  0.00000000000E+00 0.  1.
</event>
<event>
 7    1  0.2766180E-009  0.8254269E+02  0.7561462E-02  0.1321987E+00
          3   -1    0    0  501    0  0.00000000000E+00  0.00000000000E+00  0.39764262423E+02  0.39764262423E+02  0.00000000000E+00 0. -1.
         -3   -1    0    0    0  501 -0.00000000000E+00 -0.00000000000E+00 -0.30506643784E+03  0.30506643784E+03  0.00000000000E+00 0.  1.
         25    2    1    2    0    0 -0.69224676022E+01  0.15512329186E+02 -0.16277923054E+03  0.20599295926E+03  0.12508984154E+03 0.  0.
          5    1    3    3  502    0  0.23325111532E+02 -0.32621016267E+02 -0.80732604843E+01  0.41119842718E+02  0.41800000000E+01 0.  1.
         -5    1    3    3    0  502 -0.30247579135E+02  0.48133345453E+02 -0.15470597006E+03  0.16487311655E+03  0.41800000000E+01 0.  1.
        -11    1    1    2    0    0  0.35951470868E+02 -0.27592678209E+01 -0.10083286281E+03  0.10708589094E+03  0.00000000000E+00 0.  1.
         11    1    1    2    0    0 -0.29029003266E+02 -0.12753061365E+02 -0.16900820673E+01  0.31751850060E+02  0.00000000000E+00 0. -1.
</event>
<event>
 7    1  0.2766180E-009  0.1611908E+03  0.7561462E-02  0.1187359E+00
          2   -1    0    0  501    0  0.00000000000E+00  0.00000000000E+00  0.19830454801E+03  0.19830454801E+03  0.00000000000E+00 0. -1.
         -2   -1    0    0    0  501 -0.00000000000E+00 -0.00000000000E+00 -0.29971767867E+03  0.29971767867E+03  0.00000000000E+00 0.  1.
         25    2    1    2    0    0  0.70785535831E+02 -0.13712297679E+03 -0.20964279506E+03  0.28880847929E+03  0.12508770260E+03 0.  0.
          5    1    3    3  502    0  0.71065546892E+02 -0.72826909769E+02 -0.19894168370E+03  0.22349348235E+03  0.41800000000E+01 0. -1.
         -5    1    3    3    0  502 -0.28001106107E+00 -0.64296067021E+02 -0.10701111366E+02  0.65314996938E+02  0.41800000000E+01 0. -1.
        -11    1    1    2    0    0 -0.45944990076E+02  0.63288380160E+02  0.10541971174E+03  0.13126186346E+03  0.00000000000E+00 0. -1.
         11    1    1    2    0    0 -0.24840545755E+02  0.73834596631E+02  0.28099526563E+01  0.77951883922E+02  0.00000000000E+00 0.  1.
</event>
<event>
 7    1  0.2766180E-009  0.8891281E+02  0.7561462E-02  0.1305506E+00
          1   -1    0    0  501    0  0.00000000000E+00  0.00000000000E+00  0.72185070587E+02  0.72185070587E+02  0.00000000000E+00 0.  1.
         -1   -1    0    0    0  501 -0.00000000000E+00 -0.00000000000E+00 -0.23595688743E+03  0.23595688743E+03  0.00000000000E+00 0. -1.
         25    2    1    2    0    0 -0.12259731655E+02  0.71798203244E+02 -0.88273990740E+02  0.16954267506E+03  0.12508852153E+03 0.  0.
          5    1    3    3  502    0 -0.15706011654E+02  0.61963923787E+02  0.14891472120E+02  0.65768039313E+02  0.41800000000E+01 0. -1.
         -5    1    3    3    0  502  0.34462799982E+01  0.98342794575E+01 -0.10316546286E+03  0.10377463575E+03  0.41800000000E+01 0. -1.
        -11    1    1    2    0    0 -0.12318470647E+02 -0.76524297053E+02 -0.81902800500E+02  0.11276427399E+03  0.00000000000E+00 0. -1.
         11    1    1    2    0    0  0.24578202302E+02  0.47260938093E+01  0.64049743962E+01  0.25835008963E+02  0.00000000000E+00 0.  1.
</event>
<event>
 7    1  0.2766180E-009  0.3775733E+03  0.7561462E-02  0.1051834E+00
          2   -1    0    0  501    0  0.00000000000E+00  0.00000000000E+00  0.13253796328E+04  0.13253796328E+04  0.00000000000E+00 0. -1.
         -2   -1    0    0    0  501 -0.00000000000E+00 -0.00000000000E+00 -0.13949499310E+03  0.13949499310E+03  0.00000000000E+00 0.  1.
         25    2    1    2    0    0 -0.13609079704E+03  0.34520727275E+03  0.27866159712E+03  0.48061258632E+03  0.12508959276E+03 0.  0.
          5    1    3    3  502    0 -0.13057890196E+03  0.29366734837E+03  0.28324129534E+03  0.42840922600E+03  0.41800000000E+01 0. -1.
         -5    1    3    3    0  502 -0.55118950794E+01  0.51539924382E+02 -0.45796982207E+01  0.52203360317E+02  0.41800000000E+01 0. -1.
        -11    1    1    2    0    0  0.12986164833E+03 -0.21363429936E+03  0.59594762913E+03  0.64626406231E+03  0.00000000000E+00 0. -1.
         11    1    1    2    0    0  0.62291487043E+01 -0.13157297339E+03  0.31127541341E+03  0.33799797724E+03  0.00000000000E+00 0.  1.
</event>
<event>
 7    1  0.2766180E-009  0.1740937E+03  0.7561462E-02  0.1173645E+00
         -2   -1    0    0    0  501 -0.00000000000E+00  0.00000000000E+00  0.28480798243E+03  0.28480798243E+03  0.00000000000E+00 0.  1.
          2   -1    0    0  501    0  0.00000000000E+00 -0.00000000000E+00 -0.15929883168E+03  0.15929883168E+03  0.00000000000E+00 0. -1.
         25    2    1    2    0    0  0.15794953019E+03 -0.67369467073E+02  0.13013235435E+03  0.24913579229E+03  0.12509002426E+03 0.  0.
          5    1    3    3  502    0  0.59412219355E+01 -0.53481428468E+01 -0.22929135837E+02  0.24639773137E+02  0.41800000000E+01 0.  1.
         -5    1    3    3    0  502  0.15200830825E+03 -0.62021324226E+02  0.15306149019E+03  0.22449601915E+03  0.41800000000E+01 0.  1.
        -11    1    1    2    0    0 -0.93586063539E+02  0.57458532636E+02  0.39057606513E+02  0.11655612763E+03  0.00000000000E+00 0.  1.
         11    1    1    2    0    0 -0.64363466648E+02  0.99109344365E+01 -0.43680810106E+02  0.78414894196E+02  0.00000000000E+00 0. -1.
</event>
<event>
 7    1  0.2766180E-009  0.1925715E+03  0.7561462E-02  0.1156162E+00
          2   -1    0    0  501    0  0.00000000000E+00  0.00000000000E+00  0.97370288170E+03  0.97370288170E+03  0.00000000000E+00 0. -1.
         -2   -1    0    0    0  501 -0.00000000000E+00 -0.00000000000E+00 -0.45910136934E+02  0.45910136934E+02  0.00000000000E+00 0.  1.
         25    2    1    2    0    0 -0.35827029311E+02 -0.17695497265E+03  0.49817408547E+03  0.54444597133E+03  0.12508939958E+03 0.  0.
          5    1    3    3  502    0 -0.33890394578E+02 -0.10564691852E+03  0.13734564301E+03  0.17661010246E+03  0.41800000000E+01 0.  1.
         -5    1    3    3    0  502 -0.19366347331E+01 -0.71308054127E+02  0.36082844246E+03  0.36783586887E+03  0.41800000000E+01 0.  1.
        -11    1    1    2    0    0  0.49279457893E+02  0.35916177706E+02  0.14232972277E+03  0.15484245792E+03  0.00000000000E+00 0.  1.
         11    1    1    2    0    0 -0.13452428582E+02  0.14103879494E+03  0.28728893652E+03  0.32032458938E+03  0.00000000000E+00 0. -1.
</event>
<event>
 7    1  0.2766180E-009  0.1372064E+03  0.7561462E-02  0.1217138E+00
          1   -1    0    0  501    0  0.00000000000E+00  0.00000000000E+00  0.62782121250E+03  0.62782121250E+03  0.00000000000E+00 0. -1.
         -1   -1    0    0    0  501 -0.00000000000E+00 -0.00000000000E+00 -0.46256452850E+02  0.46256452850E+02  0.00000000000E+00 0.  1.
         25    2    1    2    0    0 -0.30986131183E+02 -0.92895372638E+02  0.13660672492E+03  0.20951956729E+03  0.12508941283E+03 0.  0.
          5    1    3    3  502    0 -0.55708554407E+02 -0.92129599332E+01  0.99762150623E+02  0.11470954957E+03  0.41800000000E+01 0. -1.
         -5    1    3    3    0  502  0.24722423224E+02 -0.83682412705E+02  0.36844574297E+02  0.94810017726E+02  0.41800000000E+01 0. -1.
        -11    1    1    2    0    0  0.61250565891E+02  0.64142830242E+02  0.25245426384E+03  0.26758006245E+03  0.00000000000E+00 0.  1.
         11    1    1    2    0    0 -0.30264434708E+02  0.28752542396E+02  0.19250377089E+03  0.19697803560E+03  0.00000000000E+00 0. -1.
</event>
<event>
 7    1  0.2766180E-009  0.1065117E+03  0.7561462E-02  0.1267170E+00
         -2   -1    0    0    0  501 -0.00000000000E+00  0.00000000000E+00  0.10260452968E+02  0.10260452968E+02  0.00000000000E+00 0.  1.
          2   -1    0    0  501    0  0.00000000000E+00 -0.00000000000E+00 -0.14383964320E+04  0.14383964320E+04  0.00000000000E+00 0. -1.
         25    2    1    2    0    0  0.65175484716E+01 -0.62293991404E+01 -0.10825613941E+04  0.10898018749E+04  0.12509064985E+03 0.  0.
          5    1    3    3  502    0  0.30130178419E+02 -0.55743965307E+02 -0.75368877035E+03  0.75635934071E+03  0.41800000000E+01 0. -1.
         -5    1    3    3    0  502 -0.23612629947E+02  0.49514566167E+02 -0.32887262371E+03  0.33344253415E+03  0.41800000000E+01 0. -1.
        -11    1    1    2    0    0 -0.45218022497E+02 -0.18194502812E+02 -0.13980219998E+03  0.14805527552E+03  0.00000000000E+00 0.  1.
         11    1    1    2    0    0  0.38700474025E+02  0.24423901953E+02 -0.20577238496E+03  0.21079973456E+03  0.00000000000E+00 0. -1.
</event>
<event>
 7    1  0.2766180E-009  0.9559778E+02  0.7561462E-02  0.1289835E+00
          1   -1    0    0  501    0  0.00000000000E+00  0.00000000000E+00  0.26277296446E+03  0.26277296446E+03  0.00000000000E+00 0. -1.
         -1   -1    0    0    0  501 -0.00000000000E+00 -0.00000000000E+00 -0.61411672850E+02  0.61411672850E+02  0.00000000000E+00 0.  1.
         25    2    1    2    0    0  0.15786573359E+01 -0.63324136388E+02  0.13534516289E+03  0.19488172790E+03  0.12509251113E+03 0.  0.
          5    1    3    3  502    0  0.49332792539E+01 -0.79432263173E+02  0.25416312460E+02  0.83649763993E+02  0.41800000000E+01 0.  1.
         -5    1    3    3    0  502 -0.33546219180E+01  0.16108126785E+02  0.10992885043E+03  0.11123196390E+03  0.41800000000E+01 0.  1.
        -11    1    1    2    0    0 -0.35819750660E+02  0.35095494272E+02  0.47259589888E+00  0.50149492544E+02  0.00000000000E+00 0.  1.
         11    1    1    2    0    0  0.34241093324E+02  0.28228642116E+02  0.65543532823E+02  0.79153416873E+02  0.00000000000E+00 0. -1.
</event>
<event>
 7    1  0.2766180E-009  0.9878162E+02  0.7561462E-02  0.1282879E+00
         -1   -1    0    0    0  501 -0.00000000000E+00  0.00000000000E+00  0.15941019816E+03  0.15941019816E+03  0.00000000000E+00 0.  1.
          1   -1    0    0  501    0  0.00000000000E+00 -0.00000000000E+00 -0.24865621021E+03  0.24865621021E+03  0.00000000000E+00 0. -1.
         25    2    1    2    0    0 -0.40074559941E+02  0.47304795710E+02  0.11214012224E+03  0.17907155103E+03  0.12508996491E+03 0.  0.
          5    1    3    3  502    0 -0.45730223485E+02  0.79171909085E+02  0.11422595322E+03  0.14637105355E+03  0.41800000000E+01 0.  1.
         -5    1    3    3    0  502  0.56556635439E+01 -0.31867113376E+02 -0.20858309761E+01  0.32700497487E+02  0.41800000000E+01 0.  1.
        -11    1    1    2    0    0  0.28382037688E+02 -0.41387268372E+01 -0.69911234244E+01  0.29521939806E+02  0.00000000000E+00 0.  1.
         11    1    1    2    0    0  0.11692522253E+02 -0.43166068872E+02 -0.19439501086E+03  0.19947291753E+03  0.00000000000E+00 0. -1.
</event>
<event>
 7    1  0.2766180E-009  0.1216634E+03  0.7561462E-02  0.1240378E+00
         -2   -1    0    0    0  501 -0.00000000000E+00  0.00000000000E+00  0.94035262279E+02  0.94035262279E+02  0.00000000000E+00 0.  1.
          2   -1    0    0  501    0  0.00000000000E+00 -0.00000000000E+00 -0.18810624105E+03  0.18810624105E+03  0.00000000000E+00 0. -1.
         25    2    1    2    0    0 -0.30724628648E+02  0.55779331960E+02 -0.14865418387E+01  0.14037808626E+03  0.12509380726E+03 0.  0.
          5    1    3    3  502    0  0.46699085733E+02  0.26053753007E+02 -0.16230251210E+02  0.56040129446E+02  0.41800000000E+01 0. -1.
         -5    1    3    3    0  502 -0.77423714381E+02  0.29725578953E+02  0.14743709371E+02  0.84337956809E+02  0.41800000000E+01 0. -1.
        -11    1    1    2    0    0  0.17333992432E+02 -0.78437485922E+02 -0.76439451406E+02  0.11088686226E+03  0.00000000000E+00 0.  1.
         11    1    1    2    0    0  0.13390636216E+02  0.22658153962E+02 -0.16144985522E+02  0.30876554807E+02  0.00000000000E+00 0. -1.
</event>
<event>
 7    1  0.2766180E-009  0.7254694E+02  0.7561462E-02  0.1351640E+00
         -2   -1    0    0    0  501 -0.00000000000E+00  0.00000000000E+00  0.36028388619E+02  0.36028388619E+02  0.00000000000E+00 0.  1.
          2   -1    0    0  501    0  0.00000000000E+00 -0.00000000000E+00 -0.35896092529E+03  0.35896092529E+03  0.00000000000E+00 0. -1.
         25    2    1    2    0    0  0.26812892271E+02 -0.20825741854E+02 -0.20058551040E+03  0.23881835919E+03  0.12508804494E+03 0.  0.
          5    1    3    3  502    0 -0.10555568732E+02  0.48156705182E+01 -0.19213249619E+03  0.19252786605E+03  0.41800000000E+01 0. -1.
         -5    1    3    3    0  502  0.37368461003E+02 -0.25641412372E+02 -0.84530142188E+01  0.46290493144E+02  0.41800000000E+01 0. -1.
        -11    1    1    2    0    0 -0.53064165973E+02 -0.10555733667E+01 -0.38327170652E+02  0.65466724034E+02  0.00000000000E+00 0.  1.
         11    1    1    2    0    0  0.26251273701E+02  0.21881315221E+02 -0.84019855611E+02  0.90704230682E+02  0.00000000000E+00 0. -1.
</event>
<event>
 7    1  0.2766180E-009  0.2287800E+03  0.7561462E-02  0.1127501E+00
         -2   -1    0    0    0  501 -0.00000000000E+00  0.00000000000E+00  0.17997742379E+03  0.17997742379E+03  0.00000000000E+00 0.  1.
          2   -1    0    0  501    0  0.00000000000E+00 -0.00000000000E+00 -0.32860302236E+03  0.32860302236E+03  0.00000000000E+00 0. -1.
         25    2    1    2    0    0  0.52065547176E+02 -0.20264352322E+03 -0.19844309514E+02  0.24457381792E+03  0.12508931643E+03 0.  0.
          5    1    3    3  502    0  0.69816597906E+02 -0.42427752053E+02 -0.15532538533E+02  0.83265861196E+02  0.41800000000E+01 0. -1.
         -5    1    3    3    0  502 -0.17751050729E+02 -0.16021577117E+03 -0.43117709806E+01  0.16130795673E+03  0.41800000000E+01 0. -1.
        -11    1    1    2    0    0 -0.61128491649E+02  0.18089285568E+03 -0.74734727422E+02  0.20504681712E+03  0.00000000000E+00 0.  1.
         11    1    1    2    0    0  0.90629444730E+01  0.21750667547E+02 -0.54046561640E+02  0.58959811112E+02  0.00000000000E+00 0. -1.
</event>
<event>
 7    1  0.2766180E-009  0.2354768E+03  0.7561462E-02  0.1122843E+00
         -3   -1    0    0    0  501 -0.00000000000E+00  0.00000000000E+00  0.68921637902E+02  0.68921637902E+02  0.00000000000E+00 0.  1.
          3   -1    0    0  501    0  0.00000000000E+00 -0.00000000000E+00 -0.91078112484E+03  0.91078112484E+03  0.00000000000E+00 0. -1.
         25    2    1    2    0    0  0.13577389047E+03 -0.17163782758E+03 -0.32757184683E+03  0.41333366956E+03  0.12508922565E+03 0.  0.
          5    1    3    3  502    0  0.11350218852E+03 -0.19084159959E+03 -0.28225813116E+03  0.35915231858E+03  0.41800000000E+01 0. -1.
         -5    1    3    3    0  502  0.22271701944E+02  0.19203772016E+02 -0.45313715666E+02  0.54181350985E+02  0.41800000000E+01 0. -1.
        -11    1    1    2    0    0 -0.51556731168E+02  0.56084878163E+02 -0.86230582666E+02  0.11506225912E+03  0.00000000000E+00 0.  1.
         11    1    1    2    0    0 -0.84217159297E+02  0.11555294941E+03 -0.42805705744E+03  0.45130683405E+03  0.00000000000E+00 0. -1.
</event>
<event>
 7    1  0.2766180E-009  0.1649269E+03  0.7561462E-02  0.1183244E+00
          1   -1    0    0  501    0  0.00000000000E+00  0.00000000000E+00  0.69434686981E+03  0.69434686981E+03  0.00000000000E+00 0. -1.
         -1   -1    0    0    0  501 -0.00000000000E+00 -0.00000000000E+00 -0.87255800807E+02  0.87255800807E+02  0.00000000000E+00 0.  1.
         25    2    1    2    0    0 -0.14967897440E+03 -0.68544868677E+02  0.54450131117E+03  0.58243552538E+03  0.12508904413E+03 0.  0.
          5    1    3    3  502    0 -0.33841983586E+02 -0.20172766808E+02  0.34100585349E+03  0.34329970126E+03  0.41800000000E+01 0. -1.
         -5    1    3    3    0  502 -0.11583699081E+03 -0.48372101868E+02  0.20349545768E+03  0.23913582412E+03  0.41800000000E+01 0. -1.
        -11    1    1    2    0    0  0.41027597783E+02  0.18079006732E+02 -0.24467666688E+02  0.51076227126E+02  0.00000000000E+00 0.  1.
         11    1    1    2    0    0  0.10865137662E+03  0.50465861945E+02  0.87057424526E+02  0.14809091811E+03  0.00000000000E+00 0. -1.
</event>
<event>
 7    1  0.2766180E-009  0.8542192E+02  0.7561462E-02  0.1314333E+00
          3   -1    0    0  501    0  0.00000000000E+00  0.00000000000E+00  0.80316293520E+02  0.80316293520E+02  0.00000000000E+00 0. -1.
         -3   -1    0    0    0  501 -0.00000000000E+00 -0.00000000000E+00 -0.18673009843E+03  0.18673009843E+03  0.00000000000E+00 0.  1.
         25    2    1    2    0    0 -0.37211610118E+01 -0.53861018015E+02 -0.81679989395E+02  0.15885688805E+03  0.12509609871E+03 0.  0.
          5    1    3    3  502    0  0.16338255864E+02 -0.72900702360E+02 -0.24846201418E+01  0.74867194061E+02  0.41800000000E+01 0.  1.
         -5    1    3    3    0  502 -0.20059416876E+02  0.19039684345E+02 -0.79195369253E+02  0.83989693990E+02  0.41800000000E+01 0.  1.
        -11    1    1    2    0    0  0.22543646647E+02  0.25846554531E+02 -0.53697003661E+02  0.63715214724E+02  0.00000000000E+00 0.  1.
         11    1    1    2    0    0 -0.18822485635E+02  0.28014463485E+02  0.28963188147E+02  0.44474289173E+02  0.00000000000E+00 0. -1.
</event>
<event>
 7    1  0.2946058E-009  0.8968553E+02  0.7561462E-02  0.1303615E+00
         -2   -1    0    0    0  501 -0.00000000000E+00  0.00000000000E+00  0.87218974074E+02  0.87218974074E+02  0.00000000000E+00 0.  1.
          2   -1    0    0  501    0  0.00000000000E+00 -0.00000000000E+00 -0.20654261866E+03  0.20654261866E+03  0.00000000000E+00 0. -1.
         25    2    1    2    0    0 -0.44743064915E+02 -0.19473376578E+02  0.29233762893E+01  0.13429015964E+03  0.12507656293E+03 0.  0.
          5    1    3    3  502    0 -0.80342945827E+02 -0.21217488807E+02  0.30932972869E+02  0.88766502612E+02  0.41800000000E+01 0.  1.
         -5    1    3    3    0  502  0.35599880912E+02  0.17441122289E+01 -0.28009596580E+02  0.45523657026E+02  0.41800000000E+01 0.  1.
        -11    1    1    2    0    0  0.17173334877E+02  0.26731577570E+02  0.21539068267E+01  0.31845564602E+02  0.00000000000E+00 0.  1.
         11    1    1    2    0    0  0.27569730037E+02 -0.72582009919E+01 -0.12440092770E+03  0.12762586849E+03  0.00000000000E+00 0. -1.
</event>
<event>
 7    1  0.2766180E-009  0.1058891E+03  0.7561462E-02  0.1268378E+00
          2   -1    0    0  501    0  0.00000000000E+00  0.00000000000E+00  0.40472639793E+03  0.40472639793E+03  0.00000000000E+00 0. -1.
         -2   -1    0    0    0  501 -0.00000000000E+00 -0.00000000000E+00 -0.38927087237E+02  0.38927087237E+02  0.00000000000E+00 0.  1.
         25    2    1    2    0    0  0.24207847845E+02 -0.33508134617E+02  0.28782518612E+03  0.31654341038E+03  0.12509027903E+03 0.  0.
          5    1    3    3  502    0  0.63932935659E+02 -0.50766099057E+02  0.13667862768E+03  0.15925808218E+03  0.41800000000E+01 0.  1.
         -5    1    3    3    0  502 -0.39725087814E+02  0.17257964440E+02  0.15114655844E+03  0.15728532819E+03  0.41800000000E+01 0.  1.
        -11    1    1    2    0    0 -0.51975551538E+02  0.20790180648E+02  0.16326416791E+02  0.58311589366E+02  0.00000000000E+00 0.  1.
         11    1    1    2    0    0  0.27767703693E+02  0.12717953969E+02  0.61647707784E+02  0.68798485424E+02  0.00000000000E+00 0. -1.
</event>
<event>
 7    1  0.2766180E-009  0.1029149E+03  0.7561462E-02  0.1274283E+00
          1   -1    0    0  501    0  0.00000000000E+00  0.00000000000E+00  0.30531428943E+03  0.30531428943E+03  0.00000000000E+00 0. -1.
         -1   -1    0    0    0  501 -0.00000000000E+00 -0.00000000000E+00 -0.77465074090E+02  0.77465074090E+02  0.00000000000E+00 0.  1.
         25    2    1    2    0    0 -0.54014899859E+02  0.61531471991E+02  0.31473199566E+02  0.15278521125E+03  0.12509607122E+03 0.  0.
          5    1    3    3  502    0 -0.45527978525E+01  0.21821166119E+02  0.73274977669E+02  0.76704537098E+02  0.41800000000E+01 0. -1.
         -5    1    3    3    0  502 -0.49462102007E+02  0.39710305872E+02 -0.41801778103E+02  0.76080674155E+02  0.41800000000E+01 0. -1.
        -11    1    1    2    0    0 -0.22905823201E+02 -0.26594851235E+02  0.52644143166E+02  0.63272179182E+02  0.00000000000E+00 0. -1.
         11    1    1    2    0    0  0.76920723060E+02 -0.34936620756E+02  0.14373187260E+03  0.16672197308E+03  0.00000000000E+00 0.  1.
</event>
<event>
 7    1  0.2766180E-009  0.8998844E+02  0.7561462E-02  0.1302880E+00
         -1   -1    0    0    0  501 -0.00000000000E+00  0.00000000000E+00  0.74445860414E+03  0.74445860414E+03  0.00000000000E+00 0.  1.
          1   -1    0    0  501    0  0.00000000000E+00 -0.00000000000E+00 -0.23983714573E+02  0.23983714573E+02  0.00000000000E+00 0. -1.
         25    2    1    2    0    0 -0.24015652488E+01 -0.52115906204E+02  0.54634540334E+03  0.56290562446E+03  0.12509039573E+03 0.  0.
          5    1    3    3  502    0  0.29670548904E+02 -0.55198722849E+02  0.12107555583E+03  0.13639649224E+03  0.41800000000E+01 0.  1.
         -5    1    3    3    0  502 -0.32072114153E+02  0.30828166449E+01  0.42526984751E+03  0.42650913222E+03  0.41800000000E+01 0.  1.
        -11    1    1    2    0    0  0.26340903888E+01  0.68371750725E+02  0.17632159024E+03  0.18913206475E+03  0.00000000000E+00 0.  1.
         11    1    1    2    0    0 -0.23252513993E+00 -0.16255844521E+02 -0.21921040213E+01  0.16404629501E+02  0.00000000000E+00 0. -1.
</event>
<event>
 7    1  0.2766180E-009  0.1470515E+03  0.7561462E-02  0.1204144E+00
          2   -1    0    0  501    0  0.00000000000E+00  0.00000000000E+00  0.28183469457E+03  0.28183469457E+03  0.00000000000E+00 0. -1.
         -2   -1    0    0    0  501 -0.00000000000E+00 -0.00000000000E+00 -0.84881369006E+02  0.84881369006E+02  0.00000000000E+00 0.  1.
         25    2    1    2    0    0 -0.61945408152E+02 -0.89994053999E+02  0.10348672403E+03  0.19568096938E+03  0.12508147897E+03 0.  0.
          5    1    3    3  502    0 -0.97945760584E+02 -0.56998798220E+02  0.90202105271E+02  0.14490040445E+03  0.41800000000E+01 0. -1.
         -5    1    3    3    0  502  0.36000352432E+02 -0.32995255779E+02  0.13284618763E+02  0.50780564932E+02  0.41800000000E+01 0. -1.
        -11    1    1    2    0    0  0.70655535262E+02  0.40508894952E+02  0.23259792464E+02  0.84700609082E+02  0.00000000000E+00 0.  1.
         11    1    1    2    0    0 -0.87101271097E+01  0.49485159047E+02  0.70206809072E+02  0.86334485116E+02  0.00000000000E+00 0. -1.
</event>
<event>
 7    1  0.2766180E-009  0.1271067E+03  0.7561462E-02  0.1231813E+00
         -3   -1    0    0    0  501 -0.00000000000E+00  0.00000000000E+00  0.44886038593E+02  0.44886038593E+02  0.00000000000E+00 0. -1.
          3   -1    0    0  501    0  0.00000000000E+00 -0.00000000000E+00 -0.66605211081E+03  0.66605211081E+03  0.00000000000E+00 0.  1.
         25    2    1    2    0    0 -0.30205037620E+02  0.82495879813E+02 -0.54474038162E+03  0.56578100146E+03  0.12509254075E+03 0.  0.
          5    1    3    3  502    0  0.38537949784E+02  0.27509444329E+01 -0.76182035410E+02  0.85521437009E+02  0.41800000000E+01 0. -1.
         -5    1    3    3    0  502 -0.68742987404E+02  0.79744935380E+02 -0.46855834621E+03  0.48025956445E+03  0.41800000000E+01 0. -1.
        -11    1    1    2    0    0  0.46692820133E+02 -0.31335712122E+02 -0.71810550645E+02  0.91208012203E+02  0.00000000000E+00 0.  1.
         11    1    1    2    0    0 -0.16487782513E+02 -0.51160167691E+02 -0.46151399430E+01  0.53949135740E+02  0.00000000000E+00 0. -1.
</event>
<event>
 7    1  0.2766180E-009  0.1270470E+03  0.7561462E-02  0.1231904E+00
          1   -1    0    0  501    0  0.00000000000E+00  0.00000000000E+00  0.41761674302E+02  0.41761674302E+02  0.00000000000E+00 0. -1.
         -1   -1    0    0    0  501 -0.00000000000E+00 -0.00000000000E+00 -0.58495431017E+03  0.58495431017E+03  0.00000000000E+00 0.  1.
         25    2    1    2    0    0 -0.42728068819E+02 -0.92878172340E+02 -0.20006611816E+03  0.25714880183E+03  0.12508801655E+03 0.  0.
          5    1    3    3  502    0 -0.54250607273E+02 -0.55456322301E+02 -0.31150595028E+02  0.83704026446E+02  0.41800000000E+01 0. -1.
         -5    1    3    3    0  502  0.11522538454E+02 -0.37421850039E+02 -0.16891552313E+03  0.17344477538E+03  0.41800000000E+01 0. -1.
        -11    1    1    2    0    0  0.43176698811E+01  0.98157780957E+02 -0.23572979890E+03  0.25538623754E+03  0.00000000000E+00 0.  1.
         11    1    1    2    0    0  0.38410398938E+02 -0.52796086171E+01 -0.10739671881E+03  0.11418094510E+03  0.00000000000E+00 0. -1.
</event>
<event>
 7    1  0.2766180E-009  0.1236018E+03  0.7561462E-02  0.1237271E+00
         -2   -1    0    0    0  501 -0.00000000000E+00  0.00000000000E+00  0.85104606269E+01  0.85104606269E+01  0.00000000000E+00 0.  1.
          2   -1    0    0  501    0  0.00000000000E+00 -0.00000000000E+00 -0.20712787856E+04  0.20712787856E+04  0.00000000000E+00 0. -1.
         25    2    1    2    0    0 -0.56288143775E+02  0.32639458934E+02 -0.14405901459E+04  0.14474727253E+04  0.12507450797E+03 0.  0.
          5    1    3    3  502    0  0.21137599246E+02  0.51258307565E+02 -0.40221367412E+03  0.40603882111E+03  0.41800000000E+01 0. -1.
         -5    1    3    3    0  502 -0.77425743021E+02 -0.18618848631E+02 -0.10383764718E+04  0.10414339042E+04  0.41800000000E+01 0. -1.
        -11    1    1    2    0    0 -0.24015197359E+02 -0.18510734027E+02 -0.13509087546E+03  0.13845187471E+03  0.00000000000E+00 0. -1.
         11    1    1    2    0    0  0.80303341134E+02 -0.14128724907E+02 -0.48708730358E+03  0.49386464620E+03  0.00000000000E+00 0.  1.
</event>
<event>
 7    1  0.2766180E-009  0.9553286E+02  0.7561462E-02  0.1289980E+00
          2   -1    0    0  501    0  0.00000000000E+00  0.00000000000E+00  0.52360172659E+03  0.52360172659E+03  0.00000000000E+00 0. -1.
         -2   -1    0    0    0  501 -0.00000000000E+00 -0.00000000000E+00 -0.28358174082E+02  0.28358174082E+02  0.00000000000E+00 0.  1.
         25    2    1    2    0    0 -0.11179763138E+02 -0.50578517858E+02  0.22209066589E+03  0.26010517776E+03  0.12508903248E+03 0.  0.
          5    1    3    3  502    0 -0.45889854691E+02 -0.48401314796E+02  0.47386266989E+02  0.81923725115E+02  0.41800000000E+01 0. -1.
         -5    1    3    3    0  502  0.34710091553E+02 -0.21772030626E+01  0.17470439890E+03  0.17818145264E+03  0.41800000000E+01 0. -1.
        -11    1    1    2    0    0  0.36790747654E+02  0.51837949981E+02  0.24769440698E+03  0.25572104219E+03  0.00000000000E+00 0. -1.
         11    1    1    2    0    0 -0.25610984517E+02 -0.12594321223E+01  0.25458479633E+02  0.36133680721E+02  0.00000000000E+00 0.  1.
</event>
<event>
 7    1  0.2766180E-009  0.1108471E+03  0.7561462E-02  0.1259009E+00
          1   -1    0    0  501    0  0.00000000000E+00  0.00000000000E+00  0.27966309081E+03  0.27966309081E+03  0.00000000000E+00 0. -1.
         -1   -1    0    0    0  501 -0.00000000000E+00 -0.00000000000E+00 -0.67849230029E+02  0.67849230029E+02  0.00000000000E+00 0.  1.
         25    2    1    2    0    0 -0.52964722182E+02 -0.45473897301E+02  0.17819444127E+03  0.22863524727E+03  0.12509068816E+03 0.  0.
          5    1    3    3  502    0 -0.73464081813E+02 -0.18601419309E+02  0.38992813724E+02  0.85328166739E+02  0.41800000000E+01 0.  1.
         -5    1    3    3    0  502  0.20499359631E+02 -0.26872477992E+02  0.13920162755E+03  0.14330708053E+03  0.41800000000E+01 0.  1.
        -11    1    1    2    0    0  0.29270225391E+02  0.71069542465E+02  0.11869901551E+02  0.77772234913E+02  0.00000000000E+00 0. -1.
         11    1    1    2    0    0  0.23694496791E+02 -0.25595645164E+02  0.21749517962E+02  0.41104838658E+02  0.00000000000E+00 0.  1.
</event>
<event>
 7    1  0.2766180E-009  0.8704126E+02  0.7561462E-02  0.1310179E+00
         -1   -1    0    0    0  501 -0.00000000000E+00  0.00000000000E+00  0.69363432870E+02  0.69363432870E+02  0.00000000000E+00 0.  1.
          1   -1    0    0  501    0  0.00000000000E+00 -0.00000000000E+00 -0.22474801242E+03  0.22474801242E+03  0.00000000000E+00 0. -1.
         25    2    1    2    0    0  0.89384293293E+01  0.54974350187E+02 -0.56531433820E+02  0.14813952540E+03  0.12508973290E+03 0.  0.
          5    1    3    3  502    0  0.26267443699E+02  0.26357600123E+02 -0.91924384040E+02  0.99258583829E+02  0.41800000000E+01 0.  1.
         -5    1    3    3    0  502 -0.17329014370E+02  0.28616750064E+02  0.35392950220E+02  0.48880941568E+02  0.41800000000E+01 0.  1.
        -11    1    1    2    0    0  0.24077336115E+01  0.23504416786E+02 -0.70334597717E+01  0.24652065754E+02  0.00000000000E+00 0. -1.
         11    1    1    2    0    0 -0.11346162941E+02 -0.78478766973E+02 -0.91819685963E+02  0.12131985414E+03  0.00000000000E+00 0.  1.
</event>
<event>
 7    1  0.2766180E-009  0.1661545E+03  0.7561462E-02  0.1181919E+00
          3   -1    0    0  501    0  0.00000000000E+00  0.00000000000E+00  0.22378427075E+04  0.22378427075E+04  0.00000000000E+00 0. -1.
         -3   -1    0    0    0  501 -0.00000000000E+00 -0.00000000000E+00 -0.14411423336E+02  0.14411423336E+02  0.00000000000E+00 0.  1.
         25    2    1    2    0    0  0.63991117912E+02  0.12476800027E+03  0.12781769678E+04  0.12919142977E+04  0.12507707366E+03 0.  0.
          5    1    3    3  502    0  0.72598233875E+02  0.13224704013E+03  0.12650901293E+04  0.12740605522E+04  0.41800000000E+01 0.  1.
         -5    1    3    3    0  502 -0.86071159635E+01 -0.74790398607E+01  0.13086838569E+02  0.17853745439E+02  0.41800000000E+01 0.  1.
        -11    1    1    2    0    0  0.82887469162E+01 -0.87554258054E+02  0.51994263726E+03  0.52732797903E+03  0.00000000000E+00 0.  1.
         11    1    1    2    0    0 -0.72279864828E+02 -0.37213742219E+02  0.42531167911E+03  0.43301185417E+03  0.00000000000E+00 0. -1.
</event>
<event>
 7    1  0.2766180E-009  0.1452831E+03  0.7561462E-02  0.1206392E+00
         -4   -1    0    0    0  501 -0.00000000000E+00  0.00000000000E+00  0.15047559588E+03  0.15047559588E+03  0.00000000000E+00 0.  1.
          4   -1    0    0  501    0  0.00000000000E+00 -0.00000000000E+00 -0.26033886869E+03  0.26033886869E+03  0.00000000000E+00 0. -1.
         25    2    1    2    0    0  0.92215179664E+02 -0.57781323363E+02  0.71360358735E+02  0.18049321645E+03  0.12507269765E+03 0.  0.
          5    1    3    3  502    0 -0.30853754714E+02 -0.17989850007E+02  0.10322956669E+02  0.37411558610E+02  0.41800000000E+01 0.  1.
         -5    1    3    3    0  502  0.12306893438E+03 -0.39791473356E+02  0.61037402066E+02  0.14308165784E+03  0.41800000000E+01 0.  1.
        -11    1    1    2    0    0 -0.80833772842E+02  0.16663094553E+02 -0.16534268890E+03  0.18479708419E+03  0.00000000000E+00 0.  1.
         11    1    1    2    0    0 -0.11381406822E+02  0.41118228810E+02 -0.15880942641E+02  0.45524163923E+02  0.00000000000E+00 0. -1.
</event>
<event>
 7    1  0.2766180E-009  0.1492625E+03  0.7561462E-02  0.1201382E+00
         -1   -1    0    0    0  501 -0.00000000000E+00  0.00000000000E+00  0.90252416089E+02  0.90252416089E+02  0.00000000000E+00 0.  1.
          1   -1    0    0  501    0  0.00000000000E+00 -0.00000000000E+00 -0.35900889570E+03  0.35900889570E+03  0.00000000000E+00 0. -1.
         25    2    1    2    0    0  0.14577548382E+02 -0.13525227744E+03 -0.91754817506E+02  0.20632652634E+03  0.12508399364E+03 0.  0.
          5    1    3    3  502    0  0.85488084337E+01 -0.12183827369E+02  0.29561765609E+02  0.33360128311E+02  0.41800000000E+01 0. -1.
         -5    1    3    3    0  502  0.60287399486E+01 -0.12306845007E+03 -0.12131658312E+03  0.17296639803E+03  0.41800000000E+01 0. -1.
        -11    1    1    2    0    0  0.34903355050E+01  0.14082681696E+03 -0.17386041211E+03  0.22376732942E+03  0.00000000000E+00 0. -1.
         11    1    1    2    0    0 -0.18067883887E+02 -0.55745395264E+01 -0.31412499942E+01  0.19167456029E+02  0.00000000000E+00 0.  1.
</event>
<event>
 7    1  0.2766180E-009  0.3054821E+03  0.7561462E-02  0.1082532E+00
         -2   -1    0    0    0  501 -0.00000000000E+00  0.00000000000E+00  0.14619378792E+03  0.14619378792E+03  0.00000000000E+00 0.  1.
          2   -1    0    0  501    0  0.00000000000E+00 -0.00000000000E+00 -0.73501111990E+03  0.73501111990E+03  0.00000000000E+00 0. -1.
         25    2    1    2    0    0  0.64879369509E+02 -0.29527867735E+03 -0.38659596091E+03  0.50646117161E+03  0.12509057304E+03 0.  0.
          5    1    3    3  502    0 -0.55066419761E+01 -0.10383323547E+02 -0.83976448761E+02  0.84897896677E+02  0.41800000000E+01 0.  1.
         -5    1    3    3    0  502  0.70386011485E+02 -0.28489535381E+03 -0.30261951215E+03  0.42156327493E+03  0.41800000000E+01 0.  1.
        -11    1    1    2    0    0 -0.16314627026E+02  0.16765870389E+03 -0.63303380263E+02  0.17995256597E+03  0.00000000000E+00 0. -1.
         11    1    1    2    0    0 -0.48564742483E+02  0.12761997346E+03 -0.13891799080E+03  0.19479117025E+03  0.00000000000E+00 0.  1.
</event>
<event>
 7    1  0.2766180E-009  0.9999125E+02  0.7561462E-02  0.1280314E+00
         -2   -1    0    0    0  501 -0.00000000000E+00  0.00000000000E+00  0.39017612120E+02  0.39017612120E+02  0.00000000000E+00 0.  1.
          2   -1    0    0  501    0  0.00000000000E+00 -0.00000000000E+00 -0.38019582544E+03  0.38019582544E+03  0.00000000000E+00 0. -1.
         25    2    1    2    0    0 -0.30582275654E+02 -0.50149402779E-01 -0.26488092415E+03  0.29452427713E+03  0.12508943897E+03 0.  0.
          5    1    3    3  502    0 -0.23219851326E+02  0.47698199976E+02 -0.46013618041E+02  0.70349166461E+02  0.41800000000E+01 0. -1.
         -5    1    3    3    0  502 -0.73624243280E+01 -0.47748349378E+02 -0.21886730611E+03  0.22417511067E+03  0.41800000000E+01 0. -1.
        -11    1    1    2    0    0 -0.28098453991E+02  0.21934885163E+02 -0.22730130617E+02  0.42276721038E+02  0.00000000000E+00 0.  1.
         11    1    1    2    0    0  0.58680729645E+02 -0.21884735760E+02 -0.53567158552E+02  0.82412439391E+02  0.00000000000E+00 0. -1.
</event>
<event>
 7    1  0.2766180E-009  0.6203424E+02  0.7561462E-02  0.1389488E+00
          1   -1    0    0  501    0  0.00000000000E+00  0.00000000000E+00  0.16050159308E+03  0.16050159308E+03  0.00000000000E+00 0. -1.
         -1   -1    0    0    0  501 -0.00000000000E+00 -0.00000000000E+00 -0.10856412865E+03  0.10856412865E+03  0.00000000000E+00 0.  1.
         25    2    1    2    0    0  0.59361547045E+01 -0.43819112880E+02 -0.36470389462E+02  0.13759727172E+03  0.12509023659E+03 0.  0.
          5    1    3    3  502    0 -0.74020208596E+01 -0.20070764012E+02  0.45860673195E+02  0.50776955666E+02  0.41800000000E+01 0.  1.
         -5    1    3    3    0  502  0.13338175564E+02 -0.23748348867E+02 -0.82331062656E+02  0.86820316052E+02  0.41800000000E+01 0.  1.
        -11    1    1    2    0    0 -0.83072240094E+01 -0.14305313617E+02  0.67744176866E+02  0.69734679089E+02  0.00000000000E+00 0. -1.
         11    1    1    2    0    0  0.23710693049E+01  0.58124426497E+02  0.20663677027E+02  0.61733770932E+02  0.00000000000E+00 0.  1.
</event>
<event>
 7    1  0.2766180E-009  0.1160884E+03  0.7561462E-02  0.1249693E+00
         -2   -1    0    0    0  501 -0.00000000000E+00  0.00000000000E+00  0.48746963266E+03  0.48746963266E+03  0.00000000000E+00 0.  1.
          2   -1    0    0  501    0  0.00000000000E+00 -0.00000000000E+00 -0.52944351179E+02  0.52944351179E+02  0.00000000000E+00 0. -1.
         25    2    1    2    0    0  0.81137980763E+02  0.28645356389E+02  0.94440490374E+02  0.17880339819E+03  0.12509084946E+03 0.  0.
          5    1    3    3  502    0  0.60270404246E+02 -0.16266747178E+02 -0.97921695882E+01  0.63328411294E+02  0.41800000000E+01 0. -1.
         -5    1    3    3    0  502  0.20867576517E+02  0.44912103567E+02  0.10423265996E+03  0.11547498690E+03  0.41800000000E+01 0. -1.
        -11    1    1    2    0    0 -0.59020835168E+02  0.23299445992E+02  0.21906101361E+03  0.22806589147E+03  0.00000000000E+00 0. -1.
         11    1    1    2    0    0 -0.22117145595E+02 -0.51944802381E+02  0.12102377750E+03  0.13354469418E+03  0.00000000000E+00 0.  1.
</event>
<event>
 7    1  0.2766180E-009  0.1025989E+03  0.7561462E-02  0.1274924E+00
          2   -1    0    0  501    0  0.00000000000E+00  0.00000000000E+00  0.50278054038E+03  0.50278054038E+03  0.00000000000E+00 0. -1.
         -2   -1    0    0    0  501 -0.00000000000E+00 -0.00000000000E+00 -0.51119495413E+02  0.51119495413E+02  0.00000000000E+00 0.  1.
         25    2    1    2    0    0  0.62951078323E+01 -0.19399653693E+02  0.44769217397E+03  0.46528761016E+03  0.12509317562E+03 0.  0.
          5    1    3    3  502    0  0.31614438387E+02 -0.65774068024E+02  0.23598171720E+03  0.24704360747E+03  0.41800000000E+01 0. -1.
         -5    1    3    3    0  502 -0.25319330555E+02  0.46374414331E+02  0.21171045677E+03  0.21824400269E+03  0.41800000000E+01 0. -1.
        -11    1    1    2    0    0  0.31521293647E+02  0.25814685449E+02  0.21917430744E+02  0.46264064979E+02  0.00000000000E+00 0. -1.
         11    1    1    2    0    0 -0.37816401479E+02 -0.64150317564E+01 -0.17948559746E+02  0.42348360656E+02  0.00000000000E+00 0.  1.
</event>
<event>
 7    1  0.2766180E-009  0.2087436E+03  0.7561462E-02  0.1142565E+00
         -2   -1    0    0    0  501 -0.00000000000E+00  0.00000000000E+00  0.42389329029E+02  0.42389329029E+02  0.00000000000E+00 0.  1.
          2   -1    0    0  501    0  0.00000000000E+00 -0.00000000000E+00 -0.18319809504E+04  0.18319809504E+04  0.00000000000E+00 0. -1.
         25    2    1    2    0    0  0.17047123490E+03  0.57703845960E+02 -0.15199314306E+04  0.15356525109E+04  0.12508758903E+03 0.  0.
          5    1    3    3  502    0  0.17486975142E+03  0.20415831581E+02 -0.13580746635E+04  0.13694453258E+04  0.41800000000E+01 0.  1.
         -5    1    3    3    0  502 -0.43985165178E+01  0.37288014379E+02 -0.16185676703E+03  0.16620718515E+03  0.41800000000E+01 0.  1.
        -11    1    1    2    0    0 -0.71586707756E+02 -0.74478936371E+02 -0.11725274665E+03  0.15626891977E+03  0.00000000000E+00 0.  1.
         11    1    1    2    0    0 -0.98884527145E+02  0.16775090410E+02 -0.15240744413E+03  0.18244884870E+03  0.00000000000E+00 0. -1.
</event>
<event>
 7    1  0.2766180E-009  0.7615605E+02  0.7561462E-02  0.1340328E+00
          1   -1    0    0  501    0  0.00000000000E+00  0.00000000000E+00  0.11735068342E+03  0.11735068342E+03  0.00000000000E+00 0. -1.
         -1   -1    0    0    0  501 -0.00000000000E+00 -0.00000000000E+00 -0.11143126273E+03  0.11143126273E+03  0.00000000000E+00 0.  1.
         25    2    1    2    0    0 -0.22798546534E+02  0.28315555076E+01  0.28974029028E+02  0.13044525970E+03  0.12509468410E+03 0.  0.
          5    1    3    3  502    0 -0.14885955349E+02  0.44319670739E+02 -0.31525248330E+02  0.56543245073E+02  0.41800000000E+01 0.  1.
         -5    1    3    3    0  502 -0.79125911845E+01 -0.41488115232E+02  0.60499277359E+02  0.73902014625E+02  0.41800000000E+01 0.  1.
        -11    1    1    2    0    0 -0.14458079627E+02  0.15680094313E+02 -0.46087942358E+02  0.50783854274E+02  0.00000000000E+00 0.  1.
         11    1    1    2    0    0  0.37256626161E+02 -0.18511649821E+02  0.23033334023E+02  0.47552832178E+02  0.00000000000E+00 0. -1.
</event>
<event>
 7    1  0.2766180E-009  0.8039732E+02  0.7561462E-02  0.1327928E+00
          2   -1    0    0  501    0  0.00000000000E+00  0.00000000000E+00  0.14027873789E+03  0.14027873789E+03  0.00000000000E+00 0. -1.
         -2   -1    0    0    0  501 -0.00000000000E+00 -0.00000000000E+00 -0.12847393052E+03  0.12847393052E+03  0.00000000000E+00 0.  1.
         25    2    1    2    0    0  0.17413048503E+02 -0.25082089989E+02  0.79913146926E+02  0.15153902556E+03  0.12508253163E+03 0.  0.
          5    1    3    3  502    0 -0.19026787898E+02  0.86938132835E+01  0.96624865546E+02  0.98951695735E+02  0.41800000000E+01 0. -1.
         -5    1    3    3    0  502  0.36439836400E+02 -0.33775903272E+02 -0.16711718620E+02  0.52587329824E+02  0.41800000000E+01 0. -1.
        -11    1    1    2    0    0 -0.41006605715E+02 -0.14521683201E+02 -0.13076289941E+02  0.45424776872E+02  0.00000000000E+00 0.  1.
         11    1    1    2    0    0  0.23593557213E+02  0.39603773190E+02 -0.55032049621E+02  0.71788865977E+02  0.00000000000E+00 0. -1.
</event>
<event>
 7    1  0.2766180E-009  0.9664979E+02  0.7561462E-02  0.1287503E+00
         -1   -1    0    0    0  501 -0.00000000000E+00  0.00000000000E+00  0.14056426556E+02  0.14056426556E+02  0.00000000000E+00 0.  1.
          1   -1    0    0  501    0  0.00000000000E+00 -0.00000000000E+00 -0.11827574002E+04  0.11827574002E+04  0.00000000000E+00 0. -1.
         25    2    1    2    0    0 -0.42640195373E+02 -0.22659121134E+02 -0.88937958525E+03  0.89943062526E+03  0.12509109063E+03 0.  0.
          5    1    3    3  502    0  0.22099499219E+02 -0.40843440664E+02 -0.62009038213E+03  0.62184091930E+03  0.41800000000E+01 0.  1.
         -5    1    3    3    0  502 -0.64739694592E+02  0.18184319529E+02 -0.26928920313E+03  0.27758970596E+03  0.41800000000E+01 0.  1.
        -11    1    1    2    0    0  0.54235393066E+02  0.33231383992E+02 -0.27325435292E+03  0.28055969798E+03  0.00000000000E+00 0.  1.
         11    1    1    2    0    0 -0.11595197693E+02 -0.10572262857E+02 -0.60670354884E+01  0.16823503532E+02  0.00000000000E+00 0. -1.
</event>
<event>
 7    1  0.2766180E-009  0.1594854E+03  0.7561462E-02  0.1189279E+00
         -2   -1    0    0    0  501 -0.00000000000E+00  0.00000000000E+00  0.23768198843E+03  0.23768198843E+03  0.00000000000E+00 0.  1.
          2   -1    0    0  501    0  0.00000000000E+00 -0.00000000000E+00 -0.12550995098E+03  0.12550995098E+03  0.00000000000E+00 0. -1.
         25    2    1    2    0    0  0.12175082310E+03 -0.48991430460E+02  0.29575481299E+02  0.18370193006E+03  0.12509303270E+03 0.  0.
          5    1    3    3  502    0  0.60688558637E+01  0.32409578256E+02 -0.13356314327E+02  0.35820040573E+02  0.41800000000E+01 0.  1.
         -5    1    3    3    0  502  0.11568196723E+03 -0.81401008716E+02  0.42931795626E+02  0.14788188949E+03  0.41800000000E+01 0.  1.
        -11    1    1    2    0    0 -0.27399190367E+02  0.41292550954E+02  0.67331130551E+02  0.83601863247E+02  0.00000000000E+00 0.  1.
         11    1    1    2    0    0 -0.94351632728E+02  0.76988795053E+01  0.15265425593E+02  0.95888146101E+02  0.00000000000E+00 0. -1.
</event>
<event>
 7    1  0.2766180E-009  0.1819657E+03  0.7561462E-02  0.1165914E+00
         -2   -1    0    0    0  501 -0.00000000000E+00  0.00000000000E+00  0.58274880984E+03  0.58274880984E+03  0.00000000000E+00 0.  1.
          2   -1    0    0  501    0  0.00000000000E+00 -0.00000000000E+00 -0.62492095075E+02  0.62492095075E+02  0.00000000000E+00 0. -1.
         25    2    1    2    0    0 -0.13440933348E+03 -0.70248621563E+02  0.20405182787E+03  0.28334714565E+03  0.12509084193E+03 0.  0.
          5    1    3    3  502    0  0.22735751590E+02  0.16031224843E+01  0.31609599650E+02  0.39193412611E+02  0.41800000000E+01 0. -1.
         -5    1    3    3    0  502 -0.15714508507E+03 -0.71851744047E+02  0.17244222822E+03  0.24415373304E+03  0.41800000000E+01 0. -1.
        -11    1    1    2    0    0  0.53927598428E+02 -0.93364904651E+01  0.56832052736E+02  0.78900178355E+02  0.00000000000E+00 0. -1.
         11    1    1    2    0    0  0.80481735054E+02  0.79585112028E+02  0.25937283416E+03  0.28299358091E+03  0.00000000000E+00 0.  1.
</event>
<event>
 7    1  0.2766180E-009  0.1230237E+03  0.7561462E-02  0.1238191E+00
          1   -1    0    0  501    0  0.00000000000E+00  0.00000000000E+00  0.17346228702E+03  0.17346228702E+03  0.00000000000E+00 0. -1.
         -1   -1    0    0    0  501 -0.00000000000E+00 -0.00000000000E+00 -0.12568696430E+03  0.12568696430E+03  0.00000000000E+00 0.  1.
         25    2    1    2    0    0  0.32232654995E+02 -0.77187948585E+02 -0.27492293804E+02  0.15297326295E+03  0.12509224398E+03 0.  0.
          5    1    3    3  502    0  0.36627523173E+02  0.16066658883E+02 -0.42289460514E+02  0.58357380442E+02  0.41800000000E+01 0. -1.
         -5    1    3    3    0  502 -0.43948681781E+01 -0.93254607469E+02  0.14797166710E+02  0.94615882510E+02  0.41800000000E+01 0. -1.
        -11    1    1    2    0    0  0.15021288512E+02  0.60390947529E+02  0.87073770451E+01  0.62837282461E+02  0.00000000000E+00 0.  1.
         11    1    1    2    0    0 -0.47253943507E+02  0.16797001056E+02  0.66560239479E+02  0.83338705899E+02  0.00000000000E+00 0. -1.
</event>
<event>
 7    1  0.2766180E-009  0.1924229E+03  0.7561462E-02  0.1156294E+00
          1   -1    0    0  501    0  0.00000000000E+00  0.00000000000E+00  0.15361567540E+03  0.15361567540E+03  0.00000000000E+00 0. -1.
         -1   -1    0    0    0  501 -0.00000000000E+00 -0.00000000000E+00 -0.28531553727E+03  0.28531553727E+03  0.00000000000E+00 0.  1.
         25    2    1    2    0    0 -0.60507471872E+02  0.16568560729E+03 -0.97257460841E+02  0.23710510748E+03  0.12508774395E+03 0.  0.
          5    1    3    3  502    0 -0.82195694838E+02  0.74582189580E+02 -0.90229266688E+02  0.14309936485E+03  0.41800000000E+01 0.  1.
         -5    1    3    3    0  502  0.21688222967E+02  0.91103417713E+02 -0.70281941531E+01  0.94005742630E+02  0.41800000000E+01 0.  1.
        -11    1    1    2    0    0  0.12496653417E+02 -0.71683243701E+01 -0.33202203969E+02  0.36193059684E+02  0.00000000000E+00 0.  1.
         11    1    1    2    0    0  0.48010818455E+02 -0.15851728292E+03 -0.12401970567E+01  0.16563304550E+03  0.00000000000E+00 0. -1.
</event>
<event>
 7    1  0.2766180E-009  0.2715810E+03  0.7561462E-02  0.1100378E+00
         -1   -1    0    0    0  501 -0.00000000000E+00  0.00000000000E+00  0.10280358134E+03  0.10280358134E+03  0.00000000000E+00 0.  1.
          1   -1    0    0  501    0  0.00000000000E+00 -0.00000000000E+00 -0.99067244809E+03  0.99067244809E+03  0.00000000000E+00 0. -1.
         25    2    1    2    0    0  0.10459180320E+03  0.24627745078E+03 -0.68179889880E+03  0.74302693739E+03  0.12508902119E+03 0.  0.
          5    1    3    3  502    0  0.11205779988E+03  0.22511637107E+03 -0.49887292133E+03  0.55868237404E+03  0.41800000000E+01 0. -1.
         -5    1    3    3    0  502 -0.74659966715E+01  0.21161079716E+02 -0.18292597747E+03  0.18434456335E+03  0.41800000000E+01 0. -1.
        -11    1    1    2    0    0 -0.88639787245E+01 -0.75919614048E+01  0.93693111792E+01  0.14966361908E+02  0.00000000000E+00 0.  1.
         11    1    1    2    0    0 -0.95727824480E+02 -0.23868548938E+03 -0.21543927913E+03  0.33548273012E+03  0.00000000000E+00 0. -1.
</event>
<event>
 7    1  0.2766180E-009  0.1145985E+03  0.7561462E-02  0.1252284E+00
          2   -1    0    0  501    0  0.00000000000E+00  0.00000000000E+00  0.73327037962E+03  0.73327037962E+03  0.00000000000E+00 0. -1.
         -2   -1    0    0    0  501 -0.00000000000E+00 -0.00000000000E+00 -0.18992537563E+02  0.18992537563E+02  0.00000000000E+00 0.  1.
         25    2    1    2    0    0  0.28872190291E+02 -0.81389843488E+01  0.46399513014E+03  0.48149673347E+03  0.12509107525E+03 0.  0.
          5    1    3    3  502    0  0.73930883030E+02  0.15597188298E+02  0.23558876531E+03  0.24744410781E+03  0.41800000000E+01 0.  1.
         -5    1    3    3    0  502 -0.45058692739E+02 -0.23736172647E+02  0.22840636484E+03  0.23405262566E+03  0.41800000000E+01 0.  1.
        -11    1    1    2    0    0  0.21373676559E+02 -0.31746856181E+02  0.76932007776E+02  0.85925728088E+02  0.00000000000E+00 0.  1.
         11    1    1    2    0    0 -0.50245866850E+02  0.39885840530E+02  0.17335070414E+03  0.18484045563E+03  0.00000000000E+00 0. -1.
</event>
<event>
 7    1  0.2766180E-009  0.1371613E+03  0.7561462E-02  0.1217200E+00
         -1   -1    0    0    0  501 -0.00000000000E+00  0.00000000000E+00  0.23298164814E+03  0.23298164814E+03  0.00000000000E+00 0.  1.
          1   -1    0    0  501    0  0.00000000000E+00 -0.00000000000E+00 -0.13836729908E+03  0.13836729908E+03  0.00000000000E+00 0. -1.
         25    2    1    2    0    0 -0.10319801535E+03 -0.78887839444E+02 -0.11387137885E+02  0.18069406477E+03  0.12509019366E+03 0.  0.
          5    1    3    3  502    0 -0.27786790020E+02  0.13592409498E+01  0.47906215242E+02  0.55555657627E+02  0.41800000000E+01 0. -1.
         -5    1    3    3    0  502 -0.75411225327E+02 -0.80247080394E+02 -0.59293353127E+02  0.12513840714E+03  0.41800000000E+01 0. -1.
        -11    1    1    2    0    0  0.94868635727E+02  0.52728207171E+02  0.34222209321E+02  0.11380457586E+03  0.00000000000E+00 0. -1.
         11    1    1    2    0    0  0.83293796197E+01  0.26159632273E+02  0.71779277630E+02  0.76850306588E+02  0.00000000000E+00 0.  1.
</event>
<event>
 7    1  0.2766180E-009  0.1148841E+03  0.7561462E-02  0.1251783E+00
          1   -1    0    0  501    0  0.00000000000E+00  0.00000000000E+00  0.64141130647E+03  0.64141130647E+03  0.00000000000E+00 0.  1.
         -1   -1    0    0    0  501 -0.00000000000E+00 -0.00000000000E+00 -0.21654759248E+02  0.21654759248E+02  0.00000000000E+00 0. -1.
         25    2    1    2    0    0  0.24833086100E+02  0.35510642974E+02  0.38534984093E+03  0.40745506112E+03  0.12508972380E+03 0.  0.
          5    1    3    3  502    0 -0.25744707819E+02 -0.36117033130E+02  0.12458482280E+03  0.13231054582E+03  0.41800000000E+01 0. -1.
         -5    1    3    3    0  502  0.50577793920E+02  0.71627676105E+02  0.26076501813E+03  0.27514451530E+03  0.41800000000E+01 0. -1.
        -11    1    1    2    0    0 -0.56773187399E+02 -0.12677055113E+02  0.17488753324E+03  0.18430830643E+03  0.00000000000E+00 0.  1.
         11    1    1    2    0    0  0.31940101299E+02 -0.22833587862E+02  0.59519173046E+02  0.71302698166E+02  0.00000000000E+00 0. -1.
</event>
<event>
 7    1  0.2766180E-009  0.1250779E+03  0.7561462E-02  0.1234948E+00
         -2   -1    0    0    0  501 -0.00000000000E+00  0.00000000000E+00  0.80261651121E+02  0.80261651121E+02  0.00000000000E+00 0.  1.
          2   -1    0    0  501    0  0.00000000000E+00 -0.00000000000E+00 -0.35523207775E+03  0.35523207775E+03  0.00000000000E+00 0. -1.
         25    2    1    2    0    0 -0.43852063918E+02 -0.10869430202E+03 -0.79605432672E+02  0.18900174035E+03  0.12508868112E+03 0.  0.
          5    1    3    3  502    0 -0.38376282538E+02 -0.10795524624E+03 -0.57201020577E+01  0.11479227421E+03  0.41800000000E+01 0.  1.
         -5    1    3    3    0  502 -0.54757813801E+01 -0.73905578536E+00 -0.73885330614E+02  0.74209466142E+02  0.41800000000E+01 0.  1.
        -11    1    1    2    0    0  0.35890490401E+02  0.23249776144E+02 -0.13489816853E+03  0.14151394018E+03  0.00000000000E+00 0.  1.
         11    1    1    2    0    0  0.79615735170E+01  0.85444525878E+02 -0.60466825425E+02  0.10497804834E+03  0.00000000000E+00 0. -1.
</event>
<event>
 7    1  0.2766180E-009  0.4252107E+03  0.7561462E-02  0.1035384E+00
         -2   -1    0    0    0  501 -0.00000000000E+00  0.00000000000E+00  0.56160120646E+03  0.56160120646E+03  0.00000000000E+00 0. -1.
          2   -1    0    0  501    0  0.00000000000E+00 -0.00000000000E+00 -0.71566727340E+03  0.71566727340E+03  0.00000000000E+00 0.  1.
         25    2    1    2    0    0  0.38192862320E+03  0.17670736478E+03 -0.54222280687E+03  0.69767472673E+03  0.12509790579E+03 0.  0.
          5    1    3    3  502    0  0.29171586190E+03  0.11374235528E+03 -0.30975488722E+03  0.44045548019E+03  0.41800000000E+01 0. -1.
         -5    1    3    3    0  502  0.90212761295E+02  0.62965009498E+02 -0.23246791966E+03  0.25721924654E+03  0.41800000000E+01 0. -1.
        -11    1    1    2    0    0 -0.35162569858E+03 -0.13729444013E+03  0.36371948084E+03  0.52419677215E+03  0.00000000000E+00 0. -1.
         11    1    1    2    0    0 -0.30302924619E+02 -0.39412924655E+02  0.24437259088E+02  0.55396980984E+02  0.00000000000E+00 0.  1.
</event>
<event>
 7    1  0.2766180E-009  0.1173941E+03  0.7561462E-02  0.1247459E+00
         -1   -1    0    0    0  501 -0.00000000000E+00  0.00000000000E+00  0.63515880944E+03  0.63515880944E+03  0.00000000000E+00 0.  1.
          1   -1    0    0  501    0  0.00000000000E+00 -0.00000000000E+00 -0.29972309250E+02  0.29972309250E+02  0.00000000000E+00 0. -1.
         25    2    1    2    0    0 -0.32753096939E+02  0.24163394584E+02  0.49993118296E+03  0.51694618179E+03  0.12508210175E+03 0.  0.
          5    1    3    3  502    0  0.36799189762E+02 -0.25467405957E+02  0.14251062471E+03  0.14943065177E+03  0.41800000000E+01 0. -1.
         -5    1    3    3    0  502 -0.69552286701E+02  0.49630800541E+02  0.35742055825E+03  0.36751553003E+03  0.41800000000E+01 0. -1.
        -11    1    1    2    0    0 -0.33457481065E+02 -0.17477094801E+02  0.36968016815E+02  0.52834516645E+02  0.00000000000E+00 0.  1.
         11    1    1    2    0    0  0.66210578004E+02 -0.66862997826E+01  0.68287300417E+02  0.95350420254E+02  0.00000000000E+00 0. -1.
</event>
<event>
 7    1  0.2766180E-009  0.1095410E+03  0.7561462E-02  0.1261422E+00
          1   -1    0    0  501    0  0.00000000000E+00  0.00000000000E+00  0.19688903042E+03  0.19688903042E+03  0.00000000000E+00 0. -1.
         -1   -1    0    0    0  501 -0.00000000000E+00 -0.00000000000E+00 -0.89865755923E+02  0.89865755923E+02  0.00000000000E+00 0.  1.
         25    2    1    2    0    0 -0.33105962203E+02 -0.83750169543E+01 -0.20115225962E+02  0.13121338312E+03  0.12508470710E+03 0.  0.
          5    1    3    3  502    0 -0.54688584446E+02 -0.55178030618E+02 -0.89584997481E+01  0.78314643901E+02  0.41800000000E+01 0.  1.
         -5    1    3    3    0  502  0.21582622244E+02  0.46803013663E+02 -0.11156726214E+02  0.52898739216E+02  0.41800000000E+01 0.  1.
        -11    1    1    2    0    0  0.33334833751E+01  0.43443004506E+02  0.59774118933E+02  0.73968588239E+02  0.00000000000E+00 0.  1.
         11    1    1    2    0    0  0.29772478828E+02 -0.35067987552E+02  0.67364381527E+02  0.81572814988E+02  0.00000000000E+00 0. -1.
</event>
<event>
 7    1  0.2766180E-009  0.1024883E+03  0.7561462E-02  0.1275149E+00
         -2   -1    0    0    0  501 -0.00000000000E+00  0.00000000000E+00  0.25439503623E+03  0.25439503623E+03  0.00000000000E+00 0.  1.
          2   -1    0    0  501    0  0.00000000000E+00 -0.00000000000E+00 -0.60020695624E+02  0.60020695624E+02  0.00000000000E+00 0. -1.
         25    2    1    2    0    0  0.49959638492E+02  0.11816346106E+02  0.14446826956E+03  0.19788945109E+03  0.12511419756E+03 0.  0.
          5    1    3    3  502    0  0.10467621589E+02  0.55189824166E+02  0.12300159613E+03  0.13528618866E+03  0.41800000000E+01 0. -1.
         -5    1    3    3    0  502  0.39492016903E+02 -0.43373478060E+02  0.21466673428E+02  0.62603262424E+02  0.41800000000E+01 0. -1.
        -11    1    1    2    0    0  0.17219372786E+02  0.91050619511E+01  0.41271446537E+02  0.45637060067E+02  0.00000000000E+00 0.  1.
         11    1    1    2    0    0 -0.67179011278E+02 -0.20921408057E+02  0.86346245177E+01  0.70889220703E+02  0.00000000000E+00 0. -1.
</event>
<event>
 7    1  0.3172817E-009  0.8991996E+02  0.7561462E-02  0.1303046E+00
         -3   -1    0    0    0  501 -0.00000000000E+00  0.00000000000E+00  0.71597684321E+02  0.71597684321E+02  0.00000000000E+00 0.  1.
          3   -1    0    0  501    0  0.00000000000E+00 -0.00000000000E+00 -0.19105893633E+03  0.19105893633E+03  0.00000000000E+00 0. -1.
         25    2    1    2    0    0  0.33890790672E+02 -0.21460831443E+02 -0.85041865355E+02  0.15648977531E+03  0.12509107856E+03 0.  0.
          5    1    3    3  502    0 -0.47650172011E+02 -0.69509414549E+01 -0.28347731624E+02  0.56034995922E+02  0.41800000000E+01 0.  1.
         -5    1    3    3    0  502  0.81540962683E+02 -0.14509889988E+02 -0.56694133731E+02  0.10045477939E+03  0.41800000000E+01 0.  1.
        -11    1    1    2    0    0 -0.24476619559E+02 -0.71355150661E+00  0.29218089563E+02  0.38122313919E+02  0.00000000000E+00 0.  1.
         11    1    1    2    0    0 -0.94141711125E+01  0.22174382950E+02 -0.63637476213E+02  0.68044531417E+02  0.00000000000E+00 0. -1.
</event>
<event>
 7    1  0.2766180E-009  0.1198794E+03  0.7561462E-02  0.1243296E+00
         -2   -1    0    0    0  501 -0.00000000000E+00  0.00000000000E+00  0.48221024175E+03  0.48221024175E+03  0.00000000000E+00 0.  1.
          2   -1    0    0  501    0  0.00000000000E+00 -0.00000000000E+00 -0.44943293502E+02  0.44943293502E+02  0.00000000000E+00 0. -1.
         25    2    1    2    0    0 -0.59343392898E+02  0.48110632273E+01  0.38265283603E+03  0.40695646047E+03  0.12508230563E+03 0.  0.
          5    1    3    3  502    0  0.30702439316E+02 -0.25121453691E+02  0.74631397177E+02  0.84622958233E+02  0.41800000000E+01 0. -1.
         -5    1    3    3    0  502 -0.90045832214E+02  0.29932516918E+02  0.30802143886E+03  0.32233350223E+03  0.41800000000E+01 0. -1.
        -11    1    1    2    0    0  0.62862460300E+02  0.30170882978E+02  0.47380003416E+02  0.84302051093E+02  0.00000000000E+00 0. -1.
         11    1    1    2    0    0 -0.35190674026E+01 -0.34981946205E+02  0.72341087995E+01  0.35895023692E+02  0.00000000000E+00 0.  1.
</event>
<event>
 7    1  0.2766180E-009  0.2011503E+03  0.7561462E-02  0.1148772E+00
         -2   -1    0    0    0  501 -0.00000000000E+00  0.00000000000E+00  0.22573539758E+02  0.22573539758E+02  0.00000000000E+00 0.  1.
          2   -1    0    0  501    0  0.00000000000E+00 -0.00000000000E+00 -0.20369568130E+04  0.20369568130E+04  0.00000000000E+00 0. -1.
         25    2    1    2    0    0 -0.20979339645E+01 -0.17298555143E+03 -0.13409323909E+04  0.13578200329E+04  0.12508861782E+03 0.  0.
          5    1    3    3  502    0 -0.55467604675E+02 -0.36198410314E+02 -0.38874231038E+03  0.39436662683E+03  0.41800000000E+01 0. -1.
         -5    1    3    3    0  502  0.53369670711E+02 -0.13678714112E+03 -0.95219008055E+03  0.96345340605E+03  0.41800000000E+01 0. -1.
        -11    1    1    2    0    0 -0.34336407461E+02  0.11945410615E+03 -0.33942869704E+03  0.36146938007E+03  0.00000000000E+00 0.  1.
         11    1    1    2    0    0  0.36434341425E+02  0.53531445282E+02 -0.33402218522E+03  0.34024093976E+03  0.00000000000E+00 0. -1.
</event>
<event>
 7    1  0.2766180E-009  0.7885692E+02  0.7561462E-02  0.1332327E+00
         -2   -1    0    0    0  501 -0.00000000000E+00  0.00000000000E+00  0.73689717325E+02  0.73689717325E+02  0.00000000000E+00 0.  1.
          2   -1    0    0  501    0  0.00000000000E+00 -0.00000000000E+00 -0.24291765838E+03  0.24291765838E+03  0.00000000000E+00 0. -1.
         25    2    1    2    0    0  0.45292941865E+02  0.44580629815E+02 -0.15828578213E+03  0.21151826369E+03  0.12508678552E+03 0.  0.
          5    1    3    3  502    0  0.11415684092E+02  0.10228441475E+02 -0.16215973351E+03  0.16293615446E+03  0.41800000000E+01 0. -1.
         -5    1    3    3    0  502  0.33877257773E+02  0.34352188339E+02  0.38739513772E+01  0.48582109229E+02  0.41800000000E+01 0. -1.
        -11    1    1    2    0    0 -0.38843911150E+02  0.86365559231E+01 -0.28201585907E+02  0.48772625307E+02  0.00000000000E+00 0. -1.
         11    1    1    2    0    0 -0.64490307150E+01 -0.53217185738E+02  0.17259426988E+02  0.56316486707E+02  0.00000000000E+00 0.  1.
</event>
<event>
 7    1  0.2766180E-009  0.1077946E+03  0.7561462E-02  0.1264709E+00
          3   -1    0    0  501    0  0.00000000000E+00  0.00000000000E+00  0.62007998601E+02  0.62007998601E+02  0.00000000000E+00 0. -1.
         -3   -1    0    0    0  501 -0.00000000000E+00 -0.00000000000E+00 -0.31064093675E+03  0.31064093675E+03  0.00000000000E+00 0.  1.
         25    2    1    2    0    0 -0.78648858508E+02  0.24826494317E+02 -0.17702779497E+03  0.23192219615E+03  0.12508823730E+03 0.  0.
          5    1    3    3  502    0  0.17632554536E+02 -0.17987883952E+02 -0.94857111017E+02  0.98233471174E+02  0.41800000000E+01 0. -1.
         -5    1    3    3    0  502 -0.96281413044E+02  0.42814378269E+02 -0.82170683950E+02  0.13368872497E+03  0.41800000000E+01 0. -1.
        -11    1    1    2    0    0  0.15905799506E+02  0.26160706288E+01  0.20420599706E+02  0.26016132991E+02  0.00000000000E+00 0. -1.
         11    1    1    2    0    0  0.62743059002E+02 -0.27442564946E+02 -0.92025742891E+02  0.11471060622E+03  0.00000000000E+00 0.  1.
</event>
<event>
 7    1  0.2766180E-009  0.9732395E+02  0.7561462E-02  0.1286026E+00
         -1   -1    0    0    0  501 -0.00000000000E+00  0.00000000000E+00  0.13454531526E+02  0.13454531526E+02  0.00000000000E+00 0.  1.
          1   -1    0    0  501    0  0.00000000000E+00 -0.00000000000E+00 -0.15157256612E+04  0.15157256612E+04  0.00000000000E+00 0. -1.
         25    2    1    2    0    0  0.53214377657E+02 -0.22001662630E+02 -0.11773010070E+04  0.11853273941E+04  0.12509007539E+03 0.  0.
          5    1    3    3  502    0 -0.73315818248E+01 -0.31557223699E+02 -0.92774831933E+03  0.92832323405E+03  0.41800000000E+01 0.  1.
         -5    1    3    3    0  502  0.60545959482E+02  0.95555610690E+01 -0.24955268768E+03  0.25700416006E+03  0.41800000000E+01 0.  1.
        -11    1    1    2    0    0 -0.36702457623E+02  0.53558923195E+02 -0.27454416321E+03  0.28211722067E+03  0.00000000000E+00 0. -1.
         11    1    1    2    0    0 -0.16511920034E+02 -0.31557260565E+02 -0.50425959471E+02  0.61735577961E+02  0.00000000000E+00 0.  1.
</event>
<event>
 7    1  0.2766180E-009  0.1033033E+03  0.7561462E-02  0.1273499E+00
          1   -1    0    0  501    0  0.00000000000E+00  0.00000000000E+00  0.33943296217E+03  0.33943296217E+03  0.00000000000E+00 0. -1.
         -1   -1    0    0    0  501 -0.00000000000E+00 -0.00000000000E+00 -0.37798190987E+02  0.37798190987E+02  0.00000000000E+00 0.  1.
         25    2    1    2    0    0  0.24068870107E+02  0.10823829120E+02  0.15907371372E+03  0.20407969916E+03  0.12509041302E+03 0.  0.
          5    1    3    3  502    0  0.13510249108E+02  0.64093089430E+02  0.51226129524E+02  0.83258871538E+02  0.41800000000E+01 0.  1.
         -5    1    3    3    0  502  0.10558620999E+02 -0.53269260310E+02  0.10784758419E+03  0.12082082762E+03  0.41800000000E+01 0.  1.
        -11    1    1    2    0    0 -0.23312855818E+02  0.34246764528E+02  0.11000411627E+03  0.11754673846E+03  0.00000000000E+00 0. -1.
         11    1    1    2    0    0 -0.75601428892E+00 -0.45070593648E+02  0.32556941195E+02  0.55604715532E+02  0.00000000000E+00 0.  1.
</event>
<event>
 7    1  0.2766180E-009  0.1629228E+03  0.7561462E-02  0.1185436E+00
         -2   -1    0    0    0  501 -0.00000000000E+00  0.00000000000E+00  0.53889914272E+03  0.53889914272E+03  0.00000000000E+00 0.  1.
          2   -1    0    0  501    0  0.00000000000E+00 -0.00000000000E+00 -0.57846259056E+02  0.57846259056E+02  0.00000000000E+00 0. -1.
         25    2    1    2    0    0 -0.57488863258E+02  0.12318512327E+03  0.20645482937E+03  0.27704048278E+03  0.12509311946E+03 0.  0.
          5    1    3    3  502    0 -0.92351291762E+02  0.96745868340E+02  0.11861226656E+03  0.17881517360E+03  0.41800000000E+01 0.  1.
         -5    1    3    3    0  502  0.34862428504E+02  0.26439254927E+02  0.87842562812E+02  0.98225309181E+02  0.41800000000E+01 0.  1.
        -11    1    1    2    0    0  0.60167364534E+02 -0.60460079616E+02  0.22192808976E+03  0.23775535747E+03  0.00000000000E+00 0.  1.
         11    1    1    2    0    0 -0.26785012764E+01 -0.62725043651E+02  0.52669964530E+02  0.81949561522E+02  0.00000000000E+00 0. -1.
</event>
<event>
 7    1  0.2766180E-009  0.1124358E+03  0.7561462E-02  0.1256125E+00
         -2   -1    0    0    0  501 -0.00000000000E+00  0.00000000000E+00  0.59557417256E+02  0.59557417256E+02  0.00000000000E+00 0.  1.
          2   -1    0    0  501    0  0.00000000000E+00 -0.00000000000E+00 -0.42778570876E+03  0.42778570876E+03  0.00000000000E+00 0. -1.
         25    2    1    2    0    0 -0.66629051156E+02  0.65449360242E+01 -0.33949065482E+03  0.36794527921E+03  0.12509019600E+03 0.  0.
          5    1    3    3  502    0 -0.17995345194E+02 -0.55828430864E+02 -0.10377157835E+03  0.11927555916E+03  0.41800000000E+01 0. -1.
         -5    1    3    3    0  502 -0.48633705963E+02  0.62373366888E+02 -0.23571907647E+03  0.24866972004E+03  0.41800000000E+01 0. -1.
        -11    1    1    2    0    0  0.55060370125E+02 -0.28534865095E+02 -0.55253640587E+02  0.83059302203E+02  0.00000000000E+00 0. -1.
         11    1    1    2    0    0  0.11568681031E+02  0.21989929070E+02  0.26516003901E+02  0.36338544608E+02  0.00000000000E+00 0.  1.
</event>
<event>
 7    1  0.2766180E-009  0.2247382E+03  0.7561462E-02  0.1130399E+00
         -1   -1    0    0    0  501 -0.00000000000E+00  0.00000000000E+00  0.21185332124E+03  0.21185332124E+03  0.00000000000E+00 0.  1.
          1   -1    0    0  501    0  0.00000000000E+00 -0.00000000000E+00 -0.30531811724E+03  0.30531811724E+03  0.00000000000E+00 0. -1.
         25    2    1    2    0    0 -0.14066435009E+01 -0.20416312747E+03 -0.15530996788E+03  0.28540093979E+03  0.12509176250E+03 0.  0.
          5    1    3    3  502    0  0.21584178788E+02 -0.20414712030E+03 -0.10654206801E+03  0.23132360052E+03  0.41800000000E+01 0. -1.
         -5    1    3    3    0  502 -0.22990822289E+02 -0.16007175098E-01 -0.48767899862E+02  0.54077339272E+02  0.41800000000E+01 0. -1.
        -11    1    1    2    0    0 -0.40880505929E+02  0.11619863021E+03  0.51888896035E+02  0.13366299024E+03  0.00000000000E+00 0. -1.
         11    1    1    2    0    0  0.42287149430E+02  0.87964497268E+02  0.99562758378E+01  0.98107508454E+02  0.00000000000E+00 0.  1.
</event>
<event>
 7    1  0.2766180E-009  0.1629596E+03  0.7561462E-02  0.1185395E+00
         -1   -1    0    0    0  501 -0.00000000000E+00  0.00000000000E+00  0.23434950352E+03  0.23434950352E+03  0.00000000000E+00 0.  1.
          1   -1    0    0  501    0  0.00000000000E+00 -0.00000000000E+00 -0.12396041956E+03  0.12396041956E+03  0.00000000000E+00 0. -1.
         25    2    1    2    0    0 -0.56361890000E+01  0.12992644796E+03  0.48315469442E+02  0.18679802453E+03  0.12508584602E+03 0.  0.
          5    1    3    3  502    0  0.34390293102E+02  0.13336170782E+03  0.49447066075E+02  0.14639167366E+03  0.41800000000E+01 0. -1.
         -5    1    3    3    0  502 -0.40026482102E+02 -0.34352598589E+01 -0.11315966324E+01  0.40406350871E+02  0.41800000000E+01 0. -1.
        -11    1    1    2    0    0  0.28091051491E+02 -0.11990435516E+03  0.22902982593E+02  0.12526255694E+03  0.00000000000E+00 0. -1.
         11    1    1    2    0    0 -0.22454862491E+02 -0.10022092803E+02  0.39170631927E+02  0.46249341608E+02  0.00000000000E+00 0.  1.
</event>
<event>
 7    1  0.2766180E-009  0.1770101E+03  0.7561462E-02  0.1170728E+00
         -1   -1    0    0    0  501 -0.00000000000E+00  0.00000000000E+00  0.24346734907E+02  0.24346734907E+02  0.00000000000E+00 0.  1.
          1   -1    0    0  501    0  0.00000000000E+00 -0.00000000000E+00 -0.16151467798E+04  0.16151467798E+04  0.00000000000E+00 0. -1.
         25    2    1    2    0    0  0.15293765394E+03  0.36263877408E+02 -0.61053998992E+03  0.64273777816E+03  0.12509107636E+03 0.  0.
          5    1    3    3  502    0 -0.20995247401E+01  0.18049462860E+02 -0.79976696262E+01  0.20288573954E+02  0.41800000000E+01 0.  1.
         -5    1    3    3    0  502  0.15503717868E+03  0.18214414548E+02 -0.60254232029E+03  0.62244920420E+03  0.41800000000E+01 0.  1.
        -11    1    1    2    0    0 -0.30836487458E+02 -0.47463766869E+02 -0.25522415592E+03  0.26142507127E+03  0.00000000000E+00 0.  1.
         11    1    1    2    0    0 -0.12210116648E+03  0.11199889461E+02 -0.72503589910E+03  0.73533066532E+03  0.00000000000E+00 0. -1.
</event>
<event>
 7    1  0.2766180E-009  0.1204575E+03  0.7561462E-02  0.1242344E+00
          1   -1    0    0  501    0  0.00000000000E+00  0.00000000000E+00  0.13189913680E+04  0.13189913680E+04  0.00000000000E+00 0.  1.
         -1   -1    0    0    0  501 -0.00000000000E+00 -0.00000000000E+00 -0.20169144266E+02  0.20169144266E+02  0.00000000000E+00 0. -1.
         25    2    1    2    0    0  0.69747918321E+02  0.67620939710E+02  0.98812824862E+03  0.10007423438E+04  0.12510171577E+03 0.  0.
          5    1    3    3  502    0 -0.52497666735E+00  0.23079093115E+02  0.71045106695E+03  0.71083831570E+03  0.41800000000E+01 0.  1.
         -5    1    3    3    0  502  0.70272894988E+02  0.44541846595E+02  0.27767718167E+03  0.28990402806E+03  0.41800000000E+01 0.  1.
        -11    1    1    2    0    0 -0.43904795478E+02  0.15920421377E+02  0.10791732441E+03  0.11758928433E+03  0.00000000000E+00 0. -1.
         11    1    1    2    0    0 -0.25843122843E+02 -0.83541361087E+02  0.20277665072E+03  0.22082888418E+03  0.00000000000E+00 0.  1.
</event>
<event>
 7    1  0.2766180E-009  0.1878869E+03  0.7561462E-02  0.1160381E+00
          3   -1    0    0  501    0  0.00000000000E+00  0.00000000000E+00  0.10716639581E+03  0.10716639581E+03  0.00000000000E+00 0. -1.
         -3   -1    0    0    0  501 -0.00000000000E+00 -0.00000000000E+00 -0.42309651573E+03  0.42309651573E+03  0.00000000000E+00 0.  1.
         25    2    1    2    0    0  0.98303688293E+02 -0.14472804551E+03 -0.74382713002E+02  0.22757876709E+03  0.12509790145E+03 0.  0.
          5    1    3    3  502    0  0.65150656538E+02 -0.14626361790E+03 -0.96949142465E+02  0.18722783605E+03  0.41800000000E+01 0. -1.
         -5    1    3    3    0  502  0.33153031755E+02  0.15355723844E+01  0.22566429463E+02  0.40350931040E+02  0.41800000000E+01 0. -1.
        -11    1    1    2    0    0 -0.80227543818E+02  0.73981851118E+02 -0.13678272599E+03  0.17498367698E+03  0.00000000000E+00 0.  1.
         11    1    1    2    0    0 -0.18076144475E+02  0.70746194395E+02 -0.10476468092E+03  0.12770046746E+03  0.00000000000E+00 0. -1.
</event>
<event>
 7    1  0.2766180E-009  0.1098896E+03  0.7561462E-02  0.1260774E+00
         -2   -1    0    0    0  501 -0.00000000000E+00  0.00000000000E+00  0.72578701336E+02  0.72578701336E+02  0.00000000000E+00 0.  1.
          2   -1    0    0  501    0  0.00000000000E+00 -0.00000000000E+00 -0.37136658188E+03  0.37136658188E+03  0.00000000000E+00 0. -1.
         25    2    1    2    0    0 -0.22440619096E+02  0.26083307490E+01  0.34736517221E+01  0.12714802948E+03  0.12507665798E+03 0.  0.
          5    1    3    3  502    0 -0.39930221040E+02 -0.54205063273E+02 -0.21987086207E-01  0.67454312836E+02  0.41800000000E+01 0.  1.
         -5    1    3    3    0  502  0.17489601943E+02  0.56813394022E+02  0.34956388083E+01  0.59693716647E+02  0.41800000000E+01 0.  1.
        -11    1    1    2    0    0  0.33575460356E+02  0.37952302494E+02 -0.13132812544E+03  0.14076492935E+03  0.00000000000E+00 0.  1.
         11    1    1    2    0    0 -0.11134841260E+02 -0.40560633243E+02 -0.17093340682E+03  0.17603232438E+03  0.00000000000E+00 0. -1.
</event>
<event>
 7    1  0.2766180E-009  0.1021904E+03  0.7561462E-02  0.1275756E+00
          2   -1    0    0  501    0  0.00000000000E+00  0.00000000000E+00  0.67200006563E+02  0.67200006563E+02  0.00000000000E+00 0. -1.
         -2   -1    0    0    0  501 -0.00000000000E+00 -0.00000000000E+00 -0.23833464576E+03  0.23833464576E+03  0.00000000000E+00 0.  1.
         25    2    1    2    0    0  0.56712107972E+02  0.80836953765E+00 -0.52856679820E+02  0.14717818510E+03  0.12510264951E+03 0.  0.
          5    1    3    3  502    0 -0.24621250032E+02 -0.21839261328E+01  0.24328044022E+02  0.34932815695E+02  0.41800000000E+01 0.  1.
         -5    1    3    3    0  502  0.81333358004E+02  0.29922956704E+01 -0.77184723842E+02  0.11224536940E+03  0.41800000000E+01 0.  1.
        -11    1    1    2    0    0 -0.26975675358E+02 -0.40229990730E+02 -0.87954043065E+02  0.10040942638E+03  0.00000000000E+00 0.  1.
         11    1    1    2    0    0 -0.29736432614E+02  0.39421621193E+02 -0.30323916313E+02  0.57947040845E+02  0.00000000000E+00 0. -1.
</event>
<event>
 7    1  0.2766180E-009  0.1268471E+03  0.7561462E-02  0.1232211E+00
          1   -1    0    0  501    0  0.00000000000E+00  0.00000000000E+00  0.38492617365E+03  0.38492617365E+03  0.00000000000E+00 0. -1.
         -1   -1    0    0    0  501 -0.00000000000E+00 -0.00000000000E+00 -0.63099344279E+02  0.63099344279E+02  0.00000000000E+00 0.  1.
         25    2    1    2    0    0 -0.82355412776E+02 -0.69633125291E+02  0.21121033158E+03  0.26811930952E+03  0.12508786440E+03 0.  0.
          5    1    3    3  502    0 -0.38230569899E+02 -0.50711286761E+02  0.14080206354E+02  0.65183860662E+02  0.41800000000E+01 0.  1.
         -5    1    3    3    0  502 -0.44124842877E+02 -0.18921838529E+02  0.19713012523E+03  0.20293544886E+03  0.41800000000E+01 0.  1.
        -11    1    1    2    0    0 -0.12153777743E+02  0.41508979190E+02  0.35267242308E+02  0.55807598469E+02  0.00000000000E+00 0.  1.
         11    1    1    2    0    0  0.94509190519E+02  0.28124146100E+02  0.75349255480E+02  0.12409860994E+03  0.00000000000E+00 0. -1.
</event>
<event>
 7    1  0.2766180E-009  0.1880596E+03  0.7561462E-02  0.1160223E+00
          2   -1    0    0  501    0  0.00000000000E+00  0.00000000000E+00  0.94230948402E+03  0.94230948402E+03  0.00000000000E+00 0. -1.
         -2   -1    0    0    0  501 -0.00000000000E+00 -0.00000000000E+00 -0.46393146273E+02  0.46393146273E+02  0.00000000000E+00 0.  1.
         25    2    1    2    0    0  0.93196489040E+02 -0.14496456053E+03  0.37669428345E+03  0.43272079753E+03  0.12509354922E+03 0.  0.
          5    1    3    3  502    0  0.96749130877E+01 -0.69551192931E+02  0.26475654793E+03  0.27394246559E+03  0.41800000000E+01 0. -1.
         -5    1    3    3    0  502  0.83521575952E+02 -0.75413367594E+02  0.11193773551E+03  0.15877833194E+03  0.41800000000E+01 0. -1.
        -11    1    1    2    0    0 -0.81291088123E+01  0.93269563972E+02  0.31782101912E+03  0.33132385089E+03  0.00000000000E+00 0.  1.
         11    1    1    2    0    0 -0.85067380227E+02  0.51694996554E+02  0.20140103518E+03  0.22465798187E+03  0.00000000000E+00 0. -1.
</event>
<event>
 7    1  0.2766180E-009  0.1112832E+03  0.7561462E-02  0.1258212E+00
          2   -1    0    0  501    0  0.00000000000E+00  0.00000000000E+00  0.17546473774E+03  0.17546473774E+03  0.00000000000E+00 0. -1.
         -2   -1    0    0    0  501 -0.00000000000E+00 -0.00000000000E+00 -0.90949971037E+02  0.90949971037E+02  0.00000000000E+00 0.  1.
         25    2    1    2    0    0 -0.11182934125E+02  0.49473874249E+02  0.32866195897E+01  0.13502378807E+03  0.12509156338E+03 0.  0.
          5    1    3    3  502    0  0.41857023244E+02  0.64788173671E+02  0.14341417514E+02  0.78566319111E+02  0.41800000000E+01 0.  1.
         -5    1    3    3    0  502 -0.53039957369E+02 -0.15314299422E+02 -0.11054797924E+02  0.56457468962E+02  0.41800000000E+01 0.  1.
        -11    1    1    2    0    0 -0.27197037081E+02  0.18014464705E+00 -0.18645616908E+01  0.27261472234E+02  0.00000000000E+00 0.  1.
         11    1    1    2    0    0  0.38379971206E+02 -0.49654018896E+02  0.83092708807E+02  0.10412944847E+03  0.00000000000E+00 0. -1.
</event>
<event>
 7    1  0.2766180E-009  0.3105193E+03  0.7561462E-02  0.1080097E+00
         -3   -1    0    0    0  501 -0.00000000000E+00  0.00000000000E+00  0.46176716548E+03  0.46176716548E+03  0.00000000000E+00 0.  1.
          3   -1    0    0  501    0  0.00000000000E+00 -0.00000000000E+00 -0.21787308243E+03  0.21787308243E+03  0.00000000000E+00 0. -1.
         25    2    1    2    0    0 -0.12707006064E+03  0.26877980146E+03  0.10519322577E+03  0.33927628729E+03  0.12511355797E+03 0.  0.
          5    1    3    3  502    0  0.43153408927E+01 -0.11484133332E+02  0.32445427639E+01  0.13360649054E+02  0.41800000000E+01 0.  1.
         -5    1    3    3    0  502 -0.13138540153E+03  0.28026393480E+03  0.10194868300E+03  0.32591563824E+03  0.41800000000E+01 0.  1.
        -11    1    1    2    0    0  0.67343658540E+02 -0.11124462553E+03  0.10815705684E+03  0.16914042686E+03  0.00000000000E+00 0.  1.
         11    1    1    2    0    0  0.59726402100E+02 -0.15753517593E+03  0.30543800433E+02  0.17122353375E+03  0.00000000000E+00 0. -1.
</event>
<event>
 7    1  0.2766180E-009  0.9898786E+02  0.7561462E-02  0.1282439E+00
         -1   -1    0    0    0  501 -0.00000000000E+00  0.00000000000E+00  0.37852364200E+02  0.37852364200E+02  0.00000000000E+00 0.  1.
          1   -1    0    0  501    0  0.00000000000E+00 -0.00000000000E+00 -0.40450961868E+03  0.40450961868E+03  0.00000000000E+00 0. -1.
         25    2    1    2    0    0  0.15860010566E+02  0.43255334868E+02 -0.13565295641E+03  0.19018814716E+03  0.12508893959E+03 0.  0.
          5    1    3    3  502    0  0.60832523697E+02  0.50917434264E+02 -0.11540008113E+03  0.14009936537E+03  0.41800000000E+01 0. -1.
         -5    1    3    3    0  502 -0.44972513132E+02 -0.76620993963E+01 -0.20252875287E+02  0.50088781797E+02  0.41800000000E+01 0. -1.
        -11    1    1    2    0    0  0.20992893273E+02 -0.20890846902E+02 -0.17583269970E+02  0.34442712365E+02  0.00000000000E+00 0.  1.
         11    1    1    2    0    0 -0.36852903838E+02 -0.22364487966E+02 -0.21342102810E+03  0.21773112336E+03  0.00000000000E+00 0. -1.
</event>
<event>
 7    1  0.2766180E-009  0.1417091E+03  0.7561462E-02  0.1211048E+00
          2   -1    0    0  501    0  0.00000000000E+00  0.00000000000E+00  0.66293617235E+03  0.66293617235E+03  0.00000000000E+00 0.  1.
         -2   -1    0    0    0  501 -0.00000000000E+00 -0.00000000000E+00 -0.59282033137E+02  0.59282033137E+02  0.00000000000E+00 0. -1.
         25    2    1    2    0    0  0.10617328116E+03 -0.53028205428E+02  0.52283744644E+03  0.55053805482E+03  0.12509355780E+03 0.  0.
          5    1    3    3  502    0 -0.13403580013E+02  0.16073365459E+02  0.17446430085E+03  0.17576482499E+03  0.41800000000E+01 0.  1.
         -5    1    3    3    0  502  0.11957686117E+03 -0.69101570887E+02  0.34837314560E+03  0.37477322983E+03  0.41800000000E+01 0.  1.
        -11    1    1    2    0    0 -0.76006650657E+02  0.18831513394E+02  0.95754071150E+02  0.12369510493E+03  0.00000000000E+00 0.  1.
         11    1    1    2    0    0 -0.30166630503E+02  0.34196692034E+02 -0.14937378377E+02  0.47985045740E+02  0.00000000000E+00 0. -1.
</event>
<event>
 7    1  0.2766180E-009  0.1469019E+03  0.7561462E-02  0.1204332E+00
          2   -1    0    0  501    0  0.00000000000E+00  0.00000000000E+00  0.64977020288E+03  0.64977020288E+03  0.00000000000E+00 0. -1.
         -2   -1    0    0    0  501 -0.00000000000E+00 -0.00000000000E+00 -0.35532829259E+02  0.35532829259E+02  0.00000000000E+00 0.  1.
         25    2    1    2    0    0  0.41872558091E+02 -0.98602601391E+02  0.36009034100E+03  0.39596540266E+03  0.12509101606E+03 0.  0.
          5    1    3    3  502    0  0.81402682891E+02 -0.54468644013E+02  0.27694171943E+03  0.29378124229E+03  0.41800000000E+01 0. -1.
         -5    1    3    3    0  502 -0.39530124800E+02 -0.44133957378E+02  0.83148621572E+02  0.10218416037E+03  0.41800000000E+01 0. -1.
        -11    1    1    2    0    0 -0.25395525217E+02  0.11218279136E+03  0.22962723547E+03  0.25682402273E+03  0.00000000000E+00 0. -1.
         11    1    1    2    0    0 -0.16477032874E+02 -0.13580189969E+02  0.24519797144E+02  0.32513606751E+02  0.00000000000E+00 0.  1.
</event>
<event>
 7    1  0.2766180E-009  0.2138039E+03  0.7561462E-02  0.1138589E+00
          3   -1    0    0  501    0  0.00000000000E+00  0.00000000000E+00  0.11658279258E+03  0.11658279258E+03  0.00000000000E+00 0. -1.
         -3   -1    0    0    0  501 -0.00000000000E+00 -0.00000000000E+00 -0.51738015066E+03  0.51738015066E+03  0.00000000000E+00 0.  1.
         25    2    1    2    0    0 -0.12137534735E+03 -0.16826760882E+03 -0.10585120755E+03  0.26438165100E+03  0.12508883294E+03 0.  0.
          5    1    3    3  502    0 -0.87587581427E+00 -0.96862867964E+01 -0.58724128103E+02  0.59670653857E+02  0.41800000000E+01 0. -1.
         -5    1    3    3    0  502 -0.12049947154E+03 -0.15858132202E+03 -0.47127079443E+02  0.20471099715E+03  0.41800000000E+01 0. -1.
        -11    1    1    2    0    0  0.40535997331E+02  0.12678568024E+02 -0.92347343174E+02  0.10164617532E+03  0.00000000000E+00 0.  1.
         11    1    1    2    0    0  0.80839350022E+02  0.15558904079E+03 -0.20259880737E+03  0.26793511691E+03  0.00000000000E+00 0. -1.
</event>
<event>
 7    1  0.2766180E-009  0.8384701E+02  0.7561462E-02  0.1318476E+00
          1   -1    0    0  501    0  0.00000000000E+00  0.00000000000E+00  0.54017328987E+03  0.54017328987E+03  0.00000000000E+00 0. -1.
         -1   -1    0    0    0  501 -0.00000000000E+00 -0.00000000000E+00 -0.23303030054E+02  0.23303030054E+02  0.00000000000E+00 0.  1.
         25    2    1    2    0    0  0.16390087469E+02  0.23553787263E+02  0.31982791414E+03  0.34461756067E+03  0.12509177671E+03 0.  0.
          5    1    3    3  502    0 -0.25797260887E+02  0.15356912248E+02  0.29128346736E+03  0.29285638832E+03  0.41800000000E+01 0.  1.
         -5    1    3    3    0  502  0.42187348356E+02  0.81968750155E+01  0.28544446777E+02  0.51761172350E+02  0.41800000000E+01 0.  1.
        -11    1    1    2    0    0 -0.34104916502E+02 -0.51109936203E+02  0.11239913786E+03  0.12809737351E+03  0.00000000000E+00 0.  1.
         11    1    1    2    0    0  0.17714829033E+02  0.27556148940E+02  0.84643207817E+02  0.90761385741E+02  0.00000000000E+00 0. -1.
</event>
<event>
 7    1  0.2766180E-009  0.1396312E+03  0.7561462E-02  0.1213826E+00
         -1   -1    0    0    0  501 -0.00000000000E+00  0.00000000000E+00  0.98348703856E+02  0.98348703856E+02  0.00000000000E+00 0.  1.
          1   -1    0    0  501    0  0.00000000000E+00 -0.00000000000E+00 -0.24420581206E+03  0.24420581206E+03  0.00000000000E+00 0. -1.
         25    2    1    2    0    0 -0.10354234582E+03 -0.35286350171E+02 -0.85571929457E+02  0.18691243644E+03  0.12509020705E+03 0.  0.
          5    1    3    3  502    0 -0.12946283291E+03 -0.46207620095E+02 -0.74398731731E+02  0.15635988278E+03  0.41800000000E+01 0. -1.
         -5    1    3    3    0  502  0.25920487091E+02  0.10921269924E+02 -0.11173197726E+02  0.30552553661E+02  0.41800000000E+01 0. -1.
        -11    1    1    2    0    0  0.18840606639E+02  0.19547830180E+02 -0.63885861847E+02  0.69415340288E+02  0.00000000000E+00 0. -1.
         11    1    1    2    0    0  0.84701739184E+02  0.15738519991E+02  0.36006830960E+01  0.86226739188E+02  0.00000000000E+00 0.  1.
</event>
<event>
 7    1  0.2766180E-009  0.1089455E+03  0.7561462E-02  0.1262535E+00
         -4   -1    0    0    0  501 -0.00000000000E+00  0.00000000000E+00  0.46998005024E+02  0.46998005024E+02  0.00000000000E+00 0.  1.
          4   -1    0    0  501    0  0.00000000000E+00 -0.00000000000E+00 -0.34449932311E+03  0.34449932311E+03  0.00000000000E+00 0. -1.
         25    2    1    2    0    0 -0.23754548985E+02  0.46439564312E+02 -0.10206931117E+03  0.16966462846E+03  0.12508808951E+03 0.  0.
          5    1    3    3  502    0  0.49113955163E+02  0.30666064619E+01 -0.48826067211E+02  0.69448123849E+02  0.41800000000E+01 0. -1.
         -5    1    3    3    0  502 -0.72868504148E+02  0.43372957850E+02 -0.53243243962E+02  0.10021650461E+03  0.41800000000E+01 0. -1.
        -11    1    1    2    0    0  0.17383760866E+02  0.14311528154E+02 -0.67465294447E+01  0.23505970295E+02  0.00000000000E+00 0. -1.
         11    1    1    2    0    0  0.63707881185E+01 -0.60751092466E+02 -0.18868547747E+03  0.19832672938E+03  0.00000000000E+00 0.  1.
</event>
<event>
 7    1  0.2766180E-009  0.1202560E+03  0.7561462E-02  0.1242675E+00
          2   -1    0    0  501    0  0.00000000000E+00  0.00000000000E+00  0.53830327469E+03  0.53830327469E+03  0.00000000000E+00 0. -1.
         -2   -1    0    0    0  501 -0.00000000000E+00 -0.00000000000E+00 -0.50225356240E+02  0.50225356240E+02  0.00000000000E+00 0.  1.
         25    2    1    2    0    0 -0.81166052738E+02 -0.47251545486E+02  0.43091290438E+03  0.45842597295E+03  0.12509118614E+03 0.  0.
          5    1    3    3  502    0 -0.53304369332E+02  0.16638714509E+02  0.33578200402E+03  0.34041919634E+03  0.41800000000E+01 0. -1.
         -5    1    3    3    0  502 -0.27861683406E+02 -0.63890259995E+02  0.95130900359E+02  0.11800677662E+03  0.41800000000E+01 0. -1.
        -11    1    1    2    0    0  0.22348218986E+02  0.51071226801E+02  0.40324078689E+02  0.68802212325E+02  0.00000000000E+00 0. -1.
         11    1    1    2    0    0  0.58817833753E+02 -0.38196813150E+01  0.16840935384E+02  0.61300445653E+02  0.00000000000E+00 0.  1.
</event>
<event>
 7    1  0.2766180E-009  0.9068655E+02  0.7561462E-02  0.1301198E+00
         -2   -1    0    0    0  501 -0.00000000000E+00  0.00000000000E+00  0.80340585666E+02  0.80340585666E+02  0.00000000000E+00 0.  1.
          2   -1    0    0  501    0  0.00000000000E+00 -0.00000000000E+00 -0.16898874684E+03  0.16898874684E+03  0.00000000000E+00 0. -1.
         25    2    1    2    0    0 -0.31458643808E+01 -0.10976773578E+02 -0.91885343567E+02  0.15562865210E+03  0.12508786900E+03 0.  0.
          5    1    3    3  502    0  0.29793654755E+02 -0.59417989574E+02 -0.43642822747E+02  0.79626174880E+02  0.41800000000E+01 0.  1.
         -5    1    3    3    0  502 -0.32939519136E+02  0.48441215996E+02 -0.48242520820E+02  0.76002477217E+02  0.41800000000E+01 0.  1.
        -11    1    1    2    0    0  0.25457930733E+02  0.19594552955E+02 -0.35685826635E+02  0.48015944908E+02  0.00000000000E+00 0. -1.
         11    1    1    2    0    0 -0.22312066352E+02 -0.86177793764E+01  0.38923009026E+02  0.45684735503E+02  0.00000000000E+00 0.  1.
</event>
<event>
 7    1  0.2766180E-009  0.6828572E+02  0.7561462E-02  0.1366021E+00
         -2   -1    0    0    0  501 -0.00000000000E+00  0.00000000000E+00  0.35670548486E+02  0.35670548486E+02  0.00000000000E+00 0.  1.
          2   -1    0    0  501    0  0.00000000000E+00 -0.00000000000E+00 -0.39845125010E+03  0.39845125010E+03  0.00000000000E+00 0. -1.
         25    2    1    2    0    0  0.32861810528E+01  0.33665669725E+02 -0.14377443075E+03  0.19352639585E+03  0.12504880106E+03 0.  0.
          5    1    3    3  502    0 -0.83438487917E+01  0.26406542649E+02  0.16570637758E+02  0.32542030407E+02  0.41800000000E+01 0.  1.
         -5    1    3    3    0  502  0.11630029844E+02  0.72591270758E+01 -0.16034506851E+03  0.16098436544E+03  0.41800000000E+01 0.  1.
        -11    1    1    2    0    0 -0.30725408802E+02 -0.52584134984E+02 -0.17565263887E+03  0.18591124640E+03  0.00000000000E+00 0. -1.
         11    1    1    2    0    0  0.27439227749E+02  0.18918465260E+02 -0.43353631995E+02  0.54684156338E+02  0.00000000000E+00 0.  1.
</event>
<event>
 7    1  0.2766180E-009  0.2394267E+03  0.7561462E-02  0.1120175E+00
          2   -1    0    0  501    0  0.00000000000E+00  0.00000000000E+00  0.61295085663E+03  0.61295085663E+03  0.00000000000E+00 0. -1.
         -2   -1    0    0    0  501 -0.00000000000E+00 -0.00000000000E+00 -0.11854389940E+03  0.11854389940E+03  0.00000000000E+00 0.  1.
         25    2    1    2    0    0  0.14537757612E+03  0.16571723459E+03  0.10406218317E+03  0.27399440729E+03  0.12508859173E+03 0.  0.
          5    1    3    3  502    0  0.15808675435E+03  0.12748154867E+03  0.55139539557E+02  0.21047757214E+03  0.41800000000E+01 0. -1.
         -5    1    3    3    0  502 -0.12709178231E+02  0.38235685918E+02  0.48922643618E+02  0.63516835150E+02  0.41800000000E+01 0. -1.
        -11    1    1    2    0    0 -0.40659648554E+02 -0.10854273394E+03  0.15396694323E+03  0.19271884111E+03  0.00000000000E+00 0.  1.
         11    1    1    2    0    0 -0.10471792756E+03 -0.57174500648E+02  0.23637783082E+03  0.26478150763E+03  0.00000000000E+00 0. -1.
</event>
<event>
 7    1  0.2766180E-009  0.8987617E+02  0.7561462E-02  0.1303152E+00
          2   -1    0    0  501    0  0.00000000000E+00  0.00000000000E+00  0.12321646443E+03  0.12321646443E+03  0.00000000000E+00 0. -1.
         -2   -1    0    0    0  501 -0.00000000000E+00 -0.00000000000E+00 -0.14436648266E+03  0.14436648266E+03  0.00000000000E+00 0.  1.
         25    2    1    2    0    0 -0.15455332501E+01 -0.65540397538E+02  0.20214984738E+02  0.14266746207E+03  0.12508967481E+03 0.  0.
          5    1    3    3  502    0 -0.39953916041E+02 -0.28957625194E+02  0.58849837436E+02  0.76913166819E+02  0.41800000000E+01 0. -1.
         -5    1    3    3    0  502  0.38408382791E+02 -0.36582772344E+02 -0.38634852698E+02  0.65754295251E+02  0.41800000000E+01 0. -1.
        -11    1    1    2    0    0 -0.16305014562E+02  0.52346509556E+02  0.21005152563E+02  0.58713090506E+02  0.00000000000E+00 0. -1.
         11    1    1    2    0    0  0.17850547813E+02  0.13193887982E+02 -0.62370155539E+02  0.66202394513E+02  0.00000000000E+00 0.  1.
</event>
<event>
 7    1  0.2887322E-009  0.2560038E+03  0.7561462E-02  0.1109568E+00
          1   -1    0    0  501    0  0.00000000000E+00  0.00000000000E+00  0.18397929839E+04  0.18397929839E+04  0.00000000000E+00 0. -1.
         -1   -1    0    0    0  501 -0.00000000000E+00 -0.00000000000E+00 -0.42328077502E+02  0.42328077502E+02  0.00000000000E+00 0.  1.
         25    2    1    2    0    0  0.24593592145E+03 -0.18082105471E+02  0.67686949135E+03  0.73117148456E+03  0.12509193228E+03 0.  0.
          5    1    3    3  502    0  0.16089828383E+03  0.58021410897E+01  0.26653073604E+03  0.31141295450E+03  0.41800000000E+01 0.  1.
         -5    1    3    3    0  502  0.85037637617E+02 -0.23884246560E+02  0.41033875531E+03  0.41975853006E+03  0.41800000000E+01 0.  1.
        -11    1    1    2    0    0 -0.12888272151E+03 -0.35656337628E+02  0.58325536107E+03  0.59838862500E+03  0.00000000000E+00 0. -1.
         11    1    1    2    0    0 -0.11705319993E+03  0.53738443099E+02  0.53734005399E+03  0.55256095185E+03  0.00000000000E+00 0.  1.
</event>
<event>
 7    1  0.2766180E-009  0.1275229E+03  0.7561462E-02  0.1231178E+00
         -2   -1    0    0    0  501 -0.00000000000E+00  0.00000000000E+00  0.43745048591E+02  0.43745048591E+02  0.00000000000E+00 0.  1.
          2   -1    0    0  501    0  0.00000000000E+00 -0.00000000000E+00 -0.67326399806E+03  0.67326399806E+03  0.00000000000E+00 0. -1.
         25    2    1    2    0    0  0.82406153881E+01 -0.12632778855E+03 -0.41795021868E+03  0.45426572542E+03  0.12509334954E+03 0.  0.
          5    1    3    3  502    0  0.13013233446E+02 -0.54450070545E+02 -0.38636832505E+02  0.68150067154E+02  0.41800000000E+01 0.  1.
         -5    1    3    3    0  502 -0.47726180583E+01 -0.71877718000E+02 -0.37931338618E+03  0.38611565827E+03  0.41800000000E+01 0.  1.
        -11    1    1    2    0    0 -0.24751562299E+01  0.83317437580E+02 -0.54021576634E+02  0.99329011599E+02  0.00000000000E+00 0.  1.
         11    1    1    2    0    0 -0.57654591582E+01  0.43010350965E+02 -0.15754715416E+03  0.16341430963E+03  0.00000000000E+00 0. -1.
</event>
<event>
 7    1  0.2766180E-009  0.9793941E+02  0.7561462E-02  0.1284690E+00
         -1   -1    0    0    0  501 -0.00000000000E+00  0.00000000000E+00  0.64146201943E+02  0.64146201943E+02  0.00000000000E+00 0.  1.
          1   -1    0    0  501    0  0.00000000000E+00 -0.00000000000E+00 -0.23048855765E+03  0.23048855765E+03  0.00000000000E+00 0. -1.
         25    2    1    2    0    0 -0.44501486241E+02  0.25268277525E+02 -0.10212236492E+03  0.16939529839E+03  0.12508765556E+03 0.  0.
          5    1    3    3  502    0  0.26844595001E+02  0.37750734765E+02 -0.30650450437E+01  0.46611341508E+02  0.41800000000E+01 0. -1.
         -5    1    3    3    0  502 -0.71346081242E+02 -0.12482457240E+02 -0.99057319876E+02  0.12278395688E+03  0.41800000000E+01 0. -1.
        -11    1    1    2    0    0  0.12605435909E+02 -0.39814011397E+02 -0.77269723520E+02  0.87833152573E+02  0.00000000000E+00 0. -1.
         11    1    1    2    0    0  0.31896050332E+02  0.14545733872E+02  0.13049732733E+02  0.37406308627E+02  0.00000000000E+00 0.  1.
</event>
<event>
 7    1  0.2766180E-009  0.1296413E+03  0.7561462E-02  0.1227989E+00
          1   -1    0    0  501    0  0.00000000000E+00  0.00000000000E+00  0.17555830617E+04  0.17555830617E+04  0.00000000000E+00 0. -1.
         -1   -1    0    0    0  501 -0.00000000000E+00 -0.00000000000E+00 -0.11626891966E+02  0.11626891966E+02  0.00000000000E+00 0.  1.
         25    2    1    2    0    0 -0.47634332984E+02 -0.67710128868E+02  0.12127065574E+04  0.12219480251E+04  0.12508433359E+03 0.  0.
          5    1    3    3  502    0 -0.55619443940E+02  0.11719036673E+02  0.27521514371E+03  0.28105463187E+03  0.41800000000E+01 0. -1.
         -5    1    3    3    0  502  0.79851109556E+01 -0.79429165541E+02  0.93749141366E+03  0.94089339323E+03  0.41800000000E+01 0. -1.
        -11    1    1    2    0    0  0.70132297896E+02  0.70782299956E+02  0.41282441078E+03  0.42467948777E+03  0.00000000000E+00 0. -1.
         11    1    1    2    0    0 -0.22497964913E+02 -0.30721710874E+01  0.11842520154E+03  0.12058244077E+03  0.00000000000E+00 0.  1.
</event>
<event>
 7    1  0.2766180E-009  0.9288376E+02  0.7561462E-02  0.1296015E+00
          1   -1    0    0  501    0  0.00000000000E+00  0.00000000000E+00  0.20822114664E+03  0.20822114664E+03  0.00000000000E+00 0. -1.
         -1   -1    0    0    0  501 -0.00000000000E+00 -0.00000000000E+00 -0.64673713956E+02  0.64673713956E+02  0.00000000000E+00 0.  1.
         25    2    1    2    0    0 -0.17959900972E+02  0.28033165319E+02  0.51423730922E+02  0.13928357333E+03  0.12508835796E+03 0.  0.
          5    1    3    3  502    0 -0.55350442388E+02  0.49522237229E+02  0.59441365643E+02  0.95220122885E+02  0.41800000000E+01 0. -1.
         -5    1    3    3    0  502  0.37390541416E+02 -0.21489071910E+02 -0.80176347203E+01  0.44063450449E+02  0.41800000000E+01 0. -1.
        -11    1    1    2    0    0 -0.19734509089E+02 -0.22540977552E+02 -0.39906168261E+01  0.30223691711E+02  0.00000000000E+00 0.  1.
         11    1    1    2    0    0  0.37694410061E+02 -0.54921877664E+01  0.96114318586E+02  0.10338759555E+03  0.00000000000E+00 0. -1.
</event>
<event>
 7    1  0.2766180E-009  0.1139581E+03  0.7561462E-02  0.1253411E+00
         -1   -1    0    0    0  501 -0.00000000000E+00  0.00000000000E+00  0.17848976348E+02  0.17848976348E+02  0.00000000000E+00 0.  1.
          1   -1    0    0  501    0  0.00000000000E+00 -0.00000000000E+00 -0.92455542029E+03  0.92455542029E+03  0.00000000000E+00 0. -1.
         25    2    1    2    0    0 -0.47847942633E+02 -0.17507611950E+02 -0.67498089780E+03  0.68836269571E+03  0.12509215146E+03 0.  0.
          5    1    3    3  502    0 -0.40334576387E+02 -0.66213919617E+02 -0.51765251759E+03  0.52344317989E+03  0.41800000000E+01 0. -1.
         -5    1    3    3    0  502 -0.75133662462E+01  0.48706307667E+02 -0.15732838020E+03  0.16491951581E+03  0.41800000000E+01 0. -1.
        -11    1    1    2    0    0  0.80908813224E+01  0.49267359972E+02 -0.14657898655E+03  0.15484874690E+03  0.00000000000E+00 0. -1.
         11    1    1    2    0    0  0.39757061310E+02 -0.31759748022E+02 -0.85146559598E+02  0.99192954033E+02  0.00000000000E+00 0.  1.
</event>
<event>
 7    1  0.2766180E-009  0.1182338E+03  0.7561462E-02  0.1246039E+00
         -1   -1    0    0    0  501 -0.00000000000E+00  0.00000000000E+00  0.46326116921E+02  0.46326116921E+02  0.00000000000E+00 0.  1.
          1   -1    0    0  501    0  0.00000000000E+00 -0.00000000000E+00 -0.68345990046E+03  0.68345990046E+03  0.00000000000E+00 0. -1.
         25    2    1    2    0    0  0.59820546277E+02 -0.82767714829E+01 -0.59773509912E+03  0.61366354673E+03  0.12509475276E+03 0.  0.
          5    1    3    3  502    0 -0.42551593516E+01  0.50327522801E+02 -0.26193466980E+03  0.26679244662E+03  0.41800000000E+01 0.  1.
         -5    1    3    3    0  502  0.64075705628E+02 -0.58604294284E+02 -0.33580042932E+03  0.34687110011E+03  0.41800000000E+01 0.  1.
        -11    1    1    2    0    0 -0.19282072089E+02  0.41939856910E+02  0.60270680049E+01  0.46551857648E+02  0.00000000000E+00 0.  1.
         11    1    1    2    0    0 -0.40538474188E+02 -0.33663085428E+02 -0.45425752428E+02  0.69570613003E+02  0.00000000000E+00 0. -1.
</event>
<event>
 7    1  0.2766180E-009  0.1319473E+03  0.7561462E-02  0.1224595E+00
          2   -1    0    0  501    0  0.00000000000E+00  0.00000000000E+00  0.41228933152E+03  0.41228933152E+03  0.00000000000E+00 0. -1.
         -2   -1    0    0    0  501 -0.00000000000E+00 -0.00000000000E+00 -0.54347165540E+02  0.54347165540E+02  0.00000000000E+00 0.  1.
         25    2    1    2    0    0  0.72023773640E+02  0.72589332091E+02  0.22982749118E+03  0.28093626311E+03  0.12509145905E+03 0.  0.
          5    1    3    3  502    0 -0.33330791085E+02  0.37632407200E+02  0.68776883130E+02  0.85292858781E+02  0.41800000000E+01 0.  1.
         -5    1    3    3    0  502  0.10535456472E+03  0.34956924891E+02  0.16105060805E+03  0.19564340433E+03  0.41800000000E+01 0.  1.
        -11    1    1    2    0    0 -0.24319536885E+02 -0.27766044872E+02  0.11250656803E+03  0.11840659176E+03  0.00000000000E+00 0. -1.
         11    1    1    2    0    0 -0.47704236755E+02 -0.44823287219E+02  0.15608106771E+02  0.67293642185E+02  0.00000000000E+00 0.  1.
</event>
<event>
 7    1  0.2766180E-009  0.1688786E+03  0.7561462E-02  0.1179022E+00
          2   -1    0    0  501    0  0.00000000000E+00  0.00000000000E+00  0.55568049730E+03  0.55568049730E+03  0.00000000000E+00 0. -1.
         -2   -1    0    0    0  501 -0.00000000000E+00 -0.00000000000E+00 -0.91514822657E+02  0.91514822657E+02  0.00000000000E+00 0.  1.
         25    2    1    2    0    0  0.13082175002E+03  0.62854041008E+00  0.45267270633E+03  0.48751924536E+03  0.12509080780E+03 0.  0.
          5    1    3    3  502    0  0.15387339242E+03 -0.93053308269E+01  0.40700690319E+03  0.43524211850E+03  0.41800000000E+01 0. -1.
         -5    1    3    3    0  502 -0.23051642406E+02  0.99338712370E+01  0.45665803146E+02  0.52277126856E+02  0.41800000000E+01 0. -1.
        -11    1    1    2    0    0 -0.54014724228E+02  0.43646481989E+02 -0.45003534259E+01  0.69590653140E+02  0.00000000000E+00 0.  1.
         11    1    1    2    0    0 -0.76807025787E+02 -0.44275022399E+02  0.15993321734E+02  0.90085421455E+02  0.00000000000E+00 0. -1.
</event>
<event>
 7    1  0.2766180E-009  0.1060715E+03  0.7561462E-02  0.1268023E+00
          2   -1    0    0  501    0  0.00000000000E+00  0.00000000000E+00  0.67341635325E+02  0.67341635325E+02  0.00000000000E+00 0. -1.
         -2   -1    0    0    0  501 -0.00000000000E+00 -0.00000000000E+00 -0.22422250478E+03  0.22422250478E+03  0.00000000000E+00 0.  1.
         25    2    1    2    0    0  0.33454194435E+02  0.47119274313E+02 -0.98124505724E+02  0.16916017790E+03  0.12508932019E+03 0.  0.
          5    1    3    3  502    0 -0.26007333075E+02  0.68499307997E+02 -0.63140535856E+02  0.96812892932E+02  0.41800000000E+01 0.  1.
         -5    1    3    3    0  502  0.59461527511E+02 -0.21380033683E+02 -0.34983969867E+02  0.72347284966E+02  0.41800000000E+01 0.  1.
        -11    1    1    2    0    0  0.12610734351E+02 -0.75323876361E+01  0.18823204355E+02  0.23876358738E+02  0.00000000000E+00 0. -1.
         11    1    1    2    0    0 -0.46064928786E+02 -0.39586886677E+02 -0.77579568083E+02  0.98527603467E+02  0.00000000000E+00 0.  1.
</event>
<event>
 7    1  0.2766180E-009  0.1599747E+03  0.7561462E-02  0.1188725E+00
         -2   -1    0    0    0  501 -0.00000000000E+00  0.00000000000E+00  0.35341871029E+02  0.35341871029E+02  0.00000000000E+00 0. -1.
          2   -1    0    0  501    0  0.00000000000E+00 -0.00000000000E+00 -0.79159787216E+03  0.79159787216E+03  0.00000000000E+00 0.  1.
         25    2    1    2    0    0  0.12465514058E+03 -0.67698141565E+01 -0.34806505977E+03  0.39036122440E+03  0.12509142746E+03 0.  0.
          5    1    3    3  502    0  0.10728748163E+03  0.43296140411E+02 -0.17934138296E+03  0.21346185498E+03  0.41800000000E+01 0.  1.
         -5    1    3    3    0  502  0.17367658946E+02 -0.50065954567E+02 -0.16872367682E+03  0.17689936942E+03  0.41800000000E+01 0.  1.
        -11    1    1    2    0    0  0.12697129177E+02  0.50348872248E+01 -0.74142673303E+02  0.75390338792E+02  0.00000000000E+00 0. -1.
         11    1    1    2    0    0 -0.13735226975E+03  0.17349269317E+01 -0.33404826805E+03  0.36118817999E+03  0.00000000000E+00 0.  1.
</event>
<event>
 7    1  0.2766180E-009  0.2197017E+03  0.7561462E-02  0.1134106E+00
          1   -1    0    0  501    0  0.00000000000E+00  0.00000000000E+00  0.16441581950E+04  0.16441581950E+04  0.00000000000E+00 0. -1.
         -1   -1    0    0    0  501 -0.00000000000E+00 -0.00000000000E+00 -0.34634633022E+02  0.34634633022E+02  0.00000000000E+00 0.  1.
         25    2    1    2    0    0  0.17745320405E+03 -0.10219616737E+03  0.64862502350E+03  0.69158888165E+03  0.12508822433E+03 0.  0.
          5    1    3    3  502    0 -0.35874802778E+01 -0.54818247015E+01  0.17758182820E+03  0.17775178909E+03  0.41800000000E+01 0. -1.
         -5    1    3    3    0  502  0.18104068433E+03 -0.96714342668E+02  0.47104319529E+03  0.51383709256E+03  0.41800000000E+01 0. -1.
        -11    1    1    2    0    0 -0.11455885628E+02  0.51514796831E+02  0.23197832562E+03  0.23790534917E+03  0.00000000000E+00 0.  1.
         11    1    1    2    0    0 -0.16599731842E+03  0.50681370539E+02  0.72892021287E+03  0.74929859720E+03  0.00000000000E+00 0. -1.
</event>
<event>
 7    1  0.2766180E-009  0.1009583E+03  0.7561462E-02  0.1278294E+00
         -1   -1    0    0    0  501 -0.00000000000E+00  0.00000000000E+00  0.99656164169E+02  0.99656164169E+02  0.00000000000E+00 0.  1.
          1   -1    0    0  501    0  0.00000000000E+00 -0.00000000000E+00 -0.14810847347E+03  0.14810847347E+03  0.00000000000E+00 0. -1.
         25    2    1    2    0    0  0.43076128797E+02 -0.20784546902E+01  0.96168132506E+01  0.13266435060E+03  0.12508986361E+03 0.  0.
          5    1    3    3  502    0 -0.94720741706E+01 -0.55816165723E+02  0.83364949696E+01  0.57377121691E+02  0.41800000000E+01 0. -1.
         -5    1    3    3    0  502  0.52548202968E+02  0.53737711033E+02  0.12803182811E+01  0.75287228911E+02  0.41800000000E+01 0. -1.
        -11    1    1    2    0    0 -0.88865012785E+01  0.26438326570E+02 -0.66651178993E+02  0.72251883560E+02  0.00000000000E+00 0. -1.
         11    1    1    2    0    0 -0.34189627518E+02 -0.24359871880E+02  0.85820564397E+01  0.42848403478E+02  0.00000000000E+00 0.  1.
</event>
<event>
 7    1  0.2766180E-009  0.9939971E+02  0.7561462E-02  0.1281563E+00
         -4   -1    0    0    0  501 -0.00000000000E+00  0.00000000000E+00  0.97540190073E+02  0.97540190073E+02  0.00000000000E+00 0. -1.
          4   -1    0    0  501    0  0.00000000000E+00 -0.00000000000E+00 -0.15773114632E+03  0.15773114632E+03  0.00000000000E+00 0.  1.
         25    2    1    2    0    0  0.28713374279E+02  0.48664691990E+02 -0.50168226414E+02  0.14613396334E+03  0.12508226969E+03 0.  0.
          5    1    3    3  502    0 -0.13273957627E+00 -0.17746745393E+02 -0.68863985259E+02  0.71236826555E+02  0.41800000000E+01 0. -1.
         -5    1    3    3    0  502  0.28846113856E+02  0.66411437383E+02  0.18695758846E+02  0.74897136785E+02  0.41800000000E+01 0. -1.
        -11    1    1    2    0    0 -0.34479528851E+02  0.19513771291E+02 -0.93742920793E+01  0.40712437065E+02  0.00000000000E+00 0.  1.
         11    1    1    2    0    0  0.57661545712E+01 -0.68178463281E+02 -0.64843775775E+00  0.68424935991E+02  0.00000000000E+00 0. -1.
</event>
<event>
 7    1  0.2766180E-009  0.1315560E+03  0.7561462E-02  0.1225165E+00
          1   -1    0    0  501    0  0.00000000000E+00  0.00000000000E+00  0.34635653797E+03  0.34635653797E+03  0.00000000000E+00 0. -1.
         -1   -1    0    0    0  501 -0.00000000000E+00 -0.00000000000E+00 -0.71611959977E+02  0.71611959977E+02  0.00000000000E+00 0.  1.
         25    2    1    2    0    0  0.52107087173E+02 -0.95289645208E+02  0.97072479292E+02  0.19200780804E+03  0.12509463256E+03 0.  0.
          5    1    3    3  502    0  0.83663348376E+02 -0.88323903520E+02  0.10229796681E+03  0.15900633386E+03  0.41800000000E+01 0.  1.
         -5    1    3    3    0  502 -0.31556261203E+02 -0.69657416885E+01 -0.52254875170E+01  0.33001474182E+02  0.41800000000E+01 0.  1.
        -11    1    1    2    0    0 -0.28356933048E+02  0.45142930045E+02  0.15854837754E+03  0.16727100109E+03  0.00000000000E+00 0.  1.
         11    1    1    2    0    0 -0.23750154125E+02  0.50146715163E+02  0.19123721165E+02  0.58689688821E+02  0.00000000000E+00 0. -1.
</event>
<event>
 7    1  0.2766180E-009  0.1339544E+03  0.7561462E-02  0.1221703E+00
          1   -1    0    0  501    0  0.00000000000E+00  0.00000000000E+00  0.16607249683E+04  0.16607249683E+04  0.00000000000E+00 0. -1.
         -1   -1    0    0    0  501 -0.00000000000E+00 -0.00000000000E+00 -0.13069492643E+02  0.13069492643E+02  0.00000000000E+00 0.  1.
         25    2    1    2    0    0  0.60952413873E+01  0.94393836969E+02  0.10429111382E+04  0.10546367101E+04  0.12509036560E+03 0.  0.
          5    1    3    3  502    0  0.33002526586E+02  0.10617300870E+03  0.56770006103E+03  0.57850039432E+03  0.41800000000E+01 0. -1.
         -5    1    3    3    0  502 -0.26907285199E+02 -0.11779171733E+02  0.47521107722E+03  0.47613631577E+03  0.41800000000E+01 0. -1.
        -11    1    1    2    0    0  0.19089856181E+02 -0.99470689907E+02  0.54155377449E+03  0.55094403656E+03  0.00000000000E+00 0. -1.
         11    1    1    2    0    0 -0.25185097568E+02  0.50768529382E+01  0.63190562948E+02  0.68213714318E+02  0.00000000000E+00 0.  1.
</event>
<event>
 7    1  0.2766180E-009  0.3054308E+03  0.7561462E-02  0.1082557E+00
          1   -1    0    0  501    0  0.00000000000E+00  0.00000000000E+00  0.11248988223E+04  0.11248988223E+04  0.00000000000E+00 0. -1.
         -1   -1    0    0    0  501 -0.00000000000E+00 -0.00000000000E+00 -0.91519183261E+02  0.91519183261E+02  0.00000000000E+00 0.  1.
         25    2    1    2    0    0  0.15760252692E+03  0.24553618557E+03  0.67292225293E+03  0.74404310556E+03  0.12509680059E+03 0.  0.
          5    1    3    3  502    0  0.16079471409E+03  0.14610648006E+03  0.44008853594E+03  0.49081303513E+03  0.41800000000E+01 0. -1.
         -5    1    3    3    0  502 -0.31921871650E+01  0.99429705510E+02  0.23283371699E+03  0.25323007042E+03  0.41800000000E+01 0. -1.
        -11    1    1    2    0    0 -0.11274743546E+03 -0.14320950020E+03  0.28229184316E+03  0.33602028192E+03  0.00000000000E+00 0. -1.
         11    1    1    2    0    0 -0.44855091464E+02 -0.10232668537E+03  0.78165542961E+02  0.13635461809E+03  0.00000000000E+00 0.  1.
</event>
<event>
 7    1  0.2766180E-009  0.1063852E+03  0.7561462E-02  0.1267414E+00
          2   -1    0    0  501    0  0.00000000000E+00  0.00000000000E+00  0.26790070326E+03  0.26790070326E+03  0.00000000000E+00 0. -1.
         -2   -1    0    0    0  501 -0.00000000000E+00 -0.00000000000E+00 -0.91278198366E+02  0.91278198366E+02  0.00000000000E+00 0.  1.
         25    2    1    2    0    0  0.68102872078E+02  0.24502479681E+02 -0.45175406984E+01  0.14458783272E+03  0.12508741144E+03 0.  0.
          5    1    3    3  502    0  0.17364065556E+02 -0.23963210912E+02  0.48207374233E+02  0.56720098557E+02  0.41800000000E+01 0.  1.
         -5    1    3    3    0  502  0.50738806522E+02  0.48465690593E+02 -0.52724914931E+02  0.87867734160E+02  0.41800000000E+01 0.  1.
        -11    1    1    2    0    0 -0.87069351596E+01 -0.47951499730E+02  0.57034667520E+02  0.75020732770E+02  0.00000000000E+00 0.  1.
         11    1    1    2    0    0 -0.59395936918E+02  0.23449020049E+02  0.12410537807E+03  0.13957033614E+03  0.00000000000E+00 0. -1.
</event>
<event>
 7    1  0.2766180E-009  0.9045212E+02  0.7561462E-02  0.1301761E+00
         -3   -1    0    0    0  501 -0.00000000000E+00  0.00000000000E+00  0.23840481238E+02  0.23840481238E+02  0.00000000000E+00 0.  1.
          3   -1    0    0  501    0  0.00000000000E+00 -0.00000000000E+00 -0.68840764499E+03  0.68840764499E+03  0.00000000000E+00 0. -1.
         25    2    1    2    0    0 -0.59357085579E+02 -0.31554294483E+02 -0.34148667114E+03  0.36983672993E+03  0.12508846124E+03 0.  0.
          5    1    3    3  502    0 -0.12428737164E+02  0.46713224430E+01 -0.29246679326E+03  0.29279786939E+03  0.41800000000E+01 0. -1.
         -5    1    3    3    0  502 -0.46928348414E+02 -0.36225616926E+02 -0.49019877877E+02  0.77038860542E+02  0.41800000000E+01 0. -1.
        -11    1    1    2    0    0 -0.43879047714E+01  0.42628278744E+02 -0.18537645862E+03  0.19026522349E+03  0.00000000000E+00 0.  1.
         11    1    1    2    0    0  0.63744990350E+02 -0.11073984260E+02 -0.13770403399E+03  0.15214617281E+03  0.00000000000E+00 0. -1.
</event>
<event>
 7    1  0.2766180E-009  0.9421724E+02  0.7561462E-02  0.1292949E+00
          2   -1    0    0  501    0  0.00000000000E+00  0.00000000000E+00  0.98677550027E+03  0.98677550027E+03  0.00000000000E+00 0.  1.
         -2   -1    0    0    0  501 -0.00000000000E+00 -0.00000000000E+00 -0.16405255706E+02  0.16405255706E+02  0.00000000000E+00 0. -1.
         25    2    1    2    0    0  0.31373403511E+02 -0.12628841129E+02  0.75933964045E+03  0.77031533771E+03  0.12508098124E+03 0.  0.
          5    1    3    3  502    0  0.14788614795E+02 -0.65759542680E+02  0.52981613633E+03  0.53410264116E+03  0.41800000000E+01 0. -1.
         -5    1    3    3    0  502  0.16584788716E+02  0.53130701552E+02  0.22952350412E+03  0.23621269654E+03  0.41800000000E+01 0. -1.
        -11    1    1    2    0    0 -0.39007255153E+02 -0.10776490736E+02  0.20296342631E+03  0.20695857345E+03  0.00000000000E+00 0.  1.
         11    1    1    2    0    0  0.76338516421E+01  0.23405331865E+02  0.80671778026E+01  0.25906844815E+02  0.00000000000E+00 0. -1.
</event>
<event>
 7    1  0.2766180E-009  0.8822109E+02  0.7561462E-02  0.1307218E+00
         -1   -1    0    0    0  501 -0.00000000000E+00  0.00000000000E+00  0.11820347122E+03  0.11820347122E+03  0.00000000000E+00 0.  1.
          1   -1    0    0  501    0  0.00000000000E+00 -0.00000000000E+00 -0.11658532708E+03  0.11658532708E+03  0.00000000000E+00 0. -1.
         25    2    1    2    0    0  0.98024683711E+01 -0.37641970657E+02  0.21636818707E+02  0.13277483310E+03  0.12509195834E+03 0.  0.
          5    1    3    3  502    0 -0.77748167790E+01  0.28214939798E+02 -0.33735541649E+02  0.44856323680E+02  0.41800000000E+01 0.  1.
         -5    1    3    3    0  502  0.17577285150E+02 -0.65856910455E+02  0.55372360356E+02  0.87918509424E+02  0.41800000000E+01 0.  1.
        -11    1    1    2    0    0 -0.10992983697E+02 -0.18990819337E+02 -0.36878403088E+02  0.42912859657E+02  0.00000000000E+00 0.  1.
         11    1    1    2    0    0  0.11905153258E+01  0.56632789993E+02  0.16859728523E+02  0.59101105531E+02  0.00000000000E+00 0. -1.
</event>
<event>
 7    1  0.2766180E-009  0.1124737E+03  0.7561462E-02  0.1256056E+00
         -1   -1    0    0    0  501 -0.00000000000E+00  0.00000000000E+00  0.16479598786E+03  0.16479598786E+03  0.00000000000E+00 0.  1.
          1   -1    0    0  501    0  0.00000000000E+00 -0.00000000000E+00 -0.10344899880E+03  0.10344899880E+03  0.00000000000E+00 0. -1.
         25    2    1    2    0    0 -0.37354539105E+02 -0.55438985767E+02  0.23436254026E+02  0.14378497672E+03  0.12512401365E+03 0.  0.
          5    1    3    3  502    0 -0.42592043577E+02  0.95892269390E+01  0.55691808145E+02  0.70887836360E+02  0.41800000000E+01 0. -1.
         -5    1    3    3    0  502  0.52375044728E+01 -0.65028212706E+02 -0.32255554119E+02  0.72897140357E+02  0.41800000000E+01 0. -1.
        -11    1    1    2    0    0  0.67668761377E+02  0.23376486786E+02  0.10097574109E+02  0.72301330580E+02  0.00000000000E+00 0. -1.
         11    1    1    2    0    0 -0.30314222272E+02  0.32062498981E+02  0.27813160927E+02  0.52158679370E+02  0.00000000000E+00 0.  1.
</event>
<event>
 7    1  0.2766180E-009  0.9550374E+02  0.7561462E-02  0.1290046E+00
          3   -1    0    0  501    0  0.00000000000E+00  0.00000000000E+00  0.20045873373E+02  0.20045873373E+02  0.00000000000E+00 0. -1.
         -3   -1    0    0    0  501 -0.00000000000E+00 -0.00000000000E+00 -0.61224278972E+03  0.61224278972E+03  0.00000000000E+00 0.  1.
         25    2    1    2    0    0 -0.18812160180E+02  0.17259152972E+02 -0.39271674806E+03  0.41294530688E+03  0.12508239901E+03 0.  0.
          5    1    3    3  502    0 -0.70375365868E+02 -0.55296627212E+01 -0.23465835304E+03  0.24508219916E+03  0.41800000000E+01 0.  1.
         -5    1    3    3    0  502  0.51563205688E+02  0.22788815694E+02 -0.15805839501E+03  0.16786310773E+03  0.41800000000E+01 0.  1.
        -11    1    1    2    0    0  0.96793793437E+01 -0.38998850135E+02 -0.18954216509E+03  0.19375456910E+03  0.00000000000E+00 0.  1.
         11    1    1    2    0    0  0.91327808361E+01  0.21739697163E+02 -0.99380031993E+01  0.25588787117E+02  0.00000000000E+00 0. -1.
</event>
<event>
 7    1  0.2766180E-009  0.1234919E+03  0.7561462E-02  0.1237445E+00
          2   -1    0    0  501    0  0.00000000000E+00  0.00000000000E+00  0.62108195461E+02  0.62108195461E+02  0.00000000000E+00 0. -1.
         -2   -1    0    0    0  501 -0.00000000000E+00 -0.00000000000E+00 -0.26577555584E+03  0.26577555584E+03  0.00000000000E+00 0.  1.
         25    2    1    2    0    0 -0.29253548392E+02 -0.48265854361E+02 -0.68191311875E+02  0.15324043181E+03  0.12508881698E+03 0.  0.
          5    1    3    3  502    0 -0.77790504108E+02 -0.18259897218E+02 -0.39377819030E+02  0.89178873100E+02  0.41800000000E+01 0.  1.
         -5    1    3    3    0  502  0.48536955715E+02 -0.30005957143E+02 -0.28813492844E+02  0.64061558708E+02  0.41800000000E+01 0.  1.
        -11    1    1    2    0    0 -0.15891575135E+02  0.60847240954E+02 -0.85409512326E+02  0.10606466748E+03  0.00000000000E+00 0. -1.
         11    1    1    2    0    0  0.45145123528E+02 -0.12581386593E+02 -0.50066536178E+02  0.68578652012E+02  0.00000000000E+00 0.  1.
</event>
<event>
 7    1  0.2766180E-009  0.1703826E+03  0.7561462E-02  0.1177449E+00
         -2   -1    0    0    0  501 -0.00000000000E+00  0.00000000000E+00  0.17225151486E+02  0.17225151486E+02  0.00000000000E+00 0.  1.
          2   -1    0    0  501    0  0.00000000000E+00 -0.00000000000E+00 -0.18655331057E+04  0.18655331057E+04  0.00000000000E+00 0. -1.
         25    2    1    2    0    0 -0.13341127872E+03  0.43611026274E+02 -0.11057905896E+04  0.11216625593E+04  0.12511426048E+03 0.  0.
          5    1    3    3  502    0 -0.14428201663E+03  0.21760838459E+01 -0.88838415583E+03  0.90003661948E+03  0.41800000000E+01 0.  1.
         -5    1    3    3    0  502  0.10870737910E+02  0.41434942428E+02 -0.21740643372E+03  0.22162593987E+03  0.41800000000E+01 0.  1.
        -11    1    1    2    0    0  0.10286788394E+03 -0.34712084913E+01 -0.62185371646E+03  0.63031412447E+03  0.00000000000E+00 0. -1.
         11    1    1    2    0    0  0.30543394781E+02 -0.40139817782E+02 -0.12066364817E+03  0.13078157334E+03  0.00000000000E+00 0.  1.
</event>
<event>
 7    1  0.2766180E-009  0.1267168E+03  0.7561462E-02  0.1232410E+00
         -1   -1    0    0    0  501 -0.00000000000E+00  0.00000000000E+00  0.11843905772E+02  0.11843905772E+02  0.00000000000E+00 0.  1.
          1   -1    0    0  501    0  0.00000000000E+00 -0.00000000000E+00 -0.17884245854E+04  0.17884245854E+04  0.00000000000E+00 0. -1.
         25    2    1    2    0    0  0.61663144692E+02 -0.46157144807E+02 -0.12856462710E+04  0.12940123841E+04  0.12509552660E+03 0.  0.
          5    1    3    3  502    0  0.36353455060E+02  0.34577115478E+02 -0.75209375376E+03  0.75377691491E+03  0.41800000000E+01 0. -1.
         -5    1    3    3    0  502  0.25309689632E+02 -0.80734260285E+02 -0.53355251720E+03  0.54023546921E+03  0.41800000000E+01 0. -1.
        -11    1    1    2    0    0  0.11764477167E+02  0.43325751874E+02 -0.12022073081E+03  0.12832983992E+03  0.00000000000E+00 0.  1.
         11    1    1    2    0    0 -0.73427621859E+02  0.28313929337E+01 -0.37071367783E+03  0.37792626710E+03  0.00000000000E+00 0. -1.
</event>
<event>
 7    1  0.2766180E-009  0.1614029E+03  0.7561462E-02  0.1187122E+00
          1   -1    0    0  501    0  0.00000000000E+00  0.00000000000E+00  0.29683147979E+03  0.29683147979E+03  0.00000000000E+00 0. -1.
         -1   -1    0    0    0  501 -0.00000000000E+00 -0.00000000000E+00 -0.12335231380E+03  0.12335231380E+03  0.00000000000E+00 0.  1.
         25    2    1    2    0    0  0.99444259825E+02  0.12036859815E+03  0.70366892388E+02  0.21207081648E+03  0.12507906071E+03 0.  0.
          5    1    3    3  502    0  0.20845532651E+02  0.48116186699E+02  0.89223001596E+02  0.10357567315E+03  0.41800000000E+01 0. -1.
         -5    1    3    3    0  502  0.78598727174E+02  0.72252411448E+02 -0.18856109207E+02  0.10849514334E+03  0.41800000000E+01 0. -1.
        -11    1    1    2    0    0 -0.28359969825E+02 -0.64561385432E+01  0.60688303868E+02  0.67298141429E+02  0.00000000000E+00 0. -1.
         11    1    1    2    0    0 -0.71084290000E+02 -0.11391245960E+03  0.42423969734E+02  0.14081483567E+03  0.00000000000E+00 0.  1.
</event>
<event>
 7    1  0.2766180E-009  0.6787090E+02  0.7561462E-02  0.1367487E+00
          2   -1    0    0  501    0  0.00000000000E+00  0.00000000000E+00  0.37469439543E+03  0.37469439543E+03  0.00000000000E+00 0. -1.
         -2   -1    0    0    0  501 -0.00000000000E+00 -0.00000000000E+00 -0.83418477076E+02  0.83418477076E+02  0.00000000000E+00 0.  1.
         25    2    1    2    0    0 -0.15700432364E+02 -0.10515440742E+02  0.33262771194E+03  0.35587423175E+03  0.12509274960E+03 0.  0.
          5    1    3    3  502    0  0.15084071701E+02 -0.44520095665E+01 -0.47989255010E+01  0.16966192685E+02  0.41800000000E+01 0.  1.
         -5    1    3    3    0  502 -0.30784504065E+02 -0.60634311756E+01  0.33742663744E+03  0.33890803906E+03  0.41800000000E+01 0.  1.
        -11    1    1    2    0    0 -0.34415503489E+02 -0.62317849641E+01  0.26744824378E+00  0.34976185510E+02  0.00000000000E+00 0.  1.
         11    1    1    2    0    0  0.50115935854E+02  0.16747225706E+02 -0.41619241829E+02  0.67262455247E+02  0.00000000000E+00 0. -1.
</event>
<event>
 7    1  0.2766180E-009  0.1178462E+03  0.7561462E-02  0.1246693E+00
          2   -1    0    0  501    0  0.00000000000E+00  0.00000000000E+00  0.36891379265E+03  0.36891379265E+03  0.00000000000E+00 0. -1.
         -2   -1    0    0    0  501 -0.00000000000E+00 -0.00000000000E+00 -0.58496398987E+02  0.58496398987E+02  0.00000000000E+00 0.  1.
         25    2    1    2    0    0  0.36279523810E+02 -0.88575065559E+02  0.14021882115E+03  0.21088232107E+03  0.12509312310E+03 0.  0.
          5    1    3    3  502    0  0.40185043938E+02 -0.10793114273E+03  0.14942000197E+03  0.18870023507E+03  0.41800000000E+01 0. -1.
         -5    1    3    3    0  502 -0.39055201276E+01  0.19356077172E+02 -0.92011808119E+01  0.22182085999E+02  0.41800000000E+01 0. -1.
        -11    1    1    2    0    0  0.49141624791E+01  0.16836241069E+02 -0.85893948027E+01  0.19529099039E+02  0.00000000000E+00 0.  1.
         11    1    1    2    0    0 -0.41193686289E+02  0.71738824490E+02  0.17878796731E+03  0.19699877153E+03  0.00000000000E+00 0. -1.
</event>
<event>
 7    1  0.2766180E-009  0.2215630E+03  0.7561462E-02  0.1132723E+00
          2   -1    0    0  501    0  0.00000000000E+00  0.00000000000E+00  0.19365113068E+04  0.19365113068E+04  0.00000000000E+00 0. -1.
         -2   -1    0    0    0  501 -0.00000000000E+00 -0.00000000000E+00 -0.30719440215E+02  0.30719440215E+02  0.00000000000E+00 0.  1.
         25    2    1    2    0    0 -0.42500555987E+02  0.20472880795E+03  0.12050864831E+04  0.12294714603E+04  0.12508580153E+03 0.  0.
          5    1    3    3  502    0 -0.26575139634E+02  0.21082190506E+03  0.11791594551E+04  0.11981596749E+04  0.41800000000E+01 0. -1.
         -5    1    3    3    0  502 -0.15925416353E+02 -0.60930971186E+01  0.25927028050E+02  0.31311785354E+02  0.41800000000E+01 0. -1.
        -11    1    1    2    0    0 -0.59461299377E+01 -0.62557441370E+02  0.35960221022E+03  0.36505142038E+03  0.00000000000E+00 0. -1.
         11    1    1    2    0    0  0.48446685925E+02 -0.14217136658E+03  0.34110317324E+03  0.37270786636E+03  0.00000000000E+00 0.  1.
</event>
<event>
 7    1  0.2766180E-009  0.4431870E+02  0.7561462E-02  0.1478640E+00
          2   -1    0    0  501    0  0.00000000000E+00  0.00000000000E+00  0.16221384847E+03  0.16221384847E+03  0.00000000000E+00 0. -1.
         -2   -1    0    0    0  501 -0.00000000000E+00 -0.00000000000E+00 -0.90149410371E+02  0.90149410371E+02  0.00000000000E+00 0.  1.
         25    2    1    2    0    0  0.83934347702E+01 -0.12749701998E+02  0.95382577633E+02  0.15804516541E+03  0.12508970199E+03 0.  0.
          5    1    3    3  502    0 -0.91323785840E+01 -0.70671846955E+01  0.12353352711E+03  0.12414245913E+03  0.41800000000E+01 0.  1.
         -5    1    3    3    0  502  0.17525813354E+02 -0.56825173028E+01 -0.28150949478E+02  0.33902706280E+02  0.41800000000E+01 0.  1.
        -11    1    1    2    0    0 -0.29250184543E+02 -0.54854549645E+01 -0.48484782208E+02  0.56889696938E+02  0.00000000000E+00 0.  1.
         11    1    1    2    0    0  0.20856749773E+02  0.18235156963E+02  0.25166642669E+02  0.37428396490E+02  0.00000000000E+00 0. -1.
</event>
<event>
 7    1  0.2766180E-009  0.1890370E+03  0.7561462E-02  0.1159333E+00
          1   -1    0    0  501    0  0.00000000000E+00  0.00000000000E+00  0.42932125788E+03  0.42932125788E+03  0.00000000000E+00 0. -1.
         -1   -1    0    0    0  501 -0.00000000000E+00 -0.00000000000E+00 -0.10066014138E+03  0.10066014138E+03  0.00000000000E+00 0.  1.
         25    2    1    2    0    0 -0.16265932284E+03  0.20245099963E+02  0.25439409167E+03  0.32746539282E+03  0.12509720318E+03 0.  0.
          5    1    3    3  502    0 -0.10684152105E+03 -0.38887709775E+02  0.19819546284E+03  0.22853069483E+03  0.41800000000E+01 0.  1.
         -5    1    3    3    0  502 -0.55817801789E+02  0.59132809738E+02  0.56198628829E+02  0.98934697990E+02  0.41800000000E+01 0.  1.
        -11    1    1    2    0    0  0.63639355542E+01  0.20409643506E+02  0.26611052572E+02  0.34135045668E+02  0.00000000000E+00 0.  1.
         11    1    1    2    0    0  0.15629538729E+03 -0.40654743470E+02  0.47655972260E+02  0.16838096076E+03  0.00000000000E+00 0. -1.
</event>
<event>
 7    1  0.2766180E-009  0.1273013E+03  0.7561462E-02  0.1231516E+00
         -2   -1    0    0    0  501 -0.00000000000E+00  0.00000000000E+00  0.12747226926E+02  0.12747226926E+02  0.00000000000E+00 0.  1.
          2   -1    0    0  501    0  0.00000000000E+00 -0.00000000000E+00 -0.26254979549E+04  0.26254979549E+04  0.00000000000E+00 0. -1.
         25    2    1    2    0    0  0.73771429894E+02  0.44763839863E+02 -0.22298851018E+04  0.22350574338E+04  0.12509252490E+03 0.  0.
          5    1    3    3  502    0  0.11021058675E+02  0.62956109592E+02 -0.16906281578E+04  0.16918410019E+04  0.41800000000E+01 0.  1.
         -5    1    3    3    0  502  0.62750371219E+02 -0.18192269729E+02 -0.53925694400E+03  0.54321643183E+03  0.41800000000E+01 0.  1.
        -11    1    1    2    0    0 -0.69180951073E+02  0.10200512660E+02 -0.24227145748E+03  0.25216168139E+03  0.00000000000E+00 0. -1.
         11    1    1    2    0    0 -0.45904788206E+01 -0.54964352523E+02 -0.14059416871E+03  0.15102606669E+03  0.00000000000E+00 0.  1.
</event>
<event>
 7    1  0.2766180E-009  0.1052738E+03  0.7561462E-02  0.1269581E+00
         -2   -1    0    0    0  501 -0.00000000000E+00  0.00000000000E+00  0.20596641267E+03  0.20596641267E+03  0.00000000000E+00 0. -1.
          2   -1    0    0  501    0  0.00000000000E+00 -0.00000000000E+00 -0.66059622984E+02  0.66059622984E+02  0.00000000000E+00 0.  1.
         25    2    1    2    0    0  0.16145670179E+02 -0.24933678173E+02  0.46063235601E+02  0.13657000188E+03  0.12508865962E+03 0.  0.
          5    1    3    3  502    0 -0.33757936587E+02 -0.51615305901E+02 -0.25240052153E+01  0.61867447726E+02  0.41800000000E+01 0.  1.
         -5    1    3    3    0  502  0.49903606766E+02  0.26681627728E+02  0.48587240817E+02  0.74702554150E+02  0.41800000000E+01 0.  1.
        -11    1    1    2    0    0 -0.52091041331E+02  0.98858566271E+01  0.30732083400E+02  0.61283502660E+02  0.00000000000E+00 0.  1.
         11    1    1    2    0    0  0.35945371152E+02  0.15047821546E+02  0.63111470683E+02  0.74172531117E+02  0.00000000000E+00 0. -1.
</event>
<event>
 7    1  0.2766180E-009  0.1218559E+03  0.7561462E-02  0.1240066E+00
         -2   -1    0    0    0  501 -0.00000000000E+00  0.00000000000E+00  0.10604906174E+02  0.10604906174E+02  0.00000000000E+00 0.  1.
          2   -1    0    0  501    0  0.00000000000E+00 -0.00000000000E+00 -0.21102663505E+04  0.21102663505E+04  0.00000000000E+00 0. -1.
         25    2    1    2    0    0 -0.41148458294E+02 -0.51770362075E+02 -0.16947105596E+04  0.17006067463E+04  0.12508420690E+03 0.  0.
          5    1    3    3  502    0 -0.28081550440E+02  0.36872962163E+02 -0.81710048058E+03  0.81842461875E+03  0.41800000000E+01 0. -1.
         -5    1    3    3    0  502 -0.13066907854E+02 -0.88643324238E+02 -0.87761007903E+03  0.88218212758E+03  0.41800000000E+01 0. -1.
        -11    1    1    2    0    0  0.64395059919E+02  0.18704141047E+02 -0.30818615217E+03  0.31539700858E+03  0.00000000000E+00 0. -1.
         11    1    1    2    0    0 -0.23246601624E+02  0.33066221028E+02 -0.96764732565E+02  0.10486750178E+03  0.00000000000E+00 0.  1.
</event>
<event>
 7    1  0.2766180E-009  0.1140059E+03  0.7561462E-02  0.1253326E+00
         -1   -1    0    0    0  501 -0.00000000000E+00  0.00000000000E+00  0.16098941583E+03  0.16098941583E+03  0.00000000000E+00 0.  1.
          1   -1    0    0  501    0  0.00000000000E+00 -0.00000000000E+00 -0.13978467509E+03  0.13978467509E+03  0.00000000000E+00 0. -1.
         25    2    1    2    0    0 -0.55552304646E+02  0.18475942076E+02  0.97184806717E+02  0.16886907240E+03  0.12507780766E+03 0.  0.
          5    1    3    3  502    0 -0.87002674918E+02  0.37548838175E+01  0.28383332677E+02  0.91687788550E+02  0.41800000000E+01 0. -1.
         -5    1    3    3    0  502  0.31450370272E+02  0.14721058258E+02  0.68801474040E+02  0.77181283849E+02  0.41800000000E+01 0. -1.
        -11    1    1    2    0    0  0.71468600686E+02  0.11041889432E+02 -0.39689338506E+02  0.82491986261E+02  0.00000000000E+00 0.  1.
         11    1    1    2    0    0 -0.15916296041E+02 -0.29517831508E+02 -0.36290727470E+02  0.49413032258E+02  0.00000000000E+00 0. -1.
</event>
<event>
 7    1  0.2766180E-009  0.4563054E+02  0.7561462E-02  0.1470443E+00
          1   -1    0    0  501    0  0.00000000000E+00  0.00000000000E+00  0.52789230581E+02  0.52789230581E+02  0.00000000000E+00 0. -1.
         -1   -1    0    0    0  501 -0.00000000000E+00 -0.00000000000E+00 -0.24265021680E+03  0.24265021680E+03  0.00000000000E+00 0.  1.
         25    2    1    2    0    0 -0.87766732164E+01 -0.18016898318E+02 -0.14242839149E+03  0.19061845148E+03  0.12509160133E+03 0.  0.
          5    1    3    3  502    0 -0.78404517317E+01 -0.20109817885E+01 -0.16353308989E+03  0.16378663139E+03  0.41800000000E+01 0.  1.
         -5    1    3    3    0  502 -0.93622148466E+00 -0.16005916530E+02  0.21104698404E+02  0.26831820090E+02  0.41800000000E+01 0.  1.
        -11    1    1    2    0    0 -0.49363465017E+01  0.39656912859E+02 -0.63173548405E+02  0.74752494757E+02  0.00000000000E+00 0.  1.
         11    1    1    2    0    0  0.13713019718E+02 -0.21640014541E+02  0.15740953670E+02  0.30068501153E+02  0.00000000000E+00 0. -1.
</event>
<event>
 7    1  0.2766180E-009  0.1555351E+03  0.7561462E-02  0.1193832E+00
         -3   -1    0    0    0  501 -0.00000000000E+00  0.00000000000E+00  0.21019961307E+03  0.21019961307E+03  0.00000000000E+00 0.  1.
          3   -1    0    0  501    0  0.00000000000E+00 -0.00000000000E+00 -0.12123791157E+03  0.12123791157E+03  0.00000000000E+00 0. -1.
         25    2    1    2    0    0  0.73954698583E+02 -0.96621367087E+02  0.41260470794E+02  0.17932204335E+03  0.12509589426E+03 0.  0.
          5    1    3    3  502    0  0.85840854067E+02 -0.95289940980E+01  0.18473769637E+02  0.88420622708E+02  0.41800000000E+01 0. -1.
         -5    1    3    3    0  502 -0.11886155484E+02 -0.87092372989E+02  0.22786701157E+02  0.90901420641E+02  0.41800000000E+01 0. -1.
        -11    1    1    2    0    0 -0.59325530725E+01 -0.91147670789E+01  0.20905764433E+02  0.23565337922E+02  0.00000000000E+00 0.  1.
         11    1    1    2    0    0 -0.68022145511E+02  0.10573613417E+03  0.26795466273E+02  0.12855014337E+03  0.00000000000E+00 0. -1.
</event>
<event>
 7    1  0.2766180E-009  0.1147082E+03  0.7561462E-02  0.1252091E+00
          2   -1    0    0  501    0  0.00000000000E+00  0.00000000000E+00  0.16201401952E+03  0.16201401952E+03  0.00000000000E+00 0. -1.
         -2   -1    0    0    0  501 -0.00000000000E+00 -0.00000000000E+00 -0.12176391974E+03  0.12176391974E+03  0.00000000000E+00 0.  1.
         25    2    1    2    0    0 -0.16167972630E+01  0.50549344923E+02  0.95974544102E+02  0.16557975518E+03  0.12509073469E+03 0.  0.
          5    1    3    3  502    0 -0.43400283733E+02  0.69266297324E+02  0.34513148915E+02  0.88825865721E+02  0.41800000000E+01 0.  1.
         -5    1    3    3    0  502  0.41783486470E+02 -0.18716952402E+02  0.61461395187E+02  0.76753889459E+02  0.41800000000E+01 0.  1.
        -11    1    1    2    0    0  0.38360299349E+02 -0.52241614319E+02 -0.22427933842E+02  0.68583606272E+02  0.00000000000E+00 0. -1.
         11    1    1    2    0    0 -0.36743502086E+02  0.16922693964E+01 -0.33296510478E+02  0.49614577810E+02  0.00000000000E+00 0.  1.
</event>
<event>
 7    1  0.3212253E-009  0.2248211E+03  0.7561462E-02  0.1130339E+00
          1   -1    0    0  501    0  0.00000000000E+00  0.00000000000E+00  0.18720046345E+04  0.18720046345E+04  0.00000000000E+00 0. -1.
         -1   -1    0    0    0  501 -0.00000000000E+00 -0.00000000000E+00 -0.36540282938E+02  0.36540282938E+02  0.00000000000E+00 0.  1.
         25    2    1    2    0    0  0.14442414476E+03  0.16091485128E+03  0.58365107927E+03  0.63486042885E+03  0.12508900364E+03 0.  0.
          5    1    3    3  502    0  0.99495698980E+02  0.11092888668E+03  0.52436071845E+03  0.54513874148E+03  0.41800000000E+01 0. -1.
         -5    1    3    3    0  502  0.44928445776E+02  0.49985964605E+02  0.59290360829E+02  0.89721687370E+02  0.41800000000E+01 0. -1.
        -11    1    1    2    0    0 -0.10405615915E+03 -0.50488363909E+02  0.69931438510E+03  0.70881405767E+03  0.00000000000E+00 0.  1.
         11    1    1    2    0    0 -0.40367985602E+02 -0.11042648737E+03  0.55249888719E+03  0.56487043091E+03  0.00000000000E+00 0. -1.
</event>
<event>
 7    1  0.2766180E-009  0.1013671E+03  0.7561462E-02  0.1277447E+00
          2   -1    0    0  501    0  0.00000000000E+00  0.00000000000E+00  0.55824078052E+03  0.55824078052E+03  0.00000000000E+00 0.  1.
         -2   -1    0    0    0  501 -0.00000000000E+00 -0.00000000000E+00 -0.22078047092E+02  0.22078047092E+02  0.00000000000E+00 0. -1.
         25    2    1    2    0    0  0.10288535369E+02 -0.17545452795E+02  0.26730677195E+03  0.29582724621E+03  0.12508857819E+03 0.  0.
          5    1    3    3  502    0 -0.46138353804E+02 -0.33678005880E+02  0.72877413968E+02  0.92690590884E+02  0.41800000000E+01 0. -1.
         -5    1    3    3    0  502  0.56426889173E+02  0.16132553084E+02  0.19442935798E+03  0.20313665533E+03  0.41800000000E+01 0. -1.
        -11    1    1    2    0    0 -0.23449070948E+02  0.48013651028E+02  0.21225710924E+03  0.21887953316E+03  0.00000000000E+00 0.  1.
         11    1    1    2    0    0  0.13160535579E+02 -0.30468198233E+02  0.56598852237E+02  0.65612048244E+02  0.00000000000E+00 0. -1.
</event>
<event>
 7    1  0.2766180E-009  0.1081681E+03  0.7561462E-02  0.1264000E+00
          1   -1    0    0  501    0  0.00000000000E+00  0.00000000000E+00  0.39149173664E+03  0.39149173664E+03  0.00000000000E+00 0. -1.
         -1   -1    0    0    0  501 -0.00000000000E+00 -0.00000000000E+00 -0.38852799381E+02  0.38852799381E+02  0.00000000000E+00 0.  1.
         25    2    1    2    0    0 -0.46836745041E+02  0.32413205400E+02  0.17140941013E+03  0.21971131661E+03  0.12509028817E+03 0.  0.
          5    1    3    3  502    0  0.35741867261E+02  0.35881853867E+02  0.41165307116E+02  0.65399108727E+02  0.41800000000E+01 0.  1.
         -5    1    3    3    0  502 -0.82578612302E+02 -0.34686484673E+01  0.13024410301E+03  0.15431220788E+03  0.41800000000E+01 0.  1.
        -11    1    1    2    0    0  0.19508072792E+02  0.17272402344E+02  0.63898394671E+01  0.26827799671E+02  0.00000000000E+00 0.  1.
         11    1    1    2    0    0  0.27328672249E+02 -0.49685607744E+02  0.17483968767E+03  0.18380541975E+03  0.00000000000E+00 0. -1.
</event>
<event>
 7    1  0.2766180E-009  0.6674455E+02  0.7561462E-02  0.1371527E+00
          2   -1    0    0  501    0  0.00000000000E+00  0.00000000000E+00  0.18011231980E+03  0.18011231980E+03  0.00000000000E+00 0.  1.
         -2   -1    0    0    0  501 -0.00000000000E+00 -0.00000000000E+00 -0.88928102260E+02  0.88928102260E+02  0.00000000000E+00 0. -1.
         25    2    1    2    0    0  0.10558630698E+02  0.30562833543E+02 -0.10761932783E+02  0.12964073931E+03  0.12508129602E+03 0.  0.
          5    1    3    3  502    0  0.37338522337E+02  0.33123287933E+02  0.45162159554E+02  0.67441904699E+02  0.41800000000E+01 0. -1.
         -5    1    3    3    0  502 -0.26779891639E+02 -0.25604543907E+01 -0.55924092337E+02  0.62198834608E+02  0.41800000000E+01 0. -1.
        -11    1    1    2    0    0  0.18286857443E+02 -0.11568064303E+02  0.10259864100E+03  0.10485566462E+03  0.00000000000E+00 0.  1.
         11    1    1    2    0    0 -0.28845488141E+02 -0.18994769239E+02 -0.65249068405E+00  0.34544018131E+02  0.00000000000E+00 0. -1.
</event>
<event>
 7    1  0.2766180E-009  0.1264762E+03  0.7561462E-02  0.1232780E+00
         -2   -1    0    0    0  501 -0.00000000000E+00  0.00000000000E+00  0.15864290473E+02  0.15864290473E+02  0.00000000000E+00 0.  1.
          2   -1    0    0  501    0  0.00000000000E+00 -0.00000000000E+00 -0.13178513041E+04  0.13178513041E+04  0.00000000000E+00 0. -1.
         25    2    1    2    0    0  0.70511194465E+02 -0.44975311002E+02 -0.91721960926E+03  0.92948029798E+03  0.12508879078E+03 0.  0.
          5    1    3    3  502    0  0.11887193705E+02  0.30805987875E+02 -0.78074171499E+02  0.84872627615E+02  0.41800000000E+01 0. -1.
         -5    1    3    3    0  502  0.58624000760E+02 -0.75781298877E+02 -0.83914543776E+03  0.84460767037E+03  0.41800000000E+01 0. -1.
        -11    1    1    2    0    0 -0.89702588499E+02  0.19372498259E+02 -0.27580928313E+03  0.29067612343E+03  0.00000000000E+00 0.  1.
         11    1    1    2    0    0  0.19191394034E+02  0.25602812743E+02 -0.10895812121E+03  0.11355917313E+03  0.00000000000E+00 0. -1.
</event>
<event>
 7    1  0.2766180E-009  0.1291588E+03  0.7561462E-02  0.1228709E+00
         -1   -1    0    0    0  501 -0.00000000000E+00  0.00000000000E+00  0.11019087286E+03  0.11019087286E+03  0.00000000000E+00 0.  1.
          1   -1    0    0  501    0  0.00000000000E+00 -0.00000000000E+00 -0.15920457042E+03  0.15920457042E+03  0.00000000000E+00 0. -1.
         25    2    1    2    0    0  0.64336457098E+02 -0.41287462511E+02 -0.35972524685E+02  0.15095383454E+03  0.12509677597E+03 0.  0.
          5    1    3    3  502    0  0.60696795085E+02  0.32660832120E+02 -0.33517286547E+02  0.76757486839E+02  0.41800000000E+01 0. -1.
         -5    1    3    3    0  502  0.36396620131E+01 -0.73948294631E+02 -0.24552381376E+01  0.74196347704E+02  0.41800000000E+01 0. -1.
        -11    1    1    2    0    0 -0.33375203096E+02 -0.25163969713E+02  0.71404288353E+01  0.42404189385E+02  0.00000000000E+00 0.  1.
         11    1    1    2    0    0 -0.30961254001E+02  0.66451432224E+02 -0.20181601712E+02  0.76037419352E+02  0.00000000000E+00 0. -1.
</event>
<event>
 7    1  0.2766180E-009  0.1897852E+03  0.7561462E-02  0.1158655E+00
          1   -1    0    0  501    0  0.00000000000E+00  0.00000000000E+00  0.66913671330E+02  0.66913671330E+02  0.00000000000E+00 0. -1.
         -1   -1    0    0    0  501 -0.00000000000E+00 -0.00000000000E+00 -0.69773503612E+03  0.69773503612E+03  0.00000000000E+00 0.  1.
         25    2    1    2    0    0  0.17792484273E+03  0.29571483246E+02 -0.40920391462E+03  0.46437223659E+03  0.12514794484E+03 0.  0.
          5    1    3    3  502    0  0.55307403166E+02  0.40794728924E+02 -0.51313947688E+02  0.85870323048E+02  0.41800000000E+01 0.  1.
         -5    1    3    3    0  502  0.12261743957E+03 -0.11223245678E+02 -0.35788996693E+03  0.37850191355E+03  0.41800000000E+01 0.  1.
        -11    1    1    2    0    0 -0.81967271232E+02  0.12185508349E+02 -0.43249018097E+02  0.93475118258E+02  0.00000000000E+00 0.  1.
         11    1    1    2    0    0 -0.95957571501E+02 -0.41756991595E+02 -0.17836843207E+03  0.20680135260E+03  0.00000000000E+00 0. -1.
</event>
<event>
 7    1  0.2766180E-009  0.1923376E+03  0.7561462E-02  0.1156370E+00
          1   -1    0    0  501    0  0.00000000000E+00  0.00000000000E+00  0.85575084136E+02  0.85575084136E+02  0.00000000000E+00 0. -1.
         -1   -1    0    0    0  501 -0.00000000000E+00 -0.00000000000E+00 -0.51998489775E+03  0.51998489775E+03  0.00000000000E+00 0.  1.
         25    2    1    2    0    0  0.17412075029E+03  0.25356466316E+02 -0.28503947229E+03  0.35756774262E+03  0.12508478616E+03 0.  0.
          5    1    3    3  502    0  0.18433871579E+02  0.40942576746E+02 -0.19072813392E+02  0.48962708490E+02  0.41800000000E+01 0. -1.
         -5    1    3    3    0  502  0.15568687871E+03 -0.15586110429E+02 -0.26596665890E+03  0.30860503413E+03  0.41800000000E+01 0. -1.
        -11    1    1    2    0    0 -0.89574827929E+02  0.12466776275E+02 -0.12111930695E+03  0.15115871402E+03  0.00000000000E+00 0.  1.
         11    1    1    2    0    0 -0.84545922363E+02 -0.37823242591E+02 -0.28251034369E+02  0.96833525244E+02  0.00000000000E+00 0. -1.
</event>
<event>
 7    1  0.2766180E-009  0.1810059E+03  0.7561462E-02  0.1166833E+00
          1   -1    0    0  501    0  0.00000000000E+00  0.00000000000E+00  0.62698156750E+03  0.62698156750E+03  0.00000000000E+00 0. -1.
         -1   -1    0    0    0  501 -0.00000000000E+00 -0.00000000000E+00 -0.58677433371E+02  0.58677433371E+02  0.00000000000E+00 0.  1.
         25    2    1    2    0    0  0.12128326753E+03  0.92956383664E+02  0.37802171884E+03  0.42649521507E+03  0.12508888167E+03 0.  0.
          5    1    3    3  502    0  0.53898910123E+02 -0.19350973142E+02  0.18088834805E+03  0.18978308548E+03  0.41800000000E+01 0. -1.
         -5    1    3    3    0  502  0.67384357409E+02  0.11230735681E+03  0.19713337078E+03  0.23671212958E+03  0.41800000000E+01 0. -1.
        -11    1    1    2    0    0 -0.79576928017E+02 -0.93529175747E+01  0.10929894518E+03  0.13552204233E+03  0.00000000000E+00 0. -1.
         11    1    1    2    0    0 -0.41706339514E+02 -0.83603466089E+02  0.80983470113E+02  0.12364174347E+03  0.00000000000E+00 0.  1.
</event>
<event>
 7    1  0.2766180E-009  0.1208515E+03  0.7561462E-02  0.1241699E+00
         -1   -1    0    0    0  501 -0.00000000000E+00  0.00000000000E+00  0.23017411400E+03  0.23017411400E+03  0.00000000000E+00 0.  1.
          1   -1    0    0  501    0  0.00000000000E+00 -0.00000000000E+00 -0.11642997401E+03  0.11642997401E+03  0.00000000000E+00 0. -1.
         25    2    1    2    0    0  0.21967885975E+01 -0.51743007432E+02 -0.54560014732E+02  0.14598981186E+03  0.12511620703E+03 0.  0.
          5    1    3    3  502    0 -0.40925378636E+02  0.22824439514E+02 -0.31839558007E+02  0.56807319156E+02  0.41800000000E+01 0.  1.
         -5    1    3    3    0  502  0.43122167233E+02 -0.74567446946E+02 -0.22720456725E+02  0.89182492703E+02  0.41800000000E+01 0.  1.
        -11    1    1    2    0    0  0.79411517327E+01 -0.27451301343E+02  0.34479869031E+02  0.44782777992E+02  0.00000000000E+00 0.  1.
         11    1    1    2    0    0 -0.10137940330E+02  0.79194308776E+02  0.13382428570E+03  0.15583149816E+03  0.00000000000E+00 0. -1.
</event>
<event>
 7    1  0.2766180E-009  0.1270740E+03  0.7561462E-02  0.1231863E+00
          2   -1    0    0  501    0  0.00000000000E+00  0.00000000000E+00  0.38833309557E+02  0.38833309557E+02  0.00000000000E+00 0. -1.
         -2   -1    0    0    0  501 -0.00000000000E+00 -0.00000000000E+00 -0.59720848353E+03  0.59720848353E+03  0.00000000000E+00 0.  1.
         25    2    1    2    0    0  0.10572440581E+03 -0.74557187731E+01 -0.27062035818E+03  0.31641192474E+03  0.12509152701E+03 0.  0.
          5    1    3    3  502    0  0.86098830003E+02  0.12500062544E+02 -0.64564699137E+02  0.10842201283E+03  0.41800000000E+01 0. -1.
         -5    1    3    3    0  502  0.19625575812E+02 -0.19955781317E+02 -0.20605565904E+03  0.20798991191E+03  0.41800000000E+01 0. -1.
        -11    1    1    2    0    0 -0.77816279403E+02  0.46577185591E+02 -0.19929690608E+03  0.21896133067E+03  0.00000000000E+00 0. -1.
         11    1    1    2    0    0 -0.27908126412E+02 -0.39121466818E+02 -0.88457909710E+02  0.10066853767E+03  0.00000000000E+00 0.  1.
</event>
<event>
 7    1  0.2766180E-009  0.1449266E+03  0.7561462E-02  0.1206849E+00
         -1   -1    0    0    0  501 -0.00000000000E+00  0.00000000000E+00  0.60868000696E+02  0.60868000696E+02  0.00000000000E+00 0.  1.
          1   -1    0    0  501    0  0.00000000000E+00 -0.00000000000E+00 -0.39978464210E+03  0.39978464210E+03  0.00000000000E+00 0. -1.
         25    2    1    2    0    0 -0.47217015880E+02 -0.96452903031E+02 -0.20786740516E+03  0.26531315049E+03  0.12509836370E+03 0.  0.
          5    1    3    3  502    0 -0.47847888563E+02  0.15745412110E+02 -0.84824966918E+02  0.98742523034E+02  0.41800000000E+01 0. -1.
         -5    1    3    3    0  502  0.63087268283E+00 -0.11219831514E+03 -0.12304243825E+03  0.16657062745E+03  0.41800000000E+01 0. -1.
        -11    1    1    2    0    0  0.45523562125E+02  0.18628830321E+02 -0.10017168203E+03  0.11159656764E+03  0.00000000000E+00 0. -1.
         11    1    1    2    0    0  0.16934537552E+01  0.77824072709E+02 -0.30877554213E+02  0.83742924673E+02  0.00000000000E+00 0.  1.
</event>
<event>
 7    1  0.2766180E-009  0.1260475E+03  0.7561462E-02  0.1233441E+00
         -2   -1    0    0    0  501 -0.00000000000E+00  0.00000000000E+00  0.89317519758E+03  0.89317519758E+03  0.00000000000E+00 0.  1.
          2   -1    0    0  501    0  0.00000000000E+00 -0.00000000000E+00 -0.18703744192E+02  0.18703744192E+02  0.00000000000E+00 0. -1.
         25    2    1    2    0    0 -0.38001579720E+02  0.48321494070E+02  0.54622077023E+03  0.56372472121E+03  0.12509734058E+03 0.  0.
          5    1    3    3  502    0 -0.33166567933E+02  0.90334006427E+02  0.35467375063E+03  0.36752033376E+03  0.41800000000E+01 0.  1.
         -5    1    3    3    0  502 -0.48350117874E+01 -0.42012512357E+02  0.19154701960E+03  0.19620438744E+03  0.41800000000E+01 0.  1.
        -11    1    1    2    0    0  0.68044056440E+02 -0.17545200794E+02  0.23840126346E+03  0.24854172710E+03  0.00000000000E+00 0. -1.
         11    1    1    2    0    0 -0.30042476720E+02 -0.30776293276E+02  0.89849419701E+02  0.99612493473E+02  0.00000000000E+00 0.  1.
</event>
<event>
 7    1  0.2766180E-009  0.1577712E+03  0.7561462E-02  0.1191236E+00
          2   -1    0    0  501    0  0.00000000000E+00  0.00000000000E+00  0.13375555328E+04  0.13375555328E+04  0.00000000000E+00 0.  1.
         -2   -1    0    0    0  501 -0.00000000000E+00 -0.00000000000E+00 -0.29311634292E+02  0.29311634292E+02  0.00000000000E+00 0. -1.
         25    2    1    2    0    0 -0.13973680913E+03 -0.52256637198E+02  0.94142390642E+03  0.96134481498E+03  0.12509096591E+03 0.  0.
          5    1    3    3  502    0 -0.83603678452E+02 -0.27978948289E+02  0.82555276249E+03  0.83025732918E+03  0.41800000000E+01 0. -1.
         -5    1    3    3    0  502 -0.56133130675E+02 -0.24277688909E+02  0.11587114393E+03  0.13108748581E+03  0.41800000000E+01 0. -1.
        -11    1    1    2    0    0  0.99130419132E+02 -0.84388410410E+00  0.27204542633E+03  0.28954492937E+03  0.00000000000E+00 0.  1.
         11    1    1    2    0    0  0.40606389996E+02  0.53100521302E+02  0.94774565758E+02  0.11597742274E+03  0.00000000000E+00 0. -1.
</event>
<event>
 7    1  0.2766180E-009  0.1690410E+03  0.7561462E-02  0.1178852E+00
         -1   -1    0    0    0  501 -0.00000000000E+00  0.00000000000E+00  0.59856833540E+02  0.59856833540E+02  0.00000000000E+00 0.  1.
          1   -1    0    0  501    0  0.00000000000E+00 -0.00000000000E+00 -0.55518526218E+03  0.55518526218E+03  0.00000000000E+00 0. -1.
         25    2    1    2    0    0 -0.13517219794E+03 -0.54988396380E+02 -0.23466550844E+03  0.30333224614E+03  0.12508918365E+03 0.  0.
          5    1    3    3  502    0 -0.14389359161E+03 -0.70742612398E+02 -0.16054256280E+03  0.22693891201E+03  0.41800000000E+01 0. -1.
         -5    1    3    3    0  502  0.87213936607E+01  0.15754216018E+02 -0.74122945641E+02  0.76393334135E+02  0.41800000000E+01 0. -1.
        -11    1    1    2    0    0  0.11673046099E+03  0.18327424262E+02 -0.23574318776E+03  0.26369820928E+03  0.00000000000E+00 0. -1.
         11    1    1    2    0    0  0.18441736954E+02  0.36660972119E+02 -0.24919732435E+02  0.48011640288E+02  0.00000000000E+00 0.  1.
</event>
<event>
 7    1  0.2766180E-009  0.1688515E+03  0.7561462E-02  0.1179051E+00
          2   -1    0    0  501    0  0.00000000000E+00  0.00000000000E+00  0.13263825236E+03  0.13263825236E+03  0.00000000000E+00 0. -1.
         -2   -1    0    0    0  501 -0.00000000000E+00 -0.00000000000E+00 -0.30015990711E+03  0.30015990711E+03  0.00000000000E+00 0.  1.
         25    2    1    2    0    0  0.17602936337E+02 -0.16507468395E+03 -0.99622980897E+02  0.23049690314E+03  0.12507825305E+03 0.  0.
          5    1    3    3  502    0 -0.89667209435E+01 -0.17311222833E+02 -0.75860859381E+02  0.78437382073E+02  0.41800000000E+01 0. -1.
         -5    1    3    3    0  502  0.26569657280E+02 -0.14776346112E+03 -0.23762121516E+02  0.15205952107E+03  0.41800000000E+01 0. -1.
        -11    1    1    2    0    0 -0.22303995046E+02  0.10653334876E+03 -0.88271677071E+02  0.14013818739E+03  0.00000000000E+00 0.  1.
         11    1    1    2    0    0  0.47010587093E+01  0.58541335195E+02  0.20373003212E+02  0.62163068934E+02  0.00000000000E+00 0. -1.
</event>
<event>
 7    1  0.2766180E-009  0.1089975E+03  0.7561462E-02  0.1262438E+00
         -2   -1    0    0    0  501 -0.00000000000E+00  0.00000000000E+00  0.38903591428E+02  0.38903591428E+02  0.00000000000E+00 0.  1.
          2   -1    0    0  501    0  0.00000000000E+00 -0.00000000000E+00 -0.34446899032E+03  0.34446899032E+03  0.00000000000E+00 0. -1.
         25    2    1    2    0    0  0.30847059338E+02 -0.11999050216E+02 -0.22398934602E+03  0.25867702482E+03  0.12508819994E+03 0.  0.
          5    1    3    3  502    0 -0.47032403285E+02 -0.38534777390E+01 -0.11529793711E+03  0.12465144584E+03  0.41800000000E+01 0. -1.
         -5    1    3    3    0  502  0.77879462623E+02 -0.81455724774E+01 -0.10869140891E+03  0.13402557898E+03  0.41800000000E+01 0. -1.
        -11    1    1    2    0    0 -0.22037566292E+02 -0.36649414038E+02 -0.24898589698E+02  0.49485085090E+02  0.00000000000E+00 0.  1.
         11    1    1    2    0    0 -0.88094930458E+01  0.48648464254E+02 -0.56677463176E+02  0.75210471838E+02  0.00000000000E+00 0. -1.
</event>
<event>
 7    1  0.2766180E-009  0.1098304E+03  0.7561462E-02  0.1260884E+00
         -1   -1    0    0    0  501 -0.00000000000E+00  0.00000000000E+00  0.20071005831E+02  0.20071005831E+02  0.00000000000E+00 0.  1.
          1   -1    0    0  501    0  0.00000000000E+00 -0.00000000000E+00 -0.65051811532E+03  0.65051811532E+03  0.00000000000E+00 0. -1.
         25    2    1    2    0    0 -0.91238458271E+01  0.34392991674E+02 -0.35614865314E+03  0.37914980031E+03  0.12508631221E+03 0.  0.
          5    1    3    3  502    0 -0.57241784492E+02  0.52827083604E+02 -0.22754160533E+03  0.24054100941E+03  0.41800000000E+01 0. -1.
         -5    1    3    3    0  502  0.48117938665E+02 -0.18434091930E+02 -0.12860704782E+03  0.13860879090E+03  0.41800000000E+01 0. -1.
        -11    1    1    2    0    0  0.46123863281E+02 -0.18992143016E+02 -0.20860646302E+03  0.21448722264E+03  0.00000000000E+00 0. -1.
         11    1    1    2    0    0 -0.37000017454E+02 -0.15400848658E+02 -0.65691993328E+02  0.76952098207E+02  0.00000000000E+00 0.  1.
</event>
<event>
 7    1  0.2766180E-009  0.1876682E+03  0.7561462E-02  0.1160581E+00
         -2   -1    0    0    0  501 -0.00000000000E+00  0.00000000000E+00  0.18202424236E+03  0.18202424236E+03  0.00000000000E+00 0.  1.
          2   -1    0    0  501    0  0.00000000000E+00 -0.00000000000E+00 -0.21497670561E+03  0.21497670561E+03  0.00000000000E+00 0. -1.
         25    2    1    2    0    0 -0.14134660583E+03 -0.68973810637E+02  0.32135326435E+02  0.20350582164E+03  0.12508273543E+03 0.  0.
          5    1    3    3  502    0 -0.88999768581E+02  0.18823219358E+02 -0.12445230492E+02  0.91910981697E+02  0.41800000000E+01 0. -1.
         -5    1    3    3    0  502 -0.52346837254E+02 -0.87797029995E+02  0.44580556928E+02  0.11159483994E+03  0.41800000000E+01 0. -1.
        -11    1    1    2    0    0  0.14408906890E+03  0.35520034753E+02 -0.49084664257E+02  0.15630942682E+03  0.00000000000E+00 0.  1.
         11    1    1    2    0    0 -0.27424630691E+01  0.33453775883E+02 -0.16003125427E+02  0.37185699509E+02  0.00000000000E+00 0. -1.
</event>
<event>
 7    1  0.2766180E-009  0.2270769E+03  0.7561462E-02  0.1128714E+00
          2   -1    0    0  501    0  0.00000000000E+00  0.00000000000E+00  0.53882403624E+03  0.53882403624E+03  0.00000000000E+00 0.  1.
         -2   -1    0    0    0  501 -0.00000000000E+00 -0.00000000000E+00 -0.10190670139E+03  0.10190670139E+03  0.00000000000E+00 0. -1.
         25    2    1    2    0    0 -0.18708404949E+03 -0.88641147752E+02  0.20151246126E+03  0.31482082223E+03  0.12508870220E+03 0.  0.
          5    1    3    3  502    0 -0.78773771575E+02 -0.91403905953E+02  0.15591335649E+03  0.19719642046E+03  0.41800000000E+01 0. -1.
         -5    1    3    3    0  502 -0.10831027792E+03  0.27627582009E+01  0.45599104775E+02  0.11762440177E+03  0.41800000000E+01 0. -1.
        -11    1    1    2    0    0  0.13565490190E+03  0.16876582877E+02  0.13343676753E+03  0.19102995155E+03  0.00000000000E+00 0.  1.
         11    1    1    2    0    0  0.51429147595E+02  0.71764564875E+02  0.10196810606E+03  0.13487996385E+03  0.00000000000E+00 0. -1.
</event>
<event>
 7    1  0.2766180E-009  0.9359210E+02  0.7561462E-02  0.1294379E+00
         -1   -1    0    0    0  501 -0.00000000000E+00  0.00000000000E+00  0.26904971922E+02  0.26904971922E+02  0.00000000000E+00 0.  1.
          1   -1    0    0  501    0  0.00000000000E+00 -0.00000000000E+00 -0.10291232669E+04  0.10291232669E+04  0.00000000000E+00 0. -1.
         25    2    1    2    0    0  0.21783272127E+02  0.42177638796E+02 -0.90336155221E+03  0.91321548837E+03  0.12508784928E+03 0.  0.
          5    1    3    3  502    0 -0.25419303153E+02  0.24191000307E+02 -0.76577000263E+03  0.76658496907E+03  0.41800000000E+01 0.  1.
         -5    1    3    3    0  502  0.47202575281E+02  0.17986638489E+02 -0.13759154958E+03  0.14663051931E+03  0.41800000000E+01 0.  1.
        -11    1    1    2    0    0  0.34608570522E+02 -0.23178074724E+02 -0.54492543202E+02  0.68588727690E+02  0.00000000000E+00 0. -1.
         11    1    1    2    0    0 -0.56391842650E+02 -0.18999564072E+02 -0.44364199589E+02  0.74224022779E+02  0.00000000000E+00 0.  1.
</event>
<event>
 7    1  0.2766180E-009  0.9373537E+02  0.7561462E-02  0.1294050E+00
         -3   -1    0    0    0  501 -0.00000000000E+00  0.00000000000E+00  0.55809085762E+03  0.55809085762E+03  0.00000000000E+00 0.  1.
          3   -1    0    0  501    0  0.00000000000E+00 -0.00000000000E+00 -0.34024245225E+02  0.34024245225E+02  0.00000000000E+00 0. -1.
         25    2    1    2    0    0  0.29667756867E+02 -0.25974990919E+02  0.43942416404E+03  0.45858111155E+03  0.12509262157E+03 0.  0.
          5    1    3    3  502    0  0.64759877382E+02  0.24440155542E+02  0.24678420016E+03  0.25634171875E+03  0.41800000000E+01 0.  1.
         -5    1    3    3    0  502 -0.35092120515E+02 -0.50415146460E+02  0.19263996389E+03  0.20223939280E+03  0.41800000000E+01 0. -1.
        -11    1    1    2    0    0 -0.11702444548E+02  0.34675665180E+02 -0.90822169987E+01  0.37707235774E+02  0.00000000000E+00 0. -1.
         11    1    1    2    0    0 -0.17965312318E+02 -0.87006742615E+01  0.93724665355E+02  0.95826755529E+02  0.00000000000E+00 0.  1.
</event>
<event>
 7    1  0.2766180E-009  0.2203439E+03  0.7561462E-02  0.1133627E+00
         -1   -1    0    0    0  501 -0.00000000000E+00  0.00000000000E+00  0.92039661087E+02  0.92039661087E+02  0.00000000000E+00 0.  1.
          1   -1    0    0  501    0  0.00000000000E+00 -0.00000000000E+00 -0.56922643785E+03  0.56922643785E+03  0.00000000000E+00 0. -1.
         25    2    1    2    0    0 -0.22760122026E+02  0.19802381136E+03 -0.20349847934E+03  0.31111205176E+03  0.12509046580E+03 0.  0.
          5    1    3    3  502    0 -0.59544125671E+02  0.18317787680E+03 -0.18516531104E+03  0.26721396345E+03  0.41800000000E+01 0.  1.
         -5    1    3    3    0  502  0.36784003645E+02  0.14845934565E+02 -0.18333168305E+02  0.43898088311E+02  0.41800000000E+01 0.  1.
        -11    1    1    2    0    0  0.41123570097E+02 -0.95347716143E+02 -0.83520539561E+02  0.13325920426E+03  0.00000000000E+00 0.  1.
         11    1    1    2    0    0 -0.18363448071E+02 -0.10267609522E+03 -0.19016775786E+03  0.21689484292E+03  0.00000000000E+00 0. -1.
</event>
<event>
 7    1  0.2766180E-009  0.1084738E+03  0.7561462E-02  0.1263422E+00
          2   -1    0    0  501    0  0.00000000000E+00  0.00000000000E+00  0.69537111021E+03  0.69537111021E+03  0.00000000000E+00 0. -1.
         -2   -1    0    0    0  501 -0.00000000000E+00 -0.00000000000E+00 -0.17251248205E+02  0.17251248205E+02  0.00000000000E+00 0.  1.
         25    2    1    2    0    0 -0.71494103619E+00 -0.20802129055E+02  0.40968010855E+03  0.42885745849E+03  0.12509072164E+03 0.  0.
          5    1    3    3  502    0  0.23648859301E+02  0.47023605090E+02  0.13820248200E+03  0.14794555219E+03  0.41800000000E+01 0. -1.
         -5    1    3    3    0  502 -0.24363800337E+02 -0.67825734145E+02  0.27147762656E+03  0.28091190630E+03  0.41800000000E+01 0. -1.
        -11    1    1    2    0    0 -0.16936618937E+02  0.52779739294E+02  0.15791019405E+03  0.16735644393E+03  0.00000000000E+00 0.  1.
         11    1    1    2    0    0  0.17651559973E+02 -0.31977610240E+02  0.11052955940E+03  0.11640845599E+03  0.00000000000E+00 0. -1.
</event>
<event>
 7    1  0.2766180E-009  0.2012034E+03  0.7561462E-02  0.1148728E+00
          2   -1    0    0  501    0  0.00000000000E+00  0.00000000000E+00  0.50583851088E+03  0.50583851088E+03  0.00000000000E+00 0. -1.
         -2   -1    0    0    0  501 -0.00000000000E+00 -0.00000000000E+00 -0.10115649216E+03  0.10115649216E+03  0.00000000000E+00 0.  1.
         25    2    1    2    0    0  0.18583936854E+03 -0.71150176525E+01  0.11924706385E+03  0.25387893319E+03  0.12509099131E+03 0.  0.
          5    1    3    3  502    0  0.43187683553E+02 -0.30917364222E+02  0.92495365825E+02  0.10674232769E+03  0.41800000000E+01 0.  1.
         -5    1    3    3    0  502  0.14265168499E+03  0.23802346570E+02  0.26751698021E+02  0.14713660551E+03  0.41800000000E+01 0.  1.
        -11    1    1    2    0    0 -0.12596649206E+03  0.44803787567E+02  0.21572061669E+03  0.25379188515E+03  0.00000000000E+00 0.  1.
         11    1    1    2    0    0 -0.59872876483E+02 -0.37688769914E+02  0.69714338195E+02  0.99324184698E+02  0.00000000000E+00 0. -1.
</event>
<event>
 7    1  0.2766180E-009  0.6996148E+02  0.7561462E-02  0.1360224E+00
          2   -1    0    0  501    0  0.00000000000E+00  0.00000000000E+00  0.38260992698E+03  0.38260992698E+03  0.00000000000E+00 0. -1.
         -2   -1    0    0    0  501 -0.00000000000E+00 -0.00000000000E+00 -0.60625926342E+02  0.60625926342E+02  0.00000000000E+00 0.  1.
         25    2    1    2    0    0  0.14903822082E+02  0.51526294215E+01  0.20354478443E+02  0.12775345781E+03  0.12513180127E+03 0.  0.
          5    1    3    3  502    0  0.32414715630E+02  0.11524138287E+02  0.68055824024E+02  0.76371376420E+02  0.41800000000E+01 0.  1.
         -5    1    3    3    0  502 -0.17510893548E+02 -0.63715088652E+01 -0.47701345581E+02  0.51382081394E+02  0.41800000000E+01 0.  1.
        -11    1    1    2    0    0 -0.12453093456E+02 -0.44773933464E+02  0.10408750201E+03  0.11399119584E+03  0.00000000000E+00 0.  1.
         11    1    1    2    0    0 -0.24507286260E+01  0.39621304042E+02  0.19754202019E+03  0.20149119967E+03  0.00000000000E+00 0. -1.
</event>
<event>
 7    1  0.2766180E-009  0.8090900E+02  0.7561462E-02  0.1326491E+00
         -2   -1    0    0    0  501 -0.00000000000E+00  0.00000000000E+00  0.86895912780E+02  0.86895912780E+02  0.00000000000E+00 0.  1.
          2   -1    0    0  501    0  0.00000000000E+00 -0.00000000000E+00 -0.14828537158E+03  0.14828537158E+03  0.00000000000E+00 0. -1.
         25    2    1    2    0    0  0.27637886403E+02  0.12135078486E+02 -0.64443887747E+02  0.14386564670E+03  0.12503278265E+03 0.  0.
          5    1    3    3  502    0 -0.42261877074E+02  0.26008174513E+02 -0.50894609122E+02  0.71205512659E+02  0.41800000000E+01 0.  1.
         -5    1    3    3    0  502  0.69899763477E+02 -0.13873096027E+02 -0.13549278625E+02  0.72660134040E+02  0.41800000000E+01 0.  1.
        -11    1    1    2    0    0 -0.29549559618E+02 -0.12442167436E+01  0.41697624182E+02  0.51121584594E+02  0.00000000000E+00 0.  1.
         11    1    1    2    0    0  0.19116732155E+01 -0.10890861743E+02 -0.38643195236E+02  0.40194053068E+02  0.00000000000E+00 0. -1.
</event>
<event>
 7    1  0.2766180E-009  0.1047975E+03  0.7561462E-02  0.1270519E+00
          1   -1    0    0  501    0  0.00000000000E+00  0.00000000000E+00  0.21808224191E+02  0.21808224191E+02  0.00000000000E+00 0. -1.
         -1   -1    0    0    0  501 -0.00000000000E+00 -0.00000000000E+00 -0.55745783743E+03  0.55745783743E+03  0.00000000000E+00 0.  1.
         25    2    1    2    0    0  0.18356039000E+02 -0.89026589996E+01 -0.29570907973E+03  0.32172610290E+03  0.12509046308E+03 0.  0.
          5    1    3    3  502    0  0.58255739286E+02  0.33062690293E+02 -0.18348518262E+03  0.19537440285E+03  0.41800000000E+01 0. -1.
         -5    1    3    3    0  502 -0.39899700286E+02 -0.41965349292E+02 -0.11222389711E+03  0.12635170005E+03  0.41800000000E+01 0. -1.
        -11    1    1    2    0    0 -0.28026466255E+02 -0.31916459844E+02 -0.17610391043E+03  0.18115388621E+03  0.00000000000E+00 0.  1.
         11    1    1    2    0    0  0.96704272548E+01  0.40819118843E+02 -0.63836623077E+02  0.76386072502E+02  0.00000000000E+00 0. -1.
</event>
<event>
 7    1  0.2766180E-009  0.1141610E+03  0.7561462E-02  0.1253053E+00
          4   -1    0    0  501    0  0.00000000000E+00  0.00000000000E+00  0.36349914824E+03  0.36349914824E+03  0.00000000000E+00 0. -1.
         -4   -1    0    0    0  501 -0.00000000000E+00 -0.00000000000E+00 -0.42382685156E+02  0.42382685156E+02  0.00000000000E+00 0.  1.
         25    2    1    2    0    0  0.49906921625E+02  0.17831047844E+02  0.12909782224E+03  0.18740988270E+03  0.12509024476E+03 0.  0.
          5    1    3    3  502    0  0.31659805746E+02  0.71829152265E+02  0.71284444316E+02  0.10611651529E+03  0.41800000000E+01 0. -1.
         -5    1    3    3    0  502  0.18247115879E+02 -0.53998104421E+02  0.57813377925E+02  0.81293367417E+02  0.41800000000E+01 0. -1.
        -11    1    1    2    0    0 -0.48952209020E+02  0.21324815554E+02  0.15735791722E+03  0.16617033621E+03  0.00000000000E+00 0. -1.
         11    1    1    2    0    0 -0.95471260480E+00 -0.39155863398E+02  0.34660723620E+02  0.52301614473E+02  0.00000000000E+00 0.  1.
</event>
<event>
 7    1  0.2766180E-009  0.1011724E+03  0.7561462E-02  0.1277850E+00
          4   -1    0    0  501    0  0.00000000000E+00  0.00000000000E+00  0.78247343248E+02  0.78247343248E+02  0.00000000000E+00 0. -1.
         -4   -1    0    0    0  501 -0.00000000000E+00 -0.00000000000E+00 -0.17014342707E+03  0.17014342707E+03  0.00000000000E+00 0.  1.
         25    2    1    2    0    0 -0.42679390032E+01 -0.28262304778E+02 -0.49914598255E+02  0.13767757491E+03  0.12508666731E+03 0.  0.
          5    1    3    3  502    0 -0.25306599933E+02  0.34162264421E+02  0.14827578332E+02  0.45219617311E+02  0.41800000000E+01 0. -1.
         -5    1    3    3    0  502  0.21038660930E+02 -0.62424569199E+02 -0.64742176587E+02  0.92457957595E+02  0.41800000000E+01 0. -1.
        -11    1    1    2    0    0 -0.46172607537E+01 -0.32188496882E+02 -0.37225180040E+02  0.49428053344E+02  0.00000000000E+00 0.  1.
         11    1    1    2    0    0  0.88851997569E+01  0.60450801659E+02 -0.47563055262E+01  0.61285142067E+02  0.00000000000E+00 0. -1.
</event>
<event>
 7    1  0.2766180E-009  0.1749287E+03  0.7561462E-02  0.1172803E+00
          1   -1    0    0  501    0  0.00000000000E+00  0.00000000000E+00  0.60408582320E+02  0.60408582320E+02  0.00000000000E+00 0.  1.
         -1   -1    0    0    0  501 -0.00000000000E+00 -0.00000000000E+00 -0.64187820266E+03  0.64187820266E+03  0.00000000000E+00 0. -1.
         25    2    1    2    0    0  0.10384562367E+03  0.11216513021E+03 -0.40167375937E+03  0.44760907763E+03  0.12508855828E+03 0.  0.
          5    1    3    3  502    0  0.34995231941E+02 -0.24943924592E+02 -0.10641558810E+03  0.11484169723E+03  0.41800000000E+01 0.  1.
         -5    1    3    3    0  502  0.68850391734E+02  0.13710905480E+03 -0.29525817128E+03  0.33276738040E+03  0.41800000000E+01 0.  1.
        -11    1    1    2    0    0 -0.67831927844E+02 -0.65954571973E+02 -0.39286080602E+02  0.10244301893E+03  0.00000000000E+00 0.  1.
         11    1    1    2    0    0 -0.36013695831E+02 -0.46210558238E+02 -0.14050978036E+03  0.15223468842E+03  0.00000000000E+00 0. -1.
</event>
<event>
 7    1  0.2766180E-009  0.2250096E+03  0.7561462E-02  0.1130202E+00
          1   -1    0    0  501    0  0.00000000000E+00  0.00000000000E+00  0.78778149161E+03  0.78778149161E+03  0.00000000000E+00 0. -1.
         -1   -1    0    0    0  501 -0.00000000000E+00 -0.00000000000E+00 -0.79137260402E+02  0.79137260402E+02  0.00000000000E+00 0.  1.
         25    2    1    2    0    0 -0.18215773122E+03  0.10602645345E+03  0.50230310719E+03  0.55890859071E+03  0.12508938166E+03 0.  0.
          5    1    3    3  502    0 -0.19470178049E+03  0.81710776782E+02  0.47589895112E+03  0.52065604620E+03  0.41800000000E+01 0. -1.
         -5    1    3    3    0  502  0.12544049269E+02  0.24315676665E+02  0.26404156070E+02  0.38252544510E+02  0.41800000000E+01 0. -1.
        -11    1    1    2    0    0  0.82311440224E+02 -0.55214560527E+02  0.15683157241E+03  0.18552617872E+03  0.00000000000E+00 0. -1.
         11    1    1    2    0    0  0.99846291000E+02 -0.50811892920E+02  0.49509551609E+02  0.12248398258E+03  0.00000000000E+00 0.  1.
</event>
<event>
 7    1  0.2766180E-009  0.7482387E+02  0.7561462E-02  0.1344417E+00
         -1   -1    0    0    0  501 -0.00000000000E+00  0.00000000000E+00  0.11853818460E+04  0.11853818460E+04  0.00000000000E+00 0.  1.
          1   -1    0    0  501    0  0.00000000000E+00 -0.00000000000E+00 -0.19629151403E+02  0.19629151403E+02  0.00000000000E+00 0. -1.
         25    2    1    2    0    0 -0.41069347187E+02  0.37756803163E+02  0.99105436258E+03  0.10004739431E+04  0.12508834387E+03 0.  0.
          5    1    3    3  502    0 -0.17061034747E+02  0.16630658403E+02  0.28509035077E+02  0.37388436535E+02  0.41800000000E+01 0. -1.
         -5    1    3    3    0  502 -0.24008312440E+02  0.21126144760E+02  0.96254532750E+03  0.96308550657E+03  0.41800000000E+01 0. -1.
        -11    1    1    2    0    0  0.59404425711E+02 -0.43904513309E+02  0.16890239026E+03  0.18434887989E+03  0.00000000000E+00 0.  1.
         11    1    1    2    0    0 -0.18335078524E+02  0.61477101462E+01  0.57959417392E+01  0.20188174389E+02  0.00000000000E+00 0. -1.
</event>
<event>
 7    1  0.2766180E-009  0.1018292E+03  0.7561462E-02  0.1276496E+00
         -1   -1    0    0    0  501 -0.00000000000E+00  0.00000000000E+00  0.22224033129E+02  0.22224033129E+02  0.00000000000E+00 0.  1.
          1   -1    0    0  501    0  0.00000000000E+00 -0.00000000000E+00 -0.65793685464E+03  0.65793685464E+03  0.00000000000E+00 0. -1.
         25    2    1    2    0    0  0.31156820567E+02  0.10107899073E+02 -0.43949860821E+03  0.45812584995E+03  0.12508937080E+03 0.  0.
          5    1    3    3  502    0 -0.80427533610E+01  0.52681549248E+02 -0.97063591724E+02  0.11080994879E+03  0.41800000000E+01 0. -1.
         -5    1    3    3    0  502  0.39199573928E+02 -0.42573650175E+02 -0.34243501648E+03  0.34731590116E+03  0.41800000000E+01 0. -1.
        -11    1    1    2    0    0 -0.48299203366E+02  0.24054876326E+02 -0.60615662696E+02  0.81152379416E+02  0.00000000000E+00 0.  1.
         11    1    1    2    0    0  0.17142382798E+02 -0.34162775399E+02 -0.13559855061E+03  0.14088265840E+03  0.00000000000E+00 0. -1.
</event>
<event>
 7    1  0.2766180E-009  0.2333597E+03  0.7561462E-02  0.1124297E+00
          1   -1    0    0  501    0  0.00000000000E+00  0.00000000000E+00  0.28861227286E+03  0.28861227286E+03  0.00000000000E+00 0. -1.
         -1   -1    0    0    0  501 -0.00000000000E+00 -0.00000000000E+00 -0.23788774203E+03  0.23788774203E+03  0.00000000000E+00 0.  1.
         25    2    1    2    0    0  0.14230691108E+03  0.17144202784E+03  0.10880447446E+03  0.27772231612E+03  0.12509054864E+03 0.  0.
          5    1    3    3  502    0  0.13006944824E+03  0.13526022936E+03  0.13501201516E+03  0.23121225670E+03  0.41800000000E+01 0. -1.
         -5    1    3    3    0  502  0.12237462843E+02  0.36181798483E+02 -0.26207540698E+02  0.46510059426E+02  0.41800000000E+01 0. -1.
        -11    1    1    2    0    0  0.55296149033E+01 -0.47096527003E+02 -0.21937273201E+02  0.52248477990E+02  0.00000000000E+00 0. -1.
         11    1    1    2    0    0 -0.14783652599E+03 -0.12434550084E+03 -0.36142670424E+02  0.19652922078E+03  0.00000000000E+00 0.  1.
</event>
<event>
 7    1  0.2766180E-009  0.9682647E+02  0.7561462E-02  0.1287115E+00
          1   -1    0    0  501    0  0.00000000000E+00  0.00000000000E+00  0.65390792109E+03  0.65390792109E+03  0.00000000000E+00 0. -1.
         -1   -1    0    0    0  501 -0.00000000000E+00 -0.00000000000E+00 -0.18669605491E+02  0.18669605491E+02  0.00000000000E+00 0.  1.
         25    2    1    2    0    0  0.25110990456E+02 -0.17879402070E+02  0.43556594061E+03  0.45421731367E+03  0.12508175149E+03 0.  0.
          5    1    3    3  502    0 -0.31447715610E+02 -0.40557604476E+02  0.93497977775E+02  0.10673903853E+03  0.41800000000E+01 0.  1.
         -5    1    3    3    0  502  0.56558706066E+02  0.22678202407E+02  0.34206796284E+03  0.34747827514E+03  0.41800000000E+01 0.  1.
        -11    1    1    2    0    0 -0.49009645022E+02  0.26452470976E+02  0.90411669488E+02  0.10618826915E+03  0.00000000000E+00 0.  1.
         11    1    1    2    0    0  0.23898654567E+02 -0.85730689067E+01  0.10926070550E+03  0.11217194376E+03  0.00000000000E+00 0. -1.
</event>
<event>
 7    1  0.2766180E-009  0.1079974E+03  0.7561462E-02  0.1264324E+00
         -1   -1    0    0    0  501 -0.00000000000E+00  0.00000000000E+00  0.63444481445E+03  0.63444481445E+03  0.00000000000E+00 0.  1.
          1   -1    0    0  501    0  0.00000000000E+00 -0.00000000000E+00 -0.22804064579E+02  0.22804064579E+02  0.00000000000E+00 0. -1.
         25    2    1    2    0    0  0.18278589743E+02  0.41741153342E+02  0.38692184643E+03  0.40918605616E+03  0.12509309568E+03 0.  0.
          5    1    3    3  502    0 -0.52482361362E+02  0.40948226301E+01  0.14730255060E+03  0.15648220231E+03  0.41800000000E+01 0. -1.
         -5    1    3    3    0  502  0.70760951105E+02  0.37646330712E+02  0.23961929583E+03  0.25270385385E+03  0.41800000000E+01 0. -1.
        -11    1    1    2    0    0 -0.41935797930E+02 -0.96057010328E+01  0.38878038572E+02  0.57986054561E+02  0.00000000000E+00 0. -1.
         11    1    1    2    0    0  0.23657208187E+02 -0.32135452309E+02  0.18584086486E+03  0.19007676830E+03  0.00000000000E+00 0.  1.
</event>
<event>
 7    1  0.2766180E-009  0.1063539E+03  0.7561462E-02  0.1267475E+00
          1   -1    0    0  501    0  0.00000000000E+00  0.00000000000E+00  0.20196237551E+03  0.20196237551E+03  0.00000000000E+00 0. -1.
         -1   -1    0    0    0  501 -0.00000000000E+00 -0.00000000000E+00 -0.63548452874E+02  0.63548452874E+02  0.00000000000E+00 0.  1.
         25    2    1    2    0    0  0.96550113907E+01 -0.26778201499E+02  0.52621997429E+02  0.13866172228E+03  0.12509079620E+03 0.  0.
          5    1    3    3  502    0 -0.14961555138E+02  0.47188797210E+02  0.14310509364E+02  0.51700036678E+02  0.41800000000E+01 0.  1.
         -5    1    3    3    0  502  0.24616566529E+02 -0.73966998709E+02  0.38311488064E+02  0.86961685605E+02  0.41800000000E+01 0.  1.
        -11    1    1    2    0    0  0.22856834939E+02 -0.18370053953E+02  0.57240400764E+02  0.64314518309E+02  0.00000000000E+00 0. -1.
         11    1    1    2    0    0 -0.32511846330E+02  0.45148255452E+02  0.28551524442E+02  0.62534587790E+02  0.00000000000E+00 0.  1.
</event>
<event>
 7    1  0.2766180E-009  0.1750071E+03  0.7561462E-02  0.1172725E+00
          1   -1    0    0  501    0  0.00000000000E+00  0.00000000000E+00  0.72220294341E+03  0.72220294341E+03  0.00000000000E+00 0. -1.
         -1   -1    0    0    0  501 -0.00000000000E+00 -0.00000000000E+00 -0.56897317517E+02  0.56897317517E+02  0.00000000000E+00 0.  1.
         25    2    1    2    0    0 -0.17347595519E+02 -0.16272242560E+03  0.46793379367E+03  0.51126594352E+03  0.12510516727E+03 0.  0.
          5    1    3    3  502    0 -0.32562396436E+02 -0.12214539755E+03  0.17961693337E+03  0.21968050199E+03  0.41800000000E+01 0.  1.
         -5    1    3    3    0  502  0.15214800917E+02 -0.40577028049E+02  0.28831686031E+03  0.29158544153E+03  0.41800000000E+01 0.  1.
        -11    1    1    2    0    0  0.36275621483E+02  0.33442879910E+02  0.41725451184E+02  0.64617027223E+02  0.00000000000E+00 0.  1.
         11    1    1    2    0    0 -0.18928025964E+02  0.12927954569E+03  0.15564638103E+03  0.20321729018E+03  0.00000000000E+00 0. -1.
</event>
<event>
 6    1  0.2766180E-009  0.1029812E+03  0.7561462E-02  0.1274149E+00
          2   -1    0    0  501    0  0.00000000000E+00  0.00000000000E+00  0.40727700150E+03  0.40727700150E+03  0.00000000000E+00 0.  1.
         -2   -1    0    0    0  501 -0.00000000000E+00 -0.00000000000E+00 -0.44317153887E+02  0.44317153887E+02  0.00000000000E+00 0. -1.
          5    1    1    2  502    0 -0.60073814765E+01 -0.16005416001E+02 -0.11467678514E+02  0.21005761688E+02  0.41800000000E+01 0. -1.
         -5    1    1    2    0  502 -0.60843107008E+02  0.56374483223E+02  0.21576475949E+03  0.23119660436E+03  0.41800000000E+01 0. -1.
        -11    1    1    2    0    0  0.81708358469E+02 -0.29371398610E+02  0.15870795735E+03  0.18090646928E+03  0.00000000000E+00 0.  1.
         11    1    1    2    0    0 -0.14857869984E+02 -0.10997668611E+02 -0.45190722244E-01  0.18485320055E+02  0.00000000000E+00 0. -1.
</event>
<event>
 7    1  0.2766180E-009  0.2756878E+03  0.7561462E-02  0.1098068E+00
          2   -1    0    0  501    0  0.00000000000E+00  0.00000000000E+00  0.12775115335E+03  0.12775115335E+03  0.00000000000E+00 0. -1.
         -2   -1    0    0    0  501 -0.00000000000E+00 -0.00000000000E+00 -0.10854071628E+04  0.10854071628E+04  0.00000000000E+00 0.  1.
         25    2    1    2    0    0  0.18202939048E+03 -0.20103109058E+03 -0.10978077274E+03  0.31819440410E+03  0.12509061659E+03 0.  0.
          5    1    3    3  502    0  0.10168840545E+02 -0.39377015025E+02  0.23523389339E+02  0.47167540494E+02  0.41800000000E+01 0. -1.
         -5    1    3    3    0  502  0.17186054994E+03 -0.16165407556E+03 -0.13330416208E+03  0.27102686360E+03  0.41800000000E+01 0. -1.
        -11    1    1    2    0    0 -0.41554875057E+02  0.75228767466E+02 -0.39786151202E+03  0.40703802997E+03  0.00000000000E+00 0.  1.
         11    1    1    2    0    0 -0.14047451543E+03  0.12580232311E+03 -0.45001372470E+03  0.48792588208E+03  0.00000000000E+00 0. -1.
</event>
<event>
 7    1  0.2766180E-009  0.1298705E+03  0.7561462E-02  0.1227648E+00
          1   -1    0    0  501    0  0.00000000000E+00  0.00000000000E+00  0.32706240345E+03  0.32706240345E+03  0.00000000000E+00 0. -1.
         -1   -1    0    0    0  501 -0.00000000000E+00 -0.00000000000E+00 -0.65442964959E+02  0.65442964959E+02  0.00000000000E+00 0.  1.
         25    2    1    2    0    0  0.95864824807E+02  0.18137806139E+02  0.14238711396E+03  0.21316663143E+03  0.12508748093E+03 0.  0.
          5    1    3    3  502    0  0.94688553994E+02 -0.22900501866E+02  0.44988367546E+02  0.10738612973E+03  0.41800000000E+01 0. -1.
         -5    1    3    3    0  502  0.11762708131E+01  0.41038308005E+02  0.97398746416E+02  0.10578050170E+03  0.41800000000E+01 0. -1.
        -11    1    1    2    0    0  0.17421793486E+01 -0.23163761449E+02 -0.23446751983E+01  0.23347216860E+02  0.00000000000E+00 0.  1.
         11    1    1    2    0    0 -0.97607004156E+02  0.50259553094E+01  0.12157699973E+03  0.15599152012E+03  0.00000000000E+00 0. -1.
</event>
<event>
 7    1  0.2766180E-009  0.1148483E+03  0.7561462E-02  0.1251846E+00
          2   -1    0    0  501    0  0.00000000000E+00  0.00000000000E+00  0.60652494403E+03  0.60652494403E+03  0.00000000000E+00 0.  1.
         -2   -1    0    0    0  501 -0.00000000000E+00 -0.00000000000E+00 -0.35023840661E+02  0.35023840661E+02  0.00000000000E+00 0. -1.
         25    2    1    2    0    0  0.32966779113E+02  0.71769656864E+02  0.43844541597E+03  0.46273044497E+03  0.12508952693E+03 0.  0.
          5    1    3    3  502    0  0.66557923618E+02  0.27810870992E+02  0.12473474057E+03  0.14415141222E+03  0.41800000000E+01 0. -1.
         -5    1    3    3    0  502 -0.33591144505E+02  0.43958785872E+02  0.31371067540E+03  0.31857903275E+03  0.41800000000E+01 0. -1.
        -11    1    1    2    0    0  0.14725621345E+02  0.12128478974E+01  0.69177038646E+02  0.70737384740E+02  0.00000000000E+00 0.  1.
         11    1    1    2    0    0 -0.47692400457E+02 -0.72982504762E+02  0.63878648751E+02  0.10808095498E+03  0.00000000000E+00 0. -1.
</event>
<event>
 7    1  0.2766180E-009  0.1553560E+03  0.7561462E-02  0.1194042E+00
         -1   -1    0    0    0  501 -0.00000000000E+00  0.00000000000E+00  0.11155476630E+03  0.11155476630E+03  0.00000000000E+00 0.  1.
          1   -1    0    0  501    0  0.00000000000E+00 -0.00000000000E+00 -0.28797871605E+03  0.28797871605E+03  0.00000000000E+00 0. -1.
         25    2    1    2    0    0  0.92712821295E+02  0.97593221151E+02 -0.36891166563E+02  0.18742593839E+03  0.12508964851E+03 0.  0.
          5    1    3    3  502    0  0.44690061888E+01  0.78317825601E+02 -0.54098239029E+02  0.95382103611E+02  0.41800000000E+01 0.  1.
         -5    1    3    3    0  502  0.88243815106E+02  0.19275395550E+02  0.17207072465E+02  0.92043834779E+02  0.41800000000E+01 0.  1.
        -11    1    1    2    0    0 -0.26227893361E+02 -0.59703794057E+02 -0.16578991130E+02  0.67285275966E+02  0.00000000000E+00 0.  1.
         11    1    1    2    0    0 -0.66484927934E+02 -0.37889427094E+02 -0.12295379205E+03  0.14482226799E+03  0.00000000000E+00 0. -1.
</event>
<event>
 7    1  0.3210934E-009  0.9045065E+02  0.7561462E-02  0.1301764E+00
          1   -1    0    0  501    0  0.00000000000E+00  0.00000000000E+00  0.52687034211E+03  0.52687034211E+03  0.00000000000E+00 0. -1.
         -1   -1    0    0    0  501 -0.00000000000E+00 -0.00000000000E+00 -0.28491545490E+02  0.28491545490E+02  0.00000000000E+00 0.  1.
         25    2    1    2    0    0  0.14142967023E+02 -0.55341196889E+02  0.27923352856E+03  0.31125758912E+03  0.12508897522E+03 0.  0.
          5    1    3    3  502    0 -0.33183240348E+02 -0.56442236833E+02  0.24242750588E+03  0.25114820633E+03  0.41800000000E+01 0.  1.
         -5    1    3    3    0  502  0.47326207371E+02  0.11010399444E+01  0.36806022685E+02  0.60109382786E+02  0.41800000000E+01 0.  1.
        -11    1    1    2    0    0 -0.99186864904E+01 -0.21297414870E+01 -0.59424461250E+01  0.11757074740E+02  0.00000000000E+00 0.  1.
         11    1    1    2    0    0 -0.42242805325E+01  0.57470938376E+02  0.22508771418E+03  0.23234722374E+03  0.00000000000E+00 0. -1.
</event>
<event>
 7    1  0.2766180E-009  0.7652922E+02  0.7561462E-02  0.1339200E+00
         -2   -1    0    0    0  501 -0.00000000000E+00  0.00000000000E+00  0.75668333666E+02  0.75668333666E+02  0.00000000000E+00 0.  1.
          2   -1    0    0  501    0  0.00000000000E+00 -0.00000000000E+00 -0.15755987810E+03  0.15755987810E+03  0.00000000000E+00 0. -1.
         25    2    1    2    0    0 -0.11816787441E+02  0.91331154776E+01 -0.48105820365E+02  0.13484655005E+03  0.12508545816E+03 0.  0.
          5    1    3    3  502    0  0.35084340206E+02  0.75478642620E+01 -0.73079750498E+02  0.81523024450E+02  0.41800000000E+01 0. -1.
         -5    1    3    3    0  502 -0.46901127647E+02  0.15852512156E+01  0.24973930133E+02  0.53323525598E+02  0.41800000000E+01 0. -1.
        -11    1    1    2    0    0  0.35060377446E+02  0.13312768443E+02 -0.49781388940E+02  0.62326932822E+02  0.00000000000E+00 0. -1.
         11    1    1    2    0    0 -0.23243590006E+02 -0.22445883920E+02  0.15995664869E+02  0.36054728898E+02  0.00000000000E+00 0.  1.
</event>
<event>
 7    1  0.2766180E-009  0.1373286E+03  0.7561462E-02  0.1216969E+00
         -2   -1    0    0    0  501 -0.00000000000E+00  0.00000000000E+00  0.23949678963E+02  0.23949678963E+02  0.00000000000E+00 0. -1.
          2   -1    0    0  501    0  0.00000000000E+00 -0.00000000000E+00 -0.88255572765E+03  0.88255572765E+03  0.00000000000E+00 0.  1.
         25    2    1    2    0    0 -0.95193028767E+02 -0.87022455558E+01 -0.50400644078E+03  0.52802215153E+03  0.12508980115E+03 0.  0.
          5    1    3    3  502    0 -0.36761552919E+02 -0.59650354838E+02 -0.15012123295E+03  0.16572095096E+03  0.41800000000E+01 0.  1.
         -5    1    3    3    0  502 -0.58431475848E+02  0.50948109282E+02 -0.35388520783E+03  0.36230120056E+03  0.41800000000E+01 0.  1.
        -11    1    1    2    0    0 -0.10959285391E+02  0.17136134271E+02 -0.10761845438E+03  0.10952390039E+03  0.00000000000E+00 0.  1.
         11    1    1    2    0    0  0.10615231416E+03 -0.84338887150E+01 -0.24698115353E+03  0.26895935470E+03  0.00000000000E+00 0. -1.
</event>
<event>
 7    1  0.2766180E-009  0.1222814E+03  0.7561462E-02  0.1239380E+00
          2   -1    0    0  501    0  0.00000000000E+00  0.00000000000E+00  0.23702771765E+03  0.23702771765E+03  0.00000000000E+00 0. -1.
         -2   -1    0    0    0  501 -0.00000000000E+00 -0.00000000000E+00 -0.85368666214E+02  0.85368666214E+02  0.00000000000E+00 0.  1.
         25    2    1    2    0    0 -0.61710934354E+02 -0.67905286802E+02  0.10772367476E+03  0.18886695346E+03  0.12508784358E+03 0.  0.
          5    1    3    3  502    0  0.30152994782E+02 -0.50593321018E+02  0.25562113268E+02  0.64341131951E+02  0.41800000000E+01 0.  1.
         -5    1    3    3    0  502 -0.91863929135E+02 -0.17311965784E+02  0.82161561487E+02  0.12452582150E+03  0.41800000000E+01 0.  1.
        -11    1    1    2    0    0  0.32720364199E+02  0.40313428754E+02  0.68965271653E+02  0.86324987491E+02  0.00000000000E+00 0. -1.
         11    1    1    2    0    0  0.28990570154E+02  0.27591858048E+02 -0.25029894974E+02  0.47204442914E+02  0.00000000000E+00 0.  1.
</event>
<event>
 7    1  0.2766180E-009  0.7808927E+02  0.7561462E-02  0.1334563E+00
          1   -1    0    0  501    0  0.00000000000E+00  0.00000000000E+00  0.28296297863E+02  0.28296297863E+02  0.00000000000E+00 0. -1.
         -1   -1    0    0    0  501 -0.00000000000E+00 -0.00000000000E+00 -0.49887070765E+03  0.49887070765E+03  0.00000000000E+00 0.  1.
         25    2    1    2    0    0 -0.17500232456E+02  0.39163110556E+02 -0.21065750036E+03  0.24872549973E+03  0.12509110438E+03 0.  0.
          5    1    3    3  502    0 -0.19979508923E+02  0.39481733605E+01  0.11488291486E+02  0.23753359572E+02  0.41800000000E+01 0.  1.
         -5    1    3    3    0  502  0.24792764668E+01  0.35214937195E+02 -0.22214579185E+03  0.22497214016E+03  0.41800000000E+01 0.  1.
        -11    1    1    2    0    0  0.14620695116E+02  0.28544258714E+02 -0.80614567895E+02  0.86759714085E+02  0.00000000000E+00 0.  1.
         11    1    1    2    0    0  0.28795373406E+01 -0.67707369270E+02 -0.17930234153E+03  0.19168179170E+03  0.00000000000E+00 0. -1.
</event>
<event>
 7    1  0.2766180E-009  0.1291740E+03  0.7561462E-02  0.1228687E+00
          2   -1    0    0  501    0  0.00000000000E+00  0.00000000000E+00  0.31281220504E+03  0.31281220504E+03  0.00000000000E+00 0. -1.
         -2   -1    0    0    0  501 -0.00000000000E+00 -0.00000000000E+00 -0.64011439536E+02  0.64011439536E+02  0.00000000000E+00 0.  1.
         25    2    1    2    0    0 -0.71052491961E+02 -0.26158171183E+02  0.67442342280E+02  0.16102497134E+03  0.12509142788E+03 0.  0.
          5    1    3    3  502    0 -0.94620561144E+02 -0.50483146230E+02  0.67704128047E+02  0.12689728129E+03  0.41800000000E+01 0.  1.
         -5    1    3    3    0  502  0.23568069183E+02  0.24324975047E+02 -0.26178576777E+00  0.34127690046E+02  0.41800000000E+01 0.  1.
        -11    1    1    2    0    0  0.90140958369E+02  0.79111392096E+01  0.14321606353E+03  0.16940725886E+03  0.00000000000E+00 0.  1.
         11    1    1    2    0    0 -0.19088466409E+02  0.18247031973E+02  0.38142359695E+02  0.46391414386E+02  0.00000000000E+00 0. -1.
</event>
<event>
 7    1  0.2766180E-009  0.1077513E+03  0.7561462E-02  0.1264792E+00
         -1   -1    0    0    0  501 -0.00000000000E+00  0.00000000000E+00  0.98139009308E+02  0.98139009308E+02  0.00000000000E+00 0.  1.
          1   -1    0    0  501    0  0.00000000000E+00 -0.00000000000E+00 -0.14715291679E+03  0.14715291679E+03  0.00000000000E+00 0. -1.
         25    2    1    2    0    0 -0.46358933843E+02  0.22823670052E+02 -0.21238018579E+02  0.13699605110E+03  0.12508714531E+03 0.  0.
          5    1    3    3  502    0 -0.36291099555E+02  0.67079552693E+02 -0.41713013644E+02  0.87029639800E+02  0.41800000000E+01 0.  1.
         -5    1    3    3    0  502 -0.10067834287E+02 -0.44255882641E+02  0.20474995066E+02  0.49966411303E+02  0.41800000000E+01 0.  1.
        -11    1    1    2    0    0  0.32722910296E+02  0.26663581743E+02 -0.37012813026E+02  0.56139859082E+02  0.00000000000E+00 0. -1.
         11    1    1    2    0    0  0.13636023546E+02 -0.49487251796E+02  0.92369241238E+01  0.52156015911E+02  0.00000000000E+00 0.  1.
</event>
<event>
 7    1  0.2766180E-009  0.9778072E+02  0.7561462E-02  0.1285033E+00
         -2   -1    0    0    0  501 -0.00000000000E+00  0.00000000000E+00  0.20612574992E+02  0.20612574992E+02  0.00000000000E+00 0. -1.
          2   -1    0    0  501    0  0.00000000000E+00 -0.00000000000E+00 -0.68478117854E+03  0.68478117854E+03  0.00000000000E+00 0.  1.
         25    2    1    2    0    0 -0.34169357986E+02  0.49983808270E+01 -0.48747825690E+03  0.50445486735E+03  0.12508850228E+03 0.  0.
          5    1    3    3  502    0 -0.72162804914E+02 -0.15083157564E+02 -0.18973344518E+03  0.20359573836E+03  0.41800000000E+01 0. -1.
         -5    1    3    3    0  502  0.37993446928E+02  0.20081538391E+02 -0.29774481172E+03  0.30085912899E+03  0.41800000000E+01 0. -1.
        -11    1    1    2    0    0  0.24967774094E+01  0.30710939148E+02 -0.13200968244E+03  0.13555792835E+03  0.00000000000E+00 0.  1.
         11    1    1    2    0    0  0.31672580576E+02 -0.35709319975E+02 -0.44680664211E+02  0.65380957838E+02  0.00000000000E+00 0. -1.
</event>
<event>
 7    1  0.2766180E-009  0.8313632E+02  0.7561462E-02  0.1320379E+00
          2   -1    0    0  501    0  0.00000000000E+00  0.00000000000E+00  0.52554868030E+03  0.52554868030E+03  0.00000000000E+00 0. -1.
         -2   -1    0    0    0  501 -0.00000000000E+00 -0.00000000000E+00 -0.38173213279E+02  0.38173213279E+02  0.00000000000E+00 0.  1.
         25    2    1    2    0    0  0.30551892276E+02 -0.74514152902E+02  0.34794132931E+03  0.37841282220E+03  0.12508924118E+03 0.  0.
          5    1    3    3  502    0  0.11182701938E+02 -0.53218076446E+02  0.34487696856E+03  0.34916301684E+03  0.41800000000E+01 0.  1.
         -5    1    3    3    0  502  0.19369190338E+02 -0.21296076457E+02  0.30643607463E+01  0.29249805359E+02  0.41800000000E+01 0.  1.
        -11    1    1    2    0    0 -0.27054651941E+02  0.42118299423E+02  0.89937725058E+01  0.50860527738E+02  0.00000000000E+00 0.  1.
         11    1    1    2    0    0 -0.34972403347E+01  0.32395853480E+02  0.13044036520E+03  0.13444854364E+03  0.00000000000E+00 0. -1.
</event>
<event>
 7    1  0.2766180E-009  0.2664188E+03  0.7561462E-02  0.1103347E+00
          2   -1    0    0  501    0  0.00000000000E+00  0.00000000000E+00  0.14378665573E+03  0.14378665573E+03  0.00000000000E+00 0. -1.
         -2   -1    0    0    0  501 -0.00000000000E+00 -0.00000000000E+00 -0.11199493497E+04  0.11199493497E+04  0.00000000000E+00 0.  1.
         25    2    1    2    0    0 -0.80860870175E+02  0.23737410557E+03 -0.95626109876E+03  0.99647787809E+03  0.12509167119E+03 0.  0.
          5    1    3    3  502    0  0.21554320244E+02  0.11255081513E+03 -0.31615611023E+03  0.33631002534E+03  0.41800000000E+01 0.  1.
         -5    1    3    3    0  502 -0.10241519042E+03  0.12482329044E+03 -0.64010498853E+03  0.66016785275E+03  0.41800000000E+01 0.  1.
        -11    1    1    2    0    0  0.98087952792E+01 -0.11289351587E+03 -0.44664836015E+02  0.12180355482E+03  0.00000000000E+00 0.  1.
         11    1    1    2    0    0  0.71052074896E+02 -0.12448058970E+03  0.24763240844E+02  0.14545457248E+03  0.00000000000E+00 0. -1.
</event>
<event>
 7    1  0.2766180E-009  0.1091443E+03  0.7561462E-02  0.1262163E+00
         -1   -1    0    0    0  501 -0.00000000000E+00  0.00000000000E+00  0.13757374245E+03  0.13757374245E+03  0.00000000000E+00 0.  1.
          1   -1    0    0  501    0  0.00000000000E+00 -0.00000000000E+00 -0.12679494788E+03  0.12679494788E+03  0.00000000000E+00 0. -1.
         25    2    1    2    0    0  0.74720948700E+02  0.50561576146E+01 -0.28707910533E+01  0.14582781369E+03  0.12509486361E+03 0.  0.
          5    1    3    3  502    0 -0.32335978947E+02  0.14283313244E+02  0.11337172684E+02  0.37358164518E+02  0.41800000000E+01 0. -1.
         -5    1    3    3    0  502  0.10705692765E+03 -0.92271556296E+01 -0.14207963737E+02  0.10846964917E+03  0.41800000000E+01 0. -1.
        -11    1    1    2    0    0 -0.51688806959E+02 -0.56841267881E+00 -0.36428092040E+02  0.63238135231E+02  0.00000000000E+00 0. -1.
         11    1    1    2    0    0 -0.23032141741E+02 -0.44877449358E+01  0.50077677657E+02  0.55302741409E+02  0.00000000000E+00 0.  1.
</event>
<event>
 7    1  0.2766180E-009  0.1038681E+03  0.7561462E-02  0.1272366E+00
          1   -1    0    0  501    0  0.00000000000E+00  0.00000000000E+00  0.44529102515E+03  0.44529102515E+03  0.00000000000E+00 0. -1.
         -1   -1    0    0    0  501 -0.00000000000E+00 -0.00000000000E+00 -0.43864576274E+02  0.43864576274E+02  0.00000000000E+00 0.  1.
         25    2    1    2    0    0  0.62391024297E+02 -0.94660964561E+01  0.32201693481E+03  0.35117559168E+03  0.12508854060E+03 0.  0.
          5    1    3    3  502    0 -0.14729236763E+02  0.54219148945E+01  0.22807727901E+03  0.22865490412E+03  0.41800000000E+01 0.  1.
         -5    1    3    3    0  502  0.77120261060E+02 -0.14888011351E+02  0.93939655800E+02  0.12252068756E+03  0.41800000000E+01 0.  1.
        -11    1    1    2    0    0 -0.84974683390E+02 -0.64354238689E+01  0.59782883655E+02  0.10409661222E+03  0.00000000000E+00 0.  1.
         11    1    1    2    0    0  0.22583659092E+02  0.15901520325E+02  0.19626630406E+02  0.33883397524E+02  0.00000000000E+00 0. -1.
</event>
<event>
 7    1  0.2766180E-009  0.1254240E+03  0.7561462E-02  0.1234408E+00
          2   -1    0    0  501    0  0.00000000000E+00  0.00000000000E+00  0.12209714969E+03  0.12209714969E+03  0.00000000000E+00 0. -1.
         -2   -1    0    0    0  501 -0.00000000000E+00 -0.00000000000E+00 -0.15582582693E+03  0.15582582693E+03  0.00000000000E+00 0.  1.
         25    2    1    2    0    0  0.93723489653E+02  0.47950958684E+02  0.26112936022E+01  0.16351915610E+03  0.12509319967E+03 0.  0.
          5    1    3    3  502    0  0.46264834115E+02 -0.29149505593E+02 -0.35360962727E+02  0.65253341960E+02  0.41800000000E+01 0. -1.
         -5    1    3    3    0  502  0.47458655539E+02  0.77100464277E+02  0.37972256330E+02  0.98265814137E+02  0.41800000000E+01 0. -1.
        -11    1    1    2    0    0 -0.47895942503E+02 -0.21979145896E+02 -0.31761875293E+02  0.61529837353E+02  0.00000000000E+00 0.  1.
         11    1    1    2    0    0 -0.45827547150E+02 -0.25971812788E+02 -0.45780955573E+01  0.52873983169E+02  0.00000000000E+00 0. -1.
</event>
<event>
 7    1  0.2766180E-009  0.9208531E+02  0.7561462E-02  0.1297879E+00
          1   -1    0    0  501    0  0.00000000000E+00  0.00000000000E+00  0.19344414947E+03  0.19344414947E+03  0.00000000000E+00 0. -1.
         -1   -1    0    0    0  501 -0.00000000000E+00 -0.00000000000E+00 -0.71802466592E+02  0.71802466592E+02  0.00000000000E+00 0.  1.
         25    2    1    2    0    0 -0.86566743406E+01  0.21442030230E+02  0.25750342800E+02  0.12978801756E+03  0.12508857133E+03 0.  0.
          5    1    3    3  502    0 -0.63815995161E+02  0.60359822018E+01  0.32463768811E+02  0.71974182906E+02  0.41800000000E+01 0.  1.
         -5    1    3    3    0  502  0.55159320820E+02  0.15406048028E+02 -0.67134260109E+01  0.57813834659E+02  0.41800000000E+01 0.  1.
        -11    1    1    2    0    0  0.44660015906E+01 -0.41642023441E+02  0.49100383127E+01  0.42167662523E+02  0.00000000000E+00 0.  1.
         11    1    1    2    0    0  0.41906727500E+01  0.20199993211E+02  0.90981301764E+02  0.93290935971E+02  0.00000000000E+00 0. -1.
</event>
<event>
 7    1  0.2766180E-009  0.1399346E+03  0.7561462E-02  0.1213417E+00
          1   -1    0    0  501    0  0.00000000000E+00  0.00000000000E+00  0.47172112408E+03  0.47172112408E+03  0.00000000000E+00 0. -1.
         -1   -1    0    0    0  501 -0.00000000000E+00 -0.00000000000E+00 -0.61046157277E+02  0.61046157277E+02  0.00000000000E+00 0.  1.
         25    2    1    2    0    0  0.10034925326E+03 -0.50175393529E+02  0.11348278375E+03  0.20276419732E+03  0.12508970685E+03 0.  0.
          5    1    3    3  502    0  0.12890909412E+03 -0.48659897537E+02  0.83748958494E+02  0.16129693309E+03  0.41800000000E+01 0.  1.
         -5    1    3    3    0  502 -0.28559840860E+02 -0.15154959927E+01  0.29733825259E+02  0.41467264229E+02  0.41800000000E+01 0.  1.
        -11    1    1    2    0    0 -0.90474034771E+02  0.39958186151E+02  0.29967828052E+03  0.31557769158E+03  0.00000000000E+00 0. -1.
         11    1    1    2    0    0 -0.98752184921E+01  0.10217207378E+02 -0.24860974703E+01  0.14425392456E+02  0.00000000000E+00 0.  1.
</event>
<event>
 7    1  0.2766180E-009  0.7126358E+02  0.7561462E-02  0.1355848E+00
          2   -1    0    0  501    0  0.00000000000E+00  0.00000000000E+00  0.28988103524E+02  0.28988103524E+02  0.00000000000E+00 0. -1.
         -2   -1    0    0    0  501 -0.00000000000E+00 -0.00000000000E+00 -0.47013360622E+03  0.47013360622E+03  0.00000000000E+00 0.  1.
         25    2    1    2    0    0  0.87955875096E+01 -0.28450208243E+02 -0.30027204040E+03  0.32664638039E+03  0.12509109826E+03 0.  0.
          5    1    3    3  502    0  0.43031036998E+02 -0.25422289573E+01 -0.29361506225E+02  0.52323068727E+02  0.41800000000E+01 0.  1.
         -5    1    3    3    0  502 -0.34235449489E+02 -0.25907979285E+02 -0.27091053418E+03  0.27432331166E+03  0.41800000000E+01 0.  1.
        -11    1    1    2    0    0  0.16126606726E+02 -0.25279552064E+01  0.81459517907E+01  0.18243205108E+02  0.00000000000E+00 0. -1.
         11    1    1    2    0    0 -0.24922194236E+02  0.30978163449E+02 -0.14901941409E+03  0.15423212425E+03  0.00000000000E+00 0.  1.
</event>
<event>
 7    1  0.2766180E-009  0.7139582E+02  0.7561462E-02  0.1355410E+00
         -4   -1    0    0    0  501 -0.00000000000E+00  0.00000000000E+00  0.12465156562E+03  0.12465156562E+03  0.00000000000E+00 0.  1.
          4   -1    0    0  501    0  0.00000000000E+00 -0.00000000000E+00 -0.13377049618E+03  0.13377049618E+03  0.00000000000E+00 0. -1.
         25    2    1    2    0    0 -0.48301273642E+02 -0.35886832654E+02 -0.42873230104E+02  0.14529407990E+03  0.12510546751E+03 0.  0.
          5    1    3    3  502    0 -0.26903026224E+02 -0.34652739110E+02 -0.86179510494E+02  0.96793417012E+02  0.41800000000E+01 0. -1.
         -5    1    3    3    0  502 -0.21398247417E+02 -0.12340935437E+01  0.43306280391E+02  0.48500662889E+02  0.41800000000E+01 0. -1.
        -11    1    1    2    0    0  0.29949373157E+02  0.46778618102E+02  0.58353076446E+02  0.80562308773E+02  0.00000000000E+00 0.  1.
         11    1    1    2    0    0  0.18351900485E+02 -0.10891785448E+02 -0.24598776899E+02  0.32565673133E+02  0.00000000000E+00 0. -1.
</event>
<event>
 7    1  0.2766180E-009  0.1029218E+03  0.7561462E-02  0.1274269E+00
         -2   -1    0    0    0  501 -0.00000000000E+00  0.00000000000E+00  0.50235261117E+03  0.50235261117E+03  0.00000000000E+00 0.  1.
          2   -1    0    0  501    0  0.00000000000E+00 -0.00000000000E+00 -0.35273106209E+02  0.35273106209E+02  0.00000000000E+00 0. -1.
         25    2    1    2    0    0 -0.28151597446E+02 -0.71447751943E+02  0.27254495587E+03  0.30955791553E+03  0.12509219160E+03 0.  0.
          5    1    3    3  502    0  0.99235440420E+01  0.51405015418E+01  0.19079813559E+03  0.19117087233E+03  0.41800000000E+01 0.  1.
         -5    1    3    3    0  502 -0.38075141488E+02 -0.76588253485E+02  0.81746820280E+02  0.11838704320E+03  0.41800000000E+01 0.  1.
        -11    1    1    2    0    0 -0.25550679768E+02  0.12196307199E+02  0.16186551674E+02  0.32612752122E+02  0.00000000000E+00 0. -1.
         11    1    1    2    0    0  0.53702277214E+02  0.59251444744E+02  0.17834799741E+03  0.19545504972E+03  0.00000000000E+00 0.  1.
</event>
<event>
 6    1  0.2766180E-009  0.9952940E+02  0.7561462E-02  0.1281289E+00
          2   -1    0    0  501    0  0.00000000000E+00  0.00000000000E+00  0.17064403296E+04  0.17064403296E+04  0.00000000000E+00 0. -1.
         -2   -1    0    0    0  501 -0.00000000000E+00 -0.00000000000E+00 -0.10447688466E+02  0.10447688466E+02  0.00000000000E+00 0.  1.
          5    1    1    2  502    0  0.18142499251E+02 -0.13412072351E+02  0.25508889220E+02  0.34310491006E+02  0.41800000000E+01 0.  1.
         -5    1    1    2    0  502  0.57521506088E+02  0.10485101420E+02  0.10117980757E+04  0.10134946865E+04  0.41800000000E+01 0.  1.
        -11    1    1    2    0    0  0.85239765799E+01 -0.26869522386E+02  0.15864035576E+03  0.16112539181E+03  0.00000000000E+00 0.  1.
         11    1    1    2    0    0 -0.84187981919E+02  0.29796493317E+02  0.50004532045E+03  0.50795744882E+03  0.00000000000E+00 0. -1.
</event>
<event>
 7    1  0.2766180E-009  0.1052268E+03  0.7561462E-02  0.1269673E+00
         -1   -1    0    0    0  501 -0.00000000000E+00  0.00000000000E+00  0.54706314019E+02  0.54706314019E+02  0.00000000000E+00 0.  1.
          1   -1    0    0  501    0  0.00000000000E+00 -0.00000000000E+00 -0.38515510802E+03  0.38515510802E+03  0.00000000000E+00 0. -1.
         25    2    1    2    0    0  0.25411698120E+02 -0.93463614973E+02 -0.18874024158E+03  0.24627429743E+03  0.12508776543E+03 0.  0.
          5    1    3    3  502    0  0.30748657609E+02 -0.64941344870E+02 -0.20174732525E+03  0.21420157298E+03  0.41800000000E+01 0. -1.
         -5    1    3    3    0  502 -0.53369594884E+01 -0.28522270103E+02  0.13007083675E+02  0.32072724457E+02  0.41800000000E+01 0. -1.
        -11    1    1    2    0    0 -0.39702935035E+02  0.80968969096E+02 -0.14823750339E+03  0.17351269238E+03  0.00000000000E+00 0. -1.
         11    1    1    2    0    0  0.14291236914E+02  0.12494645877E+02  0.65289509714E+01  0.20074432219E+02  0.00000000000E+00 0.  1.
</event>
<event>
 7    1  0.2766180E-009  0.1340350E+03  0.7561462E-02  0.1221588E+00
          3   -1    0    0  501    0  0.00000000000E+00  0.00000000000E+00  0.22671148251E+03  0.22671148251E+03  0.00000000000E+00 0. -1.
         -3   -1    0    0    0  501 -0.00000000000E+00 -0.00000000000E+00 -0.10688501569E+03  0.10688501569E+03  0.00000000000E+00 0.  1.
         25    2    1    2    0    0  0.10584039829E+02 -0.99705320042E+02  0.11638998194E+03  0.19810969606E+03  0.12509057133E+03 0.  0.
          5    1    3    3  502    0 -0.39874059710E+02 -0.49980204175E+02  0.27512746069E+01  0.64132701168E+02  0.41800000000E+01 0.  1.
         -5    1    3    3    0  502  0.50458099538E+02 -0.49725115867E+02  0.11363870733E+03  0.13397699490E+03  0.41800000000E+01 0.  1.
        -11    1    1    2    0    0  0.26995072056E+02  0.55793684733E+00  0.11070454244E+02  0.29182189192E+02  0.00000000000E+00 0. -1.
         11    1    1    2    0    0 -0.37579111885E+02  0.99147383194E+02 -0.76339693642E+01  0.10630461294E+03  0.00000000000E+00 0.  1.
</event>
<event>
 7    1  0.2766180E-009  0.1688683E+03  0.7561462E-02  0.1179033E+00
         -2   -1    0    0    0  501 -0.00000000000E+00  0.00000000000E+00  0.33593670463E+02  0.33593670463E+02  0.00000000000E+00 0.  1.
          2   -1    0    0  501    0  0.00000000000E+00 -0.00000000000E+00 -0.10516424918E+04  0.10516424918E+04  0.00000000000E+00 0. -1.
         25    2    1    2    0    0  0.68604956703E+02  0.13680216687E+03 -0.53978778290E+03  0.57483894408E+03  0.12508992013E+03 0.  0.
          5    1    3    3  502    0  0.24485262880E+02  0.11905813045E+03 -0.21888294904E+03  0.25040284404E+03  0.41800000000E+01 0.  1.
         -5    1    3    3    0  502  0.44119693823E+02  0.17744036415E+02 -0.32090483386E+03  0.32443610004E+03  0.41800000000E+01 0.  1.
        -11    1    1    2    0    0  0.14737819457E+02 -0.23115005440E+02 -0.30681603358E+02  0.41144472089E+02  0.00000000000E+00 0.  1.
         11    1    1    2    0    0 -0.83342776160E+02 -0.11368716143E+03 -0.44757943506E+03  0.46925274607E+03  0.00000000000E+00 0. -1.
</event>
<event>
 7    1  0.2766180E-009  0.8789103E+02  0.7561462E-02  0.1308041E+00
         -1   -1    0    0    0  501 -0.00000000000E+00  0.00000000000E+00  0.47306742959E+02  0.47306742959E+02  0.00000000000E+00 0.  1.
          1   -1    0    0  501    0  0.00000000000E+00 -0.00000000000E+00 -0.50777420176E+03  0.50777420176E+03  0.00000000000E+00 0. -1.
         25    2    1    2    0    0 -0.34946971474E+02  0.38906623217E+01 -0.42676965463E+03  0.44611634739E+03  0.12510407358E+03 0.  0.
          5    1    3    3  502    0  0.20224561307E+01 -0.50927960065E+02 -0.28599306830E+03  0.29052926696E+03  0.41800000000E+01 0.  1.
         -5    1    3    3    0  502 -0.36969427604E+02  0.54818622387E+02 -0.14077658633E+03  0.15558708043E+03  0.41800000000E+01 0.  1.
        -11    1    1    2    0    0  0.41051581499E+01  0.19345242238E+02 -0.59381608770E+02  0.62588067400E+02  0.00000000000E+00 0. -1.
         11    1    1    2    0    0  0.30841813324E+02 -0.23235904560E+02  0.25683804597E+02  0.46376529931E+02  0.00000000000E+00 0.  1.
</event>
<event>
 7    1  0.2766180E-009  0.9971872E+02  0.7561462E-02  0.1280889E+00
          1   -1    0    0  501    0  0.00000000000E+00  0.00000000000E+00  0.54469655203E+03  0.54469655203E+03  0.00000000000E+00 0. -1.
         -1   -1    0    0    0  501 -0.00000000000E+00 -0.00000000000E+00 -0.21482409708E+02  0.21482409708E+02  0.00000000000E+00 0.  1.
         25    2    1    2    0    0 -0.48806306884E+01 -0.12308033701E+02  0.30862605262E+03  0.33327339562E+03  0.12508320282E+03 0.  0.
          5    1    3    3  502    0  0.52236067249E+02 -0.42654517675E+01  0.22841674937E+03  0.23438960001E+03  0.41800000000E+01 0.  1.
         -5    1    3    3    0  502 -0.57116697937E+02 -0.80425819339E+01  0.80209303249E+02  0.98883795614E+02  0.41800000000E+01 0.  1.
        -11    1    1    2    0    0  0.87986521927E+01  0.50185066426E+02  0.14324028760E+03  0.15203202677E+03  0.00000000000E+00 0.  1.
         11    1    1    2    0    0 -0.39180215043E+01 -0.37877032724E+02  0.71347802100E+02  0.80873539338E+02  0.00000000000E+00 0. -1.
</event>
<event>
 7    1  0.3083854E-009  0.1228901E+03  0.7561462E-02  0.1238404E+00
          2   -1    0    0  501    0  0.00000000000E+00  0.00000000000E+00  0.22346971030E+03  0.22346971030E+03  0.00000000000E+00 0. -1.
         -2   -1    0    0    0  501 -0.00000000000E+00 -0.00000000000E+00 -0.11262397453E+03  0.11262397453E+03  0.00000000000E+00 0.  1.
         25    2    1    2    0    0 -0.68302797135E+02  0.93608878765E+02  0.50812304844E+02  0.17793201800E+03  0.12510003368E+03 0.  0.
          5    1    3    3  502    0 -0.49539471784E+02  0.90245470031E+02 -0.19586333874E+02  0.10487850590E+03  0.41800000000E+01 0. -1.
         -5    1    3    3    0  502 -0.18763325351E+02  0.33634087337E+01  0.70398638719E+02  0.73053512099E+02  0.41800000000E+01 0. -1.
        -11    1    1    2    0    0  0.55119556680E+01 -0.40843923057E+02 -0.17981893300E+02  0.44966167200E+02  0.00000000000E+00 0.  1.
         11    1    1    2    0    0  0.62790841467E+02 -0.52764955708E+02  0.78015324227E+02  0.11319549963E+03  0.00000000000E+00 0. -1.
</event>
<event>
 7    1  0.2766180E-009  0.7906515E+02  0.7561462E-02  0.1331726E+00
          1   -1    0    0  501    0  0.00000000000E+00  0.00000000000E+00  0.16738735014E+03  0.16738735014E+03  0.00000000000E+00 0. -1.
         -1   -1    0    0    0  501 -0.00000000000E+00 -0.00000000000E+00 -0.92748934632E+02  0.92748934632E+02  0.00000000000E+00 0.  1.
         25    2    1    2    0    0  0.12367033666E+02 -0.47375271576E+02  0.41056865177E+01  0.13439365935E+03  0.12508972433E+03 0.  0.
          5    1    3    3  502    0  0.13189574931E+02  0.16295825185E+02  0.50936217370E+02  0.55240288244E+02  0.41800000000E+01 0. -1.
         -5    1    3    3    0  502 -0.82254126435E+00 -0.63671096761E+02 -0.46830530852E+02  0.79153371102E+02  0.41800000000E+01 0. -1.
        -11    1    1    2    0    0 -0.14762786873E+02 -0.84852542136E+01 -0.15573956723E+02  0.23075691611E+02  0.00000000000E+00 0.  1.
         11    1    1    2    0    0  0.23957532064E+01  0.55860525789E+02  0.86106685717E+02  0.10266693382E+03  0.00000000000E+00 0. -1.
</event>
<event>
 7    1  0.2766180E-009  0.1300261E+03  0.7561462E-02  0.1227417E+00
         -2   -1    0    0    0  501 -0.00000000000E+00  0.00000000000E+00  0.23807361649E+02  0.23807361649E+02  0.00000000000E+00 0.  1.
          2   -1    0    0  501    0  0.00000000000E+00 -0.00000000000E+00 -0.94347067394E+03  0.94347067394E+03  0.00000000000E+00 0. -1.
         25    2    1    2    0    0  0.24163311731E+01 -0.10188104559E+03 -0.43782470361E+03  0.46660783128E+03  0.12508721362E+03 0.  0.
          5    1    3    3  502    0  0.37822692334E+02  0.84276248516E+01 -0.61302588095E+02  0.72643379761E+02  0.41800000000E+01 0. -1.
         -5    1    3    3    0  502 -0.35406361161E+02 -0.11030867044E+03 -0.37652211552E+03  0.39396445151E+03  0.41800000000E+01 0. -1.
        -11    1    1    2    0    0 -0.10237157716E+02  0.16541809063E+02 -0.11521074365E+02  0.22608980510E+02  0.00000000000E+00 0.  1.
         11    1    1    2    0    0  0.78208265429E+01  0.85339236528E+02 -0.47031753431E+03  0.47806122380E+03  0.00000000000E+00 0. -1.
</event>
<event>
 7    1  0.2766180E-009  0.2836292E+03  0.7561462E-02  0.1093723E+00
         -3   -1    0    0    0  501 -0.00000000000E+00  0.00000000000E+00  0.15050841496E+04  0.15050841496E+04  0.00000000000E+00 0.  1.
          3   -1    0    0  501    0  0.00000000000E+00 -0.00000000000E+00 -0.71725517470E+02  0.71725517470E+02  0.00000000000E+00 0. -1.
         25    2    1    2    0    0 -0.26851183756E+03 -0.46812322605E+02  0.10837159801E+04  0.11244457169E+04  0.12509134397E+03 0.  0.
          5    1    3    3  502    0 -0.37974608845E+02  0.31740153928E+02  0.28897842729E+03  0.29321581152E+03  0.41800000000E+01 0. -1.
         -5    1    3    3    0  502 -0.23053722871E+03 -0.78552476533E+02  0.79473755283E+03  0.83122990542E+03  0.41800000000E+01 0. -1.
        -11    1    1    2    0    0  0.10370142078E+03  0.42733179802E+01  0.70670176295E+02  0.12556480293E+03  0.00000000000E+00 0. -1.
         11    1    1    2    0    0  0.16481041678E+03  0.42539004625E+02  0.27897247568E+03  0.32679914715E+03  0.00000000000E+00 0.  1.
</event>
<event>
 7    1  0.2766180E-009  0.1673350E+03  0.7561462E-02  0.1180656E+00
         -2   -1    0    0    0  501 -0.00000000000E+00  0.00000000000E+00  0.23075749686E+03  0.23075749686E+03  0.00000000000E+00 0. -1.
          2   -1    0    0  501    0  0.00000000000E+00 -0.00000000000E+00 -0.15451626989E+03  0.15451626989E+03  0.00000000000E+00 0.  1.
         25    2    1    2    0    0  0.14641477865E+03 -0.49507083470E+02  0.39798657037E+02  0.20278059190E+03  0.12509115328E+03 0.  0.
          5    1    3    3  502    0  0.11966649830E+03  0.37471814945E+01  0.66864169037E+02  0.13719475823E+03  0.41800000000E+01 0.  1.
         -5    1    3    3    0  502  0.26748280354E+02 -0.53254264965E+02 -0.27065512000E+02  0.65585833674E+02  0.41800000000E+01 0.  1.
        -11    1    1    2    0    0 -0.37074835389E+02  0.18756089193E+02 -0.29684726280E+02  0.51063854880E+02  0.00000000000E+00 0.  1.
         11    1    1    2    0    0 -0.10933994326E+03  0.30750994277E+02  0.66127296220E+02  0.13142931997E+03  0.00000000000E+00 0. -1.
</event>
<event>
 7    1  0.2766180E-009  0.9711811E+02  0.7561462E-02  0.1286476E+00
          1   -1    0    0  501    0  0.00000000000E+00  0.00000000000E+00  0.12251886282E+03  0.12251886282E+03  0.00000000000E+00 0. -1.
         -1   -1    0    0    0  501 -0.00000000000E+00 -0.00000000000E+00 -0.10288491248E+03  0.10288491248E+03  0.00000000000E+00 0.  1.
         25    2    1    2    0    0  0.22445986158E+02 -0.10046133433E+02  0.29619011872E+02  0.13088569181E+03  0.12509608853E+03 0.  0.
          5    1    3    3  502    0 -0.37280808412E+02  0.10803643510E+02  0.50776492629E+02  0.64049215394E+02  0.41800000000E+01 0. -1.
         -5    1    3    3    0  502  0.59726794570E+02 -0.20849776943E+02 -0.21157480757E+02  0.66836476419E+02  0.41800000000E+01 0. -1.
        -11    1    1    2    0    0 -0.82471503806E+01 -0.39451294615E+02 -0.14485355898E+02  0.42828094421E+02  0.00000000000E+00 0.  1.
         11    1    1    2    0    0 -0.14198835777E+02  0.49497428048E+02  0.45002943655E+01  0.51689989071E+02  0.00000000000E+00 0. -1.
</event>
<event>
 7    1  0.2766180E-009  0.5247134E+02  0.7561462E-02  0.1432450E+00
         -1   -1    0    0    0  501 -0.00000000000E+00  0.00000000000E+00  0.55700875496E+02  0.55700875496E+02  0.00000000000E+00 0.  1.
          1   -1    0    0  501    0  0.00000000000E+00 -0.00000000000E+00 -0.29905475501E+03  0.29905475501E+03  0.00000000000E+00 0. -1.
         25    2    1    2    0    0  0.37306124565E+02  0.34661984862E+02 -0.20072185292E+03  0.24193067254E+03  0.12509191800E+03 0.  0.
          5    1    3    3  502    0  0.46058580303E+01  0.62797622755E+01 -0.19815718960E+03  0.19835421228E+03  0.41800000000E+01 0.  1.
         -5    1    3    3    0  502  0.32700266534E+02  0.28382222587E+02 -0.25646633292E+01  0.43576460255E+02  0.41800000000E+01 0.  1.
        -11    1    1    2    0    0 -0.24139412295E+02 -0.30283910765E+02  0.23468681504E+02  0.45283611702E+02  0.00000000000E+00 0.  1.
         11    1    1    2    0    0 -0.13166712269E+02 -0.43780740969E+01 -0.66100708094E+02  0.67541346265E+02  0.00000000000E+00 0. -1.
</event>
<event>
 7    1  0.2766180E-009  0.1107996E+03  0.7561462E-02  0.1259096E+00
         -1   -1    0    0    0  501 -0.00000000000E+00  0.00000000000E+00  0.14050595597E+03  0.14050595597E+03  0.00000000000E+00 0.  1.
          1   -1    0    0  501    0  0.00000000000E+00 -0.00000000000E+00 -0.13352110671E+03  0.13352110671E+03  0.00000000000E+00 0. -1.
         25    2    1    2    0    0 -0.73081256685E+02  0.25189554942E+02  0.34395680380E+02  0.15101471441E+03  0.12508795858E+03 0.  0.
          5    1    3    3  502    0 -0.21211692934E+02  0.71136056590E+02  0.19169732966E+01  0.74373527891E+02  0.41800000000E+01 0.  1.
         -5    1    3    3    0  502 -0.51869563751E+02 -0.45946501648E+02  0.32478707083E+02  0.76641186520E+02  0.41800000000E+01 0.  1.
        -11    1    1    2    0    0  0.59487920660E+02 -0.16634607109E+02 -0.60355220956E+02  0.86361308204E+02  0.00000000000E+00 0. -1.
         11    1    1    2    0    0  0.13593336026E+02 -0.85549478330E+01  0.32944389828E+02  0.36651040065E+02  0.00000000000E+00 0.  1.
</event>
<event>
 7    1  0.2766180E-009  0.9226306E+02  0.7561462E-02  0.1297462E+00
         -2   -1    0    0    0  501 -0.00000000000E+00  0.00000000000E+00  0.38571419734E+02  0.38571419734E+02  0.00000000000E+00 0.  1.
          2   -1    0    0  501    0  0.00000000000E+00 -0.00000000000E+00 -0.30019042679E+03  0.30019042679E+03  0.00000000000E+00 0. -1.
         25    2    1    2    0    0  0.39973426739E+01 -0.27010400307E+01 -0.14900490297E+03  0.19462095187E+03  0.12510627256E+03 0.  0.
          5    1    3    3  502    0 -0.49175944316E+02 -0.32102487593E+02 -0.10166477303E+03  0.11748209091E+03  0.41800000000E+01 0. -1.
         -5    1    3    3    0  502  0.53173286990E+02  0.29401447563E+02 -0.47340129937E+02  0.77138860962E+02  0.41800000000E+01 0. -1.
        -11    1    1    2    0    0  0.21881193306E+02  0.23082631305E+02 -0.57579939207E+01  0.32322576977E+02  0.00000000000E+00 0.  1.
         11    1    1    2    0    0 -0.25878535980E+02 -0.20381591274E+02 -0.10685611016E+03  0.11181831767E+03  0.00000000000E+00 0. -1.
</event>
<event>
 6    1  0.2766180E-009  0.1194226E+03  0.7561462E-02  0.1244053E+00
          2   -1    0    0  501    0  0.00000000000E+00  0.00000000000E+00  0.38836374970E+03  0.38836374970E+03  0.00000000000E+00 0. -1.
         -2   -1    0    0    0  501 -0.00000000000E+00 -0.00000000000E+00 -0.46700486326E+02  0.46700486326E+02  0.00000000000E+00 0.  1.
          5    1    1    2  502    0 -0.53319644603E+02 -0.50956102862E+02  0.11329515026E+03  0.13525077594E+03  0.41800000000E+01 0. -1.
         -5    1    1    2    0  502 -0.21038865810E+02  0.69740140249E+02  0.11133318741E+03  0.13311225359E+03  0.41800000000E+01 0. -1.
        -11    1    1    2    0    0  0.67126786417E+02 -0.33938092818E+02  0.34994912488E+02  0.82960493603E+02  0.00000000000E+00 0.  1.
         11    1    1    2    0    0  0.72317239964E+01  0.15154055431E+02  0.82040013218E+02  0.83740712899E+02  0.00000000000E+00 0. -1.
</event>
<event>
 7    1  0.2766180E-009  0.1234762E+03  0.7561462E-02  0.1237470E+00
          2   -1    0    0  501    0  0.00000000000E+00  0.00000000000E+00  0.15575057040E+03  0.15575057040E+03  0.00000000000E+00 0.  1.
         -2   -1    0    0    0  501 -0.00000000000E+00 -0.00000000000E+00 -0.13129424244E+03  0.13129424244E+03  0.00000000000E+00 0. -1.
         25    2    1    2    0    0 -0.36162487260E+02  0.70513638442E+02  0.61764160657E+02  0.16044139912E+03  0.12508689907E+03 0.  0.
          5    1    3    3  502    0  0.35452394232E+02 -0.11444813670E+02  0.26675544949E+02  0.46009924094E+02  0.41800000000E+01 0.  1.
         -5    1    3    3    0  502 -0.71614881492E+02  0.81958452113E+02  0.35088615708E+02  0.11443147502E+03  0.41800000000E+01 0.  1.
        -11    1    1    2    0    0  0.24148281466E+02 -0.81046880528E+02  0.15571371742E+01  0.84582273659E+02  0.00000000000E+00 0.  1.
         11    1    1    2    0    0  0.12014205793E+02  0.10533242086E+02 -0.38864969873E+02  0.42021140072E+02  0.00000000000E+00 0. -1.
</event>
<event>
 7    1  0.2766180E-009  0.1712699E+03  0.7561462E-02  0.1176530E+00
          1   -1    0    0  501    0  0.00000000000E+00  0.00000000000E+00  0.58811683633E+03  0.58811683633E+03  0.00000000000E+00 0. -1.
         -1   -1    0    0    0  501 -0.00000000000E+00 -0.00000000000E+00 -0.58669593143E+02  0.58669593143E+02  0.00000000000E+00 0.  1.
         25    2    1    2    0    0  0.13091387131E+03 -0.23782807430E+02  0.39944553840E+03  0.43921253103E+03  0.12508735203E+03 0.  0.
          5    1    3    3  502    0  0.19452456864E+02 -0.61687455793E+02  0.14103463517E+03  0.15521591734E+03  0.41800000000E+01 0. -1.
         -5    1    3    3    0  502  0.11146141444E+03  0.37904648363E+02  0.25841090323E+03  0.28399661369E+03  0.41800000000E+01 0. -1.
        -11    1    1    2    0    0 -0.10964471763E+03  0.54589789281E+02  0.85256276283E+02  0.14923351448E+03  0.00000000000E+00 0. -1.
         11    1    1    2    0    0 -0.21269153673E+02 -0.30806981850E+02  0.44745428505E+02  0.58340383962E+02  0.00000000000E+00 0.  1.
</event>
<event>
 7    1  0.2766180E-009  0.8991241E+02  0.7561462E-02  0.1303064E+00
          1   -1    0    0  501    0  0.00000000000E+00  0.00000000000E+00  0.83991276424E+02  0.83991276424E+02  0.00000000000E+00 0. -1.
         -1   -1    0    0    0  501 -0.00000000000E+00 -0.00000000000E+00 -0.17010020208E+03  0.17010020208E+03  0.00000000000E+00 0.  1.
         25    2    1    2    0    0  0.17020091490E+02  0.30116246144E+02 -0.66954459737E+02  0.14606465412E+03  0.12512118809E+03 0.  0.
          5    1    3    3  502    0  0.26045177886E+02 -0.39704580187E+02  0.16205346438E+01  0.47695948585E+02  0.41800000000E+01 0. -1.
         -5    1    3    3    0  502 -0.90250863951E+01  0.69820826331E+02 -0.68574994381E+02  0.98368705533E+02  0.41800000000E+01 0. -1.
        -11    1    1    2    0    0 -0.35306470512E+02 -0.17428768534E+02  0.32966491359E+02  0.51352686250E+02  0.00000000000E+00 0. -1.
         11    1    1    2    0    0  0.18286379021E+02 -0.12687477610E+02 -0.52120957282E+02  0.56674138139E+02  0.00000000000E+00 0.  1.
</event>
<event>
 7    1  0.2766180E-009  0.1223400E+03  0.7561462E-02  0.1239286E+00
         -2   -1    0    0    0  501 -0.00000000000E+00  0.00000000000E+00  0.42161917709E+02  0.42161917709E+02  0.00000000000E+00 0.  1.
          2   -1    0    0  501    0  0.00000000000E+00 -0.00000000000E+00 -0.39947372902E+03  0.39947372902E+03  0.00000000000E+00 0. -1.
         25    2    1    2    0    0  0.33464601579E+02 -0.59395672633E+02 -0.16725553250E+03  0.21969861022E+03  0.12508133631E+03 0.  0.
          5    1    3    3  502    0 -0.46173167827E+02 -0.36552277646E+02 -0.78337696729E+02  0.98093310461E+02  0.41800000000E+01 0.  1.
         -5    1    3    3    0  502  0.79637769406E+02 -0.22843394986E+02 -0.88917835772E+02  0.12160529976E+03  0.41800000000E+01 0.  1.
        -11    1    1    2    0    0  0.22447575094E+02  0.19631080772E+01 -0.96242532576E+01  0.24502523782E+02  0.00000000000E+00 0.  1.
         11    1    1    2    0    0 -0.55912176674E+02  0.57432564556E+02 -0.18043202555E+03  0.19743451273E+03  0.00000000000E+00 0. -1.
</event>
<event>
 7    1  0.2766180E-009  0.7790023E+02  0.7561462E-02  0.1335118E+00
          1   -1    0    0  501    0  0.00000000000E+00  0.00000000000E+00  0.10461598667E+03  0.10461598667E+03  0.00000000000E+00 0. -1.
         -1   -1    0    0    0  501 -0.00000000000E+00 -0.00000000000E+00 -0.18022087911E+03  0.18022087911E+03  0.00000000000E+00 0.  1.
         25    2    1    2    0    0 -0.59881150219E+01  0.19025141060E+01 -0.13363242121E+03  0.18315092947E+03  0.12508861613E+03 0.  0.
          5    1    3    3  502    0  0.20852666106E+02 -0.27790101684E+02  0.80126679527E+01  0.35899842382E+02  0.41800000000E+01 0. -1.
         -5    1    3    3    0  502 -0.26840781128E+02  0.29692615790E+02 -0.14164508917E+03  0.14725108709E+03  0.41800000000E+01 0. -1.
        -11    1    1    2    0    0  0.32711208303E+02 -0.28112412774E+02  0.44267962915E+02  0.61806014604E+02  0.00000000000E+00 0. -1.
         11    1    1    2    0    0 -0.26723093281E+02  0.26209898668E+02  0.13759565862E+02  0.39879921707E+02  0.00000000000E+00 0.  1.
</event>
<event>
 7    1  0.2766180E-009  0.1589304E+03  0.7561462E-02  0.1189910E+00
          2   -1    0    0  501    0  0.00000000000E+00  0.00000000000E+00  0.89688683274E+03  0.89688683274E+03  0.00000000000E+00 0. -1.
         -2   -1    0    0    0  501 -0.00000000000E+00 -0.00000000000E+00 -0.37575209086E+02  0.37575209086E+02  0.00000000000E+00 0.  1.
         25    2    1    2    0    0 -0.10432417024E+03  0.76304903482E+02  0.63135713640E+03  0.65647885504E+03  0.12508670046E+03 0.  0.
          5    1    3    3  502    0 -0.12299536648E+03  0.89089991384E+02  0.58894820772E+03  0.60822886360E+03  0.41800000000E+01 0.  1.
         -5    1    3    3    0  502  0.18671196236E+02 -0.12785087902E+02  0.42408928687E+02  0.48249991440E+02  0.41800000000E+01 0.  1.
        -11    1    1    2    0    0  0.99525574037E+02 -0.86365474969E+02  0.23142279493E+03  0.26630967908E+03  0.00000000000E+00 0. -1.
         11    1    1    2    0    0  0.47985962077E+01  0.10060571487E+02 -0.34683076818E+01  0.11673507716E+02  0.00000000000E+00 0.  1.
</event>
<event>
 7    1  0.2766180E-009  0.2067459E+03  0.7561462E-02  0.1144169E+00
          1   -1    0    0  501    0  0.00000000000E+00  0.00000000000E+00  0.23103156466E+03  0.23103156466E+03  0.00000000000E+00 0. -1.
         -1   -1    0    0    0  501 -0.00000000000E+00 -0.00000000000E+00 -0.31499708171E+03  0.31499708171E+03  0.00000000000E+00 0.  1.
         25    2    1    2    0    0 -0.18345425796E+03 -0.56857828481E+02 -0.19930797020E+03  0.30374153334E+03  0.12508786779E+03 0.  0.
          5    1    3    3  502    0 -0.18745821259E+03 -0.63332928229E+02 -0.13669697542E+03  0.24053103075E+03  0.41800000000E+01 0. -1.
         -5    1    3    3    0  502  0.40039546368E+01  0.64750997481E+01 -0.62610994788E+02  0.63210502591E+02  0.41800000000E+01 0. -1.
        -11    1    1    2    0    0  0.60911255389E+00  0.20451386134E+02 -0.41076696380E+01  0.20868712533E+02  0.00000000000E+00 0.  1.
         11    1    1    2    0    0  0.18284514540E+03  0.36406442347E+02  0.11945012279E+03  0.22141840049E+03  0.00000000000E+00 0. -1.
</event>
<event>
 7    1  0.2766180E-009  0.1068036E+03  0.7561462E-02  0.1266606E+00
         -2   -1    0    0    0  501 -0.00000000000E+00  0.00000000000E+00  0.24002057080E+02  0.24002057080E+02  0.00000000000E+00 0.  1.
          2   -1    0    0  501    0  0.00000000000E+00 -0.00000000000E+00 -0.58030009127E+03  0.58030009127E+03  0.00000000000E+00 0. -1.
         25    2    1    2    0    0  0.36585722742E+02  0.29201547670E+02 -0.34090328484E+03  0.36613341659E+03  0.12508950249E+03 0.  0.
          5    1    3    3  502    0  0.63500099880E+02 -0.13669433314E+02 -0.27678536378E+03  0.28433558711E+03  0.41800000000E+01 0. -1.
         -5    1    3    3    0  502 -0.26914377138E+02  0.42870980984E+02 -0.64117921059E+02  0.81797829483E+02  0.41800000000E+01 0. -1.
        -11    1    1    2    0    0 -0.58763621664E+02  0.27550789006E+01 -0.95937091111E+02  0.11253745662E+03  0.00000000000E+00 0. -1.
         11    1    1    2    0    0  0.22177898922E+02 -0.31956626570E+02 -0.11945765824E+03  0.12563127515E+03  0.00000000000E+00 0.  1.
</event>
<event>
 7    1  0.2808292E-009  0.1166876E+03  0.7561462E-02  0.1248664E+00
         -2   -1    0    0    0  501 -0.00000000000E+00  0.00000000000E+00  0.23903380395E+02  0.23903380395E+02  0.00000000000E+00 0. -1.
          2   -1    0    0  501    0  0.00000000000E+00 -0.00000000000E+00 -0.58191578387E+03  0.58191578387E+03  0.00000000000E+00 0.  1.
         25    2    1    2    0    0 -0.34418943077E+02 -0.30326658482E+02 -0.30099101420E+03  0.32916087921E+03  0.12508766493E+03 0.  0.
          5    1    3    3  502    0 -0.15252199335E+02  0.47854308695E+02 -0.87745918992E+02  0.10119033128E+03  0.41800000000E+01 0. -1.
         -5    1    3    3    0  502 -0.19166743743E+02 -0.78180967176E+02 -0.21324509521E+03  0.22797054793E+03  0.41800000000E+01 0. -1.
        -11    1    1    2    0    0  0.40545247097E+02 -0.24387645504E+02 -0.11899351957E+03  0.12805519129E+03  0.00000000000E+00 0.  1.
         11    1    1    2    0    0 -0.61263040199E+01  0.54714303986E+02 -0.13802786970E+03  0.14860309376E+03  0.00000000000E+00 0. -1.
</event>
<event>
 7    1  0.2766180E-009  0.1177653E+03  0.7561462E-02  0.1246830E+00
         -1   -1    0    0    0  501 -0.00000000000E+00  0.00000000000E+00  0.90500638006E+02  0.90500638006E+02  0.00000000000E+00 0.  1.
          1   -1    0    0  501    0  0.00000000000E+00 -0.00000000000E+00 -0.24768573671E+03  0.24768573671E+03  0.00000000000E+00 0. -1.
         25    2    1    2    0    0  0.72014280371E+02 -0.75288461848E+02 -0.31354970403E+02  0.16578429149E+03  0.12508752165E+03 0.  0.
          5    1    3    3  502    0  0.49275984917E+02 -0.89670652996E+02 -0.65917814803E+02  0.12178497201E+03  0.41800000000E+01 0.  1.
         -5    1    3    3    0  502  0.22738295454E+02  0.14382191148E+02  0.34562844400E+02  0.43999319488E+02  0.41800000000E+01 0.  1.
        -11    1    1    2    0    0 -0.33982070788E+02  0.22188902151E+02 -0.14067655606E+02  0.42953782697E+02  0.00000000000E+00 0.  1.
         11    1    1    2    0    0 -0.38032209583E+02  0.53099559697E+02 -0.11176247270E+03  0.12944830053E+03  0.00000000000E+00 0. -1.
</event>
<event>
 7    1  0.2766180E-009  0.9021495E+02  0.7561462E-02  0.1302332E+00
         -1   -1    0    0    0  501 -0.00000000000E+00  0.00000000000E+00  0.31765953828E+03  0.31765953828E+03  0.00000000000E+00 0.  1.
          1   -1    0    0  501    0  0.00000000000E+00 -0.00000000000E+00 -0.44891508595E+02  0.44891508595E+02  0.00000000000E+00 0. -1.
         25    2    1    2    0    0  0.37933610497E+02  0.31708917064E+02  0.14762838038E+03  0.19971591711E+03  0.12509154499E+03 0.  0.
          5    1    3    3  502    0  0.34543491574E+02  0.55735557474E+02  0.15941006493E+03  0.17242026093E+03  0.41800000000E+01 0. -1.
         -5    1    3    3    0  502  0.33901189225E+01 -0.24026640411E+02 -0.11781684549E+02  0.27295656185E+02  0.41800000000E+01 0. -1.
        -11    1    1    2    0    0  0.15073694191E+02  0.13651222141E+02  0.91107888163E+00  0.20356870763E+02  0.00000000000E+00 0. -1.
         11    1    1    2    0    0 -0.53007304688E+02 -0.45360139205E+02  0.12422857043E+03  0.14247825900E+03  0.00000000000E+00 0.  1.
</event>
<event>
 7    1  0.2766180E-009  0.1140923E+03  0.7561462E-02  0.1253174E+00
          1   -1    0    0  501    0  0.00000000000E+00  0.00000000000E+00  0.51417099668E+03  0.51417099668E+03  0.00000000000E+00 0. -1.
         -1   -1    0    0    0  501 -0.00000000000E+00 -0.00000000000E+00 -0.40490729567E+02  0.40490729567E+02  0.00000000000E+00 0.  1.
         25    2    1    2    0    0  0.43960277175E+02  0.71285203804E+02  0.17002861713E+03  0.22709188810E+03  0.12508760429E+03 0.  0.
          5    1    3    3  502    0  0.53161867783E+01  0.76878167925E+02  0.17121452836E+03  0.18780415775E+03  0.41800000000E+01 0.  1.
         -5    1    3    3    0  502  0.38644090397E+02 -0.55929641211E+01 -0.11859112368E+01  0.39287730346E+02  0.41800000000E+01 0.  1.
        -11    1    1    2    0    0 -0.64006090717E+02 -0.43145941341E+02  0.13585064599E+03  0.15624899973E+03  0.00000000000E+00 0.  1.
         11    1    1    2    0    0  0.20045813541E+02 -0.28139262463E+02  0.16780100400E+03  0.17132083841E+03  0.00000000000E+00 0. -1.
</event>
<event>
 7    1  0.2766180E-009  0.7783806E+02  0.7561462E-02  0.1335301E+00
         -2   -1    0    0    0  501 -0.00000000000E+00  0.00000000000E+00  0.23117032764E+02  0.23117032764E+02  0.00000000000E+00 0.  1.
          2   -1    0    0  501    0  0.00000000000E+00 -0.00000000000E+00 -0.63544518010E+03  0.63544518010E+03  0.00000000000E+00 0. -1.
         25    2    1    2    0    0 -0.24230873614E+02  0.34906538743E+02 -0.43082814742E+03  0.45062878763E+03  0.12509120653E+03 0.  0.
          5    1    3    3  502    0 -0.48754955631E+02 -0.82943485774E+01 -0.66890056822E+02  0.83292220637E+02  0.41800000000E+01 0.  1.
         -5    1    3    3    0  502  0.24524082017E+02  0.43200887321E+02 -0.36393809060E+03  0.36733656700E+03  0.41800000000E+01 0.  1.
        -11    1    1    2    0    0  0.32853695254E+02 -0.18618326388E+02 -0.18530610606E+03  0.18911467503E+03  0.00000000000E+00 0. -1.
         11    1    1    2    0    0 -0.86228216399E+01 -0.16288212356E+02  0.38061061514E+01  0.18818750193E+02  0.00000000000E+00 0.  1.
</event>
<event>
 6    1  0.2766180E-009  0.2317089E+03  0.7561462E-02  0.1125443E+00
         -2   -1    0    0    0  501 -0.00000000000E+00  0.00000000000E+00  0.63173413598E+02  0.63173413598E+02  0.00000000000E+00 0.  1.
          2   -1    0    0  501    0  0.00000000000E+00 -0.00000000000E+00 -0.91494703868E+03  0.91494703868E+03  0.00000000000E+00 0. -1.
          5    1    1    2  502    0 -0.14261491274E+03  0.11761317757E+03 -0.24753206627E+03  0.30896839500E+03  0.41800000000E+01 0.  1.
         -5    1    1    2    0  502  0.58820574964E+01  0.46394491987E+02 -0.17006175697E+03  0.17642426440E+03  0.41800000000E+01 0.  1.
        -11    1    1    2    0    0  0.58303236155E+02 -0.13653074190E+03 -0.30346209521E+03  0.33783006683E+03  0.00000000000E+00 0. -1.
         11    1    1    2    0    0  0.78429619094E+02 -0.27476927662E+02 -0.13071770663E+03  0.15489772604E+03  0.00000000000E+00 0.  1.
</event>
<event>
 7    1  0.2766180E-009  0.7626743E+02  0.7561462E-02  0.1339991E+00
          2   -1    0    0  501    0  0.00000000000E+00  0.00000000000E+00  0.18544767623E+04  0.18544767623E+04  0.00000000000E+00 0. -1.
         -2   -1    0    0    0  501 -0.00000000000E+00 -0.00000000000E+00 -0.12318431246E+02  0.12318431246E+02  0.00000000000E+00 0.  1.
         25    2    1    2    0    0 -0.68854282036E+02  0.17915492823E+02  0.14714679586E+04  0.14784881235E+04  0.12508917265E+03 0.  0.
          5    1    3    3  502    0  0.11000942869E+01 -0.45220214691E+01  0.10883377881E+04  0.10883557655E+04  0.41800000000E+01 0.  1.
         -5    1    3    3    0  502 -0.69954376322E+02  0.22437514292E+02  0.38313017044E+03  0.39013235794E+03  0.41800000000E+01 0.  1.
        -11    1    1    2    0    0  0.58019028745E+02 -0.20539593159E+02  0.37202245599E+03  0.37707928920E+03  0.00000000000E+00 0. -1.
         11    1    1    2    0    0  0.10835253291E+02  0.26241003369E+01 -0.13320835215E+01  0.11227780857E+02  0.00000000000E+00 0.  1.
</event>
<event>
 7    1  0.2766180E-009  0.1869959E+03  0.7561462E-02  0.1161199E+00
          1   -1    0    0  501    0  0.00000000000E+00  0.00000000000E+00  0.58123666875E+02  0.58123666875E+02  0.00000000000E+00 0. -1.
         -1   -1    0    0    0  501 -0.00000000000E+00 -0.00000000000E+00 -0.71917570258E+03  0.71917570258E+03  0.00000000000E+00 0.  1.
         25    2    1    2    0    0 -0.34581645930E+02  0.16050943062E+03 -0.44832529450E+03  0.49356002907E+03  0.12508702993E+03 0.  0.
          5    1    3    3  502    0  0.25693256510E+02  0.89487654673E+02 -0.11821896354E+03  0.15053697057E+03  0.41800000000E+01 0.  1.
         -5    1    3    3    0  502 -0.60274902441E+02  0.71021775948E+02 -0.33010633096E+03  0.34302305850E+03  0.41800000000E+01 0.  1.
        -11    1    1    2    0    0  0.52288193320E-01  0.11807413974E+02 -0.16907600052E+02  0.20622431921E+02  0.00000000000E+00 0.  1.
         11    1    1    2    0    0  0.34529357737E+02 -0.17231684459E+03 -0.19581914115E+03  0.26311690846E+03  0.00000000000E+00 0. -1.
</event>
<event>
 7    1  0.2766180E-009  0.1117652E+03  0.7561462E-02  0.1257335E+00
          2   -1    0    0  501    0  0.00000000000E+00  0.00000000000E+00  0.10678405292E+03  0.10678405292E+03  0.00000000000E+00 0. -1.
         -2   -1    0    0    0  501 -0.00000000000E+00 -0.00000000000E+00 -0.13421213118E+03  0.13421213118E+03  0.00000000000E+00 0.  1.
         25    2    1    2    0    0  0.46708363567E+01  0.42065942481E+02 -0.38081568501E+02  0.13744083584E+03  0.12509363401E+03 0.  0.
          5    1    3    3  502    0  0.44075640235E+02 -0.19760297176E+02 -0.41653796924E+02  0.63919031632E+02  0.41800000000E+01 0.  1.
         -5    1    3    3    0  502 -0.39404803878E+02  0.61826239657E+02  0.35722284231E+01  0.73521804212E+02  0.41800000000E+01 0.  1.
        -11    1    1    2    0    0 -0.47461188585E+02 -0.10958708248E+02 -0.33679855722E+01  0.48826233064E+02  0.00000000000E+00 0. -1.
         11    1    1    2    0    0  0.42790352229E+02 -0.31107234232E+02  0.14021475812E+02  0.54729115189E+02  0.00000000000E+00 0.  1.
</event>
<event>
 7    1  0.2766180E-009  0.1301123E+03  0.7561462E-02  0.1227289E+00
         -2   -1    0    0    0  501 -0.00000000000E+00  0.00000000000E+00  0.55787282714E+02  0.55787282714E+02  0.00000000000E+00 0. -1.
          2   -1    0    0  501    0  0.00000000000E+00 -0.00000000000E+00 -0.47639672582E+03  0.47639672582E+03  0.00000000000E+00 0.  1.
         25    2    1    2    0    0  0.46278937280E+02  0.74534654424E+02 -0.88260399846E+02  0.17644898815E+03  0.12508873847E+03 0.  0.
          5    1    3    3  502    0  0.14738486252E+02  0.10636290104E+03 -0.67377218641E+02  0.12683631849E+03  0.41800000000E+01 0.  1.
         -5    1    3    3    0  502  0.31540451028E+02 -0.31828246618E+02 -0.20883181205E+02  0.49612669663E+02  0.41800000000E+01 0.  1.
        -11    1    1    2    0    0 -0.57852943071E+02 -0.37460882169E+02 -0.29081723114E+03  0.29887278672E+03  0.00000000000E+00 0.  1.
         11    1    1    2    0    0  0.11574005792E+02 -0.37073772255E+02 -0.41531812123E+02  0.56862233666E+02  0.00000000000E+00 0. -1.
</event>
<event>
 7    1  0.2766180E-009  0.1179066E+03  0.7561462E-02  0.1246591E+00
         -2   -1    0    0    0  501 -0.00000000000E+00  0.00000000000E+00  0.14526484874E+02  0.14526484874E+02  0.00000000000E+00 0.  1.
          2   -1    0    0  501    0  0.00000000000E+00 -0.00000000000E+00 -0.16136473190E+04  0.16136473190E+04  0.00000000000E+00 0. -1.
         25    2    1    2    0    0 -0.80772099710E+02  0.31095579130E+02 -0.11937155346E+04  0.12033682395E+04  0.12508906874E+03 0.  0.
          5    1    3    3  502    0 -0.23602923679E+02  0.48432018137E+02 -0.97807154098E+03  0.97956325476E+03  0.41800000000E+01 0.  1.
         -5    1    3    3    0  502 -0.57169176031E+02 -0.17336439007E+02 -0.21564399361E+03  0.22380498472E+03  0.41800000000E+01 0.  1.
        -11    1    1    2    0    0  0.73660971023E+02 -0.58192270464E+02 -0.25315758360E+03  0.27000192801E+03  0.00000000000E+00 0.  1.
         11    1    1    2    0    0  0.71111286865E+01  0.27096691335E+02 -0.15224771591E+03  0.15480363637E+03  0.00000000000E+00 0. -1.
</event>
<event>
 7    1  0.2766180E-009  0.2558555E+03  0.7561462E-02  0.1109659E+00
          1   -1    0    0  501    0  0.00000000000E+00  0.00000000000E+00  0.24521922063E+03  0.24521922063E+03  0.00000000000E+00 0. -1.
         -1   -1    0    0    0  501 -0.00000000000E+00 -0.00000000000E+00 -0.30218727152E+03  0.30218727152E+03  0.00000000000E+00 0.  1.
         25    2    1    2    0    0 -0.13010434201E+03  0.20490109476E+03 -0.87191218563E+02  0.28663827868E+03  0.12509035040E+03 0.  0.
          5    1    3    3  502    0 -0.34887350650E+02  0.15897882497E+03 -0.27365061063E+02  0.16509910052E+03  0.41800000000E+01 0. -1.
         -5    1    3    3    0  502 -0.95216991362E+02  0.45922269790E+02 -0.59826157499E+02  0.12153917816E+03  0.41800000000E+01 0. -1.
        -11    1    1    2    0    0  0.10297444309E+03 -0.15119231449E+03  0.61452645401E+02  0.19297481576E+03  0.00000000000E+00 0. -1.
         11    1    1    2    0    0  0.27129898920E+02 -0.53708780275E+02 -0.31229477728E+02  0.67793397711E+02  0.00000000000E+00 0.  1.
</event>
<event>
 7    1  0.2766180E-009  0.1402831E+03  0.7561462E-02  0.1212948E+00
         -1   -1    0    0    0  501 -0.00000000000E+00  0.00000000000E+00  0.39368572162E+02  0.39368572162E+02  0.00000000000E+00 0.  1.
          1   -1    0    0  501    0  0.00000000000E+00 -0.00000000000E+00 -0.70365121467E+03  0.70365121467E+03  0.00000000000E+00 0. -1.
         25    2    1    2    0    0 -0.15562179202E+02  0.12152284317E+03 -0.29254394617E+03  0.34093678095E+03  0.12508375327E+03 0.  0.
          5    1    3    3  502    0 -0.25619756600E+02  0.67051732339E+02 -0.39843182687E+02  0.82202544635E+02  0.41800000000E+01 0.  1.
         -5    1    3    3    0  502  0.10057577398E+02  0.54471110829E+02 -0.25270076348E+03  0.25873423632E+03  0.41800000000E+01 0.  1.
        -11    1    1    2    0    0 -0.23886784021E+02 -0.10920723008E+03 -0.26421817361E+03  0.28689377968E+03  0.00000000000E+00 0. -1.
         11    1    1    2    0    0  0.39448963223E+02 -0.12315613087E+02 -0.10752052273E+03  0.11518922620E+03  0.00000000000E+00 0.  1.
</event>
<event>
 7    1  0.2766180E-009  0.9133952E+02  0.7561462E-02  0.1299640E+00
         -2   -1    0    0    0  501 -0.00000000000E+00  0.00000000000E+00  0.59626744911E+02  0.59626744911E+02  0.00000000000E+00 0.  1.
          2   -1    0    0  501    0  0.00000000000E+00 -0.00000000000E+00 -0.32067885844E+03  0.32067885844E+03  0.00000000000E+00 0. -1.
         25    2    1    2    0    0 -0.76145451800E+02 -0.18034333083E+01 -0.19418659778E+03  0.24322232778E+03  0.12508910333E+03 0.  0.
          5    1    3    3  502    0 -0.62486727685E+02  0.65082191302E+01 -0.21067187048E+03  0.21987964313E+03  0.41800000000E+01 0.  1.
         -5    1    3    3    0  502 -0.13658724115E+02 -0.83116524385E+01  0.16485272698E+02  0.23342684649E+02  0.41800000000E+01 0.  1.
        -11    1    1    2    0    0  0.50669961826E+02  0.34824411410E+02 -0.72431086901E+02  0.95007615544E+02  0.00000000000E+00 0. -1.
         11    1    1    2    0    0  0.25475489974E+02 -0.33020978102E+02  0.55655711543E+01  0.42075660024E+02  0.00000000000E+00 0.  1.
</event>
<event>
 7    1  0.2766180E-009  0.1382453E+03  0.7561462E-02  0.1215710E+00
         -2   -1    0    0    0  501 -0.00000000000E+00  0.00000000000E+00  0.46846795761E+03  0.46846795761E+03  0.00000000000E+00 0. -1.
          2   -1    0    0  501    0  0.00000000000E+00 -0.00000000000E+00 -0.62547837330E+02  0.62547837330E+02  0.00000000000E+00 0.  1.
         25    2    1    2    0    0 -0.10811340500E+03 -0.39855517500E+02  0.11527100231E+03  0.20545470704E+03  0.12508901653E+03 0.  0.
          5    1    3    3  502    0 -0.23166679795E+02 -0.66903687689E+02  0.86123761756E+02  0.11156869282E+03  0.41800000000E+01 0. -1.
         -5    1    3    3    0  502 -0.84946725208E+02  0.27048170189E+02  0.29147240557E+02  0.93886014221E+02  0.41800000000E+01 0. -1.
        -11    1    1    2    0    0  0.61527485899E+02  0.14234324771E+02  0.25210005911E+03  0.25988975995E+03  0.00000000000E+00 0. -1.
         11    1    1    2    0    0  0.46585919104E+02  0.25621192729E+02  0.38549058853E+02  0.65671327945E+02  0.00000000000E+00 0.  1.
</event>
<event>
 7    1  0.2766180E-009  0.9352257E+02  0.7561462E-02  0.1294539E+00
          2   -1    0    0  501    0  0.00000000000E+00  0.00000000000E+00  0.24010630878E+03  0.24010630878E+03  0.00000000000E+00 0. -1.
         -2   -1    0    0    0  501 -0.00000000000E+00 -0.00000000000E+00 -0.60720482431E+02  0.60720482431E+02  0.00000000000E+00 0.  1.
         25    2    1    2    0    0  0.48698863862E+02  0.15412226848E+01  0.13189299525E+03  0.18819494636E+03  0.12509045101E+03 0.  0.
          5    1    3    3  502    0  0.35034041875E+02  0.52738479809E+02  0.23853679961E+02  0.67787917731E+02  0.41800000000E+01 0. -1.
         -5    1    3    3    0  502  0.13664821987E+02 -0.51197257124E+02  0.10803931529E+03  0.12040702863E+03  0.41800000000E+01 0. -1.
        -11    1    1    2    0    0 -0.51137904628E+02 -0.17686610888E+02 -0.80797977167E+01  0.54710004803E+02  0.00000000000E+00 0.  1.
         11    1    1    2    0    0  0.24390407657E+01  0.16145388203E+02  0.55572628822E+02  0.57921840045E+02  0.00000000000E+00 0. -1.
</event>
<event>
 7    1  0.2766180E-009  0.7813817E+02  0.7561462E-02  0.1334420E+00
          3   -1    0    0  501    0  0.00000000000E+00  0.00000000000E+00  0.27094603080E+02  0.27094603080E+02  0.00000000000E+00 0. -1.
         -3   -1    0    0    0  501 -0.00000000000E+00 -0.00000000000E+00 -0.52189014172E+03  0.52189014172E+03  0.00000000000E+00 0.  1.
         25    2    1    2    0    0 -0.51056636311E+02  0.25703592969E+02 -0.29561987136E+03  0.32604415416E+03  0.12508488044E+03 0.  0.
          5    1    3    3  502    0 -0.19732525433E+02  0.16151416862E+02 -0.29164995944E+03  0.29279243854E+03  0.41800000000E+01 0. -1.
         -5    1    3    3    0  502 -0.31324110878E+02  0.95521761071E+01 -0.39699119187E+01  0.33251715615E+02  0.41800000000E+01 0. -1.
        -11    1    1    2    0    0  0.57914184005E+02 -0.47292439716E+02 -0.17208917517E+03  0.18763078579E+03  0.00000000000E+00 0.  1.
         11    1    1    2    0    0 -0.68575476939E+01  0.21588846747E+02 -0.27086492109E+02  0.35309804857E+02  0.00000000000E+00 0. -1.
</event>
<event>
 7    1  0.2766180E-009  0.9539306E+02  0.7561462E-02  0.1290293E+00
         -1   -1    0    0    0  501 -0.00000000000E+00  0.00000000000E+00  0.96271751869E+02  0.96271751869E+02  0.00000000000E+00 0.  1.
          1   -1    0    0  501    0  0.00000000000E+00 -0.00000000000E+00 -0.19317209154E+03  0.19317209154E+03  0.00000000000E+00 0. -1.
         25    2    1    2    0    0  0.40015633368E+02  0.55172841602E+02 -0.43887634311E+01  0.14251997577E+03  0.12508952348E+03 0.  0.
          5    1    3    3  502    0 -0.86137680400E+00 -0.12996887063E+02  0.46216954229E+02  0.48198965772E+02  0.41800000000E+01 0.  1.
         -5    1    3    3    0  502  0.40877010172E+02  0.68169728664E+02 -0.50605717660E+02  0.94321009996E+02  0.41800000000E+01 0.  1.
        -11    1    1    2    0    0  0.95536463843E+01  0.11167565707E+02 -0.53312547649E+02  0.55301124943E+02  0.00000000000E+00 0. -1.
         11    1    1    2    0    0 -0.49569279752E+02 -0.66340407308E+02 -0.39199028589E+02  0.91622742697E+02  0.00000000000E+00 0.  1.
</event>
<event>
 7    1  0.2766180E-009  0.1076885E+03  0.7561462E-02  0.1264911E+00
         -2   -1    0    0    0  501 -0.00000000000E+00  0.00000000000E+00  0.14306145868E+03  0.14306145868E+03  0.00000000000E+00 0.  1.
          2   -1    0    0  501    0  0.00000000000E+00 -0.00000000000E+00 -0.14702433768E+03  0.14702433768E+03  0.00000000000E+00 0. -1.
         25    2    1    2    0    0 -0.42372703325E+02 -0.21442714639E+02 -0.40380737818E+02  0.13976386846E+03  0.12509236164E+03 0.  0.
          5    1    3    3  502    0  0.16521645033E+02 -0.45963876666E+02  0.18936952521E+02  0.52552100657E+02  0.41800000000E+01 0.  1.
         -5    1    3    3    0  502 -0.58894348358E+02  0.24521162027E+02 -0.59317690339E+02  0.87211767801E+02  0.41800000000E+01 0.  1.
        -11    1    1    2    0    0 -0.27551236435E+02  0.16966413073E+02  0.66589831313E+02  0.74034690760E+02  0.00000000000E+00 0.  1.
         11    1    1    2    0    0  0.69923939760E+02  0.44763015658E+01 -0.30171972494E+02  0.76287237147E+02  0.00000000000E+00 0. -1.
</event>
<event>
 7    1  0.2781512E-009  0.9338198E+02  0.7561462E-02  0.1294862E+00
          3   -1    0    0  501    0  0.00000000000E+00  0.00000000000E+00  0.25713888572E+03  0.25713888572E+03  0.00000000000E+00 0. -1.
         -3   -1    0    0    0  501 -0.00000000000E+00 -0.00000000000E+00 -0.58283575259E+02  0.58283575259E+02  0.00000000000E+00 0.  1.
         25    2    1    2    0    0  0.53290402816E+02  0.10250604023E+02  0.89646655918E+02  0.16318035591E+03  0.12508542570E+03 0.  0.
          5    1    3    3  502    0  0.62333317510E+02 -0.27404677626E+02  0.10165174806E+03  0.12242144057E+03  0.41800000000E+01 0. -1.
         -5    1    3    3    0  502 -0.90429146944E+01  0.37655281649E+02 -0.12005092142E+02  0.40758915338E+02  0.41800000000E+01 0. -1.
        -11    1    1    2    0    0  0.58957874295E+01  0.14337957800E+02  0.80563145879E+02  0.82041195855E+02  0.00000000000E+00 0. -1.
         11    1    1    2    0    0 -0.59186190245E+02 -0.24588561822E+02  0.28645508663E+02  0.70200909216E+02  0.00000000000E+00 0.  1.
</event>
<event>
 7    1  0.2766180E-009  0.1189742E+03  0.7561462E-02  0.1244799E+00
          2   -1    0    0  501    0  0.00000000000E+00  0.00000000000E+00  0.28402713549E+03  0.28402713549E+03  0.00000000000E+00 0. -1.
         -2   -1    0    0    0  501 -0.00000000000E+00 -0.00000000000E+00 -0.99904878359E+02  0.99904878359E+02  0.00000000000E+00 0.  1.
         25    2    1    2    0    0  0.84922302430E+02  0.74102410890E+02  0.28552153917E+02  0.17078084855E+03  0.12509159839E+03 0.  0.
          5    1    3    3  502    0  0.63584168611E+02  0.50711408676E+02 -0.43240561678E+02  0.92205271227E+02  0.41800000000E+01 0. -1.
         -5    1    3    3    0  502  0.21338133819E+02  0.23391002215E+02  0.71792715595E+02  0.78575577325E+02  0.41800000000E+01 0. -1.
        -11    1    1    2    0    0 -0.16124401684E+02 -0.48595179249E+02  0.12230292245E+03  0.13258767897E+03  0.00000000000E+00 0. -1.
         11    1    1    2    0    0 -0.68797900746E+02 -0.25507231641E+02  0.33267180771E+02  0.80563486329E+02  0.00000000000E+00 0.  1.
</event>
<event>
 7    1  0.3426561E-009  0.9687169E+02  0.7561462E-02  0.1287015E+00
         -1   -1    0    0    0  501 -0.00000000000E+00  0.00000000000E+00  0.21051481329E+03  0.21051481329E+03  0.00000000000E+00 0.  1.
          1   -1    0    0  501    0  0.00000000000E+00 -0.00000000000E+00 -0.95688151277E+02  0.95688151277E+02  0.00000000000E+00 0. -1.
         25    2    1    2    0    0 -0.52306484074E+02 -0.17810633456E+02  0.14041834083E+03  0.19600445917E+03  0.12508897085E+03 0.  0.
          5    1    3    3  502    0 -0.24391106329E+02 -0.51237020740E+02  0.91421227871E+01  0.57629932946E+02  0.41800000000E+01 0.  1.
         -5    1    3    3    0  502 -0.27915377745E+02  0.33426387285E+02  0.13127621805E+03  0.13837452622E+03  0.41800000000E+01 0.  1.
        -11    1    1    2    0    0  0.44557723591E+02 -0.23972818125E+02  0.13595998200E+02  0.52392155019E+02  0.00000000000E+00 0.  1.
         11    1    1    2    0    0  0.77487604824E+01  0.41783451580E+02 -0.39187677018E+02  0.57806350387E+02  0.00000000000E+00 0. -1.
</event>
<event>
 7    1  0.2766180E-009  0.1848035E+03  0.7561462E-02  0.1163234E+00
          2   -1    0    0  501    0  0.00000000000E+00  0.00000000000E+00  0.17094156201E+04  0.17094156201E+04  0.00000000000E+00 0. -1.
         -2   -1    0    0    0  501 -0.00000000000E+00 -0.00000000000E+00 -0.22784145612E+02  0.22784145612E+02  0.00000000000E+00 0.  1.
         25    2    1    2    0    0 -0.63424188873E+02 -0.14311741601E+03  0.67568195254E+03  0.70476925840E+03  0.12509350143E+03 0.  0.
          5    1    3    3  502    0  0.21212986410E+02 -0.76536250358E+02  0.41733935684E+03  0.42484985533E+03  0.41800000000E+01 0.  1.
         -5    1    3    3    0  502 -0.84637175283E+02 -0.66581165652E+02  0.25834259570E+03  0.27991940307E+03  0.41800000000E+01 0.  1.
        -11    1    1    2    0    0 -0.81153021999E+01 -0.10250961034E+02  0.49335453883E+02  0.51038488827E+02  0.00000000000E+00 0.  1.
         11    1    1    2    0    0  0.71539491073E+02  0.15336837704E+03  0.96161406811E+03  0.97639201853E+03  0.00000000000E+00 0. -1.
</event>
<event>
 7    1  0.2766180E-009  0.1947398E+03  0.7561462E-02  0.1154254E+00
          1   -1    0    0  501    0  0.00000000000E+00  0.00000000000E+00  0.12220190805E+04  0.12220190805E+04  0.00000000000E+00 0. -1.
         -1   -1    0    0    0  501 -0.00000000000E+00 -0.00000000000E+00 -0.36298912713E+02  0.36298912713E+02  0.00000000000E+00 0.  1.
         25    2    1    2    0    0 -0.56364215557E+02  0.16033763762E+03  0.78407893140E+03  0.81198242691E+03  0.12510239055E+03 0.  0.
          5    1    3    3  502    0 -0.17201873041E+02  0.16044942049E+03  0.70962268592E+03  0.72775115922E+03  0.41800000000E+01 0. -1.
         -5    1    3    3    0  502 -0.39162342517E+02 -0.11178286906E+00  0.74456245475E+02  0.84231267693E+02  0.41800000000E+01 0. -1.
        -11    1    1    2    0    0  0.63058136132E+02 -0.56648325214E+02  0.23643029618E+03  0.25116657069E+03  0.00000000000E+00 0.  1.
         11    1    1    2    0    0 -0.66939205743E+01 -0.10368931241E+03  0.16521094020E+03  0.19516899559E+03  0.00000000000E+00 0. -1.
</event>
<event>
 7    1  0.2766180E-009  0.1021498E+03  0.7561462E-02  0.1275839E+00
          2   -1    0    0  501    0  0.00000000000E+00  0.00000000000E+00  0.58320110259E+02  0.58320110259E+02  0.00000000000E+00 0. -1.
         -2   -1    0    0    0  501 -0.00000000000E+00 -0.00000000000E+00 -0.22907466383E+03  0.22907466383E+03  0.00000000000E+00 0.  1.
         25    2    1    2    0    0 -0.75307592591E+01  0.28436570745E+02 -0.12959814347E+03  0.18250616399E+03  0.12508984857E+03 0.  0.
          5    1    3    3  502    0  0.17402386761E+02  0.72678189374E+02 -0.58320469912E+02  0.94887891148E+02  0.41800000000E+01 0. -1.
         -5    1    3    3    0  502 -0.24933146020E+02 -0.44241618629E+02 -0.71277673554E+02  0.87618272847E+02  0.41800000000E+01 0. -1.
        -11    1    1    2    0    0 -0.31063391219E+02 -0.24763732150E+02 -0.51234369531E+02  0.64831607456E+02  0.00000000000E+00 0. -1.
         11    1    1    2    0    0  0.38594150478E+02 -0.36728385955E+01  0.10077959423E+02  0.40057002641E+02  0.00000000000E+00 0.  1.
</event>
<event>
 7    1  0.2766180E-009  0.1455959E+03  0.7561462E-02  0.1205992E+00
         -1   -1    0    0    0  501 -0.00000000000E+00  0.00000000000E+00  0.68612234155E+02  0.68612234155E+02  0.00000000000E+00 0.  1.
          1   -1    0    0  501    0  0.00000000000E+00 -0.00000000000E+00 -0.41684357072E+03  0.41684357072E+03  0.00000000000E+00 0. -1.
         25    2    1    2    0    0 -0.17163131752E+02  0.10587226030E+03 -0.28908255780E+03  0.33274572625E+03  0.12508990577E+03 0.  0.
          5    1    3    3  502    0  0.98440692235E+01  0.12669075884E+03 -0.25160612947E+03  0.28190525157E+03  0.41800000000E+01 0.  1.
         -5    1    3    3    0  502 -0.27007200975E+02 -0.20818498542E+02 -0.37476428328E+02  0.50840474686E+02  0.41800000000E+01 0.  1.
        -11    1    1    2    0    0  0.37970561092E+02 -0.10158702014E+03 -0.23125973308E+02  0.11088957035E+03  0.00000000000E+00 0.  1.
         11    1    1    2    0    0 -0.20807429340E+02 -0.42852401542E+01 -0.36022805458E+02  0.41820508271E+02  0.00000000000E+00 0. -1.
</event>
<event>
 7    1  0.2766180E-009  0.9834038E+02  0.7561462E-02  0.1283825E+00
          2   -1    0    0  501    0  0.00000000000E+00  0.00000000000E+00  0.61013630570E+02  0.61013630570E+02  0.00000000000E+00 0. -1.
         -2   -1    0    0    0  501 -0.00000000000E+00 -0.00000000000E+00 -0.21639089898E+03  0.21639089898E+03  0.00000000000E+00 0.  1.
         25    2    1    2    0    0 -0.31208313174E+02 -0.17443793667E+02 -0.97860394330E+02  0.16279581062E+03  0.12509026512E+03 0.  0.
          5    1    3    3  502    0  0.17941028751E+02  0.26028279713E+02 -0.91313934099E+02  0.96721553017E+02  0.41800000000E+01 0.  1.
         -5    1    3    3    0  502 -0.49149341924E+02 -0.43472073380E+02 -0.65464602315E+01  0.66074257598E+02  0.41800000000E+01 0.  1.
        -11    1    1    2    0    0  0.78313200913E+01  0.54592794938E+02 -0.34408761809E+02  0.65005120742E+02  0.00000000000E+00 0. -1.
         11    1    1    2    0    0  0.23376993083E+02 -0.37149001270E+02 -0.23108112272E+02  0.49603598193E+02  0.00000000000E+00 0.  1.
</event>
<event>
 7    1  0.2766180E-009  0.1255419E+03  0.7561462E-02  0.1234225E+00
         -1   -1    0    0    0  501 -0.00000000000E+00  0.00000000000E+00  0.79482588009E+02  0.79482588009E+02  0.00000000000E+00 0.  1.
          1   -1    0    0  501    0  0.00000000000E+00 -0.00000000000E+00 -0.36250600607E+03  0.36250600607E+03  0.00000000000E+00 0. -1.
         25    2    1    2    0    0 -0.60110277024E+02  0.76801630632E+02 -0.25653815200E+03  0.30161433087E+03  0.12509054835E+03 0.  0.
          5    1    3    3  502    0 -0.70043514540E+02  0.79763230860E+02 -0.26634224501E+03  0.28674715483E+03  0.41800000000E+01 0. -1.
         -5    1    3    3    0  502  0.99332375162E+01 -0.29616002279E+01  0.98040930183E+01  0.14867176039E+02  0.41800000000E+01 0. -1.
        -11    1    1    2    0    0 -0.58038458382E+01 -0.66744044592E+02  0.38806410521E+01  0.67108207322E+02  0.00000000000E+00 0. -1.
         11    1    1    2    0    0  0.65914122862E+02 -0.10057586040E+02 -0.30365907116E+02  0.73266055883E+02  0.00000000000E+00 0.  1.
</event>
<event>
 7    1  0.2766180E-009  0.2863631E+03  0.7561462E-02  0.1092263E+00
          2   -1    0    0  501    0  0.00000000000E+00  0.00000000000E+00  0.89102270384E+03  0.89102270384E+03  0.00000000000E+00 0. -1.
         -2   -1    0    0    0  501 -0.00000000000E+00 -0.00000000000E+00 -0.11868354906E+03  0.11868354906E+03  0.00000000000E+00 0.  1.
         25    2    1    2    0    0  0.44820195536E+02  0.27002983937E+03  0.17985482275E+03  0.35060099444E+03  0.12509330900E+03 0.  0.
          5    1    3    3  502    0 -0.23742047661E+02  0.47628066966E+01  0.37069829287E+01  0.24851222852E+02  0.41800000000E+01 0. -1.
         -5    1    3    3    0  502  0.68562243197E+02  0.26526703267E+03  0.17614783982E+03  0.32574977158E+03  0.41800000000E+01 0. -1.
        -11    1    1    2    0    0 -0.62696254746E+01 -0.79453798977E+02  0.89476902613E+02  0.11982625120E+03  0.00000000000E+00 0.  1.
         11    1    1    2    0    0 -0.38550570061E+02 -0.19057604039E+03  0.50300742942E+03  0.53927900727E+03  0.00000000000E+00 0. -1.
</event>
<event>
 7    1  0.2766180E-009  0.5860883E+02  0.7561462E-02  0.1403764E+00
          2   -1    0    0  501    0  0.00000000000E+00  0.00000000000E+00  0.70470971862E+03  0.70470971862E+03  0.00000000000E+00 0. -1.
         -2   -1    0    0    0  501 -0.00000000000E+00 -0.00000000000E+00 -0.25761354413E+02  0.25761354413E+02  0.00000000000E+00 0.  1.
         25    2    1    2    0    0 -0.77789919612E+00 -0.19522082095E+02  0.58491757284E+03  0.59846216722E+03  0.12508669699E+03 0.  0.
          5    1    3    3  502    0 -0.65254638910E+01  0.10071007905E+02 -0.45874016854E-01  0.12707532556E+02  0.41800000000E+01 0.  1.
         -5    1    3    3    0  502  0.57475646949E+01 -0.29593090000E+02  0.58496344685E+03  0.58575463466E+03  0.41800000000E+01 0.  1.
        -11    1    1    2    0    0 -0.35202430800E+02  0.64136576436E+01  0.63640179066E+01  0.36343456942E+02  0.00000000000E+00 0.  1.
         11    1    1    2    0    0  0.35980329996E+02  0.13108424451E+02  0.87666773468E+02  0.95665448875E+02  0.00000000000E+00 0. -1.
</event>
<event>
 7    1  0.2766180E-009  0.1075187E+03  0.7561462E-02  0.1265235E+00
          2   -1    0    0  501    0  0.00000000000E+00  0.00000000000E+00  0.16908202100E+03  0.16908202100E+03  0.00000000000E+00 0.  1.
         -2   -1    0    0    0  501 -0.00000000000E+00 -0.00000000000E+00 -0.78762644409E+02  0.78762644409E+02  0.00000000000E+00 0. -1.
         25    2    1    2    0    0  0.20424767973E+02 -0.58156434459E+01  0.18850122313E+02  0.12827176007E+03  0.12508926598E+03 0.  0.
          5    1    3    3  502    0  0.68387021296E+02 -0.21823545904E+02  0.27150998553E+02  0.76861570112E+02  0.41800000000E+01 0. -1.
         -5    1    3    3    0  502 -0.47962253324E+02  0.16007902458E+02 -0.83008762395E+01  0.51410189956E+02  0.41800000000E+01 0. -1.
        -11    1    1    2    0    0 -0.52711056607E+02  0.20970325873E+02  0.58848828066E+02  0.81739798266E+02  0.00000000000E+00 0. -1.
         11    1    1    2    0    0  0.32286288634E+02 -0.15154682427E+02  0.12620426211E+02  0.37833107075E+02  0.00000000000E+00 0.  1.
</event>
<event>
 7    1  0.2766180E-009  0.1399625E+03  0.7561462E-02  0.1213379E+00
         -1   -1    0    0    0  501 -0.00000000000E+00  0.00000000000E+00  0.43074935001E+03  0.43074935001E+03  0.00000000000E+00 0.  1.
          1   -1    0    0  501    0  0.00000000000E+00 -0.00000000000E+00 -0.57119588426E+02  0.57119588426E+02  0.00000000000E+00 0. -1.
         25    2    1    2    0    0  0.47432981008E+01  0.10457658396E+03  0.13768659011E+03  0.21345769227E+03  0.12509128069E+03 0.  0.
          5    1    3    3  502    0  0.49225935714E+02  0.26656966704E+01  0.59900514135E+02  0.77690685923E+02  0.41800000000E+01 0.  1.
         -5    1    3    3    0  502 -0.44482637613E+02  0.10191088729E+03  0.77786075972E+02  0.13576700634E+03  0.41800000000E+01 0.  1.
        -11    1    1    2    0    0 -0.20083102540E+02 -0.83761130888E+01  0.30595356277E+01  0.21973871674E+02  0.00000000000E+00 0. -1.
         11    1    1    2    0    0  0.15339804439E+02 -0.96200470868E+02  0.23288363585E+03  0.25243737449E+03  0.00000000000E+00 0.  1.
</event>
<event>
 7    1  0.2766180E-009  0.8015530E+02  0.7561462E-02  0.1328611E+00
          1   -1    0    0  501    0  0.00000000000E+00  0.00000000000E+00  0.85028381751E+03  0.85028381751E+03  0.00000000000E+00 0. -1.
         -1   -1    0    0    0  501 -0.00000000000E+00 -0.00000000000E+00 -0.23921830089E+02  0.23921830089E+02  0.00000000000E+00 0.  1.
         25    2    1    2    0    0 -0.56826573838E+02  0.36069659413E+02  0.62353123003E+03  0.63950677169E+03  0.12508971339E+03 0.  0.
          5    1    3    3  502    0 -0.67497112283E+01  0.37633595556E+02  0.46748693457E+02  0.60537251805E+02  0.41800000000E+01 0.  1.
         -5    1    3    3    0  502 -0.50076862609E+02 -0.15639361430E+01  0.57678253657E+03  0.57896951989E+03  0.41800000000E+01 0.  1.
        -11    1    1    2    0    0  0.27161163998E+02 -0.31442094702E+02  0.20030474481E+03  0.20456863137E+03  0.00000000000E+00 0. -1.
         11    1    1    2    0    0  0.29665409839E+02 -0.46275647106E+01  0.25260125837E+01  0.30130244534E+02  0.00000000000E+00 0.  1.
</event>
<event>
 7    1  0.3117133E-009  0.1782701E+03  0.7561462E-02  0.1169488E+00
          2   -1    0    0  501    0  0.00000000000E+00  0.00000000000E+00  0.58065329355E+03  0.58065329355E+03  0.00000000000E+00 0. -1.
         -2   -1    0    0    0  501 -0.00000000000E+00 -0.00000000000E+00 -0.84327212063E+02  0.84327212063E+02  0.00000000000E+00 0.  1.
         25    2    1    2    0    0  0.17263634066E+03  0.22567539677E+02  0.13397346906E+03  0.25280230820E+03  0.12509003420E+03 0.  0.
          5    1    3    3  502    0  0.15239716932E+03  0.37203582023E+02  0.49401885823E+02  0.16452058368E+03  0.41800000000E+01 0.  1.
         -5    1    3    3    0  502  0.20239171335E+02 -0.14636042346E+02  0.84571583242E+02  0.88281724518E+02  0.41800000000E+01 0.  1.
        -11    1    1    2    0    0 -0.85921065060E+02 -0.15255198433E+02  0.27646044334E+03  0.28990606622E+03  0.00000000000E+00 0. -1.
         11    1    1    2    0    0 -0.86715275597E+02 -0.73123412443E+01  0.85892169091E+02  0.12227213120E+03  0.00000000000E+00 0.  1.
</event>
<event>
 7    1  0.2766180E-009  0.1192157E+03  0.7561462E-02  0.1244397E+00
          3   -1    0    0  501    0  0.00000000000E+00  0.00000000000E+00  0.17223100306E+02  0.17223100306E+02  0.00000000000E+00 0. -1.
         -3   -1    0    0    0  501 -0.00000000000E+00 -0.00000000000E+00 -0.88580370630E+03  0.88580370630E+03  0.00000000000E+00 0.  1.
         25    2    1    2    0    0 -0.57823168877E+02  0.15202574393E+02 -0.50373166848E+03  0.52246310961E+03  0.12508984748E+03 0.  0.
          5    1    3    3  502    0 -0.49975547579E+02 -0.46507288960E+02 -0.34907218065E+03  0.35570963297E+03  0.41800000000E+01 0.  1.
         -5    1    3    3    0  502 -0.78476212976E+01  0.61709863353E+02 -0.15465948783E+03  0.16675347664E+03  0.41800000000E+01 0.  1.
        -11    1    1    2    0    0  0.67061759530E+02 -0.42145622748E+02 -0.28429890569E+03  0.29512607625E+03  0.00000000000E+00 0.  1.
         11    1    1    2    0    0 -0.92385906538E+01  0.26943048355E+02 -0.80550031821E+02  0.85437620744E+02  0.00000000000E+00 0. -1.
</event>
<event>
 7    1  0.2766180E-009  0.1201181E+03  0.7561462E-02  0.1242902E+00
         -2   -1    0    0    0  501 -0.00000000000E+00  0.00000000000E+00  0.22678572727E+03  0.22678572727E+03  0.00000000000E+00 0. -1.
          2   -1    0    0  501    0  0.00000000000E+00 -0.00000000000E+00 -0.84434985276E+02  0.84434985276E+02  0.00000000000E+00 0.  1.
         25    2    1    2    0    0  0.11185179131E+02  0.82312214153E+02  0.50181314319E+02  0.15832198777E+03  0.12508908295E+03 0.  0.
          5    1    3    3  502    0  0.56539992683E+02  0.85988344139E+02  0.44776273274E+02  0.11230829510E+03  0.41800000000E+01 0.  1.
         -5    1    3    3    0  502 -0.45354813552E+02 -0.36761299855E+01  0.54050410457E+01  0.46013692666E+02  0.41800000000E+01 0.  1.
        -11    1    1    2    0    0 -0.16073303770E+02 -0.97106694234E+01  0.76095765234E+02  0.78378655776E+02  0.00000000000E+00 0. -1.
         11    1    1    2    0    0  0.48881246394E+01 -0.72601544730E+02  0.16073662438E+02  0.74520069001E+02  0.00000000000E+00 0.  1.
</event>
<event>
 7    1  0.2766180E-009  0.1933438E+03  0.7561462E-02  0.1155480E+00
          1   -1    0    0  501    0  0.00000000000E+00  0.00000000000E+00  0.14031023246E+03  0.14031023246E+03  0.00000000000E+00 0. -1.
         -1   -1    0    0    0  501 -0.00000000000E+00 -0.00000000000E+00 -0.30465187976E+03  0.30465187976E+03  0.00000000000E+00 0.  1.
         25    2    1    2    0    0  0.47018100359E+01  0.16695813632E+03 -0.25962316479E+02  0.21028276133E+03  0.12509065327E+03 0.  0.
          5    1    3    3  502    0  0.23947437982E+02 -0.12206101928E+02  0.42278459412E+01  0.27528454216E+02  0.41800000000E+01 0.  1.
         -5    1    3    3    0  502 -0.19245627947E+02  0.17916423825E+03 -0.30190162420E+02  0.18275430711E+03  0.41800000000E+01 0.  1.
        -11    1    1    2    0    0 -0.26515712914E+02 -0.27924728727E+02 -0.17740475614E+01  0.38548939682E+02  0.00000000000E+00 0. -1.
         11    1    1    2    0    0  0.21813902878E+02 -0.13903340759E+03 -0.13660528326E+03  0.19613041120E+03  0.00000000000E+00 0.  1.
</event>
<event>
 7    1  0.2766180E-009  0.1238468E+03  0.7561462E-02  0.1236883E+00
          2   -1    0    0  501    0  0.00000000000E+00  0.00000000000E+00  0.19920743990E+04  0.19920743990E+04  0.00000000000E+00 0. -1.
         -2   -1    0    0    0  501 -0.00000000000E+00 -0.00000000000E+00 -0.99111866146E+01  0.99111866146E+01  0.00000000000E+00 0.  1.
         25    2    1    2    0    0  0.42295487141E+02 -0.61321555159E+02  0.14311683585E+04  0.14385546211E+04  0.12508911333E+03 0.  0.
          5    1    3    3  502    0 -0.32970747138E+02 -0.41786814026E+02  0.91381158071E+03  0.91537002651E+03  0.41800000000E+01 0.  1.
         -5    1    3    3    0  502  0.75266234278E+02 -0.19534741133E+02  0.51735677774E+03  0.52318459459E+03  0.41800000000E+01 0.  1.
        -11    1    1    2    0    0 -0.46761378170E+02 -0.75901772641E+01  0.26627296795E+03  0.27045430435E+03  0.00000000000E+00 0. -1.
         11    1    1    2    0    0  0.44658910295E+01  0.68911732423E+02  0.28472188596E+03  0.29297666015E+03  0.00000000000E+00 0.  1.
</event>
<event>
 7    1  0.2766180E-009  0.9091350E+02  0.7561462E-02  0.1300654E+00
          1   -1    0    0  501    0  0.00000000000E+00  0.00000000000E+00  0.94451169113E+03  0.94451169113E+03  0.00000000000E+00 0. -1.
         -1   -1    0    0    0  501 -0.00000000000E+00 -0.00000000000E+00 -0.13566800136E+02  0.13566800136E+02  0.00000000000E+00 0.  1.
         25    2    1    2    0    0  0.27465294593E+01 -0.32480358342E+02  0.51550654651E+03  0.53146387981E+03  0.12507733184E+03 0.  0.
          5    1    3    3  502    0 -0.12758204440E+02  0.25387164430E+02  0.27452710783E+02  0.39729128202E+02  0.41800000000E+01 0.  1.
         -5    1    3    3    0  502  0.15504733899E+02 -0.57867522773E+02  0.48805383573E+03  0.49173475161E+03  0.41800000000E+01 0.  1.
        -11    1    1    2    0    0  0.38431810694E+01 -0.29991005173E+02  0.84008271560E+02  0.89283929811E+02  0.00000000000E+00 0.  1.
         11    1    1    2    0    0 -0.65897105287E+01  0.62471363515E+02  0.33143007292E+03  0.33733068165E+03  0.00000000000E+00 0. -1.
</event>
<event>
 7    1  0.2766180E-009  0.9372602E+02  0.7561462E-02  0.1294071E+00
         -1   -1    0    0    0  501 -0.00000000000E+00  0.00000000000E+00  0.22385065435E+03  0.22385065435E+03  0.00000000000E+00 0.  1.
          1   -1    0    0  501    0  0.00000000000E+00 -0.00000000000E+00 -0.89710977331E+02  0.89710977331E+02  0.00000000000E+00 0. -1.
         25    2    1    2    0    0  0.15238793188E+02 -0.89044429693E+02  0.88130060807E+02  0.17768844465E+03  0.12508055191E+03 0.  0.
          5    1    3    3  502    0  0.13936768331E+02 -0.19140566480E+02 -0.31159156309E+02  0.39356831918E+02  0.41800000000E+01 0. -1.
         -5    1    3    3    0  502  0.13020248571E+01 -0.69903863213E+02  0.11928921712E+03  0.13833161273E+03  0.41800000000E+01 0. -1.
        -11    1    1    2    0    0  0.11957048161E+01  0.59880199841E+02  0.71882871773E+02  0.93563963668E+02  0.00000000000E+00 0.  1.
         11    1    1    2    0    0 -0.16434498004E+02  0.29164229853E+02 -0.25873255566E+02  0.42309223358E+02  0.00000000000E+00 0. -1.
</event>
<event>
 7    1  0.2766180E-009  0.9921685E+02  0.7561462E-02  0.1281951E+00
          1   -1    0    0  501    0  0.00000000000E+00  0.00000000000E+00  0.51521099965E+03  0.51521099965E+03  0.00000000000E+00 0. -1.
         -1   -1    0    0    0  501 -0.00000000000E+00 -0.00000000000E+00 -0.28170972144E+02  0.28170972144E+02  0.00000000000E+00 0.  1.
         25    2    1    2    0    0  0.32277646769E+02  0.13338738392E+01  0.33593187112E+03  0.35991911338E+03  0.12509164816E+03 0.  0.
          5    1    3    3  502    0  0.41856242307E+02  0.40355646561E+02  0.70717803975E+02  0.91646076994E+02  0.41800000000E+01 0. -1.
         -5    1    3    3    0  502 -0.95785955374E+01 -0.39021772722E+02  0.26521406715E+03  0.26827303639E+03  0.41800000000E+01 0. -1.
        -11    1    1    2    0    0  0.25748955747E+02 -0.26090906744E+02  0.82393191007E+02  0.90179720898E+02  0.00000000000E+00 0. -1.
         11    1    1    2    0    0 -0.58026602517E+02  0.24757032905E+02  0.68714965373E+02  0.93283137512E+02  0.00000000000E+00 0.  1.
</event>
<event>
 7    1  0.2766180E-009  0.1053788E+03  0.7561462E-02  0.1269375E+00
         -2   -1    0    0    0  501 -0.00000000000E+00  0.00000000000E+00  0.20555587184E+03  0.20555587184E+03  0.00000000000E+00 0.  1.
          2   -1    0    0  501    0  0.00000000000E+00 -0.00000000000E+00 -0.71456452351E+02  0.71456452351E+02  0.00000000000E+00 0. -1.
         25    2    1    2    0    0 -0.10006473621E+02 -0.49868506116E+02  0.58676739171E+02  0.14723169722E+03  0.12508883055E+03 0.  0.
          5    1    3    3  502    0  0.44063314637E+01  0.41466737032E+02  0.24616227489E+02  0.48603879401E+02  0.41800000000E+01 0. -1.
         -5    1    3    3    0  502 -0.14412805085E+02 -0.91335243149E+02  0.34060511682E+02  0.98627817818E+02  0.41800000000E+01 0. -1.
        -11    1    1    2    0    0  0.28781587768E+02  0.49793515302E+02  0.89449890522E+02  0.10634404955E+03  0.00000000000E+00 0.  1.
         11    1    1    2    0    0 -0.18775114147E+02  0.74990814262E-01 -0.14027210207E+02  0.23436577417E+02  0.00000000000E+00 0. -1.
</event>
<event>
 7    1  0.2766180E-009  0.2174192E+03  0.7561462E-02  0.1135822E+00
         -2   -1    0    0    0  501 -0.00000000000E+00  0.00000000000E+00  0.28247932443E+03  0.28247932443E+03  0.00000000000E+00 0.  1.
          2   -1    0    0  501    0  0.00000000000E+00 -0.00000000000E+00 -0.17448904772E+03  0.17448904772E+03  0.00000000000E+00 0. -1.
         25    2    1    2    0    0  0.84896097973E+02 -0.17338050202E+03  0.66739913755E+02  0.23952361450E+03  0.12509676209E+03 0.  0.
          5    1    3    3  502    0 -0.43224354415E+01  0.17878776633E+02  0.73189528502E+01  0.20232982303E+02  0.41800000000E+01 0. -1.
         -5    1    3    3    0  502  0.89218533415E+02 -0.19125927865E+03  0.59420960905E+02  0.21929063220E+03  0.41800000000E+01 0. -1.
        -11    1    1    2    0    0 -0.55666225126E+02  0.40522183585E+02  0.43403690696E+02  0.81391991918E+02  0.00000000000E+00 0.  1.
         11    1    1    2    0    0 -0.29229872847E+02  0.13285831843E+03 -0.21533277371E+01  0.13605276573E+03  0.00000000000E+00 0. -1.
</event>
<event>
 7    1  0.2766180E-009  0.3003584E+03  0.7561462E-02  0.1085062E+00
         -2   -1    0    0    0  501 -0.00000000000E+00  0.00000000000E+00  0.45002703829E+02  0.45002703829E+02  0.00000000000E+00 0.  1.
          2   -1    0    0  501    0  0.00000000000E+00 -0.00000000000E+00 -0.21086931018E+04  0.21086931018E+04  0.00000000000E+00 0. -1.
         25    2    1    2    0    0  0.28252738187E+03  0.56231358368E+02 -0.10941841888E+04  0.11383626378E+04  0.12508704592E+03 0.  0.
          5    1    3    3  502    0  0.27151256140E+03  0.30404105569E+02 -0.85749043303E+03  0.89997266391E+03  0.41800000000E+01 0. -1.
         -5    1    3    3    0  502  0.11014820467E+02  0.25827252799E+02 -0.23669375573E+03  0.23838997391E+03  0.41800000000E+01 0. -1.
        -11    1    1    2    0    0 -0.28209139879E+03 -0.42412340709E+02 -0.94587655290E+03  0.98795587818E+03  0.00000000000E+00 0.  1.
         11    1    1    2    0    0 -0.43598307725E+00 -0.13819017658E+02 -0.23629656292E+02  0.27377289617E+02  0.00000000000E+00 0. -1.
</event>
<event>
 7    1  0.2766180E-009  0.9217369E+02  0.7561462E-02  0.1297672E+00
          2   -1    0    0  501    0  0.00000000000E+00  0.00000000000E+00  0.25936892456E+03  0.25936892456E+03  0.00000000000E+00 0.  1.
         -2   -1    0    0    0  501 -0.00000000000E+00 -0.00000000000E+00 -0.61960757577E+02  0.61960757577E+02  0.00000000000E+00 0. -1.
         25    2    1    2    0    0 -0.41772475471E+02 -0.44951349912E+02  0.13934842556E+03  0.19705454532E+03  0.12508775543E+03 0.  0.
          5    1    3    3  502    0 -0.49852422695E+02 -0.34628353065E+02  0.16059927396E+03  0.17173813229E+03  0.41800000000E+01 0.  1.
         -5    1    3    3    0  502  0.80799472234E+01 -0.10322996847E+02 -0.21250848402E+02  0.25316413033E+02  0.41800000000E+01 0.  1.
        -11    1    1    2    0    0  0.31370331217E+02 -0.24322302550E+02  0.18072552020E+02  0.43615240668E+02  0.00000000000E+00 0.  1.
         11    1    1    2    0    0  0.10402144255E+02  0.69273652462E+02  0.39987189405E+02  0.80659896151E+02  0.00000000000E+00 0. -1.
</event>
<event>
 6    1  0.2766180E-009  0.1007221E+03  0.7561462E-02  0.1278785E+00
          1   -1    0    0  501    0  0.00000000000E+00  0.00000000000E+00  0.67015347786E+03  0.67015347786E+03  0.00000000000E+00 0. -1.
         -1   -1    0    0    0  501 -0.00000000000E+00 -0.00000000000E+00 -0.17902221139E+02  0.17902221139E+02  0.00000000000E+00 0.  1.
          5    1    1    2  502    0 -0.31179415563E+02 -0.51831485185E+02  0.99485336030E+02  0.11650520716E+03  0.41800000000E+01 0. -1.
         -5    1    1    2    0  502  0.19063084799E+02  0.48358751976E+02  0.23837174707E+03  0.24400928732E+03  0.41800000000E+01 0. -1.
        -11    1    1    2    0    0  0.39530074481E+02  0.30682167179E+02  0.21857937721E+03  0.22423417739E+03  0.00000000000E+00 0. -1.
         11    1    1    2    0    0 -0.27413743717E+02 -0.27209433970E+02  0.95814796410E+02  0.10330702712E+03  0.00000000000E+00 0.  1.
</event>
<event>
 7    1  0.2766180E-009  0.1468042E+03  0.7561462E-02  0.1204456E+00
         -2   -1    0    0    0  501 -0.00000000000E+00  0.00000000000E+00  0.44042414982E+03  0.44042414982E+03  0.00000000000E+00 0.  1.
          2   -1    0    0  501    0  0.00000000000E+00 -0.00000000000E+00 -0.58961491090E+02  0.58961491090E+02  0.00000000000E+00 0. -1.
         25    2    1    2    0    0 -0.99614808038E+02  0.69704536644E+02  0.19670913169E+03  0.26291880435E+03  0.12509989122E+03 0.  0.
          5    1    3    3  502    0 -0.11535777157E+03  0.65289045463E+02  0.20496805404E+03  0.24412998689E+03  0.41800000000E+01 0.  1.
         -5    1    3    3    0  502  0.15742963536E+02  0.44154911813E+01 -0.82589223513E+01  0.18788817464E+02  0.41800000000E+01 0.  1.
        -11    1    1    2    0    0  0.15834371504E+02  0.17215517229E+02  0.52064261952E+02  0.57077042031E+02  0.00000000000E+00 0. -1.
         11    1    1    2    0    0  0.83780436534E+02 -0.86920053873E+02  0.13268926509E+03  0.17938979453E+03  0.00000000000E+00 0.  1.
</event>
<event>
 7    1  0.2766180E-009  0.9655249E+02  0.7561462E-02  0.1287717E+00
          1   -1    0    0  501    0  0.00000000000E+00  0.00000000000E+00  0.14019488140E+03  0.14019488140E+03  0.00000000000E+00 0. -1.
         -1   -1    0    0    0  501 -0.00000000000E+00 -0.00000000000E+00 -0.14002271314E+03  0.14002271314E+03  0.00000000000E+00 0.  1.
         25    2    1    2    0    0 -0.24675080529E+02  0.57266551472E+02  0.62733044536E+02  0.15320301901E+03  0.12508961844E+03 0.  0.
          5    1    3    3  502    0 -0.52215299976E+02  0.41746790518E+02 -0.15472350694E+02  0.68746622507E+02  0.41800000000E+01 0. -1.
         -5    1    3    3    0  502  0.27540219447E+02  0.15519760954E+02  0.78205395231E+02  0.84456396504E+02  0.41800000000E+01 0. -1.
        -11    1    1    2    0    0  0.48531555962E+02 -0.49053857909E+02 -0.72323256472E+02  0.99961224115E+02  0.00000000000E+00 0.  1.
         11    1    1    2    0    0 -0.23856475433E+02 -0.82126935629E+01  0.97623801940E+01  0.27053351413E+02  0.00000000000E+00 0. -1.
</event>
<event>
 7    1  0.2766180E-009  0.1565099E+03  0.7561462E-02  0.1192694E+00
         -1   -1    0    0    0  501 -0.00000000000E+00  0.00000000000E+00  0.46678029893E+03  0.46678029893E+03  0.00000000000E+00 0.  1.
          1   -1    0    0  501    0  0.00000000000E+00 -0.00000000000E+00 -0.76048270311E+02  0.76048270311E+02  0.00000000000E+00 0. -1.
         25    2    1    2    0    0 -0.14855306636E+02  0.12572928301E+03  0.80555898032E+02  0.19535806469E+03  0.12508792104E+03 0.  0.
          5    1    3    3  502    0 -0.56380826172E+01 -0.22642449314E+02  0.30103346181E+02  0.38316476063E+02  0.41800000000E+01 0.  1.
         -5    1    3    3    0  502 -0.92172240185E+01  0.14837173232E+03  0.50452551850E+02  0.15704158863E+03  0.41800000000E+01 0.  1.
        -11    1    1    2    0    0 -0.23934894680E+02 -0.42588571691E+02  0.19055727491E+03  0.19671995486E+03  0.00000000000E+00 0.  1.
         11    1    1    2    0    0  0.38790201315E+02 -0.83140711315E+02  0.11961885568E+03  0.15075054968E+03  0.00000000000E+00 0. -1.
</event>
<event>
 6    1  0.2766180E-009  0.1405289E+03  0.7561462E-02  0.1212619E+00
         -1   -1    0    0    0  501 -0.00000000000E+00  0.00000000000E+00  0.12585001595E+03  0.12585001595E+03  0.00000000000E+00 0.  1.
          1   -1    0    0  501    0  0.00000000000E+00 -0.00000000000E+00 -0.23714085110E+03  0.23714085110E+03  0.00000000000E+00 0. -1.
          5    1    1    2  502    0 -0.91716643949E+01 -0.24259505228E+02 -0.46725646634E+02  0.53604118079E+02  0.41800000000E+01 0.  1.
         -5    1    1    2    0  502 -0.11705714075E+03  0.22913008294E+02  0.36399125025E+02  0.12477879969E+03  0.41800000000E+01 0.  1.
        -11    1    1    2    0    0  0.75793587280E+02 -0.23309134415E+02 -0.10107524002E+03  0.12846862561E+03  0.00000000000E+00 0. -1.
         11    1    1    2    0    0  0.50435217862E+02  0.24655631349E+02  0.11092648956E+00  0.56139323675E+02  0.00000000000E+00 0.  1.
</event>
<event>
 7    1  0.2766180E-009  0.7913729E+02  0.7561462E-02  0.1331518E+00
          2   -1    0    0  501    0  0.00000000000E+00  0.00000000000E+00  0.33411533151E+03  0.33411533151E+03  0.00000000000E+00 0.  1.
         -2   -1    0    0    0  501 -0.00000000000E+00 -0.00000000000E+00 -0.42619561939E+02  0.42619561939E+02  0.00000000000E+00 0. -1.
         25    2    1    2    0    0 -0.46665322409E+01  0.38055514416E+02  0.21087880309E+03  0.24817101626E+03  0.12509590328E+03 0.  0.
          5    1    3    3  502    0 -0.28581575830E+02  0.14969202833E+02  0.21216449322E+03  0.21464442246E+03  0.41800000000E+01 0. -1.
         -5    1    3    3    0  502  0.23915043589E+02  0.23086311582E+02 -0.12856901330E+01  0.33526593794E+02  0.41800000000E+01 0. -1.
        -11    1    1    2    0    0  0.22351170684E+01 -0.65073342193E+02  0.77556555449E+02  0.10126477623E+03  0.00000000000E+00 0.  1.
         11    1    1    2    0    0  0.24314151725E+01  0.27017827777E+02  0.30604110341E+01  0.27299100960E+02  0.00000000000E+00 0. -1.
</event>
<event>
 7    1  0.2766180E-009  0.9445564E+02  0.7561462E-02  0.1292407E+00
         -1   -1    0    0    0  501 -0.00000000000E+00  0.00000000000E+00  0.12453042672E+03  0.12453042672E+03  0.00000000000E+00 0.  1.
          1   -1    0    0  501    0  0.00000000000E+00 -0.00000000000E+00 -0.15817395648E+03  0.15817395648E+03  0.00000000000E+00 0. -1.
         25    2    1    2    0    0  0.54711709417E+02 -0.39769127949E+02  0.38815352150E+02  0.14740618035E+03  0.12508795209E+03 0.  0.
          5    1    3    3  502    0  0.76442101440E+02 -0.40910356781E+02  0.68351177701E+02  0.11048261428E+03  0.41800000000E+01 0.  1.
         -5    1    3    3    0  502 -0.21730392022E+02  0.11412288321E+01 -0.29535825551E+02  0.36923566075E+02  0.41800000000E+01 0.  1.
        -11    1    1    2    0    0  0.65784951264E+00  0.21697390316E+02  0.17668307959E+02  0.27988901705E+02  0.00000000000E+00 0.  1.
         11    1    1    2    0    0 -0.55369558930E+02  0.18071737633E+02 -0.90127189872E+02  0.10730930114E+03  0.00000000000E+00 0. -1.
</event>
<event>
 7    1  0.2766180E-009  0.1028886E+03  0.7561462E-02  0.1274336E+00
          4   -1    0    0  501    0  0.00000000000E+00  0.00000000000E+00  0.43520713967E+02  0.43520713967E+02  0.00000000000E+00 0. -1.
         -4   -1    0    0    0  501 -0.00000000000E+00 -0.00000000000E+00 -0.28088731549E+03  0.28088731549E+03  0.00000000000E+00 0.  1.
         25    2    1    2    0    0 -0.18223337501E+02 -0.25242307126E+00 -0.99991090310E+02  0.16119540920E+03  0.12511429998E+03 0.  0.
          5    1    3    3  502    0  0.16298843807E+02  0.55678144801E+02 -0.31378296807E+02  0.66089167255E+02  0.41800000000E+01 0.  1.
         -5    1    3    3    0  502 -0.34522181307E+02 -0.55930567873E+02 -0.68612793503E+02  0.95106241945E+02  0.41800000000E+01 0.  1.
        -11    1    1    2    0    0 -0.29929975440E+02 -0.11704001969E+02 -0.26183351539E+02  0.41453045603E+02  0.00000000000E+00 0. -1.
         11    1    1    2    0    0  0.48153312940E+02  0.11956425040E+02 -0.11119215967E+03  0.12175957465E+03  0.00000000000E+00 0.  1.
</event>
<event>
 7    1  0.2766180E-009  0.1235717E+03  0.7561462E-02  0.1237319E+00
         -1   -1    0    0    0  501 -0.00000000000E+00  0.00000000000E+00  0.45710178917E+02  0.45710178917E+02  0.00000000000E+00 0.  1.
          1   -1    0    0  501    0  0.00000000000E+00 -0.00000000000E+00 -0.41299026189E+03  0.41299026189E+03  0.00000000000E+00 0. -1.
         25    2    1    2    0    0  0.22395886727E+02 -0.74941457236E+02 -0.14460123122E+03  0.20655360008E+03  0.12504829420E+03 0.  0.
          5    1    3    3  502    0 -0.34324994272E+02  0.17466492915E+02 -0.32885491633E+02  0.50815465820E+02  0.41800000000E+01 0. -1.
         -5    1    3    3    0  502  0.56720880999E+02 -0.92407950151E+02 -0.11171573959E+03  0.15573813426E+03  0.41800000000E+01 0. -1.
        -11    1    1    2    0    0 -0.23544824735E+02 -0.13615682421E+01 -0.89879652424E+01  0.25238782837E+02  0.00000000000E+00 0.  1.
         11    1    1    2    0    0  0.11489380084E+01  0.76303025478E+02 -0.21369088651E+03  0.22690805788E+03  0.00000000000E+00 0. -1.
</event>
<event>
 7    1  0.2766180E-009  0.2126738E+03  0.7561462E-02  0.1139466E+00
          1   -1    0    0  501    0  0.00000000000E+00  0.00000000000E+00  0.58830074787E+02  0.58830074787E+02  0.00000000000E+00 0. -1.
         -1   -1    0    0    0  501 -0.00000000000E+00 -0.00000000000E+00 -0.13626864205E+04  0.13626864205E+04  0.00000000000E+00 0.  1.
         25    2    1    2    0    0 -0.18279920057E+03  0.64388550194E+02 -0.11052084416E+04  0.11290233033E+04  0.12508591776E+03 0.  0.
          5    1    3    3  502    0  0.19750980312E+01  0.42328459233E+02 -0.26901745627E+03  0.27236641433E+03  0.41800000000E+01 0. -1.
         -5    1    3    3    0  502 -0.18477429860E+03  0.22060090960E+02 -0.83619098537E+03  0.85665688898E+03  0.41800000000E+01 0. -1.
        -11    1    1    2    0    0  0.60246436121E+02 -0.50109318749E+01 -0.12216706099E+03  0.13630676174E+03  0.00000000000E+00 0.  1.
         11    1    1    2    0    0  0.12255276444E+03 -0.59377618319E+02 -0.76480843064E+02  0.15618643022E+03  0.00000000000E+00 0. -1.
</event>
<event>
 7    1  0.2766180E-009  0.1184464E+03  0.7561462E-02  0.1245682E+00
         -1   -1    0    0    0  501 -0.00000000000E+00  0.00000000000E+00  0.20227834432E+03  0.20227834432E+03  0.00000000000E+00 0.  1.
          1   -1    0    0  501    0  0.00000000000E+00 -0.00000000000E+00 -0.81034738291E+02  0.81034738291E+02  0.00000000000E+00 0. -1.
         25    2    1    2    0    0  0.22703302393E+02 -0.63381335939E+02  0.79402568752E+02  0.16274977673E+03  0.12510031262E+03 0.  0.
          5    1    3    3  502    0 -0.49824171609E+02 -0.32788125821E+02  0.52169580045E+02  0.79351413053E+02  0.41800000000E+01 0. -1.
         -5    1    3    3    0  502  0.72527474002E+02 -0.30593210119E+02  0.27232988706E+02  0.83398363679E+02  0.41800000000E+01 0. -1.
        -11    1    1    2    0    0 -0.27138733864E+02 -0.67805869309E+01  0.41757737304E+02  0.50261275946E+02  0.00000000000E+00 0.  1.
         11    1    1    2    0    0  0.44354314711E+01  0.70161922870E+02  0.83299967567E-01  0.70302029929E+02  0.00000000000E+00 0. -1.
</event>
<event>
 7    1  0.2766180E-009  0.1105045E+03  0.7561462E-02  0.1259638E+00
         -2   -1    0    0    0  501 -0.00000000000E+00  0.00000000000E+00  0.28955245081E+02  0.28955245081E+02  0.00000000000E+00 0.  1.
          2   -1    0    0  501    0  0.00000000000E+00 -0.00000000000E+00 -0.48095921628E+03  0.48095921628E+03  0.00000000000E+00 0. -1.
         25    2    1    2    0    0 -0.26399811122E+02 -0.41194679124E+02 -0.26147693660E+03  0.29395774686E+03  0.12508803681E+03 0.  0.
          5    1    3    3  502    0 -0.53432451938E+02 -0.64433420409E+02 -0.11002054693E+03  0.13830649201E+03  0.41800000000E+01 0.  1.
         -5    1    3    3    0  502  0.27032640816E+02  0.23238741285E+02 -0.15145638966E+03  0.15565125485E+03  0.41800000000E+01 0.  1.
        -11    1    1    2    0    0 -0.15055330501E+02  0.55458483039E+02 -0.11702701912E+03  0.13037495742E+03  0.00000000000E+00 0.  1.
         11    1    1    2    0    0  0.41455141623E+02 -0.14263803915E+02 -0.73500015475E+02  0.85581757075E+02  0.00000000000E+00 0. -1.
</event>
<event>
 7    1  0.2766180E-009  0.1114056E+03  0.7561462E-02  0.1257989E+00
          1   -1    0    0  501    0  0.00000000000E+00  0.00000000000E+00  0.14752338991E+03  0.14752338991E+03  0.00000000000E+00 0. -1.
         -1   -1    0    0    0  501 -0.00000000000E+00 -0.00000000000E+00 -0.88217740976E+02  0.88217740976E+02  0.00000000000E+00 0.  1.
         25    2    1    2    0    0 -0.24436667205E+02  0.50678112881E+02  0.17284625620E+02  0.13825942143E+03  0.12510590514E+03 0.  0.
          5    1    3    3  502    0 -0.53661021224E+01  0.91590483076E+02  0.11661960193E+02  0.92580156393E+02  0.41800000000E+01 0. -1.
         -5    1    3    3    0  502 -0.19070565083E+02 -0.40912370195E+02  0.56226654263E+01  0.45679265034E+02  0.41800000000E+01 0. -1.
        -11    1    1    2    0    0  0.25103814874E+02  0.84628677705E+01  0.23749600102E+02  0.35578998821E+02  0.00000000000E+00 0. -1.
         11    1    1    2    0    0 -0.66714766883E+00 -0.59140980652E+02  0.18271423215E+02  0.61902710642E+02  0.00000000000E+00 0.  1.
</event>
<event>
 7    1  0.2766180E-009  0.2311245E+03  0.7561462E-02  0.1125851E+00
          1   -1    0    0  501    0  0.00000000000E+00  0.00000000000E+00  0.10263909198E+03  0.10263909198E+03  0.00000000000E+00 0. -1.
         -1   -1    0    0    0  501 -0.00000000000E+00 -0.00000000000E+00 -0.70567307087E+03  0.70567307087E+03  0.00000000000E+00 0.  1.
         25    2    1    2    0    0  0.21506892266E+03  0.48166976463E+02 -0.14478641532E+03  0.29186069391E+03  0.12507941267E+03 0.  0.
          5    1    3    3  502    0  0.18457508710E+03  0.25159662725E+02 -0.55126070897E+02  0.19431244813E+03  0.41800000000E+01 0. -1.
         -5    1    3    3    0  502  0.30493835557E+02  0.23007313737E+02 -0.89660344424E+02  0.97548245780E+02  0.41800000000E+01 0. -1.
        -11    1    1    2    0    0 -0.78908199526E+02  0.25186261091E+02 -0.17896066080E+03  0.19719982204E+03  0.00000000000E+00 0. -1.
         11    1    1    2    0    0 -0.13616072313E+03 -0.73353237554E+02 -0.27928690277E+03  0.31925164689E+03  0.00000000000E+00 0.  1.
</event>
<event>
 7    1  0.2766180E-009  0.1437774E+03  0.7561462E-02  0.1208335E+00
         -1   -1    0    0    0  501 -0.00000000000E+00  0.00000000000E+00  0.62037432483E+02  0.62037432483E+02  0.00000000000E+00 0.  1.
          1   -1    0    0  501    0  0.00000000000E+00 -0.00000000000E+00 -0.51767186650E+03  0.51767186650E+03  0.00000000000E+00 0. -1.
         25    2    1    2    0    0  0.79045640589E+02  0.76507276627E+02 -0.93636701992E+02  0.19109504599E+03  0.12509159832E+03 0.  0.
          5    1    3    3  502    0  0.83486378076E+02 -0.43987946424E+01 -0.61303953570E+02  0.10375438228E+03  0.41800000000E+01 0.  1.
         -5    1    3    3    0  502 -0.44407374871E+01  0.80906071269E+02 -0.32332748422E+02  0.87340663715E+02  0.41800000000E+01 0.  1.
        -11    1    1    2    0    0 -0.70873752467E+01 -0.42564681608E+02 -0.47346353610E+02  0.64059817424E+02  0.00000000000E+00 0.  1.
         11    1    1    2    0    0 -0.71958265342E+02 -0.33942595019E+02 -0.31465137841E+03  0.32455443556E+03  0.00000000000E+00 0. -1.
</event>
<event>
 7    1  0.2766180E-009  0.1107385E+03  0.7561462E-02  0.1259208E+00
         -2   -1    0    0    0  501 -0.00000000000E+00  0.00000000000E+00  0.55214511643E+02  0.55214511643E+02  0.00000000000E+00 0.  1.
          2   -1    0    0  501    0  0.00000000000E+00 -0.00000000000E+00 -0.30090324290E+03  0.30090324290E+03  0.00000000000E+00 0. -1.
         25    2    1    2    0    0  0.25970424444E+02  0.65814645410E+02 -0.14206982652E+03  0.20208095480E+03  0.12508735424E+03 0.  0.
          5    1    3    3  502    0  0.62089533536E+02  0.62432822414E+02 -0.46266821573E+02  0.99554300096E+02  0.41800000000E+01 0. -1.
         -5    1    3    3    0  502 -0.36119109092E+02  0.33818229966E+01 -0.95803004949E+02  0.10252665471E+03  0.41800000000E+01 0. -1.
        -11    1    1    2    0    0  0.15090369237E+02 -0.50955483703E+02 -0.14961281815E+02  0.55208880778E+02  0.00000000000E+00 0.  1.
         11    1    1    2    0    0 -0.41060793681E+02 -0.14859161707E+02 -0.88657622922E+02  0.98827918963E+02  0.00000000000E+00 0. -1.
</event>
<event>
 7    1  0.2766180E-009  0.1042655E+03  0.7561462E-02  0.1271574E+00
          1   -1    0    0  501    0  0.00000000000E+00  0.00000000000E+00  0.17127639687E+03  0.17127639687E+03  0.00000000000E+00 0. -1.
         -1   -1    0    0    0  501 -0.00000000000E+00 -0.00000000000E+00 -0.11263470419E+03  0.11263470419E+03  0.00000000000E+00 0.  1.
         25    2    1    2    0    0  0.45188279891E+02 -0.43692846881E+02  0.58865454868E+02  0.15186631899E+03  0.12508873474E+03 0.  0.
          5    1    3    3  502    0  0.65007449788E+02  0.65509554248E+01  0.70761006054E+02  0.96402675910E+02  0.41800000000E+01 0.  1.
         -5    1    3    3    0  502 -0.19819169896E+02 -0.50243802306E+02 -0.11895551186E+02  0.55463643079E+02  0.41800000000E+01 0.  1.
        -11    1    1    2    0    0 -0.10154089985E+02  0.51917433155E+02 -0.48542391036E+02  0.71797556618E+02  0.00000000000E+00 0.  1.
         11    1    1    2    0    0 -0.35034189907E+02 -0.82245862745E+01  0.48318628849E+02  0.60247225460E+02  0.00000000000E+00 0. -1.
</event>
<event>
 7    1  0.2766180E-009  0.3330495E+03  0.7561462E-02  0.1069795E+00
          2   -1    0    0  501    0  0.00000000000E+00  0.00000000000E+00  0.27271102898E+03  0.27271102898E+03  0.00000000000E+00 0. -1.
         -2   -1    0    0    0  501 -0.00000000000E+00 -0.00000000000E+00 -0.42795886506E+03  0.42795886506E+03  0.00000000000E+00 0.  1.
         25    2    1    2    0    0 -0.25689223897E+02  0.31672491144E+03 -0.15529062059E+02  0.34185021879E+03  0.12508323054E+03 0.  0.
          5    1    3    3  502    0  0.40656026720E+02  0.44936546634E+02  0.69993807313E+01  0.61144660132E+02  0.41800000000E+01 0. -1.
         -5    1    3    3    0  502 -0.66345250617E+02  0.27178836481E+03 -0.22528442790E+02  0.28070555865E+03  0.41800000000E+01 0. -1.
        -11    1    1    2    0    0  0.43388843735E+02 -0.29167317815E+03 -0.14344401821E+03  0.32792075411E+03  0.00000000000E+00 0.  1.
         11    1    1    2    0    0 -0.17699619838E+02 -0.25051733288E+02  0.37252441944E+01  0.30898921137E+02  0.00000000000E+00 0. -1.
</event>
<event>
 7    1  0.2766180E-009  0.1311756E+03  0.7561462E-02  0.1225722E+00
          1   -1    0    0  501    0  0.00000000000E+00  0.00000000000E+00  0.39753211251E+03  0.39753211251E+03  0.00000000000E+00 0. -1.
         -1   -1    0    0    0  501 -0.00000000000E+00 -0.00000000000E+00 -0.54008015166E+02  0.54008015166E+02  0.00000000000E+00 0.  1.
         25    2    1    2    0    0 -0.13950323899E+02 -0.81097022335E+02  0.10591307410E+03  0.18340300647E+03  0.12509094671E+03 0.  0.
          5    1    3    3  502    0 -0.54059900525E+02 -0.78826442071E+01  0.91718055859E+01  0.55553607823E+02  0.41800000000E+01 0. -1.
         -5    1    3    3    0  502  0.40109576625E+02 -0.73214378128E+02  0.96741268512E+02  0.12784939865E+03  0.41800000000E+01 0. -1.
        -11    1    1    2    0    0 -0.30987795939E+02  0.71635649746E+02  0.15811157904E+03  0.17632691581E+03  0.00000000000E+00 0. -1.
         11    1    1    2    0    0  0.44938119838E+02  0.94613725891E+01  0.79499444203E+02  0.91810205394E+02  0.00000000000E+00 0.  1.
</event>
<event>
 7    1  0.2766180E-009  0.1034267E+03  0.7561462E-02  0.1273251E+00
         -2   -1    0    0    0  501 -0.00000000000E+00  0.00000000000E+00  0.15648426713E+02  0.15648426713E+02  0.00000000000E+00 0.  1.
          2   -1    0    0  501    0  0.00000000000E+00 -0.00000000000E+00 -0.77361867914E+03  0.77361867914E+03  0.00000000000E+00 0. -1.
         25    2    1    2    0    0 -0.21113221418E+02  0.13375745978E+02 -0.43061872427E+03  0.44911585600E+03  0.12509151737E+03 0.  0.
          5    1    3    3  502    0  0.30262103343E+02  0.44682403811E+02 -0.10684325212E+03  0.11977172051E+03  0.41800000000E+01 0. -1.
         -5    1    3    3    0  502 -0.51375324760E+02 -0.31306657833E+02 -0.32377547215E+03  0.32934413549E+03  0.41800000000E+01 0. -1.
        -11    1    1    2    0    0  0.49106309093E+02  0.16186691998E+02 -0.18613998765E+03  0.19318781947E+03  0.00000000000E+00 0. -1.
         11    1    1    2    0    0 -0.27993087675E+02 -0.29562437977E+02 -0.14121154051E+03  0.14696343038E+03  0.00000000000E+00 0.  1.
</event>
<event>
 7    1  0.2766180E-009  0.1160851E+03  0.7561462E-02  0.1249699E+00
          1   -1    0    0  501    0  0.00000000000E+00  0.00000000000E+00  0.45211577882E+03  0.45211577882E+03  0.00000000000E+00 0. -1.
         -1   -1    0    0    0  501 -0.00000000000E+00 -0.00000000000E+00 -0.48116699899E+02  0.48116699899E+02  0.00000000000E+00 0.  1.
         25    2    1    2    0    0 -0.91589178812E+02 -0.21653996260E+02  0.28048556748E+03  0.32121060598E+03  0.12508647647E+03 0.  0.
          5    1    3    3  502    0 -0.70294526523E+02 -0.41628945296E+02  0.28000747872E+03  0.29171210137E+03  0.41800000000E+01 0. -1.
         -5    1    3    3    0  502 -0.21294652289E+02  0.19974949036E+02  0.47808875938E+00  0.29498504605E+02  0.41800000000E+01 0. -1.
        -11    1    1    2    0    0  0.22811388890E+02  0.43154249036E+02  0.19673106704E+02  0.52627747438E+02  0.00000000000E+00 0.  1.
         11    1    1    2    0    0  0.68777789922E+02 -0.21500252776E+02  0.10384040473E+03  0.12639412530E+03  0.00000000000E+00 0. -1.
</event>
<event>
 7    1  0.2766180E-009  0.2312937E+03  0.7561462E-02  0.1125732E+00
         -1   -1    0    0    0  501 -0.00000000000E+00  0.00000000000E+00  0.27536883507E+03  0.27536883507E+03  0.00000000000E+00 0.  1.
          1   -1    0    0  501    0  0.00000000000E+00 -0.00000000000E+00 -0.22309803760E+03  0.22309803760E+03  0.00000000000E+00 0. -1.
         25    2    1    2    0    0  0.16626522506E+03  0.13512185237E+03 -0.20907320441E+02  0.24897292948E+03  0.12509341916E+03 0.  0.
          5    1    3    3  502    0  0.69506558221E+02  0.10660143415E+03 -0.59937477349E+02  0.14073024192E+03  0.41800000000E+01 0.  1.
         -5    1    3    3    0  502  0.96758666839E+02  0.28520418212E+02  0.39030156908E+02  0.10824268757E+03  0.41800000000E+01 0.  1.
        -11    1    1    2    0    0 -0.12413421868E+03 -0.40257427151E+02  0.63834728268E+02  0.14527503991E+03  0.00000000000E+00 0.  1.
         11    1    1    2    0    0 -0.42131006384E+02 -0.94864425214E+02  0.93433896521E+01  0.10421890328E+03  0.00000000000E+00 0. -1.
</event>
<event>
 7    1  0.2766180E-009  0.2766341E+03  0.7561462E-02  0.1097542E+00
          2   -1    0    0  501    0  0.00000000000E+00  0.00000000000E+00  0.77502191069E+03  0.77502191069E+03  0.00000000000E+00 0. -1.
         -2   -1    0    0    0  501 -0.00000000000E+00 -0.00000000000E+00 -0.16488537250E+03  0.16488537250E+03  0.00000000000E+00 0.  1.
         25    2    1    2    0    0  0.27589542973E+03  0.16640978901E+02  0.56977664216E+03  0.64551546006E+03  0.12509826898E+03 0.  0.
          5    1    3    3  502    0  0.22621041621E+03  0.15809927591E+02  0.32880947239E+03  0.39944242106E+03  0.41800000000E+01 0. -1.
         -5    1    3    3    0  502  0.49685013525E+02  0.83105131030E+00  0.24096716977E+03  0.24607303900E+03  0.41800000000E+01 0. -1.
        -11    1    1    2    0    0 -0.15157894716E+03 -0.14424016491E+02 -0.24392109404E+02  0.15420507279E+03  0.00000000000E+00 0. -1.
         11    1    1    2    0    0 -0.12431648258E+03 -0.22169624104E+01  0.64752005442E+02  0.14018675034E+03  0.00000000000E+00 0.  1.
</event>
<event>
 7    1  0.2766180E-009  0.9433892E+02  0.7561462E-02  0.1292672E+00
         -2   -1    0    0    0  501 -0.00000000000E+00  0.00000000000E+00  0.70771562463E+02  0.70771562463E+02  0.00000000000E+00 0.  1.
          2   -1    0    0  501    0  0.00000000000E+00 -0.00000000000E+00 -0.23867266281E+03  0.23867266281E+03  0.00000000000E+00 0. -1.
         25    2    1    2    0    0 -0.21339257081E+01 -0.59745771920E+02 -0.13246241179E+03  0.19174992524E+03  0.12509049680E+03 0.  0.
          5    1    3    3  502    0  0.34606608280E+02 -0.17648804935E+01 -0.11586345875E+03  0.12100638666E+03  0.41800000000E+01 0.  1.
         -5    1    3    3    0  502 -0.36740533988E+02 -0.57980891427E+02 -0.16598953044E+02  0.70743538578E+02  0.41800000000E+01 0.  1.
        -11    1    1    2    0    0  0.30043225779E+02  0.18756195206E+02 -0.54140326523E+02  0.64695944462E+02  0.00000000000E+00 0. -1.
         11    1    1    2    0    0 -0.27909300071E+02  0.40989576714E+02  0.18701637975E+02  0.52998355565E+02  0.00000000000E+00 0.  1.
</event>
<event>
 7    1  0.2766180E-009  0.8033699E+02  0.7561462E-02  0.1328098E+00
         -2   -1    0    0    0  501 -0.00000000000E+00  0.00000000000E+00  0.19780485445E+02  0.19780485445E+02  0.00000000000E+00 0.  1.
          2   -1    0    0  501    0  0.00000000000E+00 -0.00000000000E+00 -0.84497529615E+03  0.84497529615E+03  0.00000000000E+00 0. -1.
         25    2    1    2    0    0 -0.23425748442E+02 -0.62134916946E+02 -0.54571609243E+03  0.56379508376E+03  0.12509727952E+03 0.  0.
          5    1    3    3  502    0 -0.13850923505E+02 -0.58178946732E+02 -0.91189793632E+02  0.10913152060E+03  0.41800000000E+01 0.  1.
         -5    1    3    3    0  502 -0.95748249372E+01 -0.39559702143E+01 -0.45452629879E+03  0.45466356316E+03  0.41800000000E+01 0.  1.
        -11    1    1    2    0    0  0.20100011187E+02  0.74284173023E+02 -0.27778927520E+03  0.28825167862E+03  0.00000000000E+00 0. -1.
         11    1    1    2    0    0  0.33257372548E+01 -0.12149256076E+02 -0.16894430788E+01  0.12709019215E+02  0.00000000000E+00 0.  1.
</event>
<event>
 7    1  0.2766180E-009  0.9239985E+02  0.7561462E-02  0.1297142E+00
         -2   -1    0    0    0  501 -0.00000000000E+00  0.00000000000E+00  0.21444330367E+03  0.21444330367E+03  0.00000000000E+00 0. -1.
          2   -1    0    0  501    0  0.00000000000E+00 -0.00000000000E+00 -0.55859617674E+02  0.55859617674E+02  0.00000000000E+00 0.  1.
         25    2    1    2    0    0 -0.14751086635E+01 -0.15454407302E+01  0.79126916863E+02  0.14802896032E+03  0.12508772837E+03 0.  0.
          5    1    3    3  502    0  0.43054081226E+02  0.34438979138E+02  0.68267913390E+01  0.55711530892E+02  0.41800000000E+01 0. -1.
         -5    1    3    3    0  502 -0.44529189890E+02 -0.35984419868E+02  0.72300125524E+02  0.92317429428E+02  0.41800000000E+01 0. -1.
        -11    1    1    2    0    0  0.11716635555E+02 -0.33554140748E+02  0.81764000561E+00  0.35550364910E+02  0.00000000000E+00 0.  1.
         11    1    1    2    0    0 -0.10241526892E+02  0.35099581478E+02  0.78639129125E+02  0.86723596112E+02  0.00000000000E+00 0. -1.
</event>
<event>
 7    1  0.2766180E-009  0.1118243E+03  0.7561462E-02  0.1257228E+00
          2   -1    0    0  501    0  0.00000000000E+00  0.00000000000E+00  0.93144517150E+03  0.93144517150E+03  0.00000000000E+00 0. -1.
         -2   -1    0    0    0  501 -0.00000000000E+00 -0.00000000000E+00 -0.20984090744E+02  0.20984090744E+02  0.00000000000E+00 0.  1.
         25    2    1    2    0    0  0.15973864410E+02 -0.78071711003E+02  0.37096880617E+03  0.39951785762E+03  0.12508519898E+03 0.  0.
          5    1    3    3  502    0  0.36071899188E+02 -0.17593709831E+02  0.30514807553E+03  0.30780438746E+03  0.41800000000E+01 0.  1.
         -5    1    3    3    0  502 -0.20098034778E+02 -0.60478001172E+02  0.65820730637E+02  0.91713470163E+02  0.41800000000E+01 0.  1.
        -11    1    1    2    0    0 -0.45642301874E+02  0.12289882342E+02  0.25946918558E+03  0.26373949115E+03  0.00000000000E+00 0. -1.
         11    1    1    2    0    0  0.29668437464E+02  0.65781828661E+02  0.28002308900E+03  0.28917191347E+03  0.00000000000E+00 0.  1.
</event>
<event>
 7    1  0.2766180E-009  0.1123982E+03  0.7561462E-02  0.1256192E+00
          1   -1    0    0  501    0  0.00000000000E+00  0.00000000000E+00  0.75915948983E+02  0.75915948983E+02  0.00000000000E+00 0. -1.
         -1   -1    0    0    0  501 -0.00000000000E+00 -0.00000000000E+00 -0.23387418056E+03  0.23387418056E+03  0.00000000000E+00 0.  1.
         25    2    1    2    0    0 -0.47751996887E+02  0.15645955370E+02 -0.20172949817E+02  0.13630960158E+03  0.12509320706E+03 0.  0.
          5    1    3    3  502    0 -0.86811161436E+02  0.31504288979E+02 -0.13637153449E+02  0.93445932646E+02  0.41800000000E+01 0.  1.
         -5    1    3    3    0  502  0.39059164549E+02 -0.15858333609E+02 -0.65357963685E+01  0.42863668931E+02  0.41800000000E+01 0.  1.
        -11    1    1    2    0    0  0.35225413796E+02 -0.45541375711E+02 -0.39069279083E+02  0.69579129391E+02  0.00000000000E+00 0. -1.
         11    1    1    2    0    0  0.12526583091E+02  0.29895420341E+02 -0.98716002676E+02  0.10390139857E+03  0.00000000000E+00 0.  1.
</event>
<event>
 7    1  0.2766180E-009  0.1086165E+03  0.7561462E-02  0.1263154E+00
          1   -1    0    0  501    0  0.00000000000E+00  0.00000000000E+00  0.91261774684E+02  0.91261774684E+02  0.00000000000E+00 0. -1.
         -1   -1    0    0    0  501 -0.00000000000E+00 -0.00000000000E+00 -0.21417853556E+03  0.21417853556E+03  0.00000000000E+00 0.  1.
         25    2    1    2    0    0  0.13887817582E+02  0.77960531392E+02 -0.22745456336E+02  0.14978476114E+03  0.12508957971E+03 0.  0.
          5    1    3    3  502    0 -0.19441635026E+02  0.52549372646E+02 -0.67835473600E+02  0.88082561364E+02  0.41800000000E+01 0. -1.
         -5    1    3    3    0  502  0.33329452608E+02  0.25411158746E+02  0.45090017264E+02  0.61702199773E+02  0.41800000000E+01 0. -1.
        -11    1    1    2    0    0  0.34530383218E+02 -0.10891216358E+02 -0.34846674129E+02  0.50251931871E+02  0.00000000000E+00 0.  1.
         11    1    1    2    0    0 -0.48418200799E+02 -0.67069315033E+02 -0.65324630408E+02  0.10540361723E+03  0.00000000000E+00 0. -1.
</event>
<event>
 7    1  0.3317871E-009  0.2484059E+03  0.7561462E-02  0.1114316E+00
          1   -1    0    0  501    0  0.00000000000E+00  0.00000000000E+00  0.34534651703E+03  0.34534651703E+03  0.00000000000E+00 0. -1.
         -1   -1    0    0    0  501 -0.00000000000E+00 -0.00000000000E+00 -0.19475298213E+03  0.19475298213E+03  0.00000000000E+00 0.  1.
         25    2    1    2    0    0  0.22133719141E+03 -0.78100711749E+02  0.91354636590E+02  0.28121633351E+03  0.12508830134E+03 0.  0.
          5    1    3    3  502    0  0.11180598855E+03 -0.77678305372E+02 -0.35148707439E+01  0.13625096300E+03  0.41800000000E+01 0.  1.
         -5    1    3    3    0  502  0.10953120286E+03 -0.42240637630E+00  0.94869507334E+02  0.14496537051E+03  0.41800000000E+01 0.  1.
        -11    1    1    2    0    0 -0.32536110174E+02  0.50661828620E+02  0.24286012647E+02  0.64923260505E+02  0.00000000000E+00 0. -1.
         11    1    1    2    0    0 -0.18880108124E+03  0.27438883129E+02  0.34952885660E+02  0.19395990513E+03  0.00000000000E+00 0.  1.
</event>
<event>
 7    1  0.2766180E-009  0.1430288E+03  0.7561462E-02  0.1209311E+00
         -1   -1    0    0    0  501 -0.00000000000E+00  0.00000000000E+00  0.24771145054E+02  0.24771145054E+02  0.00000000000E+00 0.  1.
          1   -1    0    0  501    0  0.00000000000E+00 -0.00000000000E+00 -0.94679588928E+03  0.94679588928E+03  0.00000000000E+00 0. -1.
         25    2    1    2    0    0 -0.54960473000E+02 -0.78634060578E+02 -0.65505133687E+03  0.67375336543E+03  0.12508946566E+03 0.  0.
          5    1    3    3  502    0 -0.85621991903E+02 -0.86901102650E+02 -0.56869976510E+03  0.58165266471E+03  0.41800000000E+01 0. -1.
         -5    1    3    3    0  502  0.30661518903E+02  0.82670420717E+01 -0.86351571774E+02  0.92100700724E+02  0.41800000000E+01 0. -1.
        -11    1    1    2    0    0 -0.25027557542E+02  0.26673630989E+02 -0.76210605489E+02  0.84533529535E+02  0.00000000000E+00 0.  1.
         11    1    1    2    0    0  0.79988030541E+02  0.51960429589E+02 -0.19076280186E+03  0.21328013936E+03  0.00000000000E+00 0. -1.
</event>
<event>
 7    1  0.2766180E-009  0.1806384E+03  0.7561462E-02  0.1167187E+00
          2   -1    0    0  501    0  0.00000000000E+00  0.00000000000E+00  0.17778514178E+04  0.17778514178E+04  0.00000000000E+00 0. -1.
         -2   -1    0    0    0  501 -0.00000000000E+00 -0.00000000000E+00 -0.22482473368E+02  0.22482473368E+02  0.00000000000E+00 0.  1.
         25    2    1    2    0    0 -0.15161472464E+03 -0.71219554671E+02  0.85002438649E+03  0.87535636801E+03  0.12509222073E+03 0.  0.
          5    1    3    3  502    0  0.11660945127E+01 -0.47522903257E+01 -0.23420788254E+01  0.68484869114E+01  0.41800000000E+01 0.  1.
         -5    1    3    3    0  502 -0.15278081915E+03 -0.66467264346E+02  0.85236646531E+03  0.86850788109E+03  0.41800000000E+01 0.  1.
        -11    1    1    2    0    0  0.87687638706E+02  0.85719259711E+02  0.64124558620E+03  0.65286508199E+03  0.00000000000E+00 0.  1.
         11    1    1    2    0    0  0.63927085932E+02 -0.14499705039E+02  0.26409897171E+03  0.27211244114E+03  0.00000000000E+00 0. -1.
</event>
<event>
 7    1  0.2766180E-009  0.1108800E+03  0.7561462E-02  0.1258949E+00
          1   -1    0    0  501    0  0.00000000000E+00  0.00000000000E+00  0.47103133132E+03  0.47103133132E+03  0.00000000000E+00 0. -1.
         -1   -1    0    0    0  501 -0.00000000000E+00 -0.00000000000E+00 -0.31413264133E+02  0.31413264133E+02  0.00000000000E+00 0.  1.
         25    2    1    2    0    0  0.20716148033E+02 -0.44374559106E+02  0.20961229985E+03  0.24896257976E+03  0.12508712799E+03 0.  0.
          5    1    3    3  502    0  0.25650182910E+02 -0.77635419088E+02  0.78070224234E+02  0.11312657730E+03  0.41800000000E+01 0.  1.
         -5    1    3    3    0  502 -0.49340348770E+01  0.33260859982E+02  0.13154207561E+03  0.13583600246E+03  0.41800000000E+01 0.  1.
        -11    1    1    2    0    0  0.37763532384E+02  0.16151782472E+02  0.10170519401E+03  0.10968550927E+03  0.00000000000E+00 0. -1.
         11    1    1    2    0    0 -0.58479680417E+02  0.28222776634E+02  0.12830057333E+03  0.14379650642E+03  0.00000000000E+00 0.  1.
</event>
<event>
 7    1  0.2766180E-009  0.1076572E+03  0.7561462E-02  0.1264971E+00
          2   -1    0    0  501    0  0.00000000000E+00  0.00000000000E+00  0.82705137374E+03  0.82705137374E+03  0.00000000000E+00 0. -1.
         -2   -1    0    0    0  501 -0.00000000000E+00 -0.00000000000E+00 -0.29960453121E+02  0.29960453121E+02  0.00000000000E+00 0.  1.
         25    2    1    2    0    0  0.34487583493E+02  0.83330901106E+02  0.61596152923E+03  0.63497205277E+03  0.12508984695E+03 0.  0.
          5    1    3    3  502    0 -0.18432042345E+02 -0.63985319831E+01  0.32992629873E+03  0.33052914605E+03  0.41800000000E+01 0.  1.
         -5    1    3    3    0  502  0.52919625839E+02  0.89729433089E+02  0.28603523050E+03  0.30444290671E+03  0.41800000000E+01 0.  1.
        -11    1    1    2    0    0 -0.18414315596E+02 -0.28211950760E+02  0.17936716070E+01  0.33737493125E+02  0.00000000000E+00 0.  1.
         11    1    1    2    0    0 -0.16073267897E+02 -0.55118950346E+02  0.17933571978E+03  0.18830228097E+03  0.00000000000E+00 0. -1.
</event>
<event>
 7    1  0.2766180E-009  0.4490305E+03  0.7561462E-02  0.1028012E+00
          2   -1    0    0  501    0  0.00000000000E+00  0.00000000000E+00  0.31325991471E+03  0.31325991471E+03  0.00000000000E+00 0. -1.
         -2   -1    0    0    0  501 -0.00000000000E+00 -0.00000000000E+00 -0.69537139661E+03  0.69537139661E+03  0.00000000000E+00 0.  1.
         25    2    1    2    0    0 -0.80747669859E+02  0.43730588571E+03 -0.28865096657E+03  0.54472411628E+03  0.12509339912E+03 0.  0.
          5    1    3    3  502    0 -0.24309317401E+02  0.14146301849E+03 -0.16603122988E+03  0.21951439636E+03  0.41800000000E+01 0. -1.
         -5    1    3    3    0  502 -0.56438352458E+02  0.29584286721E+03 -0.12261973669E+03  0.32520971993E+03  0.41800000000E+01 0. -1.
        -11    1    1    2    0    0  0.44807785897E+02 -0.39590324280E+03 -0.92717068971E+02  0.40907648455E+03  0.00000000000E+00 0.  1.
         11    1    1    2    0    0  0.35939883962E+02 -0.41402642909E+02 -0.74344636527E+00  0.54830710479E+02  0.00000000000E+00 0. -1.
</event>
<event>
 7    1  0.2766180E-009  0.1426968E+03  0.7561462E-02  0.1209746E+00
          1   -1    0    0  501    0  0.00000000000E+00  0.00000000000E+00  0.19489289148E+03  0.19489289148E+03  0.00000000000E+00 0. -1.
         -1   -1    0    0    0  501 -0.00000000000E+00 -0.00000000000E+00 -0.27141243137E+03  0.27141243137E+03  0.00000000000E+00 0.  1.
         25    2    1    2    0    0 -0.92457312685E+02 -0.10277503918E+03 -0.18984417098E+03  0.26608341043E+03  0.12509399947E+03 0.  0.
          5    1    3    3  502    0 -0.67329311870E+02 -0.98825245014E+02 -0.60281613345E+02  0.13398138153E+03  0.41800000000E+01 0. -1.
         -5    1    3    3    0  502 -0.25128000816E+02 -0.39497941620E+01 -0.12956255763E+03  0.13210202890E+03  0.41800000000E+01 0. -1.
        -11    1    1    2    0    0  0.77293070872E+02  0.71902927768E+02  0.12526250373E+03  0.16381374993E+03  0.00000000000E+00 0. -1.
         11    1    1    2    0    0  0.15164241813E+02  0.30872111409E+02 -0.11937872645E+02  0.36408162490E+02  0.00000000000E+00 0.  1.
</event>
<event>
 7    1  0.2766180E-009  0.1298907E+03  0.7561462E-02  0.1227618E+00
          4   -1    0    0  501    0  0.00000000000E+00  0.00000000000E+00  0.25758375566E+03  0.25758375566E+03  0.00000000000E+00 0. -1.
         -4   -1    0    0    0  501 -0.00000000000E+00 -0.00000000000E+00 -0.83101352506E+02  0.83101352506E+02  0.00000000000E+00 0.  1.
         25    2    1    2    0    0  0.63335842111E+02  0.67557616107E+02  0.13214981522E+03  0.20417321390E+03  0.12509063603E+03 0.  0.
          5    1    3    3  502    0  0.93221647641E+02  0.73086861855E+02  0.12579963221E+03  0.17284381629E+03  0.41800000000E+01 0.  1.
         -5    1    3    3    0  502 -0.29885805530E+02 -0.55292457481E+01  0.63501830139E+01  0.31329397617E+02  0.41800000000E+01 0.  1.
        -11    1    1    2    0    0 -0.16632978898E+02 -0.61222073452E+02 -0.12021053562E+02  0.64570147852E+02  0.00000000000E+00 0.  1.
         11    1    1    2    0    0 -0.46702863213E+02 -0.63355426547E+01  0.54353641495E+02  0.71941746411E+02  0.00000000000E+00 0. -1.
</event>
<event>
 7    1  0.2766180E-009  0.1312881E+03  0.7561462E-02  0.1225557E+00
          1   -1    0    0  501    0  0.00000000000E+00  0.00000000000E+00  0.29322669478E+03  0.29322669478E+03  0.00000000000E+00 0. -1.
         -1   -1    0    0    0  501 -0.00000000000E+00 -0.00000000000E+00 -0.68335867056E+02  0.68335867056E+02  0.00000000000E+00 0.  1.
         25    2    1    2    0    0 -0.38198686761E+02  0.78929028661E+02  0.91051707792E+02  0.17783573188E+03  0.12508478246E+03 0.  0.
          5    1    3    3  502    0  0.43067098107E+02  0.31111320223E+02  0.55594458377E+02  0.77012371653E+02  0.41800000000E+01 0. -1.
         -5    1    3    3    0  502 -0.81265784868E+02  0.47817708439E+02  0.35457249415E+02  0.10082336022E+03  0.41800000000E+01 0. -1.
        -11    1    1    2    0    0  0.34199462378E+02 -0.93621890857E+02  0.80093415681E+02  0.12786562052E+03  0.00000000000E+00 0.  1.
         11    1    1    2    0    0  0.39992243827E+01  0.14692862195E+02  0.53745704253E+02  0.55861209447E+02  0.00000000000E+00 0. -1.
</event>
<event>
 7    1  0.2766180E-009  0.1127271E+03  0.7561462E-02  0.1255601E+00
         -1   -1    0    0    0  501 -0.00000000000E+00  0.00000000000E+00  0.40830846020E+02  0.40830846020E+02  0.00000000000E+00 0.  1.
          1   -1    0    0  501    0  0.00000000000E+00 -0.00000000000E+00 -0.40354706403E+03  0.40354706403E+03  0.00000000000E+00 0. -1.
         25    2    1    2    0    0  0.18065035918E+01  0.65265776892E+02 -0.16258267580E+03  0.21528054565E+03  0.12509876809E+03 0.  0.
          5    1    3    3  502    0  0.57260975449E+02  0.59376476937E+02 -0.76197408008E+02  0.11237394142E+03  0.41800000000E+01 0.  1.
         -5    1    3    3    0  502 -0.55454471857E+02  0.58892999551E+01 -0.86385267795E+02  0.10290660423E+03  0.41800000000E+01 0.  1.
        -11    1    1    2    0    0 -0.28735726826E+02 -0.22933812710E+02 -0.19482033605E+02  0.41608309207E+02  0.00000000000E+00 0.  1.
         11    1    1    2    0    0  0.26929223235E+02 -0.42331964182E+02 -0.18065150860E+03  0.18748905519E+03  0.00000000000E+00 0. -1.
</event>
<event>
 7    1  0.2766180E-009  0.1173266E+03  0.7561462E-02  0.1247574E+00
         -2   -1    0    0    0  501 -0.00000000000E+00  0.00000000000E+00  0.66395813408E+02  0.66395813408E+02  0.00000000000E+00 0. -1.
          2   -1    0    0  501    0  0.00000000000E+00 -0.00000000000E+00 -0.26796338172E+03  0.26796338172E+03  0.00000000000E+00 0.  1.
         25    2    1    2    0    0  0.39341601990E+02 -0.45745938934E+02 -0.17296371961E+03  0.22182045510E+03  0.12508962158E+03 0.  0.
          5    1    3    3  502    0 -0.28496530360E+02 -0.50086916494E+02 -0.12737163283E+03  0.13986335008E+03  0.41800000000E+01 0.  1.
         -5    1    3    3    0  502  0.67838132349E+02  0.43409775603E+01 -0.45592086778E+02  0.81957105022E+02  0.41800000000E+01 0.  1.
        -11    1    1    2    0    0 -0.19039318362E+01  0.66120464359E+02 -0.15388765257E+02  0.67914319989E+02  0.00000000000E+00 0. -1.
         11    1    1    2    0    0 -0.37437670153E+02 -0.20374525425E+02 -0.13215083445E+02  0.44624420033E+02  0.00000000000E+00 0.  1.
</event>
<event>
 7    1  0.2766180E-009  0.1100326E+03  0.7561462E-02  0.1260510E+00
          1   -1    0    0  501    0  0.00000000000E+00  0.00000000000E+00  0.85479641423E+02  0.85479641423E+02  0.00000000000E+00 0. -1.
         -1   -1    0    0    0  501 -0.00000000000E+00 -0.00000000000E+00 -0.19256978843E+03  0.19256978843E+03  0.00000000000E+00 0.  1.
         25    2    1    2    0    0 -0.53593394144E+02  0.49143406963E+02 -0.58619288781E+02  0.15610816643E+03  0.12508482029E+03 0.  0.
          5    1    3    3  502    0 -0.60553992223E+02 -0.12542677499E+02 -0.69307068253E+02  0.92978744038E+02  0.41800000000E+01 0.  1.
         -5    1    3    3    0  502  0.69605980796E+01  0.61686084462E+02  0.10687779472E+02  0.63129422395E+02  0.41800000000E+01 0.  1.
        -11    1    1    2    0    0  0.14670569142E+02  0.14908183803E+02 -0.41742121218E+02  0.46689230311E+02  0.00000000000E+00 0.  1.
         11    1    1    2    0    0  0.38922825001E+02 -0.64051590766E+02 -0.67287370117E+01  0.75252033112E+02  0.00000000000E+00 0. -1.
</event>
<event>
 7    1  0.2766180E-009  0.1495357E+03  0.7561462E-02  0.1201045E+00
         -2   -1    0    0    0  501 -0.00000000000E+00  0.00000000000E+00  0.58095531410E+02  0.58095531410E+02  0.00000000000E+00 0.  1.
          2   -1    0    0  501    0  0.00000000000E+00 -0.00000000000E+00 -0.46069320769E+03  0.46069320769E+03  0.00000000000E+00 0. -1.
         25    2    1    2    0    0  0.99458881115E+02 -0.61735859935E+02 -0.17437309778E+03  0.24445190237E+03  0.12508944762E+03 0.  0.
          5    1    3    3  502    0  0.47964776443E+02 -0.94131122272E+02 -0.82158945267E+02  0.13389866559E+03  0.41800000000E+01 0. -1.
         -5    1    3    3    0  502  0.51494104673E+02  0.32395262337E+02 -0.92214152516E+02  0.11055323678E+03  0.41800000000E+01 0. -1.
        -11    1    1    2    0    0 -0.84665944215E+02  0.18497803403E+02 -0.75553811721E+02  0.11497334172E+03  0.00000000000E+00 0.  1.
         11    1    1    2    0    0 -0.14792936901E+02  0.43238056532E+02 -0.15267076678E+03  0.15936349501E+03  0.00000000000E+00 0. -1.
</event>
<event>
 7    1  0.2766180E-009  0.1195693E+03  0.7561462E-02  0.1243809E+00
         -1   -1    0    0    0  501 -0.00000000000E+00  0.00000000000E+00  0.42917858502E+03  0.42917858502E+03  0.00000000000E+00 0.  1.
          1   -1    0    0  501    0  0.00000000000E+00 -0.00000000000E+00 -0.73778627602E+02  0.73778627602E+02  0.00000000000E+00 0. -1.
         25    2    1    2    0    0 -0.82983480785E+02 -0.20629014862E+02  0.34589335472E+03  0.37762303133E+03  0.12508048055E+03 0.  0.
          5    1    3    3  502    0 -0.87518874140E+02  0.30844292740E+02  0.27148136189E+03  0.28693296426E+03  0.41800000000E+01 0. -1.
         -5    1    3    3    0  502  0.45353933548E+01 -0.51473307602E+02  0.74411992836E+02  0.90690067076E+02  0.41800000000E+01 0. -1.
        -11    1    1    2    0    0  0.62854214169E+02 -0.35406388307E+01 -0.34077512983E+02  0.71585370386E+02  0.00000000000E+00 0. -1.
         11    1    1    2    0    0  0.20129266616E+02  0.24169653693E+02  0.43584115675E+02  0.53748810901E+02  0.00000000000E+00 0.  1.
</event>
<event>
 7    1  0.2910262E-009  0.1469228E+03  0.7561462E-02  0.1204306E+00
         -1   -1    0    0    0  501 -0.00000000000E+00  0.00000000000E+00  0.27697716086E+02  0.27697716086E+02  0.00000000000E+00 0.  1.
          1   -1    0    0  501    0  0.00000000000E+00 -0.00000000000E+00 -0.10611085312E+04  0.10611085312E+04  0.00000000000E+00 0. -1.
         25    2    1    2    0    0 -0.35598951364E+02  0.12071324111E+03 -0.67763644956E+03  0.70048391946E+03  0.12509033425E+03 0.  0.
          5    1    3    3  502    0  0.70928896920E+01  0.96382703904E+02 -0.22165804508E+03  0.24184643070E+03  0.41800000000E+01 0. -1.
         -5    1    3    3    0  502 -0.42691841056E+02  0.24330537209E+02 -0.45597840449E+03  0.45863748876E+03  0.41800000000E+01 0. -1.
        -11    1    1    2    0    0  0.51513396391E+02 -0.39169236837E+02 -0.21832540582E+03  0.22771438678E+03  0.00000000000E+00 0.  1.
         11    1    1    2    0    0 -0.15914445027E+02 -0.81544004276E+02 -0.13744895970E+03  0.16060794101E+03  0.00000000000E+00 0. -1.
</event>
<event>
 7    1  0.2766180E-009  0.1158513E+03  0.7561462E-02  0.1250102E+00
         -1   -1    0    0    0  501 -0.00000000000E+00  0.00000000000E+00  0.14001685051E+02  0.14001685051E+02  0.00000000000E+00 0.  1.
          1   -1    0    0  501    0  0.00000000000E+00 -0.00000000000E+00 -0.11058691825E+04  0.11058691825E+04  0.00000000000E+00 0. -1.
         25    2    1    2    0    0 -0.50816699104E+02  0.47932810878E+01 -0.76523875079E+03  0.77707353448E+03  0.12509044661E+03 0.  0.
          5    1    3    3  502    0 -0.55568796674E+02 -0.48730609308E+02 -0.31302425112E+03  0.32165854200E+03  0.41800000000E+01 0.  1.
         -5    1    3    3    0  502  0.47520975706E+01  0.53523890396E+02 -0.45221449967E+03  0.45541499249E+03  0.41800000000E+01 0.  1.
        -11    1    1    2    0    0  0.45080733733E+02 -0.44686137263E+02 -0.21136848373E+03  0.22069381354E+03  0.00000000000E+00 0. -1.
         11    1    1    2    0    0  0.57359653712E+01  0.39892856175E+02 -0.11526026294E+03  0.12210351955E+03  0.00000000000E+00 0.  1.
</event>
<event>
 7    1  0.2766180E-009  0.8727596E+02  0.7561462E-02  0.1309586E+00
          2   -1    0    0  501    0  0.00000000000E+00  0.00000000000E+00  0.56456260840E+03  0.56456260840E+03  0.00000000000E+00 0. -1.
         -2   -1    0    0    0  501 -0.00000000000E+00 -0.00000000000E+00 -0.22513577472E+02  0.22513577472E+02  0.00000000000E+00 0.  1.
         25    2    1    2    0    0  0.51944121277E+02 -0.62296356948E+01  0.41147387793E+03  0.43323747879E+03  0.12508781201E+03 0.  0.
          5    1    3    3  502    0  0.37559033421E+02 -0.42831772119E+02  0.37535818910E+03  0.37967944929E+03  0.41800000000E+01 0.  1.
         -5    1    3    3    0  502  0.14385087856E+02  0.36602136424E+02  0.36115688832E+02  0.53558029493E+02  0.41800000000E+01 0.  1.
        -11    1    1    2    0    0 -0.58044431459E+02 -0.11465212400E+02  0.11562648856E+03  0.12988491820E+03  0.00000000000E+00 0. -1.
         11    1    1    2    0    0  0.61003101814E+01  0.17694848094E+02  0.14948664434E+02  0.23953788881E+02  0.00000000000E+00 0.  1.
</event>
<event>
 7    1  0.4033781E-009  0.1123698E+03  0.7561462E-02  0.1256243E+00
         -2   -1    0    0    0  501 -0.00000000000E+00  0.00000000000E+00  0.80806294791E+02  0.80806294791E+02  0.00000000000E+00 0.  1.
          2   -1    0    0  501    0  0.00000000000E+00 -0.00000000000E+00 -0.21011825998E+03  0.21011825998E+03  0.00000000000E+00 0. -1.
         25    2    1    2    0    0 -0.65397901806E+02 -0.30749148280E+02 -0.72146204565E+02  0.16150168037E+03  0.12512123021E+03 0.  0.
          5    1    3    3  502    0 -0.31987589378E+02  0.31867722611E+02  0.16154019424E+02  0.48137120419E+02  0.41800000000E+01 0.  1.
         -5    1    3    3    0  502 -0.33410312428E+02 -0.62616870891E+02 -0.88300223989E+02  0.11336455995E+03  0.41800000000E+01 0.  1.
        -11    1    1    2    0    0  0.33258695419E+02  0.57537834181E+02 -0.11426334696E+02  0.67433703056E+02  0.00000000000E+00 0.  1.
         11    1    1    2    0    0  0.32139206387E+02 -0.26788685901E+02 -0.45739425926E+02  0.61989171341E+02  0.00000000000E+00 0. -1.
</event>
<event>
 7    1  0.2766180E-009  0.6208880E+02  0.7561462E-02  0.1389269E+00
          2   -1    0    0  501    0  0.00000000000E+00  0.00000000000E+00  0.19163013613E+03  0.19163013613E+03  0.00000000000E+00 0. -1.
         -2   -1    0    0    0  501 -0.00000000000E+00 -0.00000000000E+00 -0.10018870777E+03  0.10018870777E+03  0.00000000000E+00 0.  1.
         25    2    1    2    0    0 -0.12722147325E+01  0.44002150754E+02  0.13040844084E+03  0.18598391455E+03  0.12508336112E+03 0.  0.
          5    1    3    3  502    0  0.18047723066E+02  0.33451903342E+02  0.15087004529E+03  0.15564058953E+03  0.41800000000E+01 0.  1.
         -5    1    3    3    0  502 -0.19319937799E+02  0.10550247412E+02 -0.20461604443E+02  0.30343325022E+02  0.41800000000E+01 0.  1.
        -11    1    1    2    0    0 -0.18406838876E+02 -0.38329285665E+01  0.22812568338E+02  0.29562075924E+02  0.00000000000E+00 0. -1.
         11    1    1    2    0    0  0.19679053608E+02 -0.40169222187E+02 -0.61779580827E+02  0.76272853423E+02  0.00000000000E+00 0.  1.
</event>
<event>
 7    1  0.2766180E-009  0.1662815E+03  0.7561462E-02  0.1181782E+00
          1   -1    0    0  501    0  0.00000000000E+00  0.00000000000E+00  0.61341699018E+02  0.61341699018E+02  0.00000000000E+00 0. -1.
         -1   -1    0    0    0  501 -0.00000000000E+00 -0.00000000000E+00 -0.12764233330E+04  0.12764233330E+04  0.00000000000E+00 0.  1.
         25    2    1    2    0    0 -0.11963331696E+02  0.14295922820E+03 -0.11316719287E+04  0.11475668854E+04  0.12509172586E+03 0.  0.
          5    1    3    3  502    0  0.22976012921E+02  0.14267695669E+03 -0.71863646572E+03  0.73303509697E+03  0.41800000000E+01 0. -1.
         -5    1    3    3    0  502 -0.34939344617E+02  0.28227151164E+00 -0.41303546301E+03  0.41453178839E+03  0.41800000000E+01 0. -1.
        -11    1    1    2    0    0  0.23030665474E+02 -0.23774672073E+02  0.13935304567E+02  0.35914332762E+02  0.00000000000E+00 0. -1.
         11    1    1    2    0    0 -0.11067333777E+02 -0.11918455613E+03 -0.97345009862E+02  0.15428381393E+03  0.00000000000E+00 0.  1.
</event>
<event>
 7    1  0.2766180E-009  0.1235471E+03  0.7561462E-02  0.1237358E+00
          1   -1    0    0  501    0  0.00000000000E+00  0.00000000000E+00  0.12361969481E+04  0.12361969481E+04  0.00000000000E+00 0. -1.
         -1   -1    0    0    0  501 -0.00000000000E+00 -0.00000000000E+00 -0.15491856096E+02  0.15491856096E+02  0.00000000000E+00 0.  1.
         25    2    1    2    0    0  0.34272167188E+02 -0.61963710053E+02  0.88607319437E+03  0.89765760123E+03  0.12509748381E+03 0.  0.
          5    1    3    3  502    0  0.73930949464E+02 -0.69290347168E+02  0.69225896510E+03  0.69964768610E+03  0.41800000000E+01 0. -1.
         -5    1    3    3    0  502 -0.39658782276E+02  0.73266371154E+01  0.19381422927E+03  0.19800991513E+03  0.41800000000E+01 0. -1.
        -11    1    1    2    0    0  0.22559363563E+02  0.22023892039E+01  0.25637665673E+02  0.34220831430E+02  0.00000000000E+00 0.  1.
         11    1    1    2    0    0 -0.56831530751E+02  0.59761320849E+02  0.30899423195E+03  0.31981037153E+03  0.00000000000E+00 0. -1.
</event>
<event>
 7    1  0.2981706E-009  0.1799577E+03  0.7561462E-02  0.1167844E+00
          1   -1    0    0  501    0  0.00000000000E+00  0.00000000000E+00  0.49424026309E+03  0.49424026309E+03  0.00000000000E+00 0. -1.
         -1   -1    0    0    0  501 -0.00000000000E+00 -0.00000000000E+00 -0.71273232533E+02  0.71273232533E+02  0.00000000000E+00 0.  1.
         25    2    1    2    0    0 -0.15077871223E+03 -0.12359435925E+02  0.25234653021E+03  0.31970894852E+03  0.12509222493E+03 0.  0.
          5    1    3    3  502    0 -0.80740847001E+02  0.51220425446E+02  0.87881175953E+02  0.12993532947E+03  0.41800000000E+01 0. -1.
         -5    1    3    3    0  502 -0.70037865232E+02 -0.63579861371E+02  0.16446535425E+03  0.18977361905E+03  0.41800000000E+01 0. -1.
        -11    1    1    2    0    0  0.82245736061E+02  0.44847911536E+02  0.12858618787E+03  0.15909149563E+03  0.00000000000E+00 0. -1.
         11    1    1    2    0    0  0.68532976171E+02 -0.32488475611E+02  0.42034312474E+02  0.86713051472E+02  0.00000000000E+00 0.  1.
</event>
<event>
 7    1  0.3243165E-009  0.6868388E+02  0.7561462E-02  0.1364627E+00
         -1   -1    0    0    0  501 -0.00000000000E+00  0.00000000000E+00  0.11324737479E+03  0.11324737479E+03  0.00000000000E+00 0.  1.
          1   -1    0    0  501    0  0.00000000000E+00 -0.00000000000E+00 -0.13248669137E+03  0.13248669137E+03  0.00000000000E+00 0. -1.
         25    2    1    2    0    0 -0.48816844140E+02 -0.28220489389E+02 -0.10014630071E+02  0.13757790281E+03  0.12509159138E+03 0.  0.
          5    1    3    3  502    0 -0.21382640286E+02 -0.43399700109E+02 -0.60759848388E+02  0.77781635694E+02  0.41800000000E+01 0.  1.
         -5    1    3    3    0  502 -0.27434203854E+02  0.15179210720E+02  0.50745218316E+02  0.59796267117E+02  0.41800000000E+01 0.  1.
        -11    1    1    2    0    0  0.17401870630E+02  0.15425914147E+02 -0.49983877873E+02  0.55128685600E+02  0.00000000000E+00 0. -1.
         11    1    1    2    0    0  0.31414973510E+02  0.12794575242E+02  0.40759191363E+02  0.53027477753E+02  0.00000000000E+00 0.  1.
</event>
<event>
 7    1  0.2766180E-009  0.1029530E+03  0.7561462E-02  0.1274206E+00
          2   -1    0    0  501    0  0.00000000000E+00  0.00000000000E+00  0.33136309179E+03  0.33136309179E+03  0.00000000000E+00 0. -1.
         -2   -1    0    0    0  501 -0.00000000000E+00 -0.00000000000E+00 -0.75042016283E+02  0.75042016283E+02  0.00000000000E+00 0.  1.
         25    2    1    2    0    0 -0.11639630292E+02 -0.58731999810E+02  0.17296607542E+02  0.13975562694E+03  0.12509010286E+03 0.  0.
          5    1    3    3  502    0 -0.34806846872E+02 -0.10681700524E+02  0.60668113627E+02  0.70878118812E+02  0.41800000000E+01 0. -1.
         -5    1    3    3    0  502  0.23167216580E+02 -0.48050299285E+02 -0.43371506084E+02  0.68877508125E+02  0.41800000000E+01 0. -1.
        -11    1    1    2    0    0  0.20080132841E+02  0.85425834133E+02  0.20194671362E+03  0.22018914599E+03  0.00000000000E+00 0. -1.
         11    1    1    2    0    0 -0.84405025483E+01 -0.26693834324E+02  0.37077754349E+02  0.46460335145E+02  0.00000000000E+00 0.  1.
</event>
<event>
 7    1  0.2766180E-009  0.5322399E+02  0.7561462E-02  0.1428689E+00
          2   -1    0    0  501    0  0.00000000000E+00  0.00000000000E+00  0.26815481569E+03  0.26815481569E+03  0.00000000000E+00 0.  1.
         -2   -1    0    0    0  501 -0.00000000000E+00 -0.00000000000E+00 -0.49078901562E+02  0.49078901562E+02  0.00000000000E+00 0. -1.
         25    2    1    2    0    0  0.68985164133E+01 -0.15785468030E+02  0.77606239491E+02  0.14821158715E+03  0.12508867106E+03 0.  0.
          5    1    3    3  502    0  0.52712400364E+01 -0.13795931597E+02  0.11221340653E+03  0.11325826550E+03  0.41800000000E+01 0.  1.
         -5    1    3    3    0  502  0.16272763768E+01 -0.19895364329E+01 -0.34607167036E+02  0.34953321643E+02  0.41800000000E+01 0.  1.
        -11    1    1    2    0    0 -0.17805732077E+01 -0.35052268066E+02  0.29139448227E+02  0.45617314481E+02  0.00000000000E+00 0. -1.
         11    1    1    2    0    0 -0.51179432056E+01  0.50837736096E+02  0.11233022641E+03  0.12340481562E+03  0.00000000000E+00 0.  1.
</event>
<event>
 7    1  0.2766180E-009  0.8800247E+02  0.7561462E-02  0.1307762E+00
          1   -1    0    0  501    0  0.00000000000E+00  0.00000000000E+00  0.10535043532E+03  0.10535043532E+03  0.00000000000E+00 0. -1.
         -1   -1    0    0    0  501 -0.00000000000E+00 -0.00000000000E+00 -0.27460048638E+03  0.27460048638E+03  0.00000000000E+00 0.  1.
         25    2    1    2    0    0  0.21808952653E+02 -0.31655984510E+02  0.49418600506E+02  0.13988500445E+03  0.12509150500E+03 0.  0.
          5    1    3    3  502    0  0.31085853710E+02 -0.54179890175E+02  0.79347091092E+02  0.10107039163E+03  0.41800000000E+01 0. -1.
         -5    1    3    3    0  502 -0.92769010573E+01  0.22523905665E+02 -0.29928490586E+02  0.38814612821E+02  0.41800000000E+01 0. -1.
        -11    1    1    2    0    0 -0.31735410644E+02  0.54898866691E+02 -0.97623372248E+02  0.11641024294E+03  0.00000000000E+00 0. -1.
         11    1    1    2    0    0  0.99264579911E+01 -0.23242882182E+02 -0.12104527932E+03  0.12365567430E+03  0.00000000000E+00 0.  1.
</event>
<event>
 7    1  0.2766180E-009  0.1142427E+03  0.7561462E-02  0.1252909E+00
         -2   -1    0    0    0  501 -0.00000000000E+00  0.00000000000E+00  0.99099961685E+01  0.99099961685E+01  0.00000000000E+00 0.  1.
          2   -1    0    0  501    0  0.00000000000E+00 -0.00000000000E+00 -0.18258686244E+04  0.18258686244E+04  0.00000000000E+00 0. -1.
         25    2    1    2    0    0 -0.60601292659E+02  0.18344595023E+02 -0.13728902671E+04  0.13800309477E+04  0.12509472534E+03 0.  0.
          5    1    3    3  502    0  0.24919447845E+02 -0.15545682670E+02 -0.72745754395E+03  0.72806222110E+03  0.41800000000E+01 0. -1.
         -5    1    3    3    0  502 -0.85520740504E+02  0.33890277694E+02 -0.64543272310E+03  0.65196872658E+03  0.41800000000E+01 0. -1.
        -11    1    1    2    0    0 -0.16699074939E+02  0.15094055872E+02 -0.89792342981E+02  0.92570807950E+02  0.00000000000E+00 0. -1.
         11    1    1    2    0    0  0.77300367598E+02 -0.33438650896E+02 -0.35327601824E+03  0.36317686500E+03  0.00000000000E+00 0.  1.
</event>
<event>
 7    1  0.2766180E-009  0.7954647E+02  0.7561462E-02  0.1330343E+00
         -1   -1    0    0    0  501 -0.00000000000E+00  0.00000000000E+00  0.63503479261E+02  0.63503479261E+02  0.00000000000E+00 0.  1.
          1   -1    0    0  501    0  0.00000000000E+00 -0.00000000000E+00 -0.18397729854E+03  0.18397729854E+03  0.00000000000E+00 0. -1.
         25    2    1    2    0    0  0.54546708228E+00  0.85421320392E+01 -0.66192699560E+02  0.14178028666E+03  0.12508761192E+03 0.  0.
          5    1    3    3  502    0 -0.22773260895E+02 -0.40736719740E+02  0.10084765984E+02  0.47929913957E+02  0.41800000000E+01 0. -1.
         -5    1    3    3    0  502  0.23318727977E+02  0.49278851779E+02 -0.76277465544E+02  0.93850372705E+02  0.41800000000E+01 0. -1.
        -11    1    1    2    0    0 -0.23317811191E+02  0.12583060500E+02 -0.67065900401E+02  0.72110253965E+02  0.00000000000E+00 0. -1.
         11    1    1    2    0    0  0.22772344109E+02 -0.21125192539E+02  0.12784780685E+02  0.33590237171E+02  0.00000000000E+00 0.  1.
</event>
<event>
 7    1  0.2766180E-009  0.1132189E+03  0.7561462E-02  0.1254722E+00
         -2   -1    0    0    0  501 -0.00000000000E+00  0.00000000000E+00  0.38255585027E+02  0.38255585027E+02  0.00000000000E+00 0.  1.
          2   -1    0    0  501    0  0.00000000000E+00 -0.00000000000E+00 -0.53172816143E+03  0.53172816143E+03  0.00000000000E+00 0. -1.
         25    2    1    2    0    0  0.64930757402E+02  0.51379290759E+02 -0.18844850932E+03  0.24086545876E+03  0.12508994277E+03 0.  0.
          5    1    3    3  502    0  0.10828977307E+02 -0.13892044492E+02 -0.14384286628E+03  0.14497757837E+03  0.41800000000E+01 0. -1.
         -5    1    3    3    0  502  0.54101780095E+02  0.65271335252E+02 -0.44605643039E+02  0.95887880391E+02  0.41800000000E+01 0. -1.
        -11    1    1    2    0    0 -0.75745925411E+02 -0.50892881533E+01 -0.17945084169E+03  0.19484853259E+03  0.00000000000E+00 0.  1.
         11    1    1    2    0    0  0.10815168008E+02 -0.46290002606E+02 -0.12557322539E+03  0.13426975510E+03  0.00000000000E+00 0. -1.
</event>
<event>
 7    1  0.2766180E-009  0.1613874E+03  0.7561462E-02  0.1187139E+00
         -3   -1    0    0    0  501 -0.00000000000E+00  0.00000000000E+00  0.19321742952E+04  0.19321742952E+04  0.00000000000E+00 0.  1.
          3   -1    0    0  501    0  0.00000000000E+00 -0.00000000000E+00 -0.17610394310E+02  0.17610394310E+02  0.00000000000E+00 0. -1.
         25    2    1    2    0    0 -0.12054061793E+03 -0.75673987150E+02  0.12448836290E+04  0.12592209827E+04  0.12508253519E+03 0.  0.
          5    1    3    3  502    0 -0.25981925956E+02  0.19642436875E+02  0.57861611363E+03  0.57954720701E+03  0.41800000000E+01 0. -1.
         -5    1    3    3    0  502 -0.94558691975E+02 -0.95316424025E+02  0.66626751542E+03  0.67967377573E+03  0.41800000000E+01 0. -1.
        -11    1    1    2    0    0  0.71947940146E+02  0.79060961228E+02  0.56606209232E+03  0.57606721313E+03  0.00000000000E+00 0.  1.
         11    1    1    2    0    0  0.48592677785E+02 -0.33869740777E+01  0.10361817953E+03  0.11449649364E+03  0.00000000000E+00 0. -1.
</event>
<event>
 7    1  0.2766180E-009  0.1269266E+03  0.7561462E-02  0.1232089E+00
          2   -1    0    0  501    0  0.00000000000E+00  0.00000000000E+00  0.14175838916E+04  0.14175838916E+04  0.00000000000E+00 0. -1.
         -2   -1    0    0    0  501 -0.00000000000E+00 -0.00000000000E+00 -0.16857526767E+02  0.16857526767E+02  0.00000000000E+00 0.  1.
         25    2    1    2    0    0 -0.60826779526E+02  0.67408807927E+02  0.10494722018E+04  0.10607940729E+04  0.12509323843E+03 0.  0.
          5    1    3    3  502    0 -0.36651502963E+02 -0.18107449249E+02  0.11546938006E+03  0.12256370800E+03  0.41800000000E+01 0. -1.
         -5    1    3    3    0  502 -0.24175276562E+02  0.85516257176E+02  0.93400282172E+03  0.93823036490E+03  0.41800000000E+01 0. -1.
        -11    1    1    2    0    0 -0.16573484381E+02 -0.37167455778E+02  0.77167940301E+02  0.87240994743E+02  0.00000000000E+00 0.  1.
         11    1    1    2    0    0  0.77400263907E+02 -0.30241352149E+02  0.27408622281E+03  0.28640635078E+03  0.00000000000E+00 0. -1.
</event>
<event>
 7    1  0.2766180E-009  0.1125528E+03  0.7561462E-02  0.1255914E+00
          1   -1    0    0  501    0  0.00000000000E+00  0.00000000000E+00  0.30221450391E+03  0.30221450391E+03  0.00000000000E+00 0. -1.
         -1   -1    0    0    0  501 -0.00000000000E+00 -0.00000000000E+00 -0.61556862151E+02  0.61556862151E+02  0.00000000000E+00 0.  1.
         25    2    1    2    0    0 -0.26082027696E+02  0.75658864167E+02  0.14192311573E+03  0.20541615463E+03  0.12509632253E+03 0.  0.
          5    1    3    3  502    0 -0.61215139742E+02  0.45566805017E+02  0.26321695429E+02  0.80832735345E+02  0.41800000000E+01 0.  1.
         -5    1    3    3    0  502  0.35133112046E+02  0.30092059150E+02  0.11560142030E+03  0.12458341928E+03  0.41800000000E+01 0.  1.
        -11    1    1    2    0    0  0.47330824126E+02 -0.55500788581E+02  0.10553253821E+03  0.12828741586E+03  0.00000000000E+00 0. -1.
         11    1    1    2    0    0 -0.21248796430E+02 -0.20158075586E+02 -0.67980121809E+01  0.30067795574E+02  0.00000000000E+00 0.  1.
</event>
<event>
 7    1  0.2766180E-009  0.1088819E+03  0.7561462E-02  0.1262655E+00
         -1   -1    0    0    0  501 -0.00000000000E+00  0.00000000000E+00  0.14568535733E+02  0.14568535733E+02  0.00000000000E+00 0.  1.
          1   -1    0    0  501    0  0.00000000000E+00 -0.00000000000E+00 -0.11139309279E+04  0.11139309279E+04  0.00000000000E+00 0. -1.
         25    2    1    2    0    0  0.40670508363E+01 -0.56006862676E+02 -0.76288853215E+03  0.77511225894E+03  0.12508713723E+03 0.  0.
          5    1    3    3  502    0  0.47681968219E+02  0.11841419237E+02 -0.41773885845E+03  0.42063881842E+03  0.41800000000E+01 0.  1.
         -5    1    3    3    0  502 -0.43614917383E+02 -0.67848281913E+02 -0.34514967370E+03  0.35447344052E+03  0.41800000000E+01 0.  1.
        -11    1    1    2    0    0 -0.27299955514E+02  0.26593979092E+00 -0.28186043970E+02  0.39240430295E+02  0.00000000000E+00 0.  1.
         11    1    1    2    0    0  0.23232904677E+02  0.55740922885E+02 -0.30828781608E+03  0.31414677443E+03  0.00000000000E+00 0. -1.
</event>
<event>
 7    1  0.2766180E-009  0.1043506E+03  0.7561462E-02  0.1271404E+00
         -4   -1    0    0    0  501 -0.00000000000E+00  0.00000000000E+00  0.46936549377E+02  0.46936549377E+02  0.00000000000E+00 0.  1.
          4   -1    0    0  501    0  0.00000000000E+00 -0.00000000000E+00 -0.44202321179E+03  0.44202321179E+03  0.00000000000E+00 0. -1.
         25    2    1    2    0    0 -0.73500372471E+02  0.50967829348E+02 -0.26955820911E+03  0.31033709785E+03  0.12508981502E+03 0.  0.
          5    1    3    3  502    0 -0.82674591318E+02  0.47848864963E+02 -0.27976678006E+03  0.29565440222E+03  0.41800000000E+01 0.  1.
         -5    1    3    3    0  502  0.91742188466E+01  0.31189643852E+01  0.10208570945E+02  0.14682695632E+02  0.41800000000E+01 0.  1.
        -11    1    1    2    0    0  0.77713416273E+02 -0.33606090406E+02 -0.44504590129E+02  0.95652511330E+02  0.00000000000E+00 0.  1.
         11    1    1    2    0    0 -0.42130438019E+01 -0.17361738943E+02 -0.81023863167E+02  0.82970151981E+02  0.00000000000E+00 0. -1.
</event>
<event>
 7    1  0.2766180E-009  0.1790271E+03  0.7561462E-02  0.1168748E+00
         -2   -1    0    0    0  501 -0.00000000000E+00  0.00000000000E+00  0.92325914211E+02  0.92325914211E+02  0.00000000000E+00 0. -1.
          2   -1    0    0  501    0  0.00000000000E+00 -0.00000000000E+00 -0.86835825351E+03  0.86835825351E+03  0.00000000000E+00 0.  1.
         25    2    1    2    0    0  0.14372322584E+03  0.10158696844E+03 -0.73265391940E+03  0.76381011087E+03  0.12509133481E+03 0.  0.
          5    1    3    3  502    0  0.37359555717E+02  0.49573319540E+02 -0.84588618893E+02  0.10500455828E+03  0.41800000000E+01 0.  1.
         -5    1    3    3    0  502  0.10636367012E+03  0.52013648898E+02 -0.64806530051E+03  0.65880555259E+03  0.41800000000E+01 0.  1.
        -11    1    1    2    0    0 -0.70411168533E+02 -0.63181203202E+02  0.14739516266E+02  0.95743670453E+02  0.00000000000E+00 0. -1.
         11    1    1    2    0    0 -0.73312057305E+02 -0.38405765236E+02 -0.58117936157E+02  0.10113038640E+03  0.00000000000E+00 0.  1.
</event>
<event>
 7    1  0.2766180E-009  0.1972074E+03  0.7561462E-02  0.1152117E+00
          1   -1    0    0  501    0  0.00000000000E+00  0.00000000000E+00  0.41542242758E+03  0.41542242758E+03  0.00000000000E+00 0.  1.
         -1   -1    0    0    0  501 -0.00000000000E+00 -0.00000000000E+00 -0.11405968748E+03  0.11405968748E+03  0.00000000000E+00 0. -1.
         25    2    1    2    0    0  0.18010553392E+03  0.34826124316E+02  0.10538193218E+03  0.24577100743E+03  0.12508866528E+03 0.  0.
          5    1    3    3  502    0  0.14977911383E+03  0.68956643383E+02  0.46942649688E+02  0.17149310880E+03  0.41800000000E+01 0. -1.
         -5    1    3    3    0  502  0.30326420092E+02 -0.34130519067E+02  0.58439282491E+02  0.74277898633E+02  0.41800000000E+01 0. -1.
        -11    1    1    2    0    0 -0.14287514423E+03 -0.30975218724E+02  0.90867526910E+02  0.17213273500E+03  0.00000000000E+00 0. -1.
         11    1    1    2    0    0 -0.37230389694E+02 -0.38509055916E+01  0.10511328102E+03  0.11157837262E+03  0.00000000000E+00 0.  1.
</event>
<event>
 7    1  0.2766180E-009  0.1291352E+03  0.7561462E-02  0.1228745E+00
         -1   -1    0    0    0  501 -0.00000000000E+00  0.00000000000E+00  0.53155404695E+03  0.53155404695E+03  0.00000000000E+00 0.  1.
          1   -1    0    0  501    0  0.00000000000E+00 -0.00000000000E+00 -0.33212971114E+02  0.33212971114E+02  0.00000000000E+00 0. -1.
         25    2    1    2    0    0  0.50908332050E+02  0.53975580448E+02  0.23181112933E+03  0.27365922576E+03  0.12509176874E+03 0.  0.
          5    1    3    3  502    0  0.67752435514E+02 -0.17806815633E+02  0.13202161997E+03  0.14951473419E+03  0.41800000000E+01 0.  1.
         -5    1    3    3    0  502 -0.16844103464E+02  0.71782396081E+02  0.99789509364E+02  0.12414449157E+03  0.41800000000E+01 0.  1.
        -11    1    1    2    0    0 -0.66949927383E+02 -0.10330588427E+02  0.12558653900E+03  0.14269195006E+03  0.00000000000E+00 0. -1.
         11    1    1    2    0    0  0.16041595333E+02 -0.43644992021E+02  0.14094340751E+03  0.14841584224E+03  0.00000000000E+00 0.  1.
</event>
<event>
 7    1  0.2766180E-009  0.1079428E+03  0.7561462E-02  0.1264428E+00
          2   -1    0    0  501    0  0.00000000000E+00  0.00000000000E+00  0.31403572110E+03  0.31403572110E+03  0.00000000000E+00 0.  1.
         -2   -1    0    0    0  501 -0.00000000000E+00 -0.00000000000E+00 -0.42361273154E+02  0.42361273154E+02  0.00000000000E+00 0. -1.
         25    2    1    2    0    0  0.90733581819E+01  0.31764049189E+02  0.12264279518E+03  0.17827007872E+03  0.12509070752E+03 0.  0.
          5    1    3    3  502    0 -0.43438021353E+02 -0.23914210667E+02  0.30298929478E+02  0.58260181071E+02  0.41800000000E+01 0.  1.
         -5    1    3    3    0  502  0.52511379535E+02  0.55678259856E+02  0.92343865698E+02  0.12000989765E+03  0.41800000000E+01 0.  1.
        -11    1    1    2    0    0 -0.44759972120E+02 -0.53534499335E+01  0.39487746567E+02  0.59928262609E+02  0.00000000000E+00 0.  1.
         11    1    1    2    0    0  0.35686613938E+02 -0.26410599256E+02  0.10954390620E+03  0.11819865292E+03  0.00000000000E+00 0. -1.
</event>
<event>
 7    1  0.2766180E-009  0.1154823E+03  0.7561462E-02  0.1250742E+00
         -1   -1    0    0    0  501 -0.00000000000E+00  0.00000000000E+00  0.10072025823E+03  0.10072025823E+03  0.00000000000E+00 0.  1.
          1   -1    0    0  501    0  0.00000000000E+00 -0.00000000000E+00 -0.14241578043E+03  0.14241578043E+03  0.00000000000E+00 0. -1.
         25    2    1    2    0    0 -0.52523519258E+02 -0.12431409057E+02 -0.18879582903E+02  0.13754542538E+03  0.12509614457E+03 0.  0.
          5    1    3    3  502    0  0.39157300326E+02  0.66158981847E+00  0.96485050406E+01  0.40549943519E+02  0.41800000000E+01 0. -1.
         -5    1    3    3    0  502 -0.91680819584E+02 -0.13092998875E+02 -0.28528087944E+02  0.96995481858E+02  0.41800000000E+01 0. -1.
        -11    1    1    2    0    0  0.40657728912E+02 -0.32720534666E+02  0.29407975396E+01  0.52271718924E+02  0.00000000000E+00 0.  1.
         11    1    1    2    0    0  0.11865790346E+02  0.45151943723E+02 -0.25756736841E+02  0.53318894355E+02  0.00000000000E+00 0. -1.
</event>
<event>
 7    1  0.2766180E-009  0.1300644E+03  0.7561462E-02  0.1227360E+00
         -2   -1    0    0    0  501 -0.00000000000E+00  0.00000000000E+00  0.27666968617E+03  0.27666968617E+03  0.00000000000E+00 0.  1.
          2   -1    0    0  501    0  0.00000000000E+00 -0.00000000000E+00 -0.16283881333E+03  0.16283881333E+03  0.00000000000E+00 0. -1.
         25    2    1    2    0    0 -0.58488244691E+00  0.80827661014E+02  0.19088538406E+03  0.24211148857E+03  0.12508912893E+03 0.  0.
          5    1    3    3  502    0 -0.54899697935E+02  0.96435074380E+01  0.49269213013E+02  0.74511085216E+02  0.41800000000E+01 0. -1.
         -5    1    3    3    0  502  0.54314815488E+02  0.71184153576E+02  0.14161617104E+03  0.16760040335E+03  0.41800000000E+01 0. -1.
        -11    1    1    2    0    0  0.40756544741E+02 -0.35737425673E+02  0.38859175414E+02  0.66695539932E+02  0.00000000000E+00 0.  1.
         11    1    1    2    0    0 -0.40171662295E+02 -0.45090235341E+02 -0.11591368663E+03  0.13070147101E+03  0.00000000000E+00 0. -1.
</event>
<event>
 7    1  0.2766180E-009  0.1206814E+03  0.7561462E-02  0.1241977E+00
         -2   -1    0    0    0  501 -0.00000000000E+00  0.00000000000E+00  0.18402970470E+03  0.18402970470E+03  0.00000000000E+00 0.  1.
          2   -1    0    0  501    0  0.00000000000E+00 -0.00000000000E+00 -0.10917678640E+03  0.10917678640E+03  0.00000000000E+00 0. -1.
         25    2    1    2    0    0 -0.52242826970E+02  0.33233527258E+02 -0.20627602324E+02  0.14109292102E+03  0.12509170268E+03 0.  0.
          5    1    3    3  502    0 -0.81301926362E+02 -0.12680951733E+02 -0.25835078795E+02  0.86346589181E+02  0.41800000000E+01 0. -1.
         -5    1    3    3    0  502  0.29059099391E+02  0.45914478991E+02  0.52074764712E+01  0.54746331837E+02  0.41800000000E+01 0. -1.
        -11    1    1    2    0    0  0.19968814941E+01  0.26410591340E+02  0.61660793231E+02  0.67108570932E+02  0.00000000000E+00 0.  1.
         11    1    1    2    0    0  0.50245945476E+02 -0.59644118598E+02  0.33819727386E+02  0.85004999150E+02  0.00000000000E+00 0. -1.
</event>
<event>
 7    1  0.3221153E-009  0.2258375E+03  0.7561462E-02  0.1129604E+00
          3   -1    0    0  501    0  0.00000000000E+00  0.00000000000E+00  0.13261613217E+04  0.13261613217E+04  0.00000000000E+00 0. -1.
         -3   -1    0    0    0  501 -0.00000000000E+00 -0.00000000000E+00 -0.42188788749E+02  0.42188788749E+02  0.00000000000E+00 0.  1.
         25    2    1    2    0    0 -0.10994406398E+03 -0.17649310257E+03  0.58027984405E+03  0.62897548492E+03  0.12509176938E+03 0.  0.
          5    1    3    3  502    0 -0.85192272333E+02 -0.19404191098E+03  0.50171882474E+03  0.54465515510E+03  0.41800000000E+01 0. -1.
         -5    1    3    3    0  502 -0.24751791647E+02  0.17548808408E+02  0.78561019306E+02  0.84320329818E+02  0.41800000000E+01 0. -1.
        -11    1    1    2    0    0  0.38214703122E+02  0.42888048500E+02  0.86576371426E+02  0.10390003045E+03  0.00000000000E+00 0.  1.
         11    1    1    2    0    0  0.71729360857E+02  0.13360505407E+03  0.61711631745E+03  0.63547459504E+03  0.00000000000E+00 0. -1.
</event>
<event>
 7    1  0.2766180E-009  0.9072258E+02  0.7561462E-02  0.1301111E+00
         -2   -1    0    0    0  501 -0.00000000000E+00  0.00000000000E+00  0.31187920704E+02  0.31187920704E+02  0.00000000000E+00 0.  1.
          2   -1    0    0  501    0  0.00000000000E+00 -0.00000000000E+00 -0.38184463559E+03  0.38184463559E+03  0.00000000000E+00 0. -1.
         25    2    1    2    0    0 -0.13402928926E+01 -0.65269681080E+01 -0.19676747349E+03  0.23325756151E+03  0.12508898304E+03 0.  0.
          5    1    3    3  502    0 -0.48026292166E+02  0.17918608353E+02 -0.32849541930E+02  0.61025945871E+02  0.41800000000E+01 0.  1.
         -5    1    3    3    0  502  0.46685999273E+02 -0.24445576461E+02 -0.16391793156E+03  0.17223161563E+03  0.41800000000E+01 0.  1.
        -11    1    1    2    0    0  0.30572903525E+02 -0.20925507947E+02 -0.24756125789E+02  0.44558333417E+02  0.00000000000E+00 0.  1.
         11    1    1    2    0    0 -0.29232610633E+02  0.27452476055E+02 -0.12913311561E+03  0.13521666137E+03  0.00000000000E+00 0. -1.
</event>
<event>
 7    1  0.2783901E-009  0.1718958E+03  0.7561462E-02  0.1175885E+00
         -1   -1    0    0    0  501 -0.00000000000E+00  0.00000000000E+00  0.23423094483E+03  0.23423094483E+03  0.00000000000E+00 0.  1.
          1   -1    0    0  501    0  0.00000000000E+00 -0.00000000000E+00 -0.13773451713E+03  0.13773451713E+03  0.00000000000E+00 0. -1.
         25    2    1    2    0    0  0.13844357382E+03  0.10456466384E+02  0.84873581835E+02  0.20524953814E+03  0.12509151526E+03 0.  0.
          5    1    3    3  502    0  0.33800935443E+01  0.39275044728E+02  0.47988034178E+02  0.62243698437E+02  0.41800000000E+01 0.  1.
         -5    1    3    3    0  502  0.13506348028E+03 -0.28818578344E+02  0.36885547657E+02  0.14300583970E+03  0.41800000000E+01 0.  1.
        -11    1    1    2    0    0 -0.38029890649E+02 -0.45800352436E+02 -0.83671307489E+00  0.59536920938E+02  0.00000000000E+00 0.  1.
         11    1    1    2    0    0 -0.10041368317E+03  0.35343886052E+02  0.12459558941E+02  0.10717900288E+03  0.00000000000E+00 0. -1.
</event>
<event>
 7    1  0.2766180E-009  0.7573897E+02  0.7561462E-02  0.1341598E+00
          1   -1    0    0  501    0  0.00000000000E+00  0.00000000000E+00  0.84212843067E+02  0.84212843067E+02  0.00000000000E+00 0. -1.
         -1   -1    0    0    0  501 -0.00000000000E+00 -0.00000000000E+00 -0.19335082384E+03  0.19335082384E+03  0.00000000000E+00 0.  1.
         25    2    1    2    0    0 -0.37203698271E+02  0.54706292843E+02 -0.55943326164E+02  0.15216539467E+03  0.12509099868E+03 0.  0.
          5    1    3    3  502    0  0.37376884607E+01  0.41437276157E+02  0.33000076891E+02  0.53268148505E+02  0.41800000000E+01 0.  1.
         -5    1    3    3    0  502 -0.40941386732E+02  0.13269016685E+02 -0.88943403054E+02  0.98897246161E+02  0.41800000000E+01 0.  1.
        -11    1    1    2    0    0  0.13990784672E+02 -0.25801533193E+02  0.25197064435E+02  0.38682725175E+02  0.00000000000E+00 0. -1.
         11    1    1    2    0    0  0.23212913599E+02 -0.28904759650E+02 -0.78391719042E+02  0.86715547064E+02  0.00000000000E+00 0.  1.
</event>
<event>
 7    1  0.2766180E-009  0.6637242E+02  0.7561462E-02  0.1372882E+00
         -1   -1    0    0    0  501 -0.00000000000E+00  0.00000000000E+00  0.52665811435E+02  0.52665811435E+02  0.00000000000E+00 0.  1.
          1   -1    0    0  501    0  0.00000000000E+00 -0.00000000000E+00 -0.28640173672E+03  0.28640173672E+03  0.00000000000E+00 0. -1.
         25    2    1    2    0    0  0.20724225051E+02 -0.39794958953E+02 -0.79975692704E+02  0.15510067811E+03  0.12508787577E+03 0.  0.
          5    1    3    3  502    0 -0.15410352101E+01 -0.32255943484E+02  0.28961213097E+02  0.43578032810E+02  0.41800000000E+01 0.  1.
         -5    1    3    3    0  502  0.22265260261E+02 -0.75390154690E+01 -0.10893690580E+03  0.11152264530E+03  0.41800000000E+01 0.  1.
        -11    1    1    2    0    0 -0.33711360077E+02  0.49643589541E+02 -0.15634367398E+03  0.16746428328E+03  0.00000000000E+00 0. -1.
         11    1    1    2    0    0  0.12987135026E+02 -0.98486305874E+01  0.25834413966E+01  0.16502586769E+02  0.00000000000E+00 0.  1.
</event>
<event>
 7    1  0.2766180E-009  0.1127050E+03  0.7561462E-02  0.1255641E+00
          1   -1    0    0  501    0  0.00000000000E+00  0.00000000000E+00  0.12446158203E+03  0.12446158203E+03  0.00000000000E+00 0. -1.
         -1   -1    0    0    0  501 -0.00000000000E+00 -0.00000000000E+00 -0.14715619337E+03  0.14715619337E+03  0.00000000000E+00 0.  1.
         25    2    1    2    0    0 -0.25154574229E+02  0.42202244285E+02 -0.76193951047E+02  0.15449111224E+03  0.12509277980E+03 0.  0.
          5    1    3    3  502    0  0.21334209906E+01 -0.37640864542E+02 -0.55987336447E+02  0.67627216496E+02  0.41800000000E+01 0. -1.
         -5    1    3    3    0  502 -0.27287995220E+02  0.79843108827E+02 -0.20206614600E+02  0.86863895744E+02  0.41800000000E+01 0. -1.
        -11    1    1    2    0    0 -0.30578263037E+02 -0.35513342924E+02  0.15578541867E+02  0.49385409411E+02  0.00000000000E+00 0.  1.
         11    1    1    2    0    0  0.55732837267E+02 -0.66889013610E+01  0.37920797837E+02  0.67741253752E+02  0.00000000000E+00 0. -1.
</event>
<event>
 7    1  0.2766180E-009  0.6369868E+02  0.7561462E-02  0.1382934E+00
          2   -1    0    0  501    0  0.00000000000E+00  0.00000000000E+00  0.91356506842E+02  0.91356506842E+02  0.00000000000E+00 0. -1.
         -2   -1    0    0    0  501 -0.00000000000E+00 -0.00000000000E+00 -0.16890994340E+03  0.16890994340E+03  0.00000000000E+00 0.  1.
         25    2    1    2    0    0 -0.58424371049E+00 -0.88006476150E+01  0.18633817207E+02  0.12677756010E+03  0.12509011897E+03 0.  0.
          5    1    3    3  502    0 -0.39348410389E+02  0.48477660052E+01 -0.39065373805E+02  0.55815536062E+02  0.41800000000E+01 0.  1.
         -5    1    3    3    0  502  0.38764166679E+02 -0.13648413620E+02  0.57699191012E+02  0.70962024041E+02  0.41800000000E+01 0.  1.
        -11    1    1    2    0    0 -0.15686462506E+02  0.20767043332E+02  0.81053294738E+01  0.27258605258E+02  0.00000000000E+00 0. -1.
         11    1    1    2    0    0  0.16270706216E+02 -0.11966395717E+02 -0.10429258324E+03  0.10623028488E+03  0.00000000000E+00 0.  1.
</event>
<event>
 7    1  0.2766180E-009  0.8229798E+02  0.7561462E-02  0.1322654E+00
         -1   -1    0    0    0  501 -0.00000000000E+00  0.00000000000E+00  0.76672623048E+02  0.76672623048E+02  0.00000000000E+00 0.  1.
          1   -1    0    0  501    0  0.00000000000E+00 -0.00000000000E+00 -0.40740593961E+03  0.40740593961E+03  0.00000000000E+00 0. -1.
         25    2    1    2    0    0  0.71193765466E+00  0.59940429334E+02 -0.43404809626E+01  0.13877592848E+03  0.12508619678E+03 0.  0.
          5    1    3    3  502    0  0.41002700777E+00  0.23376457661E+00  0.54606809305E+02  0.54768593103E+02  0.41800000000E+01 0. -1.
         -5    1    3    3    0  502  0.30191064689E+00  0.59706664758E+02 -0.58947290268E+02  0.84007335373E+02  0.41800000000E+01 0. -1.
        -11    1    1    2    0    0 -0.39218387106E+02 -0.16673951732E+02 -0.66124040899E+02  0.78666964721E+02  0.00000000000E+00 0.  1.
         11    1    1    2    0    0  0.38506449452E+02 -0.43266477602E+02 -0.26026879470E+03  0.26663566946E+03  0.00000000000E+00 0. -1.
</event>
<event>
 7    1  0.2766180E-009  0.1536437E+03  0.7561462E-02  0.1196066E+00
          1   -1    0    0  501    0  0.00000000000E+00  0.00000000000E+00  0.29472447879E+02  0.29472447879E+02  0.00000000000E+00 0. -1.
         -1   -1    0    0    0  501 -0.00000000000E+00 -0.00000000000E+00 -0.94290752199E+03  0.94290752199E+03  0.00000000000E+00 0.  1.
         25    2    1    2    0    0  0.64454785279E+02  0.96548434037E+02 -0.67773092979E+03  0.69888735634E+03  0.12509318206E+03 0.  0.
          5    1    3    3  502    0 -0.19975275364E+02 -0.17986794568E+02 -0.82424012214E+02  0.86797042543E+02  0.41800000000E+01 0.  1.
         -5    1    3    3    0  502  0.84430060643E+02  0.11453522860E+03 -0.59530691757E+03  0.61209031379E+03  0.41800000000E+01 0.  1.
        -11    1    1    2    0    0 -0.59678396697E+02 -0.22888181593E+02 -0.93294839895E+02  0.11308981846E+03  0.00000000000E+00 0.  1.
         11    1    1    2    0    0 -0.47763885816E+01 -0.73660252444E+02 -0.14240930443E+03  0.16040279507E+03  0.00000000000E+00 0. -1.
</event>
<event>
 7    1  0.2766180E-009  0.1080368E+03  0.7561462E-02  0.1264249E+00
          1   -1    0    0  501    0  0.00000000000E+00  0.00000000000E+00  0.39250378708E+03  0.39250378708E+03  0.00000000000E+00 0. -1.
         -1   -1    0    0    0  501 -0.00000000000E+00 -0.00000000000E+00 -0.37220510505E+02  0.37220510505E+02  0.00000000000E+00 0.  1.
         25    2    1    2    0    0 -0.43674811451E+02 -0.62312484487E+01  0.14857806913E+03  0.19917013526E+03  0.12508789926E+03 0.  0.
          5    1    3    3  502    0  0.36096476648E+02 -0.23897443323E+02  0.85284030491E+02  0.95733388536E+02  0.41800000000E+01 0. -1.
         -5    1    3    3    0  502 -0.79771288099E+02  0.17666194874E+02  0.63294038641E+02  0.10343674673E+03  0.41800000000E+01 0. -1.
        -11    1    1    2    0    0  0.65379758554E+02  0.15464739555E+02  0.19033106876E+03  0.20184049825E+03  0.00000000000E+00 0. -1.
         11    1    1    2    0    0 -0.21704947103E+02 -0.92334911058E+01  0.16374138682E+02  0.28713664070E+02  0.00000000000E+00 0.  1.
</event>
<event>
 7    1  0.2766180E-009  0.6439858E+02  0.7561462E-02  0.1380248E+00
          4   -1    0    0  501    0  0.00000000000E+00  0.00000000000E+00  0.16795532944E+03  0.16795532944E+03  0.00000000000E+00 0. -1.
         -4   -1    0    0    0  501 -0.00000000000E+00 -0.00000000000E+00 -0.84646985462E+02  0.84646985462E+02  0.00000000000E+00 0.  1.
         25    2    1    2    0    0 -0.49114522463E+01 -0.45338013238E+02  0.81800002965E+02  0.15626206943E+03  0.12508771343E+03 0.  0.
          5    1    3    3  502    0  0.10195521404E+02 -0.24782867711E+02  0.11273319251E+03  0.11594992144E+03  0.41800000000E+01 0.  1.
         -5    1    3    3    0  502 -0.15106973650E+02 -0.20555145528E+02 -0.30933189544E+02  0.40312147994E+02  0.41800000000E+01 0.  1.
        -11    1    1    2    0    0  0.71593044474E+01  0.60285815990E+02 -0.25135540022E+02  0.65707158073E+02  0.00000000000E+00 0.  1.
         11    1    1    2    0    0 -0.22478522011E+01 -0.14947802752E+02  0.26643881037E+02  0.30633087395E+02  0.00000000000E+00 0. -1.
</event>
<event>
 7    1  0.2766180E-009  0.1054408E+03  0.7561462E-02  0.1269254E+00
         -2   -1    0    0    0  501 -0.00000000000E+00  0.00000000000E+00  0.19537785708E+02  0.19537785708E+02  0.00000000000E+00 0.  1.
          2   -1    0    0  501    0  0.00000000000E+00 -0.00000000000E+00 -0.60355332366E+03  0.60355332366E+03  0.00000000000E+00 0. -1.
         25    2    1    2    0    0  0.95962986157E+01  0.33941271868E+01 -0.35705301023E+03  0.37846805400E+03  0.12509039428E+03 0.  0.
          5    1    3    3  502    0 -0.47688530888E+02  0.34247227867E+02 -0.19820267275E+03  0.20675792725E+03  0.41800000000E+01 0.  1.
         -5    1    3    3    0  502  0.57284829504E+02 -0.30853100680E+02 -0.15885033748E+03  0.17171012676E+03  0.41800000000E+01 0.  1.
        -11    1    1    2    0    0  0.14975698136E+02 -0.40012582644E+02 -0.74178674875E+02  0.85602302018E+02  0.00000000000E+00 0.  1.
         11    1    1    2    0    0 -0.24571996752E+02  0.36618455457E+02 -0.15278385285E+03  0.15902075335E+03  0.00000000000E+00 0. -1.
</event>
<event>
 7    1  0.2766180E-009  0.1546602E+03  0.7561462E-02  0.1194861E+00
          1   -1    0    0  501    0  0.00000000000E+00  0.00000000000E+00  0.61401367875E+03  0.61401367875E+03  0.00000000000E+00 0. -1.
         -1   -1    0    0    0  501 -0.00000000000E+00 -0.00000000000E+00 -0.74409007167E+02  0.74409007167E+02  0.00000000000E+00 0.  1.
         25    2    1    2    0    0 -0.69168596349E+02  0.10128446938E+03  0.50046004126E+03  0.53023640255E+03  0.12509017238E+03 0.  0.
          5    1    3    3  502    0 -0.10182122466E+03  0.95942717504E+02  0.37020981604E+03  0.39578447054E+03  0.41800000000E+01 0.  1.
         -5    1    3    3    0  502  0.32652628306E+02  0.53417518789E+01  0.13025022523E+03  0.13445193201E+03  0.41800000000E+01 0.  1.
        -11    1    1    2    0    0  0.60010711368E+01 -0.60543158912E+02  0.54253477740E+02  0.81516420387E+02  0.00000000000E+00 0. -1.
         11    1    1    2    0    0  0.63167525212E+02 -0.40741310471E+02 -0.15108847416E+02  0.76669862988E+02  0.00000000000E+00 0.  1.
</event>
<event>
 7    1  0.3220883E-009  0.7390275E+02  0.7561462E-02  0.1347303E+00
          1   -1    0    0  501    0  0.00000000000E+00  0.00000000000E+00  0.10521354244E+03  0.10521354244E+03  0.00000000000E+00 0. -1.
         -1   -1    0    0    0  501 -0.00000000000E+00 -0.00000000000E+00 -0.16877487352E+03  0.16877487352E+03  0.00000000000E+00 0.  1.
         25    2    1    2    0    0  0.31036029971E+02 -0.56770910755E+02  0.77224801188E+01  0.14104461995E+03  0.12509107343E+03 0.  0.
          5    1    3    3  502    0  0.16029719870E+02 -0.30075162423E+02  0.66384269753E+02  0.74738283259E+02  0.41800000000E+01 0. -1.
         -5    1    3    3    0  502  0.15006310101E+02 -0.26695748332E+02 -0.58661789634E+02  0.66306336687E+02  0.41800000000E+01 0. -1.
        -11    1    1    2    0    0  0.97434335911E+01  0.35007234342E+02 -0.78176519474E+02  0.86209101326E+02  0.00000000000E+00 0.  1.
         11    1    1    2    0    0 -0.40779463563E+02  0.21763676413E+02  0.68927082757E+01  0.46734694680E+02  0.00000000000E+00 0. -1.
</event>
<event>
 7    1  0.2985292E-009  0.1158167E+03  0.7561462E-02  0.1250162E+00
          2   -1    0    0  501    0  0.00000000000E+00  0.00000000000E+00  0.68785395396E+03  0.68785395396E+03  0.00000000000E+00 0. -1.
         -2   -1    0    0    0  501 -0.00000000000E+00 -0.00000000000E+00 -0.28830052661E+02  0.28830052661E+02  0.00000000000E+00 0.  1.
         25    2    1    2    0    0 -0.21670838089E+02  0.77763020804E+02  0.46037433495E+03  0.48384847910E+03  0.12509240510E+03 0.  0.
          5    1    3    3  502    0  0.25018882032E+02  0.89112232195E+02  0.22052684324E+03  0.23919969769E+03  0.41800000000E+01 0. -1.
         -5    1    3    3    0  502 -0.46689720121E+02 -0.11349211391E+02  0.23984749171E+03  0.24464878141E+03  0.41800000000E+01 0. -1.
        -11    1    1    2    0    0 -0.94073310158E+01 -0.43444619559E+02  0.20834811391E+02  0.49091977055E+02  0.00000000000E+00 0.  1.
         11    1    1    2    0    0  0.31078169105E+02 -0.34318401246E+02  0.17781475495E+03  0.18374355047E+03  0.00000000000E+00 0. -1.
</event>
<event>
 7    1  0.3550022E-009  0.7788642E+02  0.7561462E-02  0.1335159E+00
         -2   -1    0    0    0  501 -0.00000000000E+00  0.00000000000E+00  0.18967615820E+02  0.18967615820E+02  0.00000000000E+00 0.  1.
          2   -1    0    0  501    0  0.00000000000E+00 -0.00000000000E+00 -0.10002400135E+04  0.10002400135E+04  0.00000000000E+00 0. -1.
         25    2    1    2    0    0 -0.90051553858E+01 -0.62418393300E+01 -0.85390934549E+03  0.86309405970E+03  0.12510048835E+03 0.  0.
          5    1    3    3  502    0 -0.49303957925E+01  0.55720761947E+02 -0.26296015000E+03  0.26887659809E+03  0.41800000000E+01 0.  1.
         -5    1    3    3    0  502 -0.40747595933E+01 -0.61962601277E+02 -0.59094919550E+03  0.59421746161E+03  0.41800000000E+01 0.  1.
        -11    1    1    2    0    0 -0.13834742259E+02  0.44436469729E+01  0.94904866396E+01  0.17355559007E+02  0.00000000000E+00 0.  1.
         11    1    1    2    0    0  0.22839897645E+02  0.17981923571E+01 -0.13685353887E+03  0.13875801066E+03  0.00000000000E+00 0. -1.
</event>
<event>
 7    1  0.2766180E-009  0.1157871E+03  0.7561462E-02  0.1250213E+00
         -2   -1    0    0    0  501 -0.00000000000E+00  0.00000000000E+00  0.74503680334E+03  0.74503680334E+03  0.00000000000E+00 0.  1.
          2   -1    0    0  501    0  0.00000000000E+00 -0.00000000000E+00 -0.25656124779E+02  0.25656124779E+02  0.00000000000E+00 0. -1.
         25    2    1    2    0    0  0.53768196745E+01  0.86175369844E+02  0.40904618990E+03  0.43637286139E+03  0.12508950447E+03 0.  0.
          5    1    3    3  502    0  0.41026712666E+02 -0.99307215334E+01  0.67229049009E+02  0.79492312918E+02  0.41800000000E+01 0.  1.
         -5    1    3    3    0  502 -0.35649892992E+02  0.96106091378E+02  0.34181714090E+03  0.35688054848E+03  0.41800000000E+01 0.  1.
        -11    1    1    2    0    0 -0.22983767508E+01 -0.72981346358E+02  0.31221694859E+03  0.32064151703E+03  0.00000000000E+00 0.  1.
         11    1    1    2    0    0 -0.30784429237E+01 -0.13194023486E+02 -0.18824599330E+01  0.13678549703E+02  0.00000000000E+00 0. -1.
</event>
<event>
 6    1  0.2766180E-009  0.1650883E+03  0.7561462E-02  0.1183069E+00
         -1   -1    0    0    0  501 -0.00000000000E+00  0.00000000000E+00  0.61014709190E+02  0.61014709190E+02  0.00000000000E+00 0.  1.
          1   -1    0    0  501    0  0.00000000000E+00 -0.00000000000E+00 -0.55523523395E+03  0.55523523395E+03  0.00000000000E+00 0. -1.
          5    1    1    2  502    0 -0.19210155889E+02  0.15980230269E+02 -0.15856943049E+03  0.16058061693E+03  0.41800000000E+01 0.  1.
         -5    1    1    2    0  502 -0.97983165432E+02 -0.92742017916E+02 -0.16124911468E+03  0.21028678508E+03  0.41800000000E+01 0.  1.
        -11    1    1    2    0    0  0.41513431667E+02 -0.20764707431E+02 -0.29374381574E+02  0.54930796247E+02  0.00000000000E+00 0.  1.
         11    1    1    2    0    0  0.75679889654E+02  0.97526495079E+02 -0.14502759801E+03  0.19045174488E+03  0.00000000000E+00 0. -1.
</event>
<event>
 7    1  0.2766180E-009  0.1285442E+03  0.7561462E-02  0.1229632E+00
          2   -1    0    0  501    0  0.00000000000E+00  0.00000000000E+00  0.56722195317E+03  0.56722195317E+03  0.00000000000E+00 0. -1.
         -2   -1    0    0    0  501 -0.00000000000E+00 -0.00000000000E+00 -0.61481139897E+02  0.61481139897E+02  0.00000000000E+00 0.  1.
         25    2    1    2    0    0 -0.33028009695E+02 -0.10237446765E+03  0.43785019258E+03  0.46790157041E+03  0.12509079661E+03 0.  0.
          5    1    3    3  502    0  0.37592833553E+01 -0.26185160271E+02  0.55122960184E+01  0.27343237503E+02  0.41800000000E+01 0.  1.
         -5    1    3    3    0  502 -0.36787293050E+02 -0.76189307382E+02  0.43233789656E+03  0.44055833291E+03  0.41800000000E+01 0.  1.
        -11    1    1    2    0    0  0.46169998699E+02  0.39929502306E+01  0.25245841249E+02  0.52772766952E+02  0.00000000000E+00 0.  1.
         11    1    1    2    0    0 -0.13141989004E+02  0.98381517422E+02  0.42644779444E+02  0.10802875571E+03  0.00000000000E+00 0. -1.
</event>
<event>
 7    1  0.2766180E-009  0.1330490E+03  0.7561462E-02  0.1223000E+00
         -1   -1    0    0    0  501 -0.00000000000E+00  0.00000000000E+00  0.13630600252E+03  0.13630600252E+03  0.00000000000E+00 0.  1.
          1   -1    0    0  501    0  0.00000000000E+00 -0.00000000000E+00 -0.13876133451E+03  0.13876133451E+03  0.00000000000E+00 0. -1.
         25    2    1    2    0    0  0.52644077774E+02 -0.62191717930E+02 -0.23119873171E+02  0.15106541381E+03  0.12508805702E+03 0.  0.
          5    1    3    3  502    0  0.83428267981E+02 -0.98035114978E+01  0.44183270114E+01  0.84222198675E+02  0.41800000000E+01 0.  1.
         -5    1    3    3    0  502 -0.30784190207E+02 -0.52388206433E+02 -0.27538200183E+02  0.66843215132E+02  0.41800000000E+01 0.  1.
        -11    1    1    2    0    0  0.17087833959E+02  0.46595442985E+02  0.16972511885E+02  0.52451840159E+02  0.00000000000E+00 0. -1.
         11    1    1    2    0    0 -0.69731911733E+02  0.15596274945E+02  0.36920292868E+01  0.71550083063E+02  0.00000000000E+00 0.  1.
</event>
<event>
 7    1  0.2766180E-009  0.1044848E+03  0.7561462E-02  0.1271138E+00
          2   -1    0    0  501    0  0.00000000000E+00  0.00000000000E+00  0.62983275747E+03  0.62983275747E+03  0.00000000000E+00 0. -1.
         -2   -1    0    0    0  501 -0.00000000000E+00 -0.00000000000E+00 -0.26837349866E+02  0.26837349866E+02  0.00000000000E+00 0.  1.
         25    2    1    2    0    0 -0.35768251844E+02  0.62759660063E+02  0.29406691240E+03  0.32762877891E+03  0.12508846882E+03 0.  0.
          5    1    3    3  502    0 -0.65062304097E+02  0.67226142970E+02  0.12639613836E+03  0.15730834023E+03  0.41800000000E+01 0. -1.
         -5    1    3    3    0  502  0.29294052252E+02 -0.44664829075E+01  0.16767077403E+03  0.17032043868E+03  0.41800000000E+01 0. -1.
        -11    1    1    2    0    0  0.11925823722E+02 -0.60252996560E+02  0.29497595346E+03  0.30130294055E+03  0.00000000000E+00 0. -1.
         11    1    1    2    0    0  0.23842428122E+02 -0.25066635029E+01  0.13952541751E+02  0.27738387876E+02  0.00000000000E+00 0.  1.
</event>
<event>
 7    1  0.2766180E-009  0.8549153E+02  0.7561462E-02  0.1314152E+00
         -1   -1    0    0    0  501 -0.00000000000E+00  0.00000000000E+00  0.38571277673E+02  0.38571277673E+02  0.00000000000E+00 0.  1.
          1   -1    0    0  501    0  0.00000000000E+00 -0.00000000000E+00 -0.32051644212E+03  0.32051644212E+03  0.00000000000E+00 0. -1.
         25    2    1    2    0    0 -0.17488902200E+02 -0.14241106280E+02 -0.19650510195E+03  0.23402999473E+03  0.12508841886E+03 0.  0.
          5    1    3    3  502    0  0.47470965452E+02 -0.38734793176E+01 -0.34007613361E+02  0.58672707194E+02  0.41800000000E+01 0. -1.
         -5    1    3    3    0  502 -0.64959867652E+02 -0.10367626962E+02 -0.16249748859E+03  0.17535728754E+03  0.41800000000E+01 0. -1.
        -11    1    1    2    0    0 -0.87238052692E+00  0.31822988289E+02 -0.93192760997E+02  0.98480223058E+02  0.00000000000E+00 0. -1.
         11    1    1    2    0    0  0.18361282727E+02 -0.17581882009E+02  0.77526985066E+01  0.26577501999E+02  0.00000000000E+00 0.  1.
</event>
<event>
 7    1  0.2766180E-009  0.2207549E+03  0.7561462E-02  0.1133322E+00
         -2   -1    0    0    0  501 -0.00000000000E+00  0.00000000000E+00  0.70330465401E+02  0.70330465401E+02  0.00000000000E+00 0.  1.
          2   -1    0    0  501    0  0.00000000000E+00 -0.00000000000E+00 -0.79921564242E+03  0.79921564242E+03  0.00000000000E+00 0. -1.
         25    2    1    2    0    0  0.19628814977E+03 -0.21062507333E+02 -0.50785582253E+03  0.55905100899E+03  0.12509127552E+03 0.  0.
          5    1    3    3  502    0  0.82283624211E+02 -0.62178934162E+02 -0.31262827662E+03  0.32922746910E+03  0.41800000000E+01 0.  1.
         -5    1    3    3    0  502  0.11400452556E+03  0.41116426829E+02 -0.19522754591E+03  0.22982353989E+03  0.41800000000E+01 0.  1.
        -11    1    1    2    0    0 -0.46397194047E+02  0.45698802478E+02 -0.80648434174E+02  0.10365929817E+03  0.00000000000E+00 0.  1.
         11    1    1    2    0    0 -0.14989095572E+03 -0.24636295145E+02 -0.14038092031E+03  0.20683580066E+03  0.00000000000E+00 0. -1.
</event>
<event>
 7    1  0.2766180E-009  0.9538987E+02  0.7561462E-02  0.1290300E+00
         -1   -1    0    0    0  501 -0.00000000000E+00  0.00000000000E+00  0.69947220241E+03  0.69947220241E+03  0.00000000000E+00 0.  1.
          1   -1    0    0  501    0  0.00000000000E+00 -0.00000000000E+00 -0.18731491679E+02  0.18731491679E+02  0.00000000000E+00 0. -1.
         25    2    1    2    0    0  0.24829370145E+02 -0.24313119531E+02  0.40778094421E+03  0.42794643979E+03  0.12508089966E+03 0.  0.
          5    1    3    3  502    0 -0.23273246920E+02 -0.41658439768E+02  0.61842552577E+02  0.78224314221E+02  0.41800000000E+01 0. -1.
         -5    1    3    3    0  502  0.48102617065E+02  0.17345320237E+02  0.34593839164E+03  0.34972212557E+03  0.41800000000E+01 0. -1.
        -11    1    1    2    0    0 -0.36055384850E+02 -0.23119097066E+02  0.18295402258E+03  0.18790065940E+03  0.00000000000E+00 0.  1.
         11    1    1    2    0    0  0.11226014706E+02  0.47432216597E+02  0.90005743934E+02  0.10235659490E+03  0.00000000000E+00 0. -1.
</event>
<event>
 7    1  0.2766180E-009  0.2814246E+03  0.7561462E-02  0.1094913E+00
         -1   -1    0    0    0  501 -0.00000000000E+00  0.00000000000E+00  0.40955881076E+03  0.40955881076E+03  0.00000000000E+00 0.  1.
          1   -1    0    0  501    0  0.00000000000E+00 -0.00000000000E+00 -0.21652057294E+03  0.21652057294E+03  0.00000000000E+00 0. -1.
         25    2    1    2    0    0  0.26024418076E+03 -0.70767693140E+02  0.16339035175E+03  0.33923335428E+03  0.12509101325E+03 0.  0.
          5    1    3    3  502    0  0.20866437991E+03 -0.97790831569E+02  0.94940468862E+02  0.24926900171E+03  0.41800000000E+01 0. -1.
         -5    1    3    3    0  502  0.51579800851E+02  0.27023138429E+02  0.68449882885E+02  0.89964352570E+02  0.41800000000E+01 0. -1.
        -11    1    1    2    0    0 -0.71314087203E+02  0.42328778076E+02  0.46445455269E+02  0.95050538147E+02  0.00000000000E+00 0.  1.
         11    1    1    2    0    0 -0.18893009356E+03  0.28438915065E+02 -0.16797569203E+02  0.19179549128E+03  0.00000000000E+00 0. -1.
</event>
<event>
 7    1  0.2766180E-009  0.1347752E+03  0.7561462E-02  0.1220537E+00
          2   -1    0    0  501    0  0.00000000000E+00  0.00000000000E+00  0.75310942272E+03  0.75310942272E+03  0.00000000000E+00 0. -1.
         -2   -1    0    0    0  501 -0.00000000000E+00 -0.00000000000E+00 -0.41462229535E+02  0.41462229535E+02  0.00000000000E+00 0.  1.
         25    2    1    2    0    0 -0.80523277726E+02 -0.34176716969E+02  0.13351651952E+03  0.20279028351E+03  0.12508074138E+03 0.  0.
          5    1    3    3  502    0 -0.83360270473E+02  0.23653299124E+02  0.11015847650E+03  0.14021688770E+03  0.41800000000E+01 0.  1.
         -5    1    3    3    0  502  0.28369927464E+01 -0.57830016094E+02  0.23358043021E+02  0.62573395809E+02  0.41800000000E+01 0.  1.
        -11    1    1    2    0    0 -0.15491916224E+02 -0.10634703481E+02  0.58001998157E+02  0.60969895659E+02  0.00000000000E+00 0.  1.
         11    1    1    2    0    0  0.96015193950E+02  0.44811420451E+02  0.52012867551E+03  0.53081147308E+03  0.00000000000E+00 0. -1.
</event>
<event>
 7    1  0.2766180E-009  0.9713773E+02  0.7561462E-02  0.1286433E+00
          3   -1    0    0  501    0  0.00000000000E+00  0.00000000000E+00  0.26385847441E+03  0.26385847441E+03  0.00000000000E+00 0. -1.
         -3   -1    0    0    0  501 -0.00000000000E+00 -0.00000000000E+00 -0.62003952406E+02  0.62003952406E+02  0.00000000000E+00 0.  1.
         25    2    1    2    0    0 -0.58373380120E+02  0.31096115678E+02  0.92852515985E+02  0.16923791662E+03  0.12508182434E+03 0.  0.
          5    1    3    3  502    0  0.21716078623E+02  0.32762817686E+02 -0.80458320852E+01  0.40338543695E+02  0.41800000000E+01 0. -1.
         -5    1    3    3    0  502 -0.80089458743E+02 -0.16667020086E+01  0.10089834807E+03  0.12889937293E+03  0.41800000000E+01 0. -1.
        -11    1    1    2    0    0  0.30493102800E+02  0.28244866980E+01 -0.80030546945E+01  0.31652107796E+02  0.00000000000E+00 0.  1.
         11    1    1    2    0    0  0.27880277320E+02 -0.33920602376E+02  0.11700506072E+03  0.12497240240E+03  0.00000000000E+00 0. -1.
</event>
<event>
 7    1  0.2766180E-009  0.1081381E+03  0.7561462E-02  0.1264057E+00
          3   -1    0    0  501    0  0.00000000000E+00  0.00000000000E+00  0.46396577218E+02  0.46396577218E+02  0.00000000000E+00 0. -1.
         -3   -1    0    0    0  501 -0.00000000000E+00 -0.00000000000E+00 -0.43344915741E+03  0.43344915741E+03  0.00000000000E+00 0.  1.
         25    2    1    2    0    0 -0.64214597253E+02  0.63848358510E+02 -0.18648696223E+03  0.24212779021E+03  0.12509337443E+03 0.  0.
          5    1    3    3  502    0 -0.50749632031E+02  0.16075667682E+02 -0.18472362282E+03  0.19228687285E+03  0.41800000000E+01 0. -1.
         -5    1    3    3    0  502 -0.13464965223E+02  0.47772690828E+02 -0.17633394062E+01  0.49840917360E+02  0.41800000000E+01 0. -1.
        -11    1    1    2    0    0  0.18608252187E+02 -0.64833100658E+02 -0.16977139891E+03  0.18267984530E+03  0.00000000000E+00 0.  1.
         11    1    1    2    0    0  0.45606345067E+02  0.98474214742E+00 -0.30794219057E+02  0.55038099120E+02  0.00000000000E+00 0. -1.
</event>
<event>
 7    1  0.2766180E-009  0.2404810E+03  0.7561462E-02  0.1119473E+00
         -1   -1    0    0    0  501 -0.00000000000E+00  0.00000000000E+00  0.70320780450E+02  0.70320780450E+02  0.00000000000E+00 0.  1.
          1   -1    0    0  501    0  0.00000000000E+00 -0.00000000000E+00 -0.10368752965E+04  0.10368752965E+04  0.00000000000E+00 0. -1.
         25    2    1    2    0    0  0.23348726981E+03 -0.49818330784E+02 -0.36858508153E+03  0.45661881559E+03  0.12509040401E+03 0.  0.
          5    1    3    3  502    0  0.12770573810E+03 -0.20689102284E+02 -0.30109039235E+03  0.32773417775E+03  0.41800000000E+01 0.  1.
         -5    1    3    3    0  502  0.10578153171E+03 -0.29129228500E+02 -0.67494689183E+02  0.12888463784E+03  0.41800000000E+01 0.  1.
        -11    1    1    2    0    0 -0.46195218295E+02 -0.52821808701E+01 -0.22335649081E+03  0.22814473830E+03  0.00000000000E+00 0. -1.
         11    1    1    2    0    0 -0.18729205152E+03  0.55100511654E+02 -0.37461294370E+03  0.42243252305E+03  0.00000000000E+00 0.  1.
</event>
<event>
 7    1  0.2766180E-009  0.1482982E+03  0.7561462E-02  0.1202580E+00
          1   -1    0    0  501    0  0.00000000000E+00  0.00000000000E+00  0.29228561291E+03  0.29228561291E+03  0.00000000000E+00 0. -1.
         -1   -1    0    0    0  501 -0.00000000000E+00 -0.00000000000E+00 -0.81368833806E+02  0.81368833806E+02  0.00000000000E+00 0.  1.
         25    2    1    2    0    0 -0.73713903275E+02 -0.78384904541E+02  0.96980909303E+02  0.19138753828E+03  0.12508381287E+03 0.  0.
          5    1    3    3  502    0 -0.10266468663E+03 -0.76234052122E+02  0.99315015316E+02  0.16196485190E+03  0.41800000000E+01 0. -1.
         -5    1    3    3    0  502  0.28950783353E+02 -0.21508524193E+01 -0.23341060125E+01  0.29422686379E+02  0.41800000000E+01 0. -1.
        -11    1    1    2    0    0  0.45429220293E+02 -0.10006153100E+02  0.56251749042E+02  0.72994495865E+02  0.00000000000E+00 0. -1.
         11    1    1    2    0    0  0.28284682982E+02  0.88391057641E+02  0.57684120760E+02  0.10927241258E+03  0.00000000000E+00 0.  1.
</event>
<event>
 7    1  0.2766180E-009  0.3258381E+03  0.7561462E-02  0.1072993E+00
         -2   -1    0    0    0  501 -0.00000000000E+00  0.00000000000E+00  0.93119930843E+02  0.93119930843E+02  0.00000000000E+00 0.  1.
          2   -1    0    0  501    0  0.00000000000E+00 -0.00000000000E+00 -0.11876904579E+04  0.11876904579E+04  0.00000000000E+00 0. -1.
         25    2    1    2    0    0  0.29925105407E+03  0.96095740764E+02 -0.59343707390E+03  0.68308176566E+03  0.12509018003E+03 0.  0.
          5    1    3    3  502    0  0.22471110976E+03  0.13172098646E+02 -0.42676780353E+03  0.48251095072E+03  0.41800000000E+01 0.  1.
         -5    1    3    3    0  502  0.74539944305E+02  0.82923642119E+02 -0.16666927037E+03  0.20057081494E+03  0.41800000000E+01 0.  1.
        -11    1    1    2    0    0 -0.47404299293E+02 -0.23198118446E+02 -0.15343268161E+03  0.16225568735E+03  0.00000000000E+00 0. -1.
         11    1    1    2    0    0 -0.25184675478E+03 -0.72897622319E+02 -0.34770077157E+03  0.43547293577E+03  0.00000000000E+00 0.  1.
</event>
<event>
 7    1  0.2766180E-009  0.1076575E+03  0.7561462E-02  0.1264970E+00
         -2   -1    0    0    0  501 -0.00000000000E+00  0.00000000000E+00  0.17952678854E+02  0.17952678854E+02  0.00000000000E+00 0.  1.
          2   -1    0    0  501    0  0.00000000000E+00 -0.00000000000E+00 -0.13494583235E+04  0.13494583235E+04  0.00000000000E+00 0. -1.
         25    2    1    2    0    0 -0.56727677066E+02 -0.35938592416E+02 -0.11081790437E+04  0.11172358270E+04  0.12508192774E+03 0.  0.
          5    1    3    3  502    0 -0.69523886028E+02 -0.54527495192E+01 -0.28699609267E+03  0.29537693344E+03  0.41800000000E+01 0. -1.
         -5    1    3    3    0  502  0.12796208962E+02 -0.30485842897E+02 -0.82118295100E+03  0.82185889360E+03  0.41800000000E+01 0. -1.
        -11    1    1    2    0    0  0.75072544036E+02  0.38582290842E+01 -0.13693261067E+03  0.15620919520E+03  0.00000000000E+00 0.  1.
         11    1    1    2    0    0 -0.18344866970E+02  0.32080363332E+02 -0.86393990297E+02  0.93965980094E+02  0.00000000000E+00 0. -1.
</event>
<event>
 7    1  0.2766180E-009  0.1081060E+03  0.7561462E-02  0.1264118E+00
          2   -1    0    0  501    0  0.00000000000E+00  0.00000000000E+00  0.52649364243E+03  0.52649364243E+03  0.00000000000E+00 0. -1.
         -2   -1    0    0    0  501 -0.00000000000E+00 -0.00000000000E+00 -0.34439934961E+02  0.34439934961E+02  0.00000000000E+00 0.  1.
         25    2    1    2    0    0 -0.18703619401E+02 -0.49658671472E+02  0.14582857163E+03  0.19932017377E+03  0.12508697110E+03 0.  0.
          5    1    3    3  502    0  0.42743369791E+02 -0.86353159235E+01  0.10449321774E+02  0.45035819829E+02  0.41800000000E+01 0.  1.
         -5    1    3    3    0  502 -0.61446989192E+02 -0.41023355549E+02  0.13537924985E+03  0.15428435394E+03  0.41800000000E+01 0.  1.
        -11    1    1    2    0    0 -0.30076045908E+02  0.37613335459E+02  0.23007648637E+03  0.23506280251E+03  0.00000000000E+00 0. -1.
         11    1    1    2    0    0  0.48779665309E+02  0.12045336013E+02  0.11614864947E+03  0.12655060111E+03  0.00000000000E+00 0.  1.
</event>
<event>
 7    1  0.2766180E-009  0.8221020E+02  0.7561462E-02  0.1322894E+00
          2   -1    0    0  501    0  0.00000000000E+00  0.00000000000E+00  0.72107521925E+03  0.72107521925E+03  0.00000000000E+00 0.  1.
         -2   -1    0    0    0  501 -0.00000000000E+00 -0.00000000000E+00 -0.18976163120E+02  0.18976163120E+02  0.00000000000E+00 0. -1.
         25    2    1    2    0    0  0.21563578969E+02  0.46594826470E+01  0.46384550392E+03  0.48092241584E+03  0.12508804833E+03 0.  0.
          5    1    3    3  502    0  0.20497463950E+02 -0.27012080677E+02  0.28744276074E+02  0.44648676777E+02  0.41800000000E+01 0. -1.
         -5    1    3    3    0  502  0.10661150190E+01  0.31671563324E+02  0.43510122784E+03  0.43627373906E+03  0.41800000000E+01 0. -1.
        -11    1    1    2    0    0 -0.23158790896E+02  0.43937854222E+02  0.15446662559E+03  0.16225536370E+03  0.00000000000E+00 0. -1.
         11    1    1    2    0    0  0.15952119275E+01 -0.48597336869E+02  0.83786926624E+02  0.96873602828E+02  0.00000000000E+00 0.  1.
</event>
<event>
 7    1  0.2766180E-009  0.8590387E+02  0.7561462E-02  0.1313086E+00
         -1   -1    0    0    0  501 -0.00000000000E+00  0.00000000000E+00  0.11553919223E+03  0.11553919223E+03  0.00000000000E+00 0.  1.
          1   -1    0    0  501    0  0.00000000000E+00 -0.00000000000E+00 -0.10002709769E+03  0.10002709769E+03  0.00000000000E+00 0. -1.
         25    2    1    2    0    0 -0.92564967095E+00 -0.22962647026E+02 -0.17181186629E+01  0.12720042329E+03  0.12509538668E+03 0.  0.
          5    1    3    3  502    0 -0.20721864282E+02 -0.51830183454E+02 -0.44684344464E+02  0.71623506033E+02  0.41800000000E+01 0. -1.
         -5    1    3    3    0  502  0.19796214611E+02  0.28867536429E+02  0.42966225802E+02  0.55576917259E+02  0.41800000000E+01 0. -1.
        -11    1    1    2    0    0 -0.26406823243E+02 -0.17552208494E+02 -0.89176284058E+01  0.32938191103E+02  0.00000000000E+00 0. -1.
         11    1    1    2    0    0  0.27332472914E+02  0.40514855519E+02  0.26147841607E+02  0.55427675524E+02  0.00000000000E+00 0.  1.
</event>
<event>
 7    1  0.2766180E-009  0.6913692E+02  0.7561462E-02  0.1363053E+00
         -1   -1    0    0    0  501 -0.00000000000E+00  0.00000000000E+00  0.11811956258E+03  0.11811956258E+03  0.00000000000E+00 0.  1.
          1   -1    0    0  501    0  0.00000000000E+00 -0.00000000000E+00 -0.12007179188E+03  0.12007179188E+03  0.00000000000E+00 0. -1.
         25    2    1    2    0    0 -0.37278342773E+02  0.30018417979E+02 -0.94366609514E+01  0.13425961459E+03  0.12508322542E+03 0.  0.
          5    1    3    3  502    0 -0.24772490483E+02 -0.84892371873E+01 -0.62202466517E+02  0.67619247804E+02  0.41800000000E+01 0. -1.
         -5    1    3    3    0  502 -0.12505852291E+02  0.38507655167E+02  0.52765805566E+02  0.66640366783E+02  0.41800000000E+01 0. -1.
        -11    1    1    2    0    0 -0.11836890213E+02 -0.16138625547E+02 -0.33129450665E+02  0.38705654701E+02  0.00000000000E+00 0. -1.
         11    1    1    2    0    0  0.49115232987E+02 -0.13879792432E+02  0.40613882325E+02  0.65226085171E+02  0.00000000000E+00 0.  1.
</event>
<event>
 7    1  0.2766180E-009  0.1080458E+03  0.7561462E-02  0.1264232E+00
         -2   -1    0    0    0  501 -0.00000000000E+00  0.00000000000E+00  0.48019164217E+02  0.48019164217E+02  0.00000000000E+00 0.  1.
          2   -1    0    0  501    0  0.00000000000E+00 -0.00000000000E+00 -0.39217835553E+03  0.39217835553E+03  0.00000000000E+00 0. -1.
         25    2    1    2    0    0 -0.45255630764E+01 -0.63317918407E+02 -0.28012269364E+03  0.31328611552E+03  0.12509926928E+03 0.  0.
          5    1    3    3  502    0 -0.14167741501E+01 -0.85187980897E+02 -0.98606466409E+02  0.13038292433E+03  0.41800000000E+01 0. -1.
         -5    1    3    3    0  502 -0.31087889263E+01  0.21870062490E+02 -0.18151622723E+03  0.18290319120E+03  0.41800000000E+01 0. -1.
        -11    1    1    2    0    0  0.45763979122E+02  0.40859832064E+02 -0.26649650528E+02  0.66888500765E+02  0.00000000000E+00 0. -1.
         11    1    1    2    0    0 -0.41238416045E+02  0.22458086343E+02 -0.37386847144E+02  0.60022903457E+02  0.00000000000E+00 0.  1.
</event>
<event>
 7    1  0.2766180E-009  0.1207416E+03  0.7561462E-02  0.1241879E+00
          2   -1    0    0  501    0  0.00000000000E+00  0.00000000000E+00  0.57697001505E+03  0.57697001505E+03  0.00000000000E+00 0. -1.
         -2   -1    0    0    0  501 -0.00000000000E+00 -0.00000000000E+00 -0.39887052028E+02  0.39887052028E+02  0.00000000000E+00 0.  1.
         25    2    1    2    0    0  0.49928094989E+02  0.96830362414E+02  0.23476631281E+03  0.28745691877E+03  0.12508926717E+03 0.  0.
          5    1    3    3  502    0  0.38496686400E+02  0.47081841916E+02  0.22774442028E+03  0.23576193092E+03  0.41800000000E+01 0. -1.
         -5    1    3    3    0  502  0.11431408590E+02  0.49748520498E+02  0.70218925346E+01  0.51694987850E+02  0.41800000000E+01 0. -1.
        -11    1    1    2    0    0 -0.35712382362E+02 -0.46231545305E+01  0.63392830956E+02  0.72906781772E+02  0.00000000000E+00 0.  1.
         11    1    1    2    0    0 -0.14215712627E+02 -0.92207207883E+02  0.23892381925E+03  0.25649336654E+03  0.00000000000E+00 0. -1.
</event>
<event>
 7    1  0.3987684E-009  0.1284801E+03  0.7561462E-02  0.1229729E+00
         -2   -1    0    0    0  501 -0.00000000000E+00  0.00000000000E+00  0.37510850670E+02  0.37510850670E+02  0.00000000000E+00 0.  1.
          2   -1    0    0  501    0  0.00000000000E+00 -0.00000000000E+00 -0.61448118074E+03  0.61448118074E+03  0.00000000000E+00 0. -1.
         25    2    1    2    0    0  0.71780225078E+02  0.75113064841E+02 -0.26824959837E+03  0.31368733126E+03  0.12509005374E+03 0.  0.
          5    1    3    3  502    0  0.76486597312E+02  0.85758948885E+02 -0.27606628231E+03  0.29905661924E+03  0.41800000000E+01 0.  1.
         -5    1    3    3    0  502 -0.47063722338E+01 -0.10645884043E+02  0.78166839337E+01  0.14630712026E+02  0.41800000000E+01 0.  1.
        -11    1    1    2    0    0 -0.15538678463E+01 -0.57078261419E+02 -0.19708666403E+03  0.20519136330E+03  0.00000000000E+00 0. -1.
         11    1    1    2    0    0 -0.70226357232E+02 -0.18034803422E+02 -0.11163406767E+03  0.13311333685E+03  0.00000000000E+00 0.  1.
</event>
<event>
 7    1  0.2766180E-009  0.7919405E+02  0.7561462E-02  0.1331354E+00
          2   -1    0    0  501    0  0.00000000000E+00  0.00000000000E+00  0.17708528452E+03  0.17708528452E+03  0.00000000000E+00 0. -1.
         -2   -1    0    0    0  501 -0.00000000000E+00 -0.00000000000E+00 -0.85415594275E+02  0.85415594275E+02  0.00000000000E+00 0.  1.
         25    2    1    2    0    0  0.45352447858E+02 -0.37729114760E+02  0.51667277014E+02  0.14763606756E+03  0.12508625145E+03 0.  0.
          5    1    3    3  502    0  0.16778178175E+02  0.92523715640E+01 -0.37773318951E+02  0.42560658677E+02  0.41800000000E+01 0. -1.
         -5    1    3    3    0  502  0.28574269683E+02 -0.46981486324E+02  0.89440595964E+02  0.10507540888E+03  0.41800000000E+01 0. -1.
        -11    1    1    2    0    0 -0.54565002759E+02  0.11410156380E+02  0.58964221997E+02  0.81143765444E+02  0.00000000000E+00 0. -1.
         11    1    1    2    0    0  0.92125549014E+01  0.26318958380E+02 -0.18961808762E+02  0.33721045796E+02  0.00000000000E+00 0.  1.
</event>
<event>
 7    1  0.2766180E-009  0.1272669E+03  0.7561462E-02  0.1231568E+00
         -1   -1    0    0    0  501 -0.00000000000E+00  0.00000000000E+00  0.32612034945E+02  0.32612034945E+02  0.00000000000E+00 0.  1.
          1   -1    0    0  501    0  0.00000000000E+00 -0.00000000000E+00 -0.74707909819E+03  0.74707909819E+03  0.00000000000E+00 0. -1.
         25    2    1    2    0    0  0.82762390970E+02  0.71427606617E+02 -0.42545557843E+03  0.45674047680E+03  0.12509155680E+03 0.  0.
          5    1    3    3  502    0  0.39842429784E+01  0.44729381769E+02 -0.33886631368E+02  0.56412480632E+02  0.41800000000E+01 0. -1.
         -5    1    3    3    0  502  0.78778147991E+02  0.26698224847E+02 -0.39156894706E+03  0.40032799617E+03  0.41800000000E+01 0. -1.
        -11    1    1    2    0    0 -0.92338769204E+02 -0.56005965644E+02 -0.28440940881E+03  0.30422331980E+03  0.00000000000E+00 0. -1.
         11    1    1    2    0    0  0.95763782340E+01 -0.15421640973E+02 -0.46020760002E+01  0.18727336540E+02  0.00000000000E+00 0.  1.
</event>
<event>
 7    1  0.2766180E-009  0.1241658E+03  0.7561462E-02  0.1236379E+00
          1   -1    0    0  501    0  0.00000000000E+00  0.00000000000E+00  0.11925298664E+03  0.11925298664E+03  0.00000000000E+00 0. -1.
         -1   -1    0    0    0  501 -0.00000000000E+00 -0.00000000000E+00 -0.37858093286E+03  0.37858093286E+03  0.00000000000E+00 0.  1.
         25    2    1    2    0    0 -0.90132976414E+02 -0.16319577804E+02 -0.31886749323E+03  0.35456127505E+03  0.12508771909E+03 0.  0.
          5    1    3    3  502    0  0.75985641987E+01  0.19300603356E+02 -0.22626879345E+01  0.21280122755E+02  0.41800000000E+01 0. -1.
         -5    1    3    3    0  502 -0.97731540613E+02 -0.35620181160E+02 -0.31660480530E+03  0.33328115229E+03  0.41800000000E+01 0. -1.
        -11    1    1    2    0    0 -0.62190645864E+00 -0.23823094098E+02 -0.57110454949E+01  0.24505971123E+02  0.00000000000E+00 0.  1.
         11    1    1    2    0    0  0.90754882873E+02  0.40142671902E+02  0.65250592498E+02  0.11876667333E+03  0.00000000000E+00 0. -1.
</event>
<event>
 7    1  0.2766180E-009  0.1284419E+03  0.7561462E-02  0.1229786E+00
          1   -1    0    0  501    0  0.00000000000E+00  0.00000000000E+00  0.21840035314E+03  0.21840035314E+03  0.00000000000E+00 0. -1.
         -1   -1    0    0    0  501 -0.00000000000E+00 -0.00000000000E+00 -0.12476057363E+03  0.12476057363E+03  0.00000000000E+00 0.  1.
         25    2    1    2    0    0  0.21942073895E+02  0.10609633169E+03  0.11254931168E+03  0.20012418476E+03  0.12507779803E+03 0.  0.
          5    1    3    3  502    0  0.32708632277E+02  0.27795901862E+02 -0.18580790599E+02  0.46959396983E+02  0.41800000000E+01 0.  1.
         -5    1    3    3    0  502 -0.10766558382E+02  0.78300429831E+02  0.13113010228E+03  0.15316478778E+03  0.41800000000E+01 0.  1.
        -11    1    1    2    0    0  0.42904422219E+01  0.12463814352E+02 -0.17106243153E+02  0.21595789346E+02  0.00000000000E+00 0.  1.
         11    1    1    2    0    0 -0.26232516117E+02 -0.11856014604E+03 -0.18032890185E+01  0.12144095266E+03  0.00000000000E+00 0. -1.
</event>
<event>
 7    1  0.2766180E-009  0.1079430E+03  0.7561462E-02  0.1264427E+00
          2   -1    0    0  501    0  0.00000000000E+00  0.00000000000E+00  0.28890441461E+02  0.28890441461E+02  0.00000000000E+00 0. -1.
         -2   -1    0    0    0  501 -0.00000000000E+00 -0.00000000000E+00 -0.58414810638E+03  0.58414810638E+03  0.00000000000E+00 0.  1.
         25    2    1    2    0    0  0.34778497636E+02  0.38435362756E+01 -0.45256283449E+03  0.47083480885E+03  0.12509189179E+03 0.  0.
          5    1    3    3  502    0  0.44140432961E+02  0.57954329758E+02 -0.21779661317E+03  0.22969527481E+03  0.41800000000E+01 0.  1.
         -5    1    3    3    0  502 -0.93619353247E+01 -0.54110793483E+02 -0.23476622132E+03  0.24113953404E+03  0.41800000000E+01 0.  1.
        -11    1    1    2    0    0 -0.26381381030E+02 -0.41547334824E+02 -0.24473529260E+02  0.54964642548E+02  0.00000000000E+00 0. -1.
         11    1    1    2    0    0 -0.83971166064E+01  0.37703798548E+02 -0.78221301166E+02  0.87239096444E+02  0.00000000000E+00 0.  1.
</event>
<event>
 7    1  0.4001793E-009  0.1001482E+03  0.7561462E-02  0.1279985E+00
         -4   -1    0    0    0  501 -0.00000000000E+00  0.00000000000E+00  0.73941028734E+02  0.73941028734E+02  0.00000000000E+00 0.  1.
          4   -1    0    0  501    0  0.00000000000E+00 -0.00000000000E+00 -0.19599384304E+03  0.19599384304E+03  0.00000000000E+00 0. -1.
         25    2    1    2    0    0 -0.46548962012E+02 -0.33716470518E+01 -0.42861459436E+02  0.14022789477E+03  0.12509430002E+03 0.  0.
          5    1    3    3  502    0  0.21881143360E+02  0.43143833370E+02 -0.28021063274E+02  0.56060923820E+02  0.41800000000E+01 0.  1.
         -5    1    3    3    0  502 -0.68430105372E+02 -0.46515480421E+02 -0.14840396162E+02  0.84166970946E+02  0.41800000000E+01 0.  1.
        -11    1    1    2    0    0  0.16124259063E+02 -0.23365406572E+02  0.11307253736E+02  0.30557944003E+02  0.00000000000E+00 0.  1.
         11    1    1    2    0    0  0.30424702949E+02  0.26737053624E+02 -0.90498608602E+02  0.99149033001E+02  0.00000000000E+00 0. -1.
</event>
<event>
 7    1  0.2766180E-009  0.9912750E+02  0.7561462E-02  0.1282141E+00
          1   -1    0    0  501    0  0.00000000000E+00  0.00000000000E+00  0.90189421824E+03  0.90189421824E+03  0.00000000000E+00 0. -1.
         -1   -1    0    0    0  501 -0.00000000000E+00 -0.00000000000E+00 -0.16984031876E+02  0.16984031876E+02  0.00000000000E+00 0.  1.
         25    2    1    2    0    0  0.25141397390E+02 -0.72000927242E+02  0.43862710260E+03  0.46244716390E+03  0.12508965137E+03 0.  0.
          5    1    3    3  502    0  0.10157880384E+02 -0.83520720318E+02  0.43458323947E+03  0.44267251742E+03  0.41800000000E+01 0.  1.
         -5    1    3    3    0  502  0.14983517006E+02  0.11519793075E+02  0.40438631338E+01  0.19774646480E+02  0.41800000000E+01 0.  1.
        -11    1    1    2    0    0  0.55717156758E+01  0.62156994951E+02  0.32471587512E+03  0.33065833665E+03  0.00000000000E+00 0. -1.
         11    1    1    2    0    0 -0.30713113066E+02  0.98439322914E+01  0.12156720864E+03  0.12577274957E+03  0.00000000000E+00 0.  1.
</event>
<event>
 7    1  0.2766180E-009  0.7625584E+02  0.7561462E-02  0.1340026E+00
         -2   -1    0    0    0  501 -0.00000000000E+00  0.00000000000E+00  0.34706592594E+02  0.34706592594E+02  0.00000000000E+00 0.  1.
          2   -1    0    0  501    0  0.00000000000E+00 -0.00000000000E+00 -0.56604114136E+03  0.56604114136E+03  0.00000000000E+00 0. -1.
         25    2    1    2    0    0 -0.38222841322E+02  0.51029562715E+02 -0.15883956521E+03  0.21199959550E+03  0.12509524031E+03 0.  0.
          5    1    3    3  502    0 -0.32739299346E+02  0.20895016873E+02 -0.17345937986E+03  0.17780352166E+03  0.41800000000E+01 0.  1.
         -5    1    3    3    0  502 -0.54835419763E+01  0.30134545842E+02  0.14619814658E+02  0.34196073844E+02  0.41800000000E+01 0.  1.
        -11    1    1    2    0    0 -0.11871539319E+02 -0.21017324224E+02 -0.19711748513E+02  0.31164312807E+02  0.00000000000E+00 0.  1.
         11    1    1    2    0    0  0.50094380641E+02 -0.30012238492E+02 -0.35278323505E+03  0.35758382564E+03  0.00000000000E+00 0. -1.
</event>
<event>
 7    1  0.2766180E-009  0.2424740E+03  0.7561462E-02  0.1118156E+00
         -2   -1    0    0    0  501 -0.00000000000E+00  0.00000000000E+00  0.24656929990E+03  0.24656929990E+03  0.00000000000E+00 0.  1.
          2   -1    0    0  501    0  0.00000000000E+00 -0.00000000000E+00 -0.28210258875E+03  0.28210258875E+03  0.00000000000E+00 0. -1.
         25    2    1    2    0    0  0.17717744638E+03  0.14793618620E+03  0.47058004697E+02  0.26671968934E+03  0.12509186298E+03 0.  0.
          5    1    3    3  502    0  0.66531689788E+02  0.29038615223E+01  0.51357151208E+02  0.84201707453E+02  0.41800000000E+01 0.  1.
         -5    1    3    3    0  502  0.11064575659E+03  0.14503232468E+03 -0.42991465112E+01  0.18251798189E+03  0.41800000000E+01 0.  1.
        -11    1    1    2    0    0 -0.76300234105E+02 -0.94950459103E+02 -0.84057810409E+02  0.14799672597E+03  0.00000000000E+00 0. -1.
         11    1    1    2    0    0 -0.10087721227E+03 -0.52985727096E+02  0.14665168649E+01  0.11395547334E+03  0.00000000000E+00 0.  1.
</event>
<event>
 7    1  0.2766180E-009  0.1176641E+03  0.7561462E-02  0.1247001E+00
         -2   -1    0    0    0  501 -0.00000000000E+00  0.00000000000E+00  0.62559123045E+02  0.62559123045E+02  0.00000000000E+00 0. -1.
          2   -1    0    0  501    0  0.00000000000E+00 -0.00000000000E+00 -0.47920899187E+03  0.47920899187E+03  0.00000000000E+00 0.  1.
         25    2    1    2    0    0 -0.10020213639E+03  0.11163573444E+02 -0.36018618101E+03  0.39438882501E+03  0.12507344559E+03 0.  0.
          5    1    3    3  502    0 -0.77865049825E+02  0.16868618740E+02 -0.36219051805E+03  0.37087323986E+03  0.41800000000E+01 0.  1.
         -5    1    3    3    0  502 -0.22337086560E+02 -0.57050452963E+01  0.20043370364E+01  0.23515585146E+02  0.41800000000E+01 0.  1.
        -11    1    1    2    0    0  0.11478382135E+03 -0.18189608917E+01 -0.35447409498E+02  0.12014638198E+03  0.00000000000E+00 0. -1.
         11    1    1    2    0    0 -0.14581684961E+02 -0.93446125525E+01 -0.21016278315E+02  0.27232907929E+02  0.00000000000E+00 0.  1.
</event>
<event>
 7    1  0.2766180E-009  0.1925498E+03  0.7561462E-02  0.1156181E+00
         -2   -1    0    0    0  501 -0.00000000000E+00  0.00000000000E+00  0.15818389734E+02  0.15818389734E+02  0.00000000000E+00 0.  1.
          2   -1    0    0  501    0  0.00000000000E+00 -0.00000000000E+00 -0.24624886585E+04  0.24624886585E+04  0.00000000000E+00 0. -1.
         25    2    1    2    0    0  0.15272718185E+03 -0.50866251560E+02 -0.15159016776E+04  0.15295485177E+04  0.12509118380E+03 0.  0.
          5    1    3    3  502    0 -0.19140553739E+02 -0.20258315646E+02 -0.16213311982E+03  0.16456421571E+03  0.41800000000E+01 0.  1.
         -5    1    3    3    0  502  0.17186773559E+03 -0.30607935914E+02 -0.13537685578E+04  0.13649843020E+04  0.41800000000E+01 0.  1.
        -11    1    1    2    0    0 -0.65537778730E+02 -0.21513116968E+02 -0.41448186980E+03  0.42018238306E+03  0.00000000000E+00 0. -1.
         11    1    1    2    0    0 -0.87189403117E+02  0.72379368528E+02 -0.51628672136E+03  0.52857614746E+03  0.00000000000E+00 0.  1.
</event>
<event>
 7    1  0.2766180E-009  0.9730380E+02  0.7561462E-02  0.1286070E+00
         -1   -1    0    0    0  501 -0.00000000000E+00  0.00000000000E+00  0.19618054580E+03  0.19618054580E+03  0.00000000000E+00 0.  1.
          1   -1    0    0  501    0  0.00000000000E+00 -0.00000000000E+00 -0.96304125427E+02  0.96304125427E+02  0.00000000000E+00 0. -1.
         25    2    1    2    0    0  0.32818952008E+02  0.59892159902E+02 -0.34541395343E+01  0.14255939016E+03  0.12508834564E+03 0.  0.
          5    1    3    3  502    0 -0.26155745489E+02  0.36751742391E+02  0.44109549450E+02  0.63229252277E+02  0.41800000000E+01 0. -1.
         -5    1    3    3    0  502  0.58974697496E+02  0.23140417511E+02 -0.47563688984E+02  0.79330137887E+02  0.41800000000E+01 0. -1.
        -11    1    1    2    0    0 -0.27032182293E+02 -0.14324365007E+01 -0.42002759606E+01  0.27394033511E+02  0.00000000000E+00 0. -1.
         11    1    1    2    0    0 -0.57867697145E+01 -0.58459723402E+02  0.10753083587E+03  0.12253124755E+03  0.00000000000E+00 0.  1.
</event>
<event>
 7    1  0.2766180E-009  0.1710339E+03  0.7561462E-02  0.1176774E+00
         -2   -1    0    0    0  501 -0.00000000000E+00  0.00000000000E+00  0.61445798429E+02  0.61445798429E+02  0.00000000000E+00 0.  1.
          2   -1    0    0  501    0  0.00000000000E+00 -0.00000000000E+00 -0.85914129123E+03  0.85914129123E+03  0.00000000000E+00 0. -1.
         25    2    1    2    0    0  0.11560084370E+03  0.10632746936E+03 -0.66858865995E+03  0.69808863919E+03  0.12509143117E+03 0.  0.
          5    1    3    3  502    0 -0.15737791782E+02  0.13412048571E+01 -0.19195626335E+03  0.19265034741E+03  0.41800000000E+01 0. -1.
         -5    1    3    3    0  502  0.13133863548E+03  0.10498626451E+03 -0.47663239660E+03  0.50543829178E+03  0.41800000000E+01 0. -1.
        -11    1    1    2    0    0 -0.22257956078E+02 -0.27355192248E+02  0.10618382439E+02  0.36830329856E+02  0.00000000000E+00 0.  1.
         11    1    1    2    0    0 -0.93342887622E+02 -0.78972277116E+02 -0.13972521529E+03  0.18566812061E+03  0.00000000000E+00 0. -1.
</event>
<event>
 7    1  0.2766180E-009  0.1195363E+03  0.7561462E-02  0.1243864E+00
          1   -1    0    0  501    0  0.00000000000E+00  0.00000000000E+00  0.54968780463E+02  0.54968780463E+02  0.00000000000E+00 0. -1.
         -1   -1    0    0    0  501 -0.00000000000E+00 -0.00000000000E+00 -0.27859532012E+03  0.27859532012E+03  0.00000000000E+00 0.  1.
         25    2    1    2    0    0  0.47673920591E+02 -0.30485302215E+02 -0.10495018389E+03  0.17281074594E+03  0.12508739529E+03 0.  0.
          5    1    3    3  502    0  0.88030149801E+02 -0.37747700763E+02 -0.69041774996E+02  0.11814582211E+03  0.41800000000E+01 0.  1.
         -5    1    3    3    0  502 -0.40356229210E+02  0.72623985474E+01 -0.35908408892E+02  0.54664923835E+02  0.41800000000E+01 0.  1.
        -11    1    1    2    0    0 -0.19223997272E+02 -0.29718887820E+02 -0.69436805877E+02  0.77937438852E+02  0.00000000000E+00 0.  1.
         11    1    1    2    0    0 -0.28449923318E+02  0.60204190036E+02 -0.49239549894E+02  0.82815915792E+02  0.00000000000E+00 0. -1.
</event>
<event>
 7    1  0.2766180E-009  0.2365116E+03  0.7561462E-02  0.1122139E+00
          2   -1    0    0  501    0  0.00000000000E+00  0.00000000000E+00  0.18215738685E+04  0.18215738685E+04  0.00000000000E+00 0. -1.
         -2   -1    0    0    0  501 -0.00000000000E+00 -0.00000000000E+00 -0.33868993851E+02  0.33868993851E+02  0.00000000000E+00 0.  1.
         25    2    1    2    0    0  0.10214297248E+03  0.19815126919E+03  0.83490089895E+03  0.87315799174E+03  0.12509298609E+03 0.  0.
          5    1    3    3  502    0  0.31582457235E+02  0.52805340687E+01  0.36404566263E+02  0.48663132758E+02  0.41800000000E+01 0.  1.
         -5    1    3    3    0  502  0.70560515248E+02  0.19287073512E+03  0.79849633269E+03  0.82449485899E+03  0.41800000000E+01 0.  1.
        -11    1    1    2    0    0 -0.16303037555E+02 -0.11381963077E+03  0.38175219971E+03  0.39869216115E+03  0.00000000000E+00 0. -1.
         11    1    1    2    0    0 -0.85839934927E+02 -0.84331638424E+02  0.57105177595E+03  0.58359270942E+03  0.00000000000E+00 0.  1.
</event>
<event>
 7    1  0.2766180E-009  0.1133545E+03  0.7561462E-02  0.1254481E+00
          2   -1    0    0  501    0  0.00000000000E+00  0.00000000000E+00  0.39869661031E+03  0.39869661031E+03  0.00000000000E+00 0. -1.
         -2   -1    0    0    0  501 -0.00000000000E+00 -0.00000000000E+00 -0.37712110092E+02  0.37712110092E+02  0.00000000000E+00 0.  1.
         25    2    1    2    0    0  0.33408305388E+02  0.43309004393E+02  0.24464035164E+03  0.28015583826E+03  0.12508639947E+03 0.  0.
          5    1    3    3  502    0  0.49460584808E+02  0.78514182161E+02  0.20253460938E+03  0.22281958318E+03  0.41800000000E+01 0.  1.
         -5    1    3    3    0  502 -0.16052279420E+02 -0.35205177768E+02  0.42105742261E+02  0.57336255089E+02  0.41800000000E+01 0.  1.
        -11    1    1    2    0    0 -0.15731051357E+02  0.22111501982E+02  0.67405126012E+02  0.72662476626E+02  0.00000000000E+00 0.  1.
         11    1    1    2    0    0 -0.17677254031E+02 -0.65420506375E+02  0.48939022569E+02  0.83590405517E+02  0.00000000000E+00 0. -1.
</event>
<event>
 7    1  0.2766180E-009  0.1344364E+03  0.7561462E-02  0.1221018E+00
         -3   -1    0    0    0  501 -0.00000000000E+00  0.00000000000E+00  0.16827615986E+04  0.16827615986E+04  0.00000000000E+00 0.  1.
          3   -1    0    0  501    0  0.00000000000E+00 -0.00000000000E+00 -0.15737414807E+02  0.15737414807E+02  0.00000000000E+00 0. -1.
         25    2    1    2    0    0 -0.11199735361E+03 -0.11666312850E+02  0.11328280910E+04  0.11452630990E+04  0.12509425295E+03 0.  0.
          5    1    3    3  502    0  0.14409494196E+01 -0.13060948237E+02  0.61423690339E+03  0.61439165895E+03  0.41800000000E+01 0.  1.
         -5    1    3    3    0  502 -0.11343830303E+03  0.13946353862E+01  0.51859118764E+03  0.53087144009E+03  0.41800000000E+01 0.  1.
        -11    1    1    2    0    0 -0.57095584913E+01  0.22634027178E+02  0.56559503322E+02  0.61187218114E+02  0.00000000000E+00 0. -1.
         11    1    1    2    0    0  0.11770691210E+03 -0.10967714328E+02  0.47763658944E+03  0.49204869625E+03  0.00000000000E+00 0.  1.
</event>
<event>
 7    1  0.2766180E-009  0.1333797E+03  0.7561462E-02  0.1222525E+00
         -1   -1    0    0    0  501 -0.00000000000E+00  0.00000000000E+00  0.64578076456E+02  0.64578076456E+02  0.00000000000E+00 0.  1.
          1   -1    0    0  501    0  0.00000000000E+00 -0.00000000000E+00 -0.29677368197E+03  0.29677368197E+03  0.00000000000E+00 0. -1.
         25    2    1    2    0    0 -0.61961900939E+02 -0.49132034362E+02 -0.81931938054E+02  0.16914676496E+03  0.12507818217E+03 0.  0.
          5    1    3    3  502    0  0.42712429945E+01 -0.75995585985E+02 -0.46091095306E+02  0.89081053386E+02  0.41800000000E+01 0.  1.
         -5    1    3    3    0  502 -0.66233143933E+02  0.26863551622E+02 -0.35840842749E+02  0.80065711575E+02  0.41800000000E+01 0.  1.
        -11    1    1    2    0    0  0.11973588589E+02  0.65305357824E+02 -0.95521718235E+02  0.11632951147E+03  0.00000000000E+00 0. -1.
         11    1    1    2    0    0  0.49988312349E+02 -0.16173323462E+02 -0.54741949228E+02  0.75875481999E+02  0.00000000000E+00 0.  1.
</event>
<event>
 7    1  0.2766180E-009  0.9870594E+02  0.7561462E-02  0.1283041E+00
         -2   -1    0    0    0  501 -0.00000000000E+00  0.00000000000E+00  0.18390426159E+03  0.18390426159E+03  0.00000000000E+00 0. -1.
          2   -1    0    0  501    0  0.00000000000E+00 -0.00000000000E+00 -0.72986924104E+02  0.72986924104E+02  0.00000000000E+00 0.  1.
         25    2    1    2    0    0  0.37664008639E+02 -0.11038281143E+02  0.61365663276E+02  0.14475093943E+03  0.12508664453E+03 0.  0.
          5    1    3    3  502    0  0.42339089337E+02 -0.48742639644E+02 -0.83595312337E+01  0.65236474213E+02  0.41800000000E+01 0.  1.
         -5    1    3    3    0  502 -0.46750806985E+01  0.37704358501E+02  0.69725194510E+02  0.79514465218E+02  0.41800000000E+01 0.  1.
        -11    1    1    2    0    0 -0.23468289455E+02 -0.37323553941E+02  0.41137133116E+01  0.44280141440E+02  0.00000000000E+00 0.  1.
         11    1    1    2    0    0 -0.14195719184E+02  0.48361835084E+02  0.45437960900E+02  0.67860104823E+02  0.00000000000E+00 0. -1.
</event>
<event>
 7    1  0.2766180E-009  0.7666415E+03  0.7561462E-02  0.9609598E-01
         -2   -1    0    0    0  501 -0.00000000000E+00  0.00000000000E+00  0.69807621545E+03  0.69807621545E+03  0.00000000000E+00 0.  1.
          2   -1    0    0  501    0  0.00000000000E+00 -0.00000000000E+00 -0.97793431593E+03  0.97793431593E+03  0.00000000000E+00 0. -1.
         25    2    1    2    0    0 -0.34636480375E+02 -0.76084068911E+03  0.16499414347E+03  0.78927133536E+03  0.12509170020E+03 0.  0.
          5    1    3    3  502    0 -0.44502330114E+02 -0.97079278160E+02  0.37696750853E+02  0.11332855359E+03  0.41800000000E+01 0. -1.
         -5    1    3    3    0  502  0.98658497390E+01 -0.66376141095E+03  0.12729739262E+03  0.67594278177E+03  0.41800000000E+01 0. -1.
        -11    1    1    2    0    0  0.40138378101E+02  0.73701284911E+03 -0.41051484549E+03  0.84458360600E+03  0.00000000000E+00 0.  1.
         11    1    1    2    0    0 -0.55018977253E+01  0.23827839996E+02 -0.34337398454E+02  0.42155590021E+02  0.00000000000E+00 0. -1.
</event>
<event>
 7    1  0.2766180E-009  0.1612794E+03  0.7561462E-02  0.1187260E+00
          1   -1    0    0  501    0  0.00000000000E+00  0.00000000000E+00  0.24531943781E+04  0.24531943781E+04  0.00000000000E+00 0. -1.
         -1   -1    0    0    0  501 -0.00000000000E+00 -0.00000000000E+00 -0.14365006791E+02  0.14365006791E+02  0.00000000000E+00 0.  1.
         25    2    1    2    0    0  0.65516252438E+02 -0.12412575563E+03  0.16605573902E+04  0.16711665007E+04  0.12508814617E+03 0.  0.
          5    1    3    3  502    0  0.26185814299E+02 -0.11049824512E+03  0.65825910442E+03  0.66799556885E+03  0.41800000000E+01 0.  1.
         -5    1    3    3    0  502  0.39330438139E+02 -0.13627510516E+02  0.10022982858E+04  0.10031709318E+04  0.41800000000E+01 0.  1.
        -11    1    1    2    0    0 -0.74001762381E+02  0.43135234451E+02  0.34029583784E+03  0.35091048223E+03  0.00000000000E+00 0. -1.
         11    1    1    2    0    0  0.84855099426E+01  0.80990521184E+02  0.43797614324E+03  0.44548240195E+03  0.00000000000E+00 0.  1.
</event>
<event>
 7    1  0.2766180E-009  0.7509491E+02  0.7561462E-02  0.1343577E+00
         -2   -1    0    0    0  501 -0.00000000000E+00  0.00000000000E+00  0.14878833153E+02  0.14878833153E+02  0.00000000000E+00 0.  1.
          2   -1    0    0  501    0  0.00000000000E+00 -0.00000000000E+00 -0.86682156271E+03  0.86682156271E+03  0.00000000000E+00 0. -1.
         25    2    1    2    0    0 -0.58491423736E+01 -0.69332703542E+01 -0.60974726590E+03  0.62251300214E+03  0.12509367234E+03 0.  0.
          5    1    3    3  502    0  0.77147161092E+01 -0.38715788571E+02 -0.56213061327E+03  0.56353059180E+03  0.41800000000E+01 0. -1.
         -5    1    3    3    0  502 -0.13563858483E+02  0.31782518216E+02 -0.47616652633E+02  0.58982410336E+02  0.41800000000E+01 0. -1.
        -11    1    1    2    0    0 -0.18454450718E+02 -0.27754538990E+02 -0.37565058951E+02  0.50219665868E+02  0.00000000000E+00 0.  1.
         11    1    1    2    0    0  0.24303593092E+02  0.34687809344E+02 -0.20463040470E+03  0.20896772785E+03  0.00000000000E+00 0. -1.
</event>
<event>
 7    1  0.2766180E-009  0.9596248E+02  0.7561462E-02  0.1289023E+00
         -4   -1    0    0    0  501 -0.00000000000E+00  0.00000000000E+00  0.80975981071E+03  0.80975981071E+03  0.00000000000E+00 0.  1.
          4   -1    0    0  501    0  0.00000000000E+00 -0.00000000000E+00 -0.21577925633E+02  0.21577925633E+02  0.00000000000E+00 0. -1.
         25    2    1    2    0    0 -0.71002662260E+02  0.17081310807E+02  0.41350124930E+03  0.43813768657E+03  0.12509276554E+03 0.  0.
          5    1    3    3  502    0 -0.43058376472E+02 -0.30020971210E+02  0.57675513157E+02  0.78097501334E+02  0.41800000000E+01 0.  1.
         -5    1    3    3    0  502 -0.27944285789E+02  0.47102282017E+02  0.35582573614E+03  0.36004018523E+03  0.41800000000E+01 0.  1.
        -11    1    1    2    0    0  0.62634908036E+01 -0.18556405146E+02  0.85209131993E+01  0.21358311046E+02  0.00000000000E+00 0. -1.
         11    1    1    2    0    0  0.64739171457E+02  0.14750943390E+01  0.36615972258E+03  0.37184173873E+03  0.00000000000E+00 0.  1.
</event>
<event>
 7    1  0.2766180E-009  0.1055076E+03  0.7561462E-02  0.1269123E+00
          1   -1    0    0  501    0  0.00000000000E+00  0.00000000000E+00  0.29780826311E+02  0.29780826311E+02  0.00000000000E+00 0. -1.
         -1   -1    0    0    0  501 -0.00000000000E+00 -0.00000000000E+00 -0.47747748348E+03  0.47747748348E+03  0.00000000000E+00 0.  1.
         25    2    1    2    0    0 -0.73823839444E+01  0.40283860218E+02 -0.31338794895E+03  0.33990850702E+03  0.12509395514E+03 0.  0.
          5    1    3    3  502    0 -0.50136250592E+02 -0.16551818102E+02 -0.19187242924E+03  0.19904800378E+03  0.41800000000E+01 0.  1.
         -5    1    3    3    0  502  0.42753866648E+02  0.56835678320E+02 -0.12151551970E+03  0.14086050324E+03  0.41800000000E+01 0.  1.
        -11    1    1    2    0    0 -0.17583563723E+02 -0.55058691352E+02 -0.44419836432E+02  0.72895562795E+02  0.00000000000E+00 0.  1.
         11    1    1    2    0    0  0.24965947667E+02  0.14774831134E+02 -0.89888871794E+02  0.94454239981E+02  0.00000000000E+00 0. -1.
</event>
<event>
 7    1  0.3375042E-009  0.9925965E+02  0.7561462E-02  0.1281861E+00
         -1   -1    0    0    0  501 -0.00000000000E+00  0.00000000000E+00  0.53386801415E+02  0.53386801415E+02  0.00000000000E+00 0.  1.
          1   -1    0    0  501    0  0.00000000000E+00 -0.00000000000E+00 -0.25978581128E+03  0.25978581128E+03  0.00000000000E+00 0. -1.
         25    2    1    2    0    0 -0.26620611266E+02 -0.26224572359E+02 -0.15159580599E+03  0.20006810454E+03  0.12509825307E+03 0.  0.
          5    1    3    3  502    0  0.29584153531E+02 -0.50889132734E+02 -0.11289246976E+03  0.12738566677E+03  0.41800000000E+01 0. -1.
         -5    1    3    3    0  502 -0.56204764797E+02  0.24664560375E+02 -0.38703336226E+02  0.72682437765E+02  0.41800000000E+01 0. -1.
        -11    1    1    2    0    0  0.48532282844E+02  0.73877384684E+01 -0.65879561018E+02  0.82158856599E+02  0.00000000000E+00 0. -1.
         11    1    1    2    0    0 -0.21911671578E+02  0.18836833890E+02  0.11076357146E+02  0.30945651553E+02  0.00000000000E+00 0.  1.
</event>
<event>
 7    1  0.2766180E-009  0.1259110E+03  0.7561462E-02  0.1233652E+00
          1   -1    0    0  501    0  0.00000000000E+00  0.00000000000E+00  0.37209772022E+03  0.37209772022E+03  0.00000000000E+00 0. -1.
         -1   -1    0    0    0  501 -0.00000000000E+00 -0.00000000000E+00 -0.57491651513E+02  0.57491651513E+02  0.00000000000E+00 0.  1.
         25    2    1    2    0    0 -0.42575041055E+02  0.86347141885E+02  0.15274102166E+03  0.21965168698E+03  0.12509428789E+03 0.  0.
          5    1    3    3  502    0 -0.11452327155E+01 -0.29284272320E+02  0.55624898272E+02  0.63011759784E+02  0.41800000000E+01 0.  1.
         -5    1    3    3    0  502 -0.41429808339E+02  0.11563141421E+03  0.97116123386E+02  0.15663992719E+03  0.41800000000E+01 0.  1.
        -11    1    1    2    0    0  0.45097714476E+02 -0.73552692145E+02  0.17265501880E+03  0.19301180765E+03  0.00000000000E+00 0. -1.
         11    1    1    2    0    0 -0.25226734211E+01 -0.12794449740E+02 -0.10789971755E+02  0.16925877106E+02  0.00000000000E+00 0.  1.
</event>
<event>
 7    1  0.2766180E-009  0.1274154E+03  0.7561462E-02  0.1231342E+00
         -1   -1    0    0    0  501 -0.00000000000E+00  0.00000000000E+00  0.26476358202E+02  0.26476358202E+02  0.00000000000E+00 0.  1.
          1   -1    0    0  501    0  0.00000000000E+00 -0.00000000000E+00 -0.79227944288E+03  0.79227944288E+03  0.00000000000E+00 0. -1.
         25    2    1    2    0    0 -0.76638834640E+02  0.50116703610E+02 -0.49674309397E+03  0.52037191553E+03  0.12509210253E+03 0.  0.
          5    1    3    3  502    0 -0.29965212072E+01 -0.23908297564E+02 -0.18023757751E+02  0.30379500905E+02  0.41800000000E+01 0. -1.
         -5    1    3    3    0  502 -0.73642313433E+02  0.74025001174E+02 -0.47871933622E+03  0.48999241463E+03  0.41800000000E+01 0. -1.
        -11    1    1    2    0    0  0.76847211004E+02 -0.10972612604E+01 -0.13101194276E+03  0.15189083899E+03  0.00000000000E+00 0.  1.
         11    1    1    2    0    0 -0.20837636401E+00 -0.49019442350E+02 -0.13804804795E+03  0.14649304656E+03  0.00000000000E+00 0. -1.
</event>
<event>
 7    1  0.2766180E-009  0.8523239E+02  0.7561462E-02  0.1314826E+00
         -1   -1    0    0    0  501 -0.00000000000E+00  0.00000000000E+00  0.62166512644E+02  0.62166512644E+02  0.00000000000E+00 0.  1.
          1   -1    0    0  501    0  0.00000000000E+00 -0.00000000000E+00 -0.26419135362E+03  0.26419135362E+03  0.00000000000E+00 0. -1.
         25    2    1    2    0    0  0.42818386574E+02  0.40092126836E+02 -0.15587411687E+03  0.20829064659E+03  0.12508980887E+03 0.  0.
          5    1    3    3  502    0  0.18203986091E+02 -0.28366390967E+02  0.23996392528E+01  0.34048023653E+02  0.41800000000E+01 0. -1.
         -5    1    3    3    0  502  0.24614400483E+02  0.68458517803E+02 -0.15827375612E+03  0.17424262294E+03  0.41800000000E+01 0. -1.
        -11    1    1    2    0    0 -0.30340792667E+02 -0.11519500169E+02  0.24618147895E+02  0.40734700067E+02  0.00000000000E+00 0.  1.
         11    1    1    2    0    0 -0.12477593908E+02 -0.28572626667E+02 -0.70768871995E+02  0.77332519601E+02  0.00000000000E+00 0. -1.
</event>
<event>
 7    1  0.2876904E-009  0.7903346E+02  0.7561462E-02  0.1331817E+00
          1   -1    0    0  501    0  0.00000000000E+00  0.00000000000E+00  0.26397393326E+03  0.26397393326E+03  0.00000000000E+00 0. -1.
         -1   -1    0    0    0  501 -0.00000000000E+00 -0.00000000000E+00 -0.56343636252E+02  0.56343636252E+02  0.00000000000E+00 0.  1.
         25    2    1    2    0    0 -0.33993233301E+02  0.42900275578E+02  0.12629125761E+03  0.18599325409E+03  0.12509210712E+03 0.  0.
          5    1    3    3  502    0 -0.91577724618E+01  0.48529683718E+02 -0.71533073151E+01  0.50076313799E+02  0.41800000000E+01 0.  1.
         -5    1    3    3    0  502 -0.24835460839E+02 -0.56294081394E+01  0.13344456492E+03  0.13591694029E+03  0.41800000000E+01 0.  1.
        -11    1    1    2    0    0 -0.16036999473E+02 -0.24721031427E+02  0.75167503322E+02  0.80737031792E+02  0.00000000000E+00 0. -1.
         11    1    1    2    0    0  0.50030232774E+02 -0.18179244151E+02  0.61715360824E+01  0.53587283631E+02  0.00000000000E+00 0.  1.
</event>
<event>
 7    1  0.2766180E-009  0.1197643E+03  0.7561462E-02  0.1243486E+00
          2   -1    0    0  501    0  0.00000000000E+00  0.00000000000E+00  0.26493982721E+03  0.26493982721E+03  0.00000000000E+00 0. -1.
         -2   -1    0    0    0  501 -0.00000000000E+00 -0.00000000000E+00 -0.76701081249E+02  0.76701081249E+02  0.00000000000E+00 0.  1.
         25    2    1    2    0    0 -0.41213763011E+01 -0.58412921610E+02  0.19331323803E+03  0.23758748091E+03  0.12509495568E+03 0.  0.
          5    1    3    3  502    0 -0.17124366753E+02  0.37372043220E+02  0.55009187833E+02  0.68799685298E+02  0.41800000000E+01 0. -1.
         -5    1    3    3    0  502  0.13002990452E+02 -0.95784964830E+02  0.13830405019E+03  0.16878779561E+03  0.41800000000E+01 0. -1.
        -11    1    1    2    0    0  0.36733086694E+02  0.58222842675E+02 -0.13979929774E+02  0.70247117405E+02  0.00000000000E+00 0.  1.
         11    1    1    2    0    0 -0.32611710393E+02  0.19007893553E+00  0.89054377101E+01  0.33806310144E+02  0.00000000000E+00 0. -1.
</event>
<event>
 7    1  0.2766180E-009  0.1004401E+03  0.7561462E-02  0.1279373E+00
          1   -1    0    0  501    0  0.00000000000E+00  0.00000000000E+00  0.35307177805E+02  0.35307177805E+02  0.00000000000E+00 0. -1.
         -1   -1    0    0    0  501 -0.00000000000E+00 -0.00000000000E+00 -0.42981400631E+03  0.42981400631E+03  0.00000000000E+00 0.  1.
         25    2    1    2    0    0 -0.26617708965E+02  0.37112074397E+02 -0.28293827360E+03  0.31270984933E+03  0.12509026622E+03 0.  0.
          5    1    3    3  502    0 -0.37310546801E+02 -0.29841519692E+02 -0.46856883236E+02  0.67049482524E+02  0.41800000000E+01 0.  1.
         -5    1    3    3    0  502  0.10692837836E+02  0.66953594089E+02 -0.23608139036E+03  0.24566036680E+03  0.41800000000E+01 0.  1.
        -11    1    1    2    0    0  0.35029129480E+01 -0.55403245646E+02 -0.10961428143E+03  0.12287017832E+03  0.00000000000E+00 0.  1.
         11    1    1    2    0    0  0.23114796017E+02  0.18291171249E+02 -0.19542734763E+01  0.29541156467E+02  0.00000000000E+00 0. -1.
</event>
<event>
 7    1  0.2766180E-009  0.8886079E+02  0.7561462E-02  0.1305634E+00
         -1   -1    0    0    0  501 -0.00000000000E+00  0.00000000000E+00  0.93965732690E+02  0.93965732690E+02  0.00000000000E+00 0.  1.
          1   -1    0    0  501    0  0.00000000000E+00 -0.00000000000E+00 -0.15806709550E+03  0.15806709550E+03  0.00000000000E+00 0. -1.
         25    2    1    2    0    0 -0.49506557637E+02  0.18394474243E+02 -0.25978317133E+02  0.13824307457E+03  0.12508804409E+03 0.  0.
          5    1    3    3  502    0  0.18937626962E+02 -0.28659471740E+00 -0.57361293814E+02  0.60551682714E+02  0.41800000000E+01 0.  1.
         -5    1    3    3    0  502 -0.68444184599E+02  0.18681068960E+02  0.31382976682E+02  0.77691391855E+02  0.41800000000E+01 0.  1.
        -11    1    1    2    0    0 -0.16182008224E+02 -0.14037715722E+02 -0.42726495704E+02  0.47796111641E+02  0.00000000000E+00 0. -1.
         11    1    1    2    0    0  0.65688565861E+02 -0.43567585207E+01  0.46034500254E+01  0.65993641981E+02  0.00000000000E+00 0.  1.
</event>
<event>
 7    1  0.3707254E-009  0.1070770E+03  0.7561462E-02  0.1266081E+00
         -1   -1    0    0    0  501 -0.00000000000E+00  0.00000000000E+00  0.71103885383E+02  0.71103885383E+02  0.00000000000E+00 0.  1.
          1   -1    0    0  501    0  0.00000000000E+00 -0.00000000000E+00 -0.21652808725E+03  0.21652808725E+03  0.00000000000E+00 0. -1.
         25    2    1    2    0    0 -0.26430065410E+01  0.58903713770E+02 -0.68205473096E+02  0.15419743778E+03  0.12509288660E+03 0.  0.
          5    1    3    3  502    0  0.30011063153E+02  0.79053957385E+02 -0.77189037250E+02  0.11456793601E+03  0.41800000000E+01 0. -1.
         -5    1    3    3    0  502 -0.32654069694E+02 -0.20150243615E+02  0.89835641538E+01  0.39629501767E+02  0.41800000000E+01 0. -1.
        -11    1    1    2    0    0  0.20915314476E+02 -0.67525044405E+02 -0.21072941752E+02  0.73764157120E+02  0.00000000000E+00 0. -1.
         11    1    1    2    0    0 -0.18272307935E+02  0.86213306356E+01 -0.56145787018E+02  0.59670377735E+02  0.00000000000E+00 0.  1.
</event>
<event>
 7    1  0.2766180E-009  0.4065480E+03  0.7561462E-02  0.1041536E+00
          1   -1    0    0  501    0  0.00000000000E+00  0.00000000000E+00  0.21142731679E+04  0.21142731679E+04  0.00000000000E+00 0. -1.
         -1   -1    0    0    0  501 -0.00000000000E+00 -0.00000000000E+00 -0.15261588904E+03  0.15261588904E+03  0.00000000000E+00 0.  1.
         25    2    1    2    0    0 -0.38215154518E+03 -0.12843895968E+03  0.21836588749E+03  0.47525565636E+03  0.12509159939E+03 0.  0.
          5    1    3    3  502    0 -0.28454817388E+03 -0.10381797359E+03  0.22018329474E+03  0.37449164288E+03  0.41800000000E+01 0. -1.
         -5    1    3    3    0  502 -0.97603371295E+02 -0.24620986095E+02 -0.18174072523E+01  0.10076401348E+03  0.41800000000E+01 0. -1.
        -11    1    1    2    0    0  0.13758902547E+03  0.82971987578E+02  0.80853993249E+03  0.82434938775E+03  0.00000000000E+00 0.  1.
         11    1    1    2    0    0  0.24456251970E+03  0.45466972104E+02  0.93475145884E+03  0.96728401279E+03  0.00000000000E+00 0. -1.
</event>
<event>
 7    1  0.2766180E-009  0.9200682E+02  0.7561462E-02  0.1298063E+00
          1   -1    0    0  501    0  0.00000000000E+00  0.00000000000E+00  0.15289676312E+02  0.15289676312E+02  0.00000000000E+00 0. -1.
         -1   -1    0    0    0  501 -0.00000000000E+00 -0.00000000000E+00 -0.83734524850E+03  0.83734524850E+03  0.00000000000E+00 0.  1.
         25    2    1    2    0    0  0.13828678640E+02 -0.13636540112E+02 -0.56661382364E+03  0.58058238720E+03  0.12508995005E+03 0.  0.
          5    1    3    3  502    0 -0.35355647700E+02 -0.43165477030E+02 -0.40882968118E+03  0.41264083759E+03  0.41800000000E+01 0.  1.
         -5    1    3    3    0  502  0.49184326340E+02  0.29528936918E+02 -0.15778414246E+03  0.16794154961E+03  0.41800000000E+01 0.  1.
        -11    1    1    2    0    0  0.32439429550E+01 -0.26618241835E+02 -0.22388238401E+02  0.34932609164E+02  0.00000000000E+00 0. -1.
         11    1    1    2    0    0 -0.17072621595E+02  0.40254781946E+02 -0.23305351014E+03  0.23711992845E+03  0.00000000000E+00 0.  1.
</event>
<event>
 7    1  0.2766180E-009  0.1021099E+03  0.7561462E-02  0.1275921E+00
          1   -1    0    0  501    0  0.00000000000E+00  0.00000000000E+00  0.39917177482E+02  0.39917177482E+02  0.00000000000E+00 0. -1.
         -1   -1    0    0    0  501 -0.00000000000E+00 -0.00000000000E+00 -0.37121997724E+03  0.37121997724E+03  0.00000000000E+00 0.  1.
         25    2    1    2    0    0 -0.49231417839E+02 -0.23911028018E+02 -0.18986233150E+03  0.23385903505E+03  0.12508746376E+03 0.  0.
          5    1    3    3  502    0 -0.17823479504E+02 -0.53207182112E+02 -0.21798388295E+02  0.60343373971E+02  0.41800000000E+01 0.  1.
         -5    1    3    3    0  502 -0.31407938335E+02  0.29296154095E+02 -0.16806394320E+03  0.17351566108E+03  0.41800000000E+01 0.  1.
        -11    1    1    2    0    0 -0.61071764178E-01  0.49335142984E+02 -0.84102545962E+02  0.97504862957E+02  0.00000000000E+00 0.  1.
         11    1    1    2    0    0  0.49292489603E+02 -0.25424114967E+02 -0.57337922296E+02  0.79773256712E+02  0.00000000000E+00 0. -1.
</event>
<event>
 7    1  0.2766180E-009  0.8092557E+02  0.7561462E-02  0.1326445E+00
          1   -1    0    0  501    0  0.00000000000E+00  0.00000000000E+00  0.17759988692E+03  0.17759988692E+03  0.00000000000E+00 0. -1.
         -1   -1    0    0    0  501 -0.00000000000E+00 -0.00000000000E+00 -0.77886058162E+02  0.77886058162E+02  0.00000000000E+00 0.  1.
         25    2    1    2    0    0 -0.66478702419E+01 -0.43402622190E+02  0.66318352526E+02  0.14823572711E+03  0.12509086745E+03 0.  0.
          5    1    3    3  502    0  0.23984117358E+02 -0.51699780937E+02  0.91246769536E+02  0.10766406357E+03  0.41800000000E+01 0. -1.
         -5    1    3    3    0  502 -0.30631987600E+02  0.82971587470E+01 -0.24928417010E+02  0.40571663538E+02  0.41800000000E+01 0. -1.
        -11    1    1    2    0    0 -0.23789540557E+02  0.32686883592E+02 -0.19813102457E+02  0.45021479628E+02  0.00000000000E+00 0.  1.
         11    1    1    2    0    0  0.30437410799E+02  0.10715738597E+02  0.53208578687E+02  0.62228738343E+02  0.00000000000E+00 0. -1.
</event>
<event>
 7    1  0.2766180E-009  0.1318309E+03  0.7561462E-02  0.1224764E+00
          1   -1    0    0  501    0  0.00000000000E+00  0.00000000000E+00  0.75117094376E+03  0.75117094376E+03  0.00000000000E+00 0. -1.
         -1   -1    0    0    0  501 -0.00000000000E+00 -0.00000000000E+00 -0.29238215512E+02  0.29238215512E+02  0.00000000000E+00 0.  1.
         25    2    1    2    0    0  0.94686181542E+02 -0.12027151415E+02  0.30772712846E+03  0.34562090947E+03  0.12509077554E+03 0.  0.
          5    1    3    3  502    0 -0.52601714557E+01  0.24920467827E+02  0.16736990373E+03  0.16934832799E+03  0.41800000000E+01 0. -1.
         -5    1    3    3    0  502  0.99946352998E+02 -0.36947619242E+02  0.14035722473E+03  0.17627258147E+03  0.41800000000E+01 0. -1.
        -11    1    1    2    0    0 -0.11164159155E+03  0.23006317199E+01  0.36929406016E+03  0.38580725853E+03  0.00000000000E+00 0. -1.
         11    1    1    2    0    0  0.16955410003E+02  0.97265196950E+01  0.44911539629E+02  0.48980991268E+02  0.00000000000E+00 0.  1.
</event>
<event>
 7    1  0.2766180E-009  0.1059990E+03  0.7561462E-02  0.1268164E+00
         -1   -1    0    0    0  501 -0.00000000000E+00  0.00000000000E+00  0.20361620189E+03  0.20361620189E+03  0.00000000000E+00 0.  1.
          1   -1    0    0  501    0  0.00000000000E+00 -0.00000000000E+00 -0.10285318477E+03  0.10285318477E+03  0.00000000000E+00 0. -1.
         25    2    1    2    0    0 -0.76065824339E+02 -0.39942721457E+02  0.22111246401E+02  0.15338725153E+03  0.12512917759E+03 0.  0.
          5    1    3    3  502    0 -0.60666562892E+02 -0.49987329896E+02 -0.40126661561E+02  0.88356020572E+02  0.41800000000E+01 0. -1.
         -5    1    3    3    0  502 -0.15399261447E+02  0.10044608439E+02  0.62237907962E+02  0.65031230954E+02  0.41800000000E+01 0. -1.
        -11    1    1    2    0    0  0.51610140265E+02  0.62568685014E+02  0.86786048579E+02  0.11878663709E+03  0.00000000000E+00 0.  1.
         11    1    1    2    0    0  0.24455684075E+02 -0.22625963557E+02 -0.81342778570E+01  0.34295498053E+02  0.00000000000E+00 0. -1.
</event>
<event>
 7    1  0.2766180E-009  0.3268413E+03  0.7561462E-02  0.1072543E+00
          1   -1    0    0  501    0  0.00000000000E+00  0.00000000000E+00  0.25801872957E+04  0.25801872957E+04  0.00000000000E+00 0. -1.
         -1   -1    0    0    0  501 -0.00000000000E+00 -0.00000000000E+00 -0.49654358337E+02  0.49654358337E+02  0.00000000000E+00 0.  1.
         25    2    1    2    0    0  0.21719959403E+03  0.23213894705E+03  0.17459859407E+04  0.17790948383E+04  0.12508950546E+03 0.  0.
          5    1    3    3  502    0  0.11540182335E+03  0.16942117816E+03  0.13483621422E+04  0.13638618168E+04  0.41800000000E+01 0. -1.
         -5    1    3    3    0  502  0.10179777068E+03  0.62717768891E+02  0.39762379848E+03  0.41523302153E+03  0.41800000000E+01 0. -1.
        -11    1    1    2    0    0 -0.21125142138E+03 -0.18294387693E+03  0.66913974261E+03  0.72515075694E+03  0.00000000000E+00 0.  1.
         11    1    1    2    0    0 -0.59481726497E+01 -0.49195070129E+02  0.11540725403E+03  0.12559605872E+03  0.00000000000E+00 0. -1.
</event>
<event>
 7    1  0.2766180E-009  0.1133995E+03  0.7561462E-02  0.1254401E+00
          2   -1    0    0  501    0  0.00000000000E+00  0.00000000000E+00  0.96153428784E+02  0.96153428784E+02  0.00000000000E+00 0. -1.
         -2   -1    0    0    0  501 -0.00000000000E+00 -0.00000000000E+00 -0.17250301483E+03  0.17250301483E+03  0.00000000000E+00 0.  1.
         25    2    1    2    0    0  0.52933580123E+02  0.36983523814E+02 -0.18643976204E+02  0.14200385742E+03  0.12509097784E+03 0.  0.
          5    1    3    3  502    0  0.79511246775E+02  0.49836781322E+02 -0.43187640437E+02  0.10338465951E+03  0.41800000000E+01 0.  1.
         -5    1    3    3    0  502 -0.26577666652E+02 -0.12853257508E+02  0.24543664233E+02  0.38619197910E+02  0.41800000000E+01 0.  1.
        -11    1    1    2    0    0  0.85495402315E+01 -0.40571280418E+02 -0.49421028985E+02  0.64510166167E+02  0.00000000000E+00 0.  1.
         11    1    1    2    0    0 -0.61483120354E+02  0.35877566043E+01 -0.82845808516E+01  0.62142420019E+02  0.00000000000E+00 0. -1.
</event>
<event>
 7    1  0.2766180E-009  0.1106512E+03  0.7561462E-02  0.1259369E+00
         -1   -1    0    0    0  501 -0.00000000000E+00  0.00000000000E+00  0.90301484539E+02  0.90301484539E+02  0.00000000000E+00 0.  1.
          1   -1    0    0  501    0  0.00000000000E+00 -0.00000000000E+00 -0.18420494398E+03  0.18420494398E+03  0.00000000000E+00 0. -1.
         25    2    1    2    0    0  0.45502670654E+02  0.28315177885E+02 -0.89269261680E+02  0.16275193299E+03  0.12508776230E+03 0.  0.
          5    1    3    3  502    0  0.64327291257E+02 -0.32031579626E+02 -0.38935609593E+02  0.81838112076E+02  0.41800000000E+01 0. -1.
         -5    1    3    3    0  502 -0.18824620603E+02  0.60346757511E+02 -0.50333652088E+02  0.80913820917E+02  0.41800000000E+01 0. -1.
        -11    1    1    2    0    0 -0.34331288400E+02  0.17692787183E+02  0.33371434882E+02  0.51042381876E+02  0.00000000000E+00 0.  1.
         11    1    1    2    0    0 -0.11171382254E+02 -0.46007965068E+02 -0.38005632641E+02  0.60712113648E+02  0.00000000000E+00 0. -1.
</event>
<event>
 7    1  0.2766180E-009  0.3152781E+03  0.7561462E-02  0.1077843E+00
          1   -1    0    0  501    0  0.00000000000E+00  0.00000000000E+00  0.40204714384E+03  0.40204714384E+03  0.00000000000E+00 0. -1.
         -1   -1    0    0    0  501 -0.00000000000E+00 -0.00000000000E+00 -0.28059666356E+03  0.28059666356E+03  0.00000000000E+00 0.  1.
         25    2    1    2    0    0 -0.20860323714E+02 -0.31002364458E+03  0.13366316020E+03  0.36064294700E+03  0.12509069317E+03 0.  0.
          5    1    3    3  502    0 -0.13060189640E+02 -0.47745819171E+02  0.77845870981E+02  0.92345459176E+02  0.41800000000E+01 0. -1.
         -5    1    3    3    0  502 -0.78001340745E+01 -0.26227782541E+03  0.55817289218E+02  0.26829748782E+03  0.41800000000E+01 0. -1.
        -11    1    1    2    0    0  0.41799094735E+01  0.29766231101E+03 -0.23047002196E+02  0.29858246323E+03  0.00000000000E+00 0.  1.
         11    1    1    2    0    0  0.16680414241E+02  0.12361333576E+02  0.10834322278E+02  0.23418397175E+02  0.00000000000E+00 0. -1.
</event>
<event>
 7    1  0.2766180E-009  0.1428722E+03  0.7561462E-02  0.1209516E+00
          2   -1    0    0  501    0  0.00000000000E+00  0.00000000000E+00  0.99351621222E+03  0.99351621222E+03  0.00000000000E+00 0. -1.
         -2   -1    0    0    0  501 -0.00000000000E+00 -0.00000000000E+00 -0.27195330706E+02  0.27195330706E+02  0.00000000000E+00 0.  1.
         25    2    1    2    0    0  0.79309330509E+02  0.82937510818E+02  0.37335681191E+03  0.41013620945E+03  0.12509116956E+03 0.  0.
          5    1    3    3  502    0  0.88017852053E+02  0.20606256656E+02  0.30019520364E+03  0.31353850287E+03  0.41800000000E+01 0. -1.
         -5    1    3    3    0  502 -0.87085215445E+01  0.62331254162E+02  0.73161608264E+02  0.96597706581E+02  0.41800000000E+01 0. -1.
        -11    1    1    2    0    0 -0.59467446838E+02 -0.92642617590E+02  0.56114212391E+03  0.57183871419E+03  0.00000000000E+00 0. -1.
         11    1    1    2    0    0 -0.19841883671E+02  0.97051067721E+01  0.31821945706E+02  0.38736619285E+02  0.00000000000E+00 0.  1.
</event>
<event>
 6    1  0.4476075E-009  0.3008990E+03  0.7561462E-02  0.1084792E+00
         -1   -1    0    0    0  501 -0.00000000000E+00  0.00000000000E+00  0.93714150202E+02  0.93714150202E+02  0.00000000000E+00 0.  1.
          1   -1    0    0  501    0  0.00000000000E+00 -0.00000000000E+00 -0.10946586762E+04  0.10946586762E+04  0.00000000000E+00 0. -1.
          5    1    1    2  502    0 -0.18218702160E+03  0.12004729480E+03 -0.31071859129E+03  0.37969326989E+03  0.41800000000E+01 0.  1.
         -5    1    1    2    0  502 -0.75508299260E+02  0.20268408046E+02 -0.30985018091E+03  0.31958867100E+03  0.41800000000E+01 0.  1.
        -11    1    1    2    0    0  0.80660463884E+02 -0.21074173846E+01 -0.12739411455E+03  0.15079725483E+03  0.00000000000E+00 0. -1.
         11    1    1    2    0    0  0.17703485698E+03 -0.13820828547E+03 -0.25298163923E+03  0.33829363065E+03  0.00000000000E+00 0.  1.
</event>
<event>
 7    1  0.2863611E-009  0.1181488E+03  0.7561462E-02  0.1246183E+00
         -2   -1    0    0    0  501 -0.00000000000E+00  0.00000000000E+00  0.98069573310E+02  0.98069573310E+02  0.00000000000E+00 0.  1.
          2   -1    0    0  501    0  0.00000000000E+00 -0.00000000000E+00 -0.26648685260E+03  0.26648685260E+03  0.00000000000E+00 0. -1.
         25    2    1    2    0    0  0.10199620512E+03 -0.51237434978E+02 -0.48708086618E+02  0.17620729661E+03  0.12509209838E+03 0.  0.
          5    1    3    3  502    0  0.96097627886E+02 -0.32077919806E+02  0.21004627568E+02  0.10354908886E+03  0.41800000000E+01 0. -1.
         -5    1    3    3    0  502  0.58985772353E+01 -0.19159515173E+02 -0.69712714186E+02  0.72658207755E+02  0.41800000000E+01 0. -1.
        -11    1    1    2    0    0 -0.71864518632E+02  0.40126085182E+02 -0.21567987812E+02  0.85086954632E+02  0.00000000000E+00 0.  1.
         11    1    1    2    0    0 -0.30131686489E+02  0.11111349797E+02 -0.98141204862E+02  0.10326217467E+03  0.00000000000E+00 0. -1.
</event>
<event>
 7    1  0.2766180E-009  0.1899119E+03  0.7561462E-02  0.1158541E+00
          2   -1    0    0  501    0  0.00000000000E+00  0.00000000000E+00  0.18889717551E+03  0.18889717551E+03  0.00000000000E+00 0. -1.
         -2   -1    0    0    0  501 -0.00000000000E+00 -0.00000000000E+00 -0.21301882052E+03  0.21301882052E+03  0.00000000000E+00 0.  1.
         25    2    1    2    0    0  0.15346322868E+03  0.39219550240E+02  0.44978787423E+02  0.20678363899E+03  0.12508895377E+03 0.  0.
          5    1    3    3  502    0  0.30954895257E+02 -0.41448889237E+02 -0.40735233594E+01  0.52060368342E+02  0.41800000000E+01 0.  1.
         -5    1    3    3    0  502  0.12250833343E+03  0.80668439477E+02  0.49052310783E+02  0.15472327065E+03  0.41800000000E+01 0.  1.
        -11    1    1    2    0    0 -0.71815675583E+02  0.26315820887E+02 -0.17733329996E+02  0.78514232347E+02  0.00000000000E+00 0. -1.
         11    1    1    2    0    0 -0.81647553100E+02 -0.65535371127E+02 -0.51367102431E+02  0.11661812470E+03  0.00000000000E+00 0.  1.
</event>
<event>
 7    1  0.2766180E-009  0.1161618E+03  0.7561462E-02  0.1249567E+00
          1   -1    0    0  501    0  0.00000000000E+00  0.00000000000E+00  0.47222062955E+03  0.47222062955E+03  0.00000000000E+00 0. -1.
         -1   -1    0    0    0  501 -0.00000000000E+00 -0.00000000000E+00 -0.38978126411E+02  0.38978126411E+02  0.00000000000E+00 0.  1.
         25    2    1    2    0    0  0.71464410142E+02 -0.36193231155E+02  0.21051379684E+03  0.25764578397E+03  0.12509268339E+03 0.  0.
          5    1    3    3  502    0  0.66074354354E+02  0.28127823314E+02  0.16050207605E+03  0.17588457455E+03  0.41800000000E+01 0. -1.
         -5    1    3    3    0  502  0.53900557882E+01 -0.64321054469E+02  0.50011720792E+02  0.81761209421E+02  0.41800000000E+01 0. -1.
        -11    1    1    2    0    0 -0.63120371677E+02  0.48873670449E+01  0.20897748507E+03  0.21835671948E+03  0.00000000000E+00 0. -1.
         11    1    1    2    0    0 -0.83440384656E+01  0.31305864110E+02  0.13751221235E+02  0.35196252514E+02  0.00000000000E+00 0.  1.
</event>
<event>
 7    1  0.2766180E-009  0.1175984E+03  0.7561462E-02  0.1247112E+00
          1   -1    0    0  501    0  0.00000000000E+00  0.00000000000E+00  0.50814102906E+03  0.50814102906E+03  0.00000000000E+00 0. -1.
         -1   -1    0    0    0  501 -0.00000000000E+00 -0.00000000000E+00 -0.74499104333E+02  0.74499104333E+02  0.00000000000E+00 0.  1.
         25    2    1    2    0    0 -0.73928983179E+02  0.42327868280E+01  0.11898160329E+02  0.14584865505E+03  0.12508738115E+03 0.  0.
          5    1    3    3  502    0  0.22989793973E+02  0.97254101715E+01 -0.30673438580E+02  0.39767404545E+02  0.41800000000E+01 0.  1.
         -5    1    3    3    0  502 -0.96918777152E+02 -0.54926233435E+01  0.42571598909E+02  0.10608125051E+03  0.41800000000E+01 0.  1.
        -11    1    1    2    0    0  0.64650383115E+02 -0.39830800493E+02  0.30920329839E+03  0.31839102444E+03  0.00000000000E+00 0.  1.
         11    1    1    2    0    0  0.92786000631E+01  0.35598013665E+02  0.11254046600E+03  0.11840045390E+03  0.00000000000E+00 0. -1.
</event>
<event>
 7    1  0.2766180E-009  0.7207503E+02  0.7561462E-02  0.1353176E+00
         -2   -1    0    0    0  501 -0.00000000000E+00  0.00000000000E+00  0.37531502675E+02  0.37531502675E+02  0.00000000000E+00 0.  1.
          2   -1    0    0  501    0  0.00000000000E+00 -0.00000000000E+00 -0.73977082921E+03  0.73977082921E+03  0.00000000000E+00 0. -1.
         25    2    1    2    0    0  0.20164089541E+02 -0.15850288293E+02 -0.62337516995E+03  0.63631904351E+03  0.12508996950E+03 0.  0.
          5    1    3    3  502    0  0.58436633790E+02 -0.11582704434E+02 -0.55102599118E+03  0.55425275332E+03  0.41800000000E+01 0.  1.
         -5    1    3    3    0  502 -0.38272544249E+02 -0.42675838595E+01 -0.72349178776E+02  0.82066290185E+02  0.41800000000E+01 0.  1.
        -11    1    1    2    0    0  0.53634593389E+01 -0.87366657947E+01  0.27245779659E+02  0.29110625801E+02  0.00000000000E+00 0.  1.
         11    1    1    2    0    0 -0.25527548880E+02  0.24586954088E+02 -0.10610993624E+03  0.11187266258E+03  0.00000000000E+00 0. -1.
</event>
<event>
 7    1  0.2766180E-009  0.1002483E+03  0.7561462E-02  0.1279775E+00
         -1   -1    0    0    0  501 -0.00000000000E+00  0.00000000000E+00  0.45382397720E+02  0.45382397720E+02  0.00000000000E+00 0.  1.
          1   -1    0    0  501    0  0.00000000000E+00 -0.00000000000E+00 -0.27484328947E+03  0.27484328947E+03  0.00000000000E+00 0. -1.
         25    2    1    2    0    0  0.34650412556E+01 -0.18508821449E+02 -0.15692483758E+03  0.20156244216E+03  0.12508968965E+03 0.  0.
          5    1    3    3  502    0 -0.20981896612E+02 -0.58266785954E+02 -0.13745353783E+03  0.15081845309E+03  0.41800000000E+01 0.  1.
         -5    1    3    3    0  502  0.24446937867E+02  0.39757964504E+02 -0.19471299753E+02  0.50743989069E+02  0.41800000000E+01 0.  1.
        -11    1    1    2    0    0 -0.28925720083E+02  0.45846645835E+02 -0.29650079943E+02  0.61787858494E+02  0.00000000000E+00 0.  1.
         11    1    1    2    0    0  0.25460678827E+02 -0.27337824386E+02 -0.42885974228E+02  0.56875386539E+02  0.00000000000E+00 0. -1.
</event>
<event>
 6    1  0.2766180E-009  0.1202975E+03  0.7561462E-02  0.1242607E+00
         -4   -1    0    0    0  501 -0.00000000000E+00  0.00000000000E+00  0.27786248991E+03  0.27786248991E+03  0.00000000000E+00 0.  1.
          4   -1    0    0  501    0  0.00000000000E+00 -0.00000000000E+00 -0.59284233588E+02  0.59284233588E+02  0.00000000000E+00 0. -1.
          5    1    1    2  502    0  0.33639453130E+02 -0.11825057856E+02  0.14660544275E+02  0.38779488890E+02  0.41800000000E+01 0. -1.
         -5    1    1    2    0  502 -0.78330773641E+02  0.63529441701E+02  0.12716227749E+03  0.16235583537E+03  0.41800000000E+01 0. -1.
        -11    1    1    2    0    0  0.66854917750E+02 -0.32098087874E+02  0.28587726290E+02  0.79480345790E+02  0.00000000000E+00 0.  1.
         11    1    1    2    0    0 -0.22163597238E+02 -0.19606295971E+02  0.48167708264E+02  0.56531053446E+02  0.00000000000E+00 0. -1.
</event>
<event>
 7    1  0.2766180E-009  0.1037953E+03  0.7561462E-02  0.1272511E+00
          2   -1    0    0  501    0  0.00000000000E+00  0.00000000000E+00  0.55868107097E+03  0.55868107097E+03  0.00000000000E+00 0. -1.
         -2   -1    0    0    0  501 -0.00000000000E+00 -0.00000000000E+00 -0.21327710567E+02  0.21327710567E+02  0.00000000000E+00 0.  1.
         25    2    1    2    0    0  0.10863611938E+02 -0.30725799532E+02  0.30416822175E+03  0.33049131197E+03  0.12507640603E+03 0.  0.
          5    1    3    3  502    0 -0.28103294457E+02  0.35956089453E+02  0.16531445026E+03  0.17154875514E+03  0.41800000000E+01 0. -1.
         -5    1    3    3    0  502  0.38966906395E+02 -0.66681888985E+02  0.13885377150E+03  0.15894255683E+03  0.41800000000E+01 0. -1.
        -11    1    1    2    0    0  0.16982930190E+02 -0.20191189716E+02  0.11320400041E+03  0.11623790160E+03  0.00000000000E+00 0. -1.
         11    1    1    2    0    0 -0.27846542128E+02  0.50916989247E+02  0.11998113824E+03  0.13327956796E+03  0.00000000000E+00 0.  1.
</event>
<event>
 7    1  0.2766180E-009  0.1318635E+03  0.7561462E-02  0.1224717E+00
         -2   -1    0    0    0  501 -0.00000000000E+00  0.00000000000E+00  0.89277566735E+02  0.89277566735E+02  0.00000000000E+00 0.  1.
          2   -1    0    0  501    0  0.00000000000E+00 -0.00000000000E+00 -0.35969211733E+03  0.35969211733E+03  0.00000000000E+00 0. -1.
         25    2    1    2    0    0 -0.75401456732E+02 -0.36368847983E+02  0.12688138920E+01  0.15052807475E+03  0.12509603758E+03 0.  0.
          5    1    3    3  502    0 -0.10695592539E+03 -0.46055403855E+02 -0.51676249740E+01  0.11663981717E+03  0.41800000000E+01 0. -1.
         -5    1    3    3    0  502  0.31554468659E+02  0.96865558722E+01  0.64364388660E+01  0.33888257587E+02  0.41800000000E+01 0. -1.
        -11    1    1    2    0    0  0.45118656926E+01  0.42534416899E+02 -0.50958889488E+02  0.66530759584E+02  0.00000000000E+00 0.  1.
         11    1    1    2    0    0  0.70889591040E+02 -0.61655689155E+01 -0.22072447499E+03  0.23191084972E+03  0.00000000000E+00 0. -1.
</event>
<event>
 7    1  0.2766180E-009  0.7543571E+02  0.7561462E-02  0.1342527E+00
          2   -1    0    0  501    0  0.00000000000E+00  0.00000000000E+00  0.41814933235E+02  0.41814933235E+02  0.00000000000E+00 0. -1.
         -2   -1    0    0    0  501 -0.00000000000E+00 -0.00000000000E+00 -0.33197648177E+03  0.33197648177E+03  0.00000000000E+00 0.  1.
         25    2    1    2    0    0  0.17844971390E+02 -0.19437988690E+02 -0.10923034788E+03  0.16815084177E+03  0.12508860172E+03 0.  0.
          5    1    3    3  502    0  0.20649689460E+02  0.15513896283E+02  0.20791347238E+02  0.33419203651E+02  0.41800000000E+01 0. -1.
         -5    1    3    3    0  502 -0.28047180699E+01 -0.34951884973E+02 -0.13002169512E+03  0.13473163811E+03  0.41800000000E+01 0. -1.
        -11    1    1    2    0    0  0.27199423370E+02 -0.16463026450E+02 -0.28531599599E+02  0.42718755216E+02  0.00000000000E+00 0. -1.
         11    1    1    2    0    0 -0.45044394760E+02  0.35901015139E+02 -0.15239960105E+03  0.16292181802E+03  0.00000000000E+00 0.  1.
</event>
<event>
 7    1  0.2766180E-009  0.1364305E+03  0.7561462E-02  0.1218214E+00
         -2   -1    0    0    0  501 -0.00000000000E+00  0.00000000000E+00  0.29793178648E+02  0.29793178648E+02  0.00000000000E+00 0.  1.
          2   -1    0    0  501    0  0.00000000000E+00 -0.00000000000E+00 -0.75093522263E+03  0.75093522263E+03  0.00000000000E+00 0. -1.
         25    2    1    2    0    0  0.93397089657E+02 -0.40370960999E+01 -0.27725336574E+03  0.31822732746E+03  0.12513947668E+03 0.  0.
          5    1    3    3  502    0 -0.16983658502E+02  0.31879718508E+02 -0.39939801983E+02  0.54013158496E+02  0.41800000000E+01 0. -1.
         -5    1    3    3    0  502  0.11038074816E+03 -0.35916814608E+02 -0.23731356376E+03  0.26421416896E+03  0.41800000000E+01 0. -1.
        -11    1    1    2    0    0 -0.10662742468E+03  0.41302937303E+00 -0.42983194384E+03  0.44286011136E+03  0.00000000000E+00 0. -1.
         11    1    1    2    0    0  0.13230335023E+02  0.36240667269E+01 -0.14056734403E+02  0.19640962465E+02  0.00000000000E+00 0.  1.
</event>
<event>
 7    1  0.2766180E-009  0.1504629E+03  0.7561462E-02  0.1199905E+00
          2   -1    0    0  501    0  0.00000000000E+00  0.00000000000E+00  0.84835521404E+03  0.84835521404E+03  0.00000000000E+00 0. -1.
         -2   -1    0    0    0  501 -0.00000000000E+00 -0.00000000000E+00 -0.28316722800E+02  0.28316722800E+02  0.00000000000E+00 0.  1.
         25    2    1    2    0    0 -0.87027758332E+02  0.65956044934E+02  0.49074605250E+03  0.51807748867E+03  0.12509422704E+03 0.  0.
          5    1    3    3  502    0 -0.10677913960E+03  0.11524551337E+02  0.33763493677E+03  0.35432953993E+03  0.41800000000E+01 0. -1.
         -5    1    3    3    0  502  0.19751381272E+02  0.54431493598E+02  0.15311111573E+03  0.16374794875E+03  0.41800000000E+01 0. -1.
        -11    1    1    2    0    0  0.16708192327E+01 -0.48171148482E+02  0.17341645393E+03  0.17999032662E+03  0.00000000000E+00 0. -1.
         11    1    1    2    0    0  0.85356939099E+02 -0.17784896453E+02  0.15587598481E+03  0.17860412155E+03  0.00000000000E+00 0.  1.
</event>
<event>
 7    1  0.2766180E-009  0.1152599E+03  0.7561462E-02  0.1251128E+00
          2   -1    0    0  501    0  0.00000000000E+00  0.00000000000E+00  0.11015853886E+03  0.11015853886E+03  0.00000000000E+00 0. -1.
         -2   -1    0    0    0  501 -0.00000000000E+00 -0.00000000000E+00 -0.17117864282E+03  0.17117864282E+03  0.00000000000E+00 0.  1.
         25    2    1    2    0    0 -0.72987885474E+02 -0.35951967646E+02 -0.98098681217E+01  0.14954626572E+03  0.12509227264E+03 0.  0.
          5    1    3    3  502    0  0.28586604044E+01 -0.66892233152E+02 -0.73894325282E+01  0.67489398489E+02  0.41800000000E+01 0.  1.
         -5    1    3    3    0  502 -0.75846545879E+02  0.30940265506E+02 -0.24204355934E+01  0.82056867231E+02  0.41800000000E+01 0.  1.
        -11    1    1    2    0    0  0.14377413713E+02  0.57971287127E+01  0.26001299096E+02  0.30271839737E+02  0.00000000000E+00 0. -1.
         11    1    1    2    0    0  0.58610471761E+02  0.30154838934E+02 -0.77211534929E+02  0.10151907622E+03  0.00000000000E+00 0.  1.
</event>
<event>
 7    1  0.4005310E-009  0.1222757E+03  0.7561462E-02  0.1239389E+00
          2   -1    0    0  501    0  0.00000000000E+00  0.00000000000E+00  0.17036887066E+03  0.17036887066E+03  0.00000000000E+00 0. -1.
         -2   -1    0    0    0  501 -0.00000000000E+00 -0.00000000000E+00 -0.11514733211E+03  0.11514733211E+03  0.00000000000E+00 0.  1.
         25    2    1    2    0    0  0.77138947244E+02 -0.29185506674E+02 -0.16427118646E+01  0.14983789720E+03  0.12508591429E+03 0.  0.
          5    1    3    3  502    0 -0.35536908071E+01 -0.43085050265E+02 -0.40249549586E+02  0.59215276041E+02  0.41800000000E+01 0. -1.
         -5    1    3    3    0  502  0.80692638051E+02  0.13899543590E+02  0.38606837722E+02  0.90622621164E+02  0.41800000000E+01 0. -1.
        -11    1    1    2    0    0 -0.16024783800E+02  0.51603651748E+02  0.43158763931E+02  0.69154967093E+02  0.00000000000E+00 0.  1.
         11    1    1    2    0    0 -0.61114163444E+02 -0.22418145074E+02  0.13705486486E+02  0.66523338475E+02  0.00000000000E+00 0. -1.
</event>
<event>
 7    1  0.2766180E-009  0.1080074E+03  0.7561462E-02  0.1264305E+00
          2   -1    0    0  501    0  0.00000000000E+00  0.00000000000E+00  0.98074036247E+02  0.98074036247E+02  0.00000000000E+00 0. -1.
         -2   -1    0    0    0  501 -0.00000000000E+00 -0.00000000000E+00 -0.12031904087E+03  0.12031904087E+03  0.00000000000E+00 0.  1.
         25    2    1    2    0    0 -0.71767382827E+01 -0.94649452431E+00 -0.14579539280E+02  0.12613922202E+03  0.12508452719E+03 0.  0.
          5    1    3    3  502    0  0.35011433914E+00 -0.62201150749E+02 -0.15636374014E+02  0.64273434067E+02  0.41800000000E+01 0.  1.
         -5    1    3    3    0  502 -0.75268526218E+01  0.61254656224E+02  0.10568347342E+01  0.61865787954E+02  0.41800000000E+01 0.  1.
        -11    1    1    2    0    0  0.33121480229E+02 -0.34541302360E+02 -0.16495259576E+01  0.47883765069E+02  0.00000000000E+00 0. -1.
         11    1    1    2    0    0 -0.25944741946E+02  0.35487796884E+02 -0.60159393859E+01  0.44370090028E+02  0.00000000000E+00 0.  1.
</event>
<event>
 7    1  0.2766180E-009  0.1677802E+03  0.7561462E-02  0.1180183E+00
          2   -1    0    0  501    0  0.00000000000E+00  0.00000000000E+00  0.87033788499E+02  0.87033788499E+02  0.00000000000E+00 0. -1.
         -2   -1    0    0    0  501 -0.00000000000E+00 -0.00000000000E+00 -0.39544519973E+03  0.39544519973E+03  0.00000000000E+00 0.  1.
         25    2    1    2    0    0 -0.92885763474E+01  0.14796699290E+03 -0.19351483417E+03  0.27401010909E+03  0.12511211052E+03 0.  0.
          5    1    3    3  502    0 -0.25485916075E+02  0.15879183735E+03 -0.19639763957E+03  0.25387769645E+03  0.41800000000E+01 0. -1.
         -5    1    3    3    0  502  0.16197339728E+02 -0.10824844451E+02  0.28828053945E+01  0.20132412637E+02  0.41800000000E+01 0. -1.
        -11    1    1    2    0    0 -0.66960062802E+01 -0.13197984200E+03 -0.52663430750E+02  0.14225664179E+03  0.00000000000E+00 0. -1.
         11    1    1    2    0    0  0.15984582628E+02 -0.15987150897E+02 -0.62233146313E+02  0.66212237355E+02  0.00000000000E+00 0.  1.
</event>
<event>
 7    1  0.2766180E-009  0.1151481E+03  0.7561462E-02  0.1251323E+00
         -2   -1    0    0    0  501 -0.00000000000E+00  0.00000000000E+00  0.15686312480E+02  0.15686312480E+02  0.00000000000E+00 0.  1.
          2   -1    0    0  501    0  0.00000000000E+00 -0.00000000000E+00 -0.13874562847E+04  0.13874562847E+04  0.00000000000E+00 0. -1.
         25    2    1    2    0    0 -0.40416658529E+02 -0.41523544529E+02 -0.11332602279E+04  0.11416144026E+04  0.12508792546E+03 0.  0.
          5    1    3    3  502    0  0.29373715333E+02  0.19286042020E+02 -0.15561315080E+03  0.15958600087E+03  0.41800000000E+01 0.  1.
         -5    1    3    3    0  502 -0.69790373862E+02 -0.60809586548E+02 -0.97764707709E+03  0.98202840175E+03  0.41800000000E+01 0.  1.
        -11    1    1    2    0    0 -0.25110616928E+02  0.85127235863E+00 -0.98801458606E+02  0.10194604441E+03  0.00000000000E+00 0.  1.
         11    1    1    2    0    0  0.65527275457E+02  0.40672272170E+02 -0.13970828575E+03  0.15958215019E+03  0.00000000000E+00 0. -1.
</event>
<event>
 7    1  0.2766180E-009  0.1324771E+03  0.7561462E-02  0.1223826E+00
          2   -1    0    0  501    0  0.00000000000E+00  0.00000000000E+00  0.80361929903E+03  0.80361929903E+03  0.00000000000E+00 0. -1.
         -2   -1    0    0    0  501 -0.00000000000E+00 -0.00000000000E+00 -0.26198721520E+02  0.26198721520E+02  0.00000000000E+00 0.  1.
         25    2    1    2    0    0 -0.39559108759E+02 -0.97991908957E+02  0.43461466240E+03  0.46443994872E+03  0.12508886394E+03 0.  0.
          5    1    3    3  502    0 -0.32839794070E+02 -0.12072074429E+03  0.26443283944E+03  0.29256477770E+03  0.41800000000E+01 0. -1.
         -5    1    3    3    0  502 -0.67193146891E+01  0.22728835332E+02  0.17018182296E+03  0.17187517102E+03  0.41800000000E+01 0. -1.
        -11    1    1    2    0    0  0.41943476284E+01  0.71247615594E+02  0.27686815962E+03  0.28591920728E+03  0.00000000000E+00 0. -1.
         11    1    1    2    0    0  0.35364761130E+02  0.26744293363E+02  0.65937755480E+02  0.79458864546E+02  0.00000000000E+00 0.  1.
</event>
<event>
 7    1  0.2766180E-009  0.1169318E+03  0.7561462E-02  0.1248246E+00
         -1   -1    0    0    0  501 -0.00000000000E+00  0.00000000000E+00  0.10174074449E+03  0.10174074449E+03  0.00000000000E+00 0.  1.
          1   -1    0    0  501    0  0.00000000000E+00 -0.00000000000E+00 -0.24159656478E+03  0.24159656478E+03  0.00000000000E+00 0. -1.
         25    2    1    2    0    0  0.10134295694E+03 -0.47654963013E+02 -0.85957104078E+02  0.18861979040E+03  0.12508961255E+03 0.  0.
          5    1    3    3  502    0  0.34948383219E+02 -0.41183845192E+02  0.24544217904E+02  0.59475958394E+02  0.41800000000E+01 0.  1.
         -5    1    3    3    0  502  0.66394573721E+02 -0.64711178204E+01 -0.11050132198E+03  0.12914383201E+03  0.41800000000E+01 0.  1.
        -11    1    1    2    0    0 -0.66298479515E+02  0.38342772135E+02 -0.79453826591E+02  0.11035654544E+03  0.00000000000E+00 0. -1.
         11    1    1    2    0    0 -0.35044477425E+02  0.93121908772E+01  0.25555110381E+02  0.44360973428E+02  0.00000000000E+00 0.  1.
</event>
<event>
 7    1  0.2766180E-009  0.1741856E+03  0.7561462E-02  0.1173552E+00
          1   -1    0    0  501    0  0.00000000000E+00  0.00000000000E+00  0.13965473087E+03  0.13965473087E+03  0.00000000000E+00 0. -1.
         -1   -1    0    0    0  501 -0.00000000000E+00 -0.00000000000E+00 -0.27692132768E+03  0.27692132768E+03  0.00000000000E+00 0.  1.
         25    2    1    2    0    0 -0.11113031660E+03  0.11947021027E+03 -0.81721938390E+02  0.22125489648E+03  0.12510865514E+03 0.  0.
          5    1    3    3  502    0 -0.30627536360E+02 -0.10174493409E+01 -0.69140706204E+02  0.75742926013E+02  0.41800000000E+01 0.  1.
         -5    1    3    3    0  502 -0.80502780245E+02  0.12048765961E+03 -0.12581232186E+02  0.14551197047E+03  0.41800000000E+01 0.  1.
        -11    1    1    2    0    0  0.55285847984E+02 -0.20742980958E+02  0.16046734501E+02  0.61190636004E+02  0.00000000000E+00 0. -1.
         11    1    1    2    0    0  0.55844468620E+02 -0.98727229314E+02 -0.71591392918E+02  0.13413052607E+03  0.00000000000E+00 0.  1.
</event>
<event>
 7    1  0.2766180E-009  0.1163123E+03  0.7561462E-02  0.1249308E+00
          1   -1    0    0  501    0  0.00000000000E+00  0.00000000000E+00  0.62810813615E+02  0.62810813615E+02  0.00000000000E+00 0. -1.
         -1   -1    0    0    0  501 -0.00000000000E+00 -0.00000000000E+00 -0.21945489924E+03  0.21945489924E+03  0.00000000000E+00 0.  1.
         25    2    1    2    0    0 -0.41671933092E+02  0.13167950393E+02 -0.93888124082E+02  0.16239276464E+03  0.12508591143E+03 0.  0.
          5    1    3    3  502    0 -0.85713528968E+02  0.78688359617E+00 -0.69178778509E+02  0.11022977833E+03  0.41800000000E+01 0.  1.
         -5    1    3    3    0  502  0.44041595876E+02  0.12381066797E+02 -0.24709345574E+02  0.52162986312E+02  0.41800000000E+01 0.  1.
        -11    1    1    2    0    0  0.69084710620E+02 -0.21263628769E+02 -0.36130487134E+02  0.80809969993E+02  0.00000000000E+00 0. -1.
         11    1    1    2    0    0 -0.27412777528E+02  0.80956783759E+01 -0.26625474407E+02  0.39062978221E+02  0.00000000000E+00 0.  1.
</event>
<event>
 7    1  0.2766180E-009  0.1263528E+03  0.7561462E-02  0.1232970E+00
          1   -1    0    0  501    0  0.00000000000E+00  0.00000000000E+00  0.37350817445E+03  0.37350817445E+03  0.00000000000E+00 0. -1.
         -1   -1    0    0    0  501 -0.00000000000E+00 -0.00000000000E+00 -0.92836417670E+02  0.92836417670E+02  0.00000000000E+00 0.  1.
         25    2    1    2    0    0 -0.53064075268E+02 -0.10304629504E+03  0.27084358977E+02  0.17267036736E+03  0.12508860163E+03 0.  0.
          5    1    3    3  502    0 -0.43615957646E+02 -0.91533801378E+02 -0.36031060546E+02  0.10768703859E+03  0.41800000000E+01 0.  1.
         -5    1    3    3    0  502 -0.94481176216E+01 -0.11512493665E+02  0.63115419523E+02  0.64983328774E+02  0.41800000000E+01 0.  1.
        -11    1    1    2    0    0  0.17308025940E+02  0.98152984646E+02  0.12364490998E+03  0.15881322338E+03  0.00000000000E+00 0.  1.
         11    1    1    2    0    0  0.35756049328E+02  0.48933103964E+01  0.12994248783E+03  0.13486100138E+03  0.00000000000E+00 0. -1.
</event>
<event>
 6    1  0.2766180E-009  0.2116242E+03  0.7561462E-02  0.1140286E+00
          2   -1    0    0  501    0  0.00000000000E+00  0.00000000000E+00  0.19392223567E+04  0.19392223567E+04  0.00000000000E+00 0.  1.
         -2   -1    0    0    0  501 -0.00000000000E+00 -0.00000000000E+00 -0.44731594423E+02  0.44731594423E+02  0.00000000000E+00 0. -1.
          5    1    1    2  502    0  0.55039103631E+02 -0.18927957066E+02  0.16613409631E+03  0.17608401643E+03  0.41800000000E+01 0.  1.
         -5    1    1    2    0  502  0.14964219494E+03  0.24199324598E+02  0.14247812654E+04  0.14328285035E+04  0.41800000000E+01 0.  1.
        -11    1    1    2    0    0 -0.11243557980E+03  0.26807870361E+02  0.21040211359E+03  0.24006138990E+03  0.00000000000E+00 0.  1.
         11    1    1    2    0    0 -0.92245718775E+02 -0.32079237893E+02  0.93173286943E+02  0.13498004125E+03  0.00000000000E+00 0. -1.
</event>
<event>
 7    1  0.2766180E-009  0.1543627E+03  0.7561462E-02  0.1195212E+00
          1   -1    0    0  501    0  0.00000000000E+00  0.00000000000E+00  0.16469598269E+04  0.16469598269E+04  0.00000000000E+00 0. -1.
         -1   -1    0    0    0  501 -0.00000000000E+00 -0.00000000000E+00 -0.41536077113E+02  0.41536077113E+02  0.00000000000E+00 0.  1.
         25    2    1    2    0    0 -0.52802602894E+02  0.10136866047E+03  0.15007311757E+04  0.15102667263E+04  0.12509117740E+03 0.  0.
          5    1    3    3  502    0 -0.47439908501E+02 -0.14545445199E+02  0.32159373341E+03  0.32542605406E+03  0.41800000000E+01 0.  1.
         -5    1    3    3    0  502 -0.53626943924E+01  0.11591410566E+03  0.11791374423E+04  0.11848406723E+04  0.41800000000E+01 0.  1.
        -11    1    1    2    0    0 -0.17603565267E+02  0.20333898620E+01  0.54251071683E+01  0.18532457264E+02  0.00000000000E+00 0.  1.
         11    1    1    2    0    0  0.70406168161E+02 -0.10340205033E+03  0.99267466872E+02  0.15969672040E+03  0.00000000000E+00 0. -1.
</event>
<event>
 7    1  0.2766180E-009  0.8999559E+02  0.7561462E-02  0.1302862E+00
         -1   -1    0    0    0  501 -0.00000000000E+00  0.00000000000E+00  0.39604648987E+02  0.39604648987E+02  0.00000000000E+00 0.  1.
          1   -1    0    0  501    0  0.00000000000E+00 -0.00000000000E+00 -0.34701861667E+03  0.34701861667E+03  0.00000000000E+00 0. -1.
         25    2    1    2    0    0 -0.37786961488E+02 -0.22882197138E+02 -0.16256339356E+03  0.20982325018E+03  0.12508992760E+03 0.  0.
          5    1    3    3  502    0 -0.66547747962E+01 -0.48237351673E+02 -0.16225320666E+03  0.16945413419E+03  0.41800000000E+01 0. -1.
         -5    1    3    3    0  502 -0.31132186692E+02  0.25355154536E+02 -0.31018689976E+00  0.40369115988E+02  0.41800000000E+01 0. -1.
        -11    1    1    2    0    0  0.41638481629E+02 -0.21044715848E+02 -0.11344527709E+03  0.12266407017E+03  0.00000000000E+00 0. -1.
         11    1    1    2    0    0 -0.38515201410E+01  0.43926912986E+02 -0.31405297032E+02  0.54135945300E+02  0.00000000000E+00 0.  1.
</event>
<event>
 7    1  0.2766180E-009  0.2283113E+03  0.7561462E-02  0.1127834E+00
          1   -1    0    0  501    0  0.00000000000E+00  0.00000000000E+00  0.54633333762E+02  0.54633333762E+02  0.00000000000E+00 0. -1.
         -1   -1    0    0    0  501 -0.00000000000E+00 -0.00000000000E+00 -0.10134399996E+04  0.10134399996E+04  0.00000000000E+00 0.  1.
         25    2    1    2    0    0 -0.24952200549E+02  0.20572588968E+03 -0.44912433928E+03  0.51020222189E+03  0.12509149087E+03 0.  0.
          5    1    3    3  502    0  0.42244477271E+02  0.10296039472E+03 -0.14993669128E+03  0.18677238161E+03  0.41800000000E+01 0. -1.
         -5    1    3    3    0  502 -0.67196677820E+02  0.10276549496E+03 -0.29918764800E+03  0.32342984027E+03  0.41800000000E+01 0. -1.
        -11    1    1    2    0    0 -0.29765951419E+02 -0.71820977477E+02 -0.23345651436E+03  0.24606139227E+03  0.00000000000E+00 0.  1.
         11    1    1    2    0    0  0.54718151968E+02 -0.13390491220E+03 -0.27622581222E+03  0.31180971922E+03  0.00000000000E+00 0. -1.
</event>
<event>
 7    1  0.2766180E-009  0.1491025E+03  0.7561462E-02  0.1201580E+00
          1   -1    0    0  501    0  0.00000000000E+00  0.00000000000E+00  0.15865298231E+03  0.15865298231E+03  0.00000000000E+00 0.  1.
         -1   -1    0    0    0  501 -0.00000000000E+00 -0.00000000000E+00 -0.26241215351E+03  0.26241215351E+03  0.00000000000E+00 0. -1.
         25    2    1    2    0    0 -0.11707555478E+02 -0.13272799039E+03  0.58069610731E+02  0.19176077711E+03  0.12508528954E+03 0.  0.
          5    1    3    3  502    0 -0.22451454215E+02 -0.12973121321E+03  0.88760099260E+02  0.15883980326E+03  0.41800000000E+01 0.  1.
         -5    1    3    3    0  502  0.10743898737E+02 -0.29967771803E+01 -0.30690488529E+02  0.32920973857E+02  0.41800000000E+01 0.  1.
        -11    1    1    2    0    0  0.42820114219E+02  0.48083450674E+02 -0.33845421943E+02  0.72739899622E+02  0.00000000000E+00 0.  1.
         11    1    1    2    0    0 -0.31112558741E+02  0.84644539720E+02 -0.12798335998E+03  0.15656445908E+03  0.00000000000E+00 0. -1.
</event>
<event>
 7    1  0.2766180E-009  0.5374614E+02  0.7561462E-02  0.1426123E+00
          3   -1    0    0  501    0  0.00000000000E+00  0.00000000000E+00  0.16413686038E+03  0.16413686038E+03  0.00000000000E+00 0. -1.
         -3   -1    0    0    0  501 -0.00000000000E+00 -0.00000000000E+00 -0.81184086778E+02  0.81184086778E+02  0.00000000000E+00 0.  1.
         25    2    1    2    0    0 -0.39344498120E+02  0.10605120184E+02  0.46286792853E+02  0.13947171822E+03  0.12509770136E+03 0.  0.
          5    1    3    3  502    0 -0.42271124300E+02 -0.49266534484E+00  0.87079992779E+02  0.96889051038E+02  0.41800000000E+01 0. -1.
         -5    1    3    3    0  502  0.29266261797E+01  0.11097785529E+02 -0.40793199925E+02  0.42582667185E+02  0.41800000000E+01 0. -1.
        -11    1    1    2    0    0  0.26776093281E+02  0.10065713567E+02 -0.26012383511E+02  0.38664219337E+02  0.00000000000E+00 0.  1.
         11    1    1    2    0    0  0.12568404839E+02 -0.20670833752E+02  0.62678364262E+02  0.67185009599E+02  0.00000000000E+00 0. -1.
</event>
<event>
 7    1  0.2766180E-009  0.5747476E+02  0.7561462E-02  0.1408745E+00
         -2   -1    0    0    0  501 -0.00000000000E+00  0.00000000000E+00  0.19027785371E+02  0.19027785371E+02  0.00000000000E+00 0.  1.
          2   -1    0    0  501    0  0.00000000000E+00 -0.00000000000E+00 -0.71502818175E+03  0.71502818175E+03  0.00000000000E+00 0. -1.
         25    2    1    2    0    0 -0.32623975113E+02 -0.26056368339E+02 -0.44210091349E+03  0.46135069787E+03  0.12509192875E+03 0.  0.
          5    1    3    3  502    0  0.53340664175E-02 -0.22223288203E+02 -0.52088390766E+01  0.23205149677E+02  0.41800000000E+01 0. -1.
         -5    1    3    3    0  502 -0.32629309179E+02 -0.38330801361E+01 -0.43689207441E+03  0.43814554819E+03  0.41800000000E+01 0. -1.
        -11    1    1    2    0    0  0.12162664821E+02 -0.11314889408E+02 -0.14382326249E+01  0.16674101203E+02  0.00000000000E+00 0.  1.
         11    1    1    2    0    0  0.20461310292E+02  0.37371257747E+02 -0.25246125027E+03  0.25603116805E+03  0.00000000000E+00 0. -1.
</event>
<event>
 7    1  0.2766180E-009  0.1517462E+03  0.7561462E-02  0.1198344E+00
          1   -1    0    0  501    0  0.00000000000E+00  0.00000000000E+00  0.34855389668E+03  0.34855389668E+03  0.00000000000E+00 0. -1.
         -1   -1    0    0    0  501 -0.00000000000E+00 -0.00000000000E+00 -0.21304778045E+03  0.21304778045E+03  0.00000000000E+00 0.  1.
         25    2    1    2    0    0  0.23388468308E+02 -0.13468691544E+03  0.28569364065E+03  0.34052274987E+03  0.12508917311E+03 0.  0.
          5    1    3    3  502    0 -0.33607554964E+02 -0.82488700222E+02  0.22544189947E+03  0.24243633360E+03  0.41800000000E+01 0. -1.
         -5    1    3    3    0  502  0.56996023272E+02 -0.52198215213E+02  0.60251741182E+02  0.98086416265E+02  0.41800000000E+01 0. -1.
        -11    1    1    2    0    0 -0.78313913722E+01  0.67778722247E+02 -0.13420187831E+03  0.15055042352E+03  0.00000000000E+00 0.  1.
         11    1    1    2    0    0 -0.15557076936E+02  0.66908193188E+02 -0.15985646118E+02  0.70528503744E+02  0.00000000000E+00 0. -1.
</event>
<event>
 7    1  0.2766180E-009  0.1043147E+03  0.7561462E-02  0.1271476E+00
          1   -1    0    0  501    0  0.00000000000E+00  0.00000000000E+00  0.35573789715E+03  0.35573789715E+03  0.00000000000E+00 0. -1.
         -1   -1    0    0    0  501 -0.00000000000E+00 -0.00000000000E+00 -0.35477893030E+02  0.35477893030E+02  0.00000000000E+00 0.  1.
         25    2    1    2    0    0 -0.19354040450E+02 -0.11225467821E+02  0.11963892008E+03  0.17452785680E+03  0.12508361840E+03 0.  0.
          5    1    3    3  502    0  0.53425305878E+02 -0.46624487617E+01  0.47560697591E+02  0.71801769421E+02  0.41800000000E+01 0. -1.
         -5    1    3    3    0  502 -0.72779346328E+02 -0.65630190589E+01  0.72078222488E+02  0.10272608738E+03  0.41800000000E+01 0. -1.
        -11    1    1    2    0    0  0.47792643989E+02 -0.63504059400E+01  0.12649946425E+03  0.13537569549E+03  0.00000000000E+00 0. -1.
         11    1    1    2    0    0 -0.28438603539E+02  0.17575873761E+02  0.74121619792E+02  0.81312237888E+02  0.00000000000E+00 0.  1.
</event>
<event>
 7    1  0.2766180E-009  0.1136562E+03  0.7561462E-02  0.1253945E+00
         -2   -1    0    0    0  501 -0.00000000000E+00  0.00000000000E+00  0.88761342079E+02  0.88761342079E+02  0.00000000000E+00 0. -1.
          2   -1    0    0  501    0  0.00000000000E+00 -0.00000000000E+00 -0.14921859764E+03  0.14921859764E+03  0.00000000000E+00 0.  1.
         25    2    1    2    0    0  0.46407342907E+00 -0.37701886390E+02 -0.21895749390E+02  0.13247729507E+03  0.12509661173E+03 0.  0.
          5    1    3    3  502    0 -0.60142924144E+02 -0.34915897029E+02 -0.15074082978E+02  0.71281074399E+02  0.41800000000E+01 0. -1.
         -5    1    3    3    0  502  0.60606997573E+02 -0.27859893607E+01 -0.68216664112E+01  0.61196220669E+02  0.41800000000E+01 0. -1.
        -11    1    1    2    0    0  0.33482130602E+02 -0.12911646223E+02 -0.22933110951E+02  0.42587454206E+02  0.00000000000E+00 0.  1.
         11    1    1    2    0    0 -0.33946204031E+02  0.50613532613E+02 -0.15628395223E+02  0.62915190447E+02  0.00000000000E+00 0. -1.
</event>
<event>
 7    1  0.2766180E-009  0.1665449E+03  0.7561462E-02  0.1181500E+00
         -2   -1    0    0    0  501 -0.00000000000E+00  0.00000000000E+00  0.29411455052E+02  0.29411455052E+02  0.00000000000E+00 0.  1.
          2   -1    0    0  501    0  0.00000000000E+00 -0.00000000000E+00 -0.11541735591E+04  0.11541735591E+04  0.00000000000E+00 0. -1.
         25    2    1    2    0    0  0.13493648371E+03 -0.16917407827E+02 -0.74940009458E+03  0.77184372034E+03  0.12509265986E+03 0.  0.
          5    1    3    3  502    0  0.34604268773E+02 -0.48587382152E+02 -0.12427472313E+03  0.13791253870E+03  0.41800000000E+01 0. -1.
         -5    1    3    3    0  502  0.10033221494E+03  0.31669974325E+02 -0.62512537144E+03  0.63393118163E+03  0.41800000000E+01 0. -1.
        -11    1    1    2    0    0 -0.10856016473E+03 -0.31348166573E+02 -0.22837179902E+03  0.25479736164E+03  0.00000000000E+00 0.  1.
         11    1    1    2    0    0 -0.26376318976E+02  0.48265574400E+02 -0.14699021044E+03  0.15694393216E+03  0.00000000000E+00 0. -1.
</event>
<event>
 7    1  0.2766180E-009  0.1243793E+03  0.7561462E-02  0.1236043E+00
         -2   -1    0    0    0  501 -0.00000000000E+00  0.00000000000E+00  0.48556686494E+02  0.48556686494E+02  0.00000000000E+00 0.  1.
          2   -1    0    0  501    0  0.00000000000E+00 -0.00000000000E+00 -0.39899981535E+03  0.39899981535E+03  0.00000000000E+00 0. -1.
         25    2    1    2    0    0 -0.55981086314E+02  0.47360500468E+02 -0.26581412387E+03  0.30278939407E+03  0.12508944674E+03 0.  0.
          5    1    3    3  502    0  0.30231757213E+02  0.49956874215E+02 -0.11302402702E+03  0.12728531537E+03  0.41800000000E+01 0.  1.
         -5    1    3    3    0  502 -0.86212843526E+02 -0.25963737470E+01 -0.15279009686E+03  0.17550407871E+03  0.41800000000E+01 0.  1.
        -11    1    1    2    0    0  0.32185030668E+02 -0.66136586044E+02 -0.24665617672E+02  0.77577811956E+02  0.00000000000E+00 0.  1.
         11    1    1    2    0    0  0.23796055646E+02  0.18776085577E+02 -0.59963387315E+02  0.67189295815E+02  0.00000000000E+00 0. -1.
</event>
<event>
 7    1  0.2766180E-009  0.1053932E+03  0.7561462E-02  0.1269347E+00
         -3   -1    0    0    0  501 -0.00000000000E+00  0.00000000000E+00  0.64528219113E+02  0.64528219113E+02  0.00000000000E+00 0.  1.
          3   -1    0    0  501    0  0.00000000000E+00 -0.00000000000E+00 -0.27922885556E+03  0.27922885556E+03  0.00000000000E+00 0. -1.
         25    2    1    2    0    0  0.21743753228E+02  0.73250271183E+02 -0.14160589508E+03  0.20380871102E+03  0.12508944054E+03 0.  0.
          5    1    3    3  502    0 -0.33456901894E+02  0.23344385952E+02  0.30057404433E+01  0.41119721733E+02  0.41800000000E+01 0.  1.
         -5    1    3    3    0  502  0.55200655121E+02  0.49905885231E+02 -0.14461163553E+03  0.16268898929E+03  0.41800000000E+01 0.  1.
        -11    1    1    2    0    0 -0.34247645849E+02 -0.75159665303E+02 -0.19478638759E+02  0.84860437794E+02  0.00000000000E+00 0.  1.
         11    1    1    2    0    0  0.12503892622E+02  0.19093941193E+01 -0.53616102603E+02  0.55087925855E+02  0.00000000000E+00 0. -1.
</event>
<event>
 7    1  0.2766180E-009  0.1012181E+03  0.7561462E-02  0.1277755E+00
          2   -1    0    0  501    0  0.00000000000E+00  0.00000000000E+00  0.10189443857E+03  0.10189443857E+03  0.00000000000E+00 0.  1.
         -2   -1    0    0    0  501 -0.00000000000E+00 -0.00000000000E+00 -0.20800042575E+03  0.20800042575E+03  0.00000000000E+00 0. -1.
         25    2    1    2    0    0 -0.37725041154E+02 -0.10517620041E+02  0.36811255328E+02  0.13613260824E+03  0.12507285655E+03 0.  0.
          5    1    3    3  502    0 -0.53592489122E+02 -0.43834342339E+02  0.60535737748E+02  0.92063306498E+02  0.41800000000E+01 0.  1.
         -5    1    3    3    0  502  0.15867447968E+02  0.33316722297E+02 -0.23724482420E+02  0.44069301739E+02  0.41800000000E+01 0.  1.
        -11    1    1    2    0    0  0.50158090196E+02  0.39860423831E+02 -0.74314960636E+02  0.98119319069E+02  0.00000000000E+00 0.  1.
         11    1    1    2    0    0 -0.12433049042E+02 -0.29342803790E+02 -0.68602281868E+02  0.75642937015E+02  0.00000000000E+00 0. -1.
</event>
<event>
 7    1  0.2766180E-009  0.9189107E+02  0.7561462E-02  0.1298336E+00
         -1   -1    0    0    0  501 -0.00000000000E+00  0.00000000000E+00  0.58191649067E+03  0.58191649067E+03  0.00000000000E+00 0.  1.
          1   -1    0    0  501    0  0.00000000000E+00 -0.00000000000E+00 -0.30712836094E+02  0.30712836094E+02  0.00000000000E+00 0. -1.
         25    2    1    2    0    0 -0.54586146592E+02  0.39545583005E+02  0.21407936358E+03  0.25694557683E+03  0.12509018749E+03 0.  0.
          5    1    3    3  502    0 -0.64978299098E+02  0.95904208227E+01  0.34057248112E+02  0.74104818157E+02  0.41800000000E+01 0.  1.
         -5    1    3    3    0  502  0.10392152506E+02  0.29955162182E+02  0.18002211547E+03  0.18284075867E+03  0.41800000000E+01 0.  1.
        -11    1    1    2    0    0  0.58167531227E+02 -0.13523731552E+02  0.31704693159E+03  0.32262224014E+03  0.00000000000E+00 0.  1.
         11    1    1    2    0    0 -0.35813846345E+01 -0.26021851453E+02  0.20077359412E+02  0.33061509795E+02  0.00000000000E+00 0. -1.
</event>
<event>
 7    1  0.2766180E-009  0.1190731E+03  0.7561462E-02  0.1244634E+00
         -3   -1    0    0    0  501 -0.00000000000E+00  0.00000000000E+00  0.21108984963E+03  0.21108984963E+03  0.00000000000E+00 0.  1.
          3   -1    0    0  501    0  0.00000000000E+00 -0.00000000000E+00 -0.10814210088E+03  0.10814210088E+03  0.00000000000E+00 0. -1.
         25    2    1    2    0    0 -0.61016628147E+02 -0.82366298086E+02  0.75504810886E+02  0.17848157788E+03  0.12508981256E+03 0.  0.
          5    1    3    3  502    0 -0.36707344512E+02 -0.80872385856E+02 -0.10005139962E+02  0.89472605645E+02  0.41800000000E+01 0.  1.
         -5    1    3    3    0  502 -0.24309283635E+02 -0.14939122293E+01  0.85509950848E+02  0.89008972237E+02  0.41800000000E+01 0.  1.
        -11    1    1    2    0    0  0.34290196290E+02 -0.36187567707E+01  0.36550613698E+02  0.50247988258E+02  0.00000000000E+00 0.  1.
         11    1    1    2    0    0  0.26726431857E+02  0.85985054856E+02 -0.91076758349E+01  0.90502384375E+02  0.00000000000E+00 0. -1.
</event>
<event>
 7    1  0.2766180E-009  0.1961880E+03  0.7561462E-02  0.1152996E+00
         -2   -1    0    0    0  501 -0.00000000000E+00  0.00000000000E+00  0.24170953421E+02  0.24170953421E+02  0.00000000000E+00 0. -1.
          2   -1    0    0  501    0  0.00000000000E+00 -0.00000000000E+00 -0.18890740576E+04  0.18890740576E+04  0.00000000000E+00 0.  1.
         25    2    1    2    0    0  0.13119790838E+03 -0.12685894628E+03 -0.86726294866E+03  0.89504112306E+03  0.12508999331E+03 0.  0.
          5    1    3    3  502    0  0.11674460195E+03 -0.13244926787E+03 -0.55621264664E+03  0.58357697978E+03  0.41800000000E+01 0.  1.
         -5    1    3    3    0  502  0.14453306431E+02  0.55903215810E+01 -0.31105030202E+03  0.31146414328E+03  0.41800000000E+01 0.  1.
        -11    1    1    2    0    0 -0.32258435757E+02 -0.72505480673E+01 -0.10310174982E+03  0.10827348678E+03  0.00000000000E+00 0.  1.
         11    1    1    2    0    0 -0.98939472628E+02  0.13410949435E+03 -0.89453840567E+03  0.90993040115E+03  0.00000000000E+00 0. -1.
</event>
<event>
 7    1  0.2766180E-009  0.9173734E+02  0.7561462E-02  0.1298698E+00
          2   -1    0    0  501    0  0.00000000000E+00  0.00000000000E+00  0.73239015351E+02  0.73239015351E+02  0.00000000000E+00 0. -1.
         -2   -1    0    0    0  501 -0.00000000000E+00 -0.00000000000E+00 -0.15966478510E+03  0.15966478510E+03  0.00000000000E+00 0.  1.
         25    2    1    2    0    0  0.72876408739E+01 -0.11000548884E+02 -0.50613459492E+02  0.13558617317E+03  0.12509103200E+03 0.  0.
          5    1    3    3  502    0 -0.66205758901E+01  0.39854953902E+02  0.21657533172E+02  0.46030104483E+02  0.41800000000E+01 0.  1.
         -5    1    3    3    0  502  0.13908216764E+02 -0.50855502786E+02 -0.72270992664E+02  0.89556068682E+02  0.41800000000E+01 0.  1.
        -11    1    1    2    0    0  0.42788615935E+00 -0.39188466753E+02 -0.20788759832E+02  0.44363177844E+02  0.00000000000E+00 0.  1.
         11    1    1    2    0    0 -0.77155270333E+01  0.50189015637E+02 -0.15023550420E+02  0.52954449438E+02  0.00000000000E+00 0. -1.
</event>
<event>
 7    1  0.2766180E-009  0.9417811E+02  0.7561462E-02  0.1293038E+00
         -3   -1    0    0    0  501 -0.00000000000E+00  0.00000000000E+00  0.31656922224E+03  0.31656922224E+03  0.00000000000E+00 0.  1.
          3   -1    0    0  501    0  0.00000000000E+00 -0.00000000000E+00 -0.68009808385E+02  0.68009808385E+02  0.00000000000E+00 0. -1.
         25    2    1    2    0    0  0.55883139323E+01  0.56588824430E+02  0.30703657958E+02  0.14080120706E+03  0.12509492793E+03 0.  0.
          5    1    3    3  502    0  0.31931245515E+02  0.58865517477E+02  0.67580080664E+02  0.95232837249E+02  0.41800000000E+01 0. -1.
         -5    1    3    3    0  502 -0.26342931582E+02 -0.22766930463E+01 -0.36876422706E+02  0.45568369810E+02  0.41800000000E+01 0. -1.
        -11    1    1    2    0    0 -0.40120917833E+02 -0.38046640579E+02  0.18352389025E+03  0.19167225464E+03  0.00000000000E+00 0.  1.
         11    1    1    2    0    0  0.34532603901E+02 -0.18542183852E+02  0.34331865648E+02  0.52105568925E+02  0.00000000000E+00 0. -1.
</event>
<event>
 7    1  0.2766180E-009  0.1156145E+03  0.7561462E-02  0.1250512E+00
          2   -1    0    0  501    0  0.00000000000E+00  0.00000000000E+00  0.80969530537E+03  0.80969530537E+03  0.00000000000E+00 0. -1.
         -2   -1    0    0    0  501 -0.00000000000E+00 -0.00000000000E+00 -0.25847397227E+02  0.25847397227E+02  0.00000000000E+00 0.  1.
         25    2    1    2    0    0 -0.38760155145E+02  0.65305521306E+02  0.26502802582E+03  0.30274556693E+03  0.12509141890E+03 0.  0.
          5    1    3    3  502    0 -0.15454881924E+01  0.75292679394E+02  0.66763805943E+02  0.10072861703E+03  0.41800000000E+01 0. -1.
         -5    1    3    3    0  502 -0.37214666953E+02 -0.99871580881E+01  0.19826421988E+03  0.20201694990E+03  0.41800000000E+01 0. -1.
        -11    1    1    2    0    0  0.67376638915E+02 -0.37325886497E+02  0.40197463624E+03  0.40928772454E+03  0.00000000000E+00 0.  1.
         11    1    1    2    0    0 -0.28616483770E+02 -0.27979634809E+02  0.11684524608E+03  0.12350941114E+03  0.00000000000E+00 0. -1.
</event>
<event>
 7    1  0.2766180E-009  0.3440594E+03  0.7561462E-02  0.1065080E+00
          2   -1    0    0  501    0  0.00000000000E+00  0.00000000000E+00  0.10916267124E+04  0.10916267124E+04  0.00000000000E+00 0. -1.
         -2   -1    0    0    0  501 -0.00000000000E+00 -0.00000000000E+00 -0.11720578205E+03  0.11720578205E+03  0.00000000000E+00 0.  1.
         25    2    1    2    0    0 -0.29824166236E+03  0.14569407165E+03  0.62276777140E+03  0.71670182101E+03  0.12508777504E+03 0.  0.
          5    1    3    3  502    0 -0.18672316238E+03  0.15500129252E+03  0.42269760698E+03  0.48742351133E+03  0.41800000000E+01 0. -1.
         -5    1    3    3    0  502 -0.11151849998E+03 -0.93072208763E+01  0.20007016442E+03  0.22927830968E+03  0.41800000000E+01 0. -1.
        -11    1    1    2    0    0  0.25251723437E+03 -0.11008733309E+03  0.33093969313E+03  0.43058710507E+03  0.00000000000E+00 0. -1.
         11    1    1    2    0    0  0.45724427987E+02 -0.35606738553E+02  0.20713465855E+02  0.61543568412E+02  0.00000000000E+00 0.  1.
</event>
<event>
 7    1  0.2766180E-009  0.1539348E+03  0.7561462E-02  0.1195720E+00
          1   -1    0    0  501    0  0.00000000000E+00  0.00000000000E+00  0.22016020084E+04  0.22016020084E+04  0.00000000000E+00 0. -1.
         -1   -1    0    0    0  501 -0.00000000000E+00 -0.00000000000E+00 -0.11715927723E+02  0.11715927723E+02  0.00000000000E+00 0.  1.
         25    2    1    2    0    0 -0.12161216986E+03  0.12612954389E+01  0.13929779618E+04  0.14038609538E+04  0.12508742801E+03 0.  0.
          5    1    3    3  502    0 -0.11555432676E+02 -0.45107408842E+02  0.22628023437E+03  0.23105935000E+03  0.41800000000E+01 0.  1.
         -5    1    3    3    0  502 -0.11005673718E+03  0.46368704281E+02  0.11666977275E+04  0.11728016038E+04  0.41800000000E+01 0.  1.
        -11    1    1    2    0    0  0.37631723044E+02 -0.34736432888E+02  0.26106256400E+03  0.26603839698E+03  0.00000000000E+00 0.  1.
         11    1    1    2    0    0  0.83980446812E+02  0.33475137450E+02  0.53584555485E+03  0.54341858537E+03  0.00000000000E+00 0. -1.
</event>
<event>
 7    1  0.2766180E-009  0.8205250E+02  0.7561462E-02  0.1323326E+00
         -2   -1    0    0    0  501 -0.00000000000E+00  0.00000000000E+00  0.33581338415E+03  0.33581338415E+03  0.00000000000E+00 0.  1.
          2   -1    0    0  501    0  0.00000000000E+00 -0.00000000000E+00 -0.41650398696E+02  0.41650398696E+02  0.00000000000E+00 0. -1.
         25    2    1    2    0    0 -0.22848087681E+02 -0.36428009567E+02  0.19947527672E+03  0.23934783893E+03  0.12509183420E+03 0.  0.
          5    1    3    3  502    0  0.15889120611E+02  0.13681092884E+02 -0.76556806343E+01  0.22709432011E+02  0.41800000000E+01 0. -1.
         -5    1    3    3    0  502 -0.38737208292E+02 -0.50109102451E+02  0.20713095736E+03  0.21663840692E+03  0.41800000000E+01 0. -1.
        -11    1    1    2    0    0 -0.42293248878E+01 -0.17983497130E+02 -0.69125437460E+01  0.19725025198E+02  0.00000000000E+00 0. -1.
         11    1    1    2    0    0  0.27077412569E+02  0.54411506697E+02  0.10160025247E+03  0.11839091872E+03  0.00000000000E+00 0.  1.
</event>
<event>
 7    1  0.2766180E-009  0.1354437E+03  0.7561462E-02  0.1219595E+00
         -2   -1    0    0    0  501 -0.00000000000E+00  0.00000000000E+00  0.60778582935E+02  0.60778582935E+02  0.00000000000E+00 0. -1.
          2   -1    0    0  501    0  0.00000000000E+00 -0.00000000000E+00 -0.38682004540E+03  0.38682004540E+03  0.00000000000E+00 0.  1.
         25    2    1    2    0    0 -0.77046118637E+02 -0.69221585971E+02 -0.13469676547E+03  0.21099335628E+03  0.12508894997E+03 0.  0.
          5    1    3    3  502    0  0.18313535449E+02 -0.11226096157E+02  0.13280036745E+02  0.25597706763E+02  0.41800000000E+01 0.  1.
         -5    1    3    3    0  502 -0.95359654086E+02 -0.57995489814E+02 -0.14797680221E+03  0.18539564952E+03  0.41800000000E+01 0.  1.
        -11    1    1    2    0    0  0.15955775458E+02  0.74319033985E+02 -0.12480944447E+03  0.14613453737E+03  0.00000000000E+00 0. -1.
         11    1    1    2    0    0  0.61090343179E+02 -0.50974480149E+01 -0.66535252525E+02  0.90470734686E+02  0.00000000000E+00 0.  1.
</event>
<event>
 7    1  0.2766180E-009  0.1445499E+03  0.7561462E-02  0.1207335E+00
          1   -1    0    0  501    0  0.00000000000E+00  0.00000000000E+00  0.21039369466E+02  0.21039369466E+02  0.00000000000E+00 0. -1.
         -1   -1    0    0    0  501 -0.00000000000E+00 -0.00000000000E+00 -0.10552689783E+04  0.10552689783E+04  0.00000000000E+00 0.  1.
         25    2    1    2    0    0  0.70955971793E+02 -0.70237815058E+02 -0.55652115222E+03  0.57907806505E+03  0.12509001542E+03 0.  0.
          5    1    3    3  502    0  0.21336868787E+02 -0.95397676119E+02 -0.27014717421E+03  0.28732028594E+03  0.41800000000E+01 0. -1.
         -5    1    3    3    0  502  0.49619103006E+02  0.25159861060E+02 -0.28637397800E+03  0.29175777911E+03  0.41800000000E+01 0. -1.
        -11    1    1    2    0    0  0.10770597206E+02  0.50167401477E+02 -0.13731863397E+03  0.14659188644E+03  0.00000000000E+00 0.  1.
         11    1    1    2    0    0 -0.81726568999E+02  0.20070413582E+02 -0.34038982268E+03  0.35063839631E+03  0.00000000000E+00 0. -1.
</event>
<event>
 7    1  0.2766180E-009  0.1991987E+03  0.7561462E-02  0.1150417E+00
         -2   -1    0    0    0  501 -0.00000000000E+00  0.00000000000E+00  0.42420580362E+02  0.42420580362E+02  0.00000000000E+00 0. -1.
          2   -1    0    0  501    0  0.00000000000E+00 -0.00000000000E+00 -0.11784459675E+04  0.11784459675E+04  0.00000000000E+00 0.  1.
         25    2    1    2    0    0 -0.63225701873E+02  0.17112562113E+03 -0.77364005758E+03  0.80464335440E+03  0.12510204436E+03 0.  0.
          5    1    3    3  502    0 -0.75478236463E+02  0.42563736634E+02 -0.39976747844E+03  0.40907229810E+03  0.41800000000E+01 0. -1.
         -5    1    3    3    0  502  0.12252534590E+02  0.12856188449E+03 -0.37387257915E+03  0.39557105630E+03  0.41800000000E+01 0. -1.
        -11    1    1    2    0    0  0.50892740783E+02 -0.13763291275E+03 -0.34812571327E+03  0.37778883252E+03  0.00000000000E+00 0.  1.
         11    1    1    2    0    0  0.12332961090E+02 -0.33492708375E+02 -0.14259616272E+02  0.38434360926E+02  0.00000000000E+00 0. -1.
</event>
<event>
 7    1  0.2766180E-009  0.8450459E+02  0.7561462E-02  0.1316733E+00
          2   -1    0    0  501    0  0.00000000000E+00  0.00000000000E+00  0.43280883262E+03  0.43280883262E+03  0.00000000000E+00 0. -1.
         -2   -1    0    0    0  501 -0.00000000000E+00 -0.00000000000E+00 -0.39606547469E+02  0.39606547469E+02  0.00000000000E+00 0.  1.
         25    2    1    2    0    0 -0.37492682953E+02  0.40986635673E+02  0.13641423774E+03  0.19325599380E+03  0.12511366553E+03 0.  0.
          5    1    3    3  502    0  0.25077605347E+01 -0.58019618010E+01 -0.21990583462E+02  0.23259617035E+02  0.41800000000E+01 0. -1.
         -5    1    3    3    0  502 -0.40000443487E+02  0.46788597474E+02  0.15840482120E+03  0.16999637676E+03  0.41800000000E+01 0. -1.
        -11    1    1    2    0    0  0.28233602650E+02  0.22172214418E+02  0.15427259033E+03  0.15839436713E+03  0.00000000000E+00 0.  1.
         11    1    1    2    0    0  0.92590803030E+01 -0.63158850091E+02  0.10251545709E+03  0.12076501917E+03  0.00000000000E+00 0. -1.
</event>
<event>
 7    1  0.2766180E-009  0.9253963E+02  0.7561462E-02  0.1296816E+00
          2   -1    0    0  501    0  0.00000000000E+00  0.00000000000E+00  0.71164653901E+03  0.71164653901E+03  0.00000000000E+00 0. -1.
         -2   -1    0    0    0  501 -0.00000000000E+00 -0.00000000000E+00 -0.13699031561E+02  0.13699031561E+02  0.00000000000E+00 0.  1.
         25    2    1    2    0    0 -0.85914873959E+01  0.28238671386E+02  0.43472261630E+03  0.45332552854E+03  0.12509614496E+03 0.  0.
          5    1    3    3  502    0 -0.33058713588E+02  0.66138666405E+02  0.34445770865E+03  0.35232908933E+03  0.41800000000E+01 0. -1.
         -5    1    3    3    0  502  0.24467226192E+02 -0.37899995019E+02  0.90264907645E+02  0.10099643921E+03  0.41800000000E+01 0. -1.
        -11    1    1    2    0    0 -0.18644256817E+02  0.80797070684E+01  0.49148444066E+02  0.53183263652E+02  0.00000000000E+00 0.  1.
         11    1    1    2    0    0  0.27235744213E+02 -0.36318378454E+02  0.21407644708E+03  0.21883677838E+03  0.00000000000E+00 0. -1.
</event>
<event>
 7    1  0.2766180E-009  0.6208873E+02  0.7561462E-02  0.1389270E+00
         -2   -1    0    0    0  501 -0.00000000000E+00  0.00000000000E+00  0.57618906263E+02  0.57618906263E+02  0.00000000000E+00 0. -1.
          2   -1    0    0  501    0  0.00000000000E+00 -0.00000000000E+00 -0.24172459327E+03  0.24172459327E+03  0.00000000000E+00 0.  1.
         25    2    1    2    0    0 -0.16047944629E+02 -0.25789940365E+02 -0.15058208410E+03  0.19810105183E+03  0.12508559123E+03 0.  0.
          5    1    3    3  502    0 -0.33366683967E+02  0.94027633765E+01 -0.15456048586E+03  0.15845555764E+03  0.41800000000E+01 0.  1.
         -5    1    3    3    0  502  0.17318739337E+02 -0.35192703741E+02  0.39784017585E+01  0.39645494188E+02  0.41800000000E+01 0.  1.
        -11    1    1    2    0    0 -0.13048359708E+02  0.46601570989E+01  0.27282590580E+02  0.30599289273E+02  0.00000000000E+00 0. -1.
         11    1    1    2    0    0  0.29096304337E+02  0.21129783266E+02 -0.60806193488E+02  0.70643158433E+02  0.00000000000E+00 0.  1.
</event>
<event>
 7    1  0.2766180E-009  0.9952712E+02  0.7561462E-02  0.1281293E+00
          1   -1    0    0  501    0  0.00000000000E+00  0.00000000000E+00  0.41020814990E+02  0.41020814990E+02  0.00000000000E+00 0. -1.
         -1   -1    0    0    0  501 -0.00000000000E+00 -0.00000000000E+00 -0.34956035005E+03  0.34956035005E+03  0.00000000000E+00 0.  1.
         25    2    1    2    0    0  0.25355488315E+02  0.31767087990E+02 -0.22940932237E+03  0.26443943564E+03  0.12509008461E+03 0.  0.
          5    1    3    3  502    0  0.64771715699E+02  0.16997640696E+02 -0.60599015855E+02  0.90410221028E+02  0.41800000000E+01 0.  1.
         -5    1    3    3    0  502 -0.39416227384E+02  0.14769447293E+02 -0.16881030651E+03  0.17402921461E+03  0.41800000000E+01 0.  1.
        -11    1    1    2    0    0  0.46342610844E+01  0.25016974342E+02 -0.16319935362E+01  0.25494877602E+02  0.00000000000E+00 0. -1.
         11    1    1    2    0    0 -0.29989749399E+02 -0.56784062332E+02 -0.77498219162E+02  0.10064685180E+03  0.00000000000E+00 0.  1.
</event>
<event>
 7    1  0.2766180E-009  0.1096937E+03  0.7561462E-02  0.1261138E+00
         -1   -1    0    0    0  501 -0.00000000000E+00  0.00000000000E+00  0.26045515058E+02  0.26045515058E+02  0.00000000000E+00 0.  1.
          1   -1    0    0  501    0  0.00000000000E+00 -0.00000000000E+00 -0.63286836590E+03  0.63286836590E+03  0.00000000000E+00 0. -1.
         25    2    1    2    0    0  0.27289470102E+02 -0.42612739733E+02 -0.22430475503E+03  0.26176002372E+03  0.12508047858E+03 0.  0.
          5    1    3    3  502    0  0.59057236725E+02  0.14794772342E+01 -0.45074363135E+02  0.74425242187E+02  0.41800000000E+01 0.  1.
         -5    1    3    3    0  502 -0.31767766623E+02 -0.44092216967E+02 -0.17923039189E+03  0.18733478153E+03  0.41800000000E+01 0.  1.
        -11    1    1    2    0    0 -0.61321976888E+02  0.18858099196E+02 -0.20281105574E+03  0.21271656514E+03  0.00000000000E+00 0. -1.
         11    1    1    2    0    0  0.34032506785E+02  0.23754640536E+02 -0.17970704008E+03  0.18443729210E+03  0.00000000000E+00 0.  1.
</event>
<event>
 7    1  0.2766180E-009  0.1123138E+03  0.7561462E-02  0.1256344E+00
         -1   -1    0    0    0  501 -0.00000000000E+00  0.00000000000E+00  0.74209751092E+02  0.74209751092E+02  0.00000000000E+00 0.  1.
          1   -1    0    0  501    0  0.00000000000E+00 -0.00000000000E+00 -0.23270422740E+03  0.23270422740E+03  0.00000000000E+00 0. -1.
         25    2    1    2    0    0 -0.63088498040E+02  0.27204467136E+02 -0.54138964825E+02  0.15263810501E+03  0.12508845658E+03 0.  0.
          5    1    3    3  502    0 -0.65788929958E+02 -0.27450995320E+02 -0.65149849225E+02  0.96662897242E+02  0.41800000000E+01 0.  1.
         -5    1    3    3    0  502  0.27004319182E+01  0.54655462457E+02  0.11010884401E+02  0.55975207764E+02  0.41800000000E+01 0.  1.
        -11    1    1    2    0    0  0.53242584182E+01 -0.39016132278E+02 -0.63272201845E+01  0.39882828647E+02  0.00000000000E+00 0.  1.
         11    1    1    2    0    0  0.57764239621E+02  0.11811665142E+02 -0.98028291299E+02  0.11439304484E+03  0.00000000000E+00 0. -1.
</event>
<event>
 7    1  0.2766180E-009  0.9655742E+02  0.7561462E-02  0.1287706E+00
         -2   -1    0    0    0  501 -0.00000000000E+00  0.00000000000E+00  0.37958339896E+02  0.37958339896E+02  0.00000000000E+00 0.  1.
          2   -1    0    0  501    0  0.00000000000E+00 -0.00000000000E+00 -0.31227296377E+03  0.31227296377E+03  0.00000000000E+00 0. -1.
         25    2    1    2    0    0 -0.73920904800E+01  0.28828833727E+01 -0.15353625401E+03  0.19820123699E+03  0.12508954805E+03 0.  0.
          5    1    3    3  502    0 -0.54095372443E+02  0.11931879903E+02 -0.24695433059E+02  0.60794867314E+02  0.41800000000E+01 0.  1.
         -5    1    3    3    0  502  0.46703281963E+02 -0.90489965303E+01 -0.12884082095E+03  0.13740636967E+03  0.41800000000E+01 0.  1.
        -11    1    1    2    0    0 -0.19077671126E+02  0.37180089427E+02 -0.38800687249E+02  0.57024643062E+02  0.00000000000E+00 0.  1.
         11    1    1    2    0    0  0.26469761606E+02 -0.40062972800E+02 -0.81977682621E+02  0.95005423619E+02  0.00000000000E+00 0. -1.
</event>
<event>
 7    1  0.2766180E-009  0.8690667E+02  0.7561462E-02  0.1310520E+00
          1   -1    0    0  501    0  0.00000000000E+00  0.00000000000E+00  0.12246180041E+03  0.12246180041E+03  0.00000000000E+00 0. -1.
         -1   -1    0    0    0  501 -0.00000000000E+00 -0.00000000000E+00 -0.98942015222E+02  0.98942015222E+02  0.00000000000E+00 0.  1.
         25    2    1    2    0    0  0.79695876429E+01 -0.24577247558E+02  0.80844995207E+01  0.12798426709E+03  0.12508820114E+03 0.  0.
          5    1    3    3  502    0  0.44234120388E+02 -0.84318393533E+01 -0.43507108074E+02  0.62754236306E+02  0.41800000000E+01 0. -1.
         -5    1    3    3    0  502 -0.36264532745E+02 -0.16145408204E+02  0.51591607594E+02  0.65230030779E+02  0.41800000000E+01 0. -1.
        -11    1    1    2    0    0 -0.46552082950E+02  0.15159275704E+02 -0.41573704098E+01  0.49134344359E+02  0.00000000000E+00 0. -1.
         11    1    1    2    0    0  0.38582495307E+02  0.94179718535E+01  0.19592656081E+02  0.44285204191E+02  0.00000000000E+00 0.  1.
</event>
<event>
 7    1  0.2766180E-009  0.1151137E+03  0.7561462E-02  0.1251383E+00
          2   -1    0    0  501    0  0.00000000000E+00  0.00000000000E+00  0.27535747532E+03  0.27535747532E+03  0.00000000000E+00 0. -1.
         -2   -1    0    0    0  501 -0.00000000000E+00 -0.00000000000E+00 -0.73145490939E+02  0.73145490939E+02  0.00000000000E+00 0.  1.
         25    2    1    2    0    0  0.26980661868E+02 -0.72004122016E+02  0.49473495304E+02  0.15494366114E+03  0.12508941477E+03 0.  0.
          5    1    3    3  502    0 -0.29386096786E+02 -0.19943570779E+02 -0.28305619587E+02  0.45606679334E+02  0.41800000000E+01 0. -1.
         -5    1    3    3    0  502  0.56366758654E+02 -0.52060551237E+02  0.77779114890E+02  0.10933698180E+03  0.41800000000E+01 0. -1.
        -11    1    1    2    0    0 -0.11847720733E+01 -0.21038286596E+02  0.17497225303E+02  0.27389159919E+02  0.00000000000E+00 0.  1.
         11    1    1    2    0    0 -0.25795889794E+02  0.93042408612E+02  0.13524126378E+03  0.16617014521E+03  0.00000000000E+00 0. -1.
</event>
<event>
 7    1  0.2766180E-009  0.8815160E+02  0.7561462E-02  0.1307391E+00
          1   -1    0    0  501    0  0.00000000000E+00  0.00000000000E+00  0.23507892689E+02  0.23507892689E+02  0.00000000000E+00 0. -1.
         -1   -1    0    0    0  501 -0.00000000000E+00 -0.00000000000E+00 -0.68594744426E+03  0.68594744426E+03  0.00000000000E+00 0.  1.
         25    2    1    2    0    0  0.23806770711E+02  0.60606936582E+02 -0.40704163654E+03  0.43077923322E+03  0.12509152971E+03 0.  0.
          5    1    3    3  502    0 -0.34525316330E+01  0.72435144265E+01 -0.34246442441E+03  0.34258392091E+03  0.41800000000E+01 0. -1.
         -5    1    3    3    0  502  0.27259302344E+02  0.53363422156E+02 -0.64577212131E+02  0.88195312319E+02  0.41800000000E+01 0. -1.
        -11    1    1    2    0    0  0.30103156249E+02 -0.38619260084E+02 -0.79262409179E+02  0.93167466288E+02  0.00000000000E+00 0.  1.
         11    1    1    2    0    0 -0.53909926960E+02 -0.21987676499E+02 -0.17613550585E+03  0.18550863744E+03  0.00000000000E+00 0. -1.
</event>
<event>
 7    1  0.2766180E-009  0.1119987E+03  0.7561462E-02  0.1256913E+00
          1   -1    0    0  501    0  0.00000000000E+00  0.00000000000E+00  0.12092889814E+03  0.12092889814E+03  0.00000000000E+00 0. -1.
         -1   -1    0    0    0  501 -0.00000000000E+00 -0.00000000000E+00 -0.12701937234E+03  0.12701937234E+03  0.00000000000E+00 0.  1.
         25    2    1    2    0    0  0.49492635217E+02 -0.19950363522E+02 -0.34725975993E+02  0.14034643569E+03  0.12507474028E+03 0.  0.
          5    1    3    3  502    0  0.88472998228E+02 -0.42508757817E+01 -0.52158574216E+01  0.88826904308E+02  0.41800000000E+01 0. -1.
         -5    1    3    3    0  502 -0.38980363010E+02 -0.15699487741E+02 -0.29510118571E+02  0.51519531382E+02  0.41800000000E+01 0. -1.
        -11    1    1    2    0    0  0.20635373331E+02  0.69215311303E+01  0.29017039166E+02  0.36272783015E+02  0.00000000000E+00 0. -1.
         11    1    1    2    0    0 -0.70128008548E+02  0.13028832392E+02 -0.38153738229E+00  0.71329051775E+02  0.00000000000E+00 0.  1.
</event>
<event>
 7    1  0.2927318E-009  0.2678149E+03  0.7561462E-02  0.1102537E+00
         -2   -1    0    0    0  501 -0.00000000000E+00  0.00000000000E+00  0.49720633850E+02  0.49720633850E+02  0.00000000000E+00 0.  1.
          2   -1    0    0  501    0  0.00000000000E+00 -0.00000000000E+00 -0.17551903368E+04  0.17551903368E+04  0.00000000000E+00 0. -1.
         25    2    1    2    0    0  0.10844168288E+03  0.23991173878E+03 -0.11066578745E+04  0.11444022662E+04  0.12509058601E+03 0.  0.
          5    1    3    3  502    0  0.28292120918E+02  0.57550362140E+02 -0.53852063430E+03  0.54234162136E+03  0.41800000000E+01 0. -1.
         -5    1    3    3    0  502  0.80149561967E+02  0.18236137664E+03 -0.56813724023E+03  0.60206064488E+03  0.41800000000E+01 0. -1.
        -11    1    1    2    0    0 -0.74335116867E+02 -0.82457206355E+02 -0.17651539681E+03  0.20852478460E+03  0.00000000000E+00 0. -1.
         11    1    1    2    0    0 -0.34106566018E+02 -0.15745453242E+03 -0.42229643158E+03  0.45198391979E+03  0.00000000000E+00 0.  1.
</event>
<event>
 7    1  0.2766180E-009  0.1489220E+03  0.7561462E-02  0.1201804E+00
          1   -1    0    0  501    0  0.00000000000E+00  0.00000000000E+00  0.43158371066E+03  0.43158371066E+03  0.00000000000E+00 0. -1.
         -1   -1    0    0    0  501 -0.00000000000E+00 -0.00000000000E+00 -0.66498841410E+02  0.66498841410E+02  0.00000000000E+00 0.  1.
         25    2    1    2    0    0  0.92422393426E+02  0.86199076246E+02  0.24080878229E+03  0.29934747346E+03  0.12509140933E+03 0.  0.
          5    1    3    3  502    0  0.33134660062E+02  0.10048798652E+03  0.19858543924E+03  0.22505419394E+03  0.41800000000E+01 0.  1.
         -5    1    3    3    0  502  0.59287733364E+02 -0.14288910271E+02  0.42223343051E+02  0.74293279525E+02  0.41800000000E+01 0.  1.
        -11    1    1    2    0    0 -0.79173606712E+02 -0.53535067602E+02  0.33366876552E+02  0.10123147689E+03  0.00000000000E+00 0.  1.
         11    1    1    2    0    0 -0.13248786714E+02 -0.32664008644E+02  0.90909210407E+02  0.97503601713E+02  0.00000000000E+00 0. -1.
</event>
<event>
 7    1  0.2766180E-009  0.1408572E+03  0.7561462E-02  0.1212180E+00
          2   -1    0    0  501    0  0.00000000000E+00  0.00000000000E+00  0.46275703587E+03  0.46275703587E+03  0.00000000000E+00 0. -1.
         -2   -1    0    0    0  501 -0.00000000000E+00 -0.00000000000E+00 -0.64336128887E+02  0.64336128887E+02  0.00000000000E+00 0.  1.
         25    2    1    2    0    0 -0.11268797258E+03 -0.38616108529E+02  0.30763529022E+03  0.35281286829E+03  0.12509062812E+03 0.  0.
          5    1    3    3  502    0 -0.50733712503E+02 -0.74301464792E+02  0.10747040683E+03  0.14022117529E+03  0.41800000000E+01 0. -1.
         -5    1    3    3    0  502 -0.61954260079E+02  0.35685356263E+02  0.20016488338E+03  0.21259169300E+03  0.41800000000E+01 0. -1.
        -11    1    1    2    0    0  0.27989852528E+02  0.16497395157E+02 -0.15986836629E+02  0.36210148259E+02  0.00000000000E+00 0.  1.
         11    1    1    2    0    0  0.84698120054E+02  0.22118713371E+02  0.10677245340E+03  0.13807014821E+03  0.00000000000E+00 0. -1.
</event>
<event>
 7    1  0.2969728E-009  0.7325898E+02  0.7561462E-02  0.1349349E+00
         -2   -1    0    0    0  501 -0.00000000000E+00  0.00000000000E+00  0.97984287963E+01  0.97984287963E+01  0.00000000000E+00 0.  1.
          2   -1    0    0  501    0  0.00000000000E+00 -0.00000000000E+00 -0.13003230598E+04  0.13003230598E+04  0.00000000000E+00 0. -1.
         25    2    1    2    0    0  0.18057782093E+02  0.22706441223E+02 -0.79094875310E+03  0.80130472383E+03  0.12509062486E+03 0.  0.
          5    1    3    3  502    0 -0.12533176284E+02  0.33821067356E+01 -0.73121151631E+03  0.73133868565E+03  0.41800000000E+01 0. -1.
         -5    1    3    3    0  502  0.30590958378E+02  0.19324334488E+02 -0.59737236792E+02  0.69966038172E+02  0.41800000000E+01 0. -1.
        -11    1    1    2    0    0 -0.46791489159E+02 -0.41150450421E+02 -0.31296408798E+03  0.31910707199E+03  0.00000000000E+00 0.  1.
         11    1    1    2    0    0  0.28733707066E+02  0.18444009197E+02 -0.18661178994E+03  0.18970969280E+03  0.00000000000E+00 0. -1.
</event>
<event>
 7    1  0.2766180E-009  0.1369283E+03  0.7561462E-02  0.1217523E+00
         -1   -1    0    0    0  501 -0.00000000000E+00  0.00000000000E+00  0.41901225316E+03  0.41901225316E+03  0.00000000000E+00 0.  1.
          1   -1    0    0  501    0  0.00000000000E+00 -0.00000000000E+00 -0.49267003122E+02  0.49267003122E+02  0.00000000000E+00 0. -1.
         25    2    1    2    0    0 -0.17820766865E+02  0.85627797440E+02  0.26020953602E+03  0.30167060759E+03  0.12508578425E+03 0.  0.
          5    1    3    3  502    0 -0.18165883361E+02  0.11825219754E+03  0.20183144381E+03  0.23466355843E+03  0.41800000000E+01 0. -1.
         -5    1    3    3    0  502  0.34511649530E+00 -0.32624400104E+02  0.58378092213E+02  0.67007049166E+02  0.41800000000E+01 0. -1.
        -11    1    1    2    0    0  0.40006952686E+02 -0.83728000550E+01  0.17630754184E+02  0.44514082458E+02  0.00000000000E+00 0.  1.
         11    1    1    2    0    0 -0.22186185821E+02 -0.77254997385E+02  0.91904959830E+02  0.12209456623E+03  0.00000000000E+00 0. -1.
</event>
<event>
 7    1  0.2766180E-009  0.4417157E+03  0.7561462E-02  0.1030222E+00
          2   -1    0    0  501    0  0.00000000000E+00  0.00000000000E+00  0.18541531943E+04  0.18541531943E+04  0.00000000000E+00 0. -1.
         -2   -1    0    0    0  501 -0.00000000000E+00 -0.00000000000E+00 -0.11607193768E+03  0.11607193768E+03  0.00000000000E+00 0.  1.
         25    2    1    2    0    0  0.25967969083E+03  0.35411620682E+03  0.65617283239E+03  0.79939884375E+03  0.12507555982E+03 0.  0.
          5    1    3    3  502    0  0.84567697207E+02  0.13646396591E+03  0.34899418623E+03  0.38417251831E+03  0.41800000000E+01 0. -1.
         -5    1    3    3    0  502  0.17511199362E+03  0.21765224091E+03  0.30717864616E+03  0.41522632544E+03  0.41800000000E+01 0. -1.
        -11    1    1    2    0    0 -0.77452680223E+02 -0.62241437653E+02  0.18162948721E+03  0.20703184504E+03  0.00000000000E+00 0.  1.
         11    1    1    2    0    0 -0.18222701060E+03 -0.29187476917E+03  0.90027893706E+03  0.96379444322E+03  0.00000000000E+00 0. -1.
</event>
<event>
 7    1  0.2766180E-009  0.1365413E+03  0.7561462E-02  0.1218060E+00
         -1   -1    0    0    0  501 -0.00000000000E+00  0.00000000000E+00  0.59410361503E+03  0.59410361503E+03  0.00000000000E+00 0.  1.
          1   -1    0    0  501    0  0.00000000000E+00 -0.00000000000E+00 -0.39601519624E+02  0.39601519624E+02  0.00000000000E+00 0. -1.
         25    2    1    2    0    0 -0.83434703890E+02 -0.39912062821E+02  0.41487007932E+03  0.44307762261E+03  0.12508506853E+03 0.  0.
          5    1    3    3  502    0  0.18815204515E+02  0.18747092235E+02  0.15990173725E+03  0.16214654903E+03  0.41800000000E+01 0. -1.
         -5    1    3    3    0  502 -0.10224990841E+03 -0.58659155057E+02  0.25496834207E+03  0.28093107357E+03  0.41800000000E+01 0. -1.
        -11    1    1    2    0    0  0.28376318108E+02 -0.28638625177E+02  0.30906750530E+02  0.50799739268E+02  0.00000000000E+00 0. -1.
         11    1    1    2    0    0  0.55058385782E+02  0.68550687999E+02  0.10872526556E+03  0.13982777278E+03  0.00000000000E+00 0.  1.
</event>
<event>
 7    1  0.2766180E-009  0.1088980E+03  0.7561462E-02  0.1262624E+00
         -1   -1    0    0    0  501 -0.00000000000E+00  0.00000000000E+00  0.12860448711E+03  0.12860448711E+03  0.00000000000E+00 0.  1.
          1   -1    0    0  501    0  0.00000000000E+00 -0.00000000000E+00 -0.14626469262E+03  0.14626469262E+03  0.00000000000E+00 0. -1.
         25    2    1    2    0    0  0.73710895802E+01  0.61937202625E+02  0.43210199807E+02  0.14630306840E+03  0.12508763498E+03 0.  0.
          5    1    3    3  502    0 -0.53232921034E+02  0.51605616562E+02  0.40587854515E+02  0.84627004417E+02  0.41800000000E+01 0.  1.
         -5    1    3    3    0  502  0.60604010614E+02  0.10331586063E+02  0.26223452925E+01  0.61676063979E+02  0.41800000000E+01 0.  1.
        -11    1    1    2    0    0 -0.24189775789E+02 -0.80937016925E+01 -0.67127939746E+02  0.71810957063E+02  0.00000000000E+00 0. -1.
         11    1    1    2    0    0  0.16818686209E+02 -0.53843500933E+02  0.62575344299E+01  0.56755154265E+02  0.00000000000E+00 0.  1.
</event>
<event>
 7    1  0.2766180E-009  0.7969591E+02  0.7561462E-02  0.1329917E+00
          2   -1    0    0  501    0  0.00000000000E+00  0.00000000000E+00  0.16072784729E+03  0.16072784729E+03  0.00000000000E+00 0. -1.
         -2   -1    0    0    0  501 -0.00000000000E+00 -0.00000000000E+00 -0.85284305119E+02  0.85284305119E+02  0.00000000000E+00 0.  1.
         25    2    1    2    0    0  0.15146259566E+02 -0.14299150802E+02  0.10360442531E+03  0.16375380433E+03  0.12509019384E+03 0.  0.
          5    1    3    3  502    0 -0.53388200790E+02 -0.61642568955E+00  0.63501526728E+02  0.83069827621E+02  0.41800000000E+01 0.  1.
         -5    1    3    3    0  502  0.68534460356E+02 -0.13682725112E+02  0.40102898578E+02  0.80683976706E+02  0.41800000000E+01 0.  1.
        -11    1    1    2    0    0 -0.17941104866E+02 -0.30962650838E+01 -0.50572920963E+02  0.53750259869E+02  0.00000000000E+00 0.  1.
         11    1    1    2    0    0  0.27948452994E+01  0.17395415885E+02  0.22412037830E+02  0.28508088217E+02  0.00000000000E+00 0. -1.
</event>
<event>
 7    1  0.2766180E-009  0.1091169E+03  0.7561462E-02  0.1262214E+00
         -2   -1    0    0    0  501 -0.00000000000E+00  0.00000000000E+00  0.44437932130E+02  0.44437932130E+02  0.00000000000E+00 0.  1.
          2   -1    0    0  501    0  0.00000000000E+00 -0.00000000000E+00 -0.35782124351E+03  0.35782124351E+03  0.00000000000E+00 0. -1.
         25    2    1    2    0    0 -0.58209662075E+02 -0.25775037152E+02 -0.18767446949E+03  0.23435451414E+03  0.12509042530E+03 0.  0.
          5    1    3    3  502    0 -0.44166120403E+01 -0.49819682974E+02 -0.16262271131E+03  0.17019143899E+03  0.41800000000E+01 0. -1.
         -5    1    3    3    0  502 -0.53793050035E+02  0.24044645822E+02 -0.25051758181E+02  0.64163075150E+02  0.41800000000E+01 0. -1.
        -11    1    1    2    0    0 -0.21372167657E+02  0.19856021721E+02 -0.50090816141E+02  0.57966550791E+02  0.00000000000E+00 0. -1.
         11    1    1    2    0    0  0.79581829732E+02  0.59190154312E+01 -0.75618025750E+02  0.10993811071E+03  0.00000000000E+00 0.  1.
</event>
<event>
 7    1  0.2766180E-009  0.2095770E+03  0.7561462E-02  0.1141901E+00
         -4   -1    0    0    0  501 -0.00000000000E+00  0.00000000000E+00  0.80793200476E+02  0.80793200476E+02  0.00000000000E+00 0.  1.
          4   -1    0    0  501    0  0.00000000000E+00 -0.00000000000E+00 -0.58621794268E+03  0.58621794268E+03  0.00000000000E+00 0. -1.
         25    2    1    2    0    0 -0.14432708096E+03  0.12032082951E+03 -0.25558481359E+03  0.34099955455E+03  0.12509872482E+03 0.  0.
          5    1    3    3  502    0 -0.17126761891E+02  0.76255063396E+02 -0.15244206064E+03  0.17135989881E+03  0.41800000000E+01 0. -1.
         -5    1    3    3    0  502 -0.12720031907E+03  0.44065766118E+02 -0.10314275295E+03  0.16963965574E+03  0.41800000000E+01 0. -1.
        -11    1    1    2    0    0 -0.10693118895E+02 -0.16391337150E+02 -0.44009825685E+02  0.48165168765E+02  0.00000000000E+00 0. -1.
         11    1    1    2    0    0  0.15502019986E+03 -0.10392949236E+03 -0.20583010293E+03  0.27784641984E+03  0.00000000000E+00 0.  1.
</event>
<event>
 7    1  0.2766180E-009  0.8525558E+02  0.7561462E-02  0.1314766E+00
          1   -1    0    0  501    0  0.00000000000E+00  0.00000000000E+00  0.27879983551E+03  0.27879983551E+03  0.00000000000E+00 0. -1.
         -1   -1    0    0    0  501 -0.00000000000E+00 -0.00000000000E+00 -0.48799805482E+02  0.48799805482E+02  0.00000000000E+00 0.  1.
         25    2    1    2    0    0  0.20465490999E+01  0.39635428762E+02  0.97670194227E+02  0.16359564853E+03  0.12509561864E+03 0.  0.
          5    1    3    3  502    0  0.11527100460E+02  0.68770280850E+02  0.99190238456E+01  0.70555545546E+02  0.41800000000E+01 0.  1.
         -5    1    3    3    0  502 -0.94805513597E+01 -0.29134852088E+02  0.87751170381E+02  0.93040102986E+02  0.41800000000E+01 0.  1.
        -11    1    1    2    0    0  0.20185919878E+02  0.41677101918E+01  0.10655498840E+03  0.10853021111E+03  0.00000000000E+00 0. -1.
         11    1    1    2    0    0 -0.22232468978E+02 -0.43803138954E+02  0.25774847396E+02  0.55473781351E+02  0.00000000000E+00 0.  1.
</event>
<event>
 7    1  0.2766180E-009  0.1588761E+03  0.7561462E-02  0.1189971E+00
          2   -1    0    0  501    0  0.00000000000E+00  0.00000000000E+00  0.28941718291E+03  0.28941718291E+03  0.00000000000E+00 0. -1.
         -2   -1    0    0    0  501 -0.00000000000E+00 -0.00000000000E+00 -0.12317684157E+03  0.12317684157E+03  0.00000000000E+00 0.  1.
         25    2    1    2    0    0 -0.14907379608E+03 -0.11369063458E+02  0.11623068514E+03  0.22695600400E+03  0.12508878167E+03 0.  0.
          5    1    3    3  502    0  0.60251303037E+01 -0.10061462363E+02  0.61001316748E+02  0.62258881013E+02  0.41800000000E+01 0.  1.
         -5    1    3    3    0  502 -0.15509892638E+03 -0.13076010951E+01  0.55229368390E+02  0.16469712298E+03  0.41800000000E+01 0.  1.
        -11    1    1    2    0    0  0.65122150041E+02 -0.18868742556E+01  0.72748997745E+02  0.97656906532E+02  0.00000000000E+00 0. -1.
         11    1    1    2    0    0  0.83951646039E+02  0.13255937713E+02 -0.22739341541E+02  0.87981113945E+02  0.00000000000E+00 0.  1.
</event>
<event>
 7    1  0.2766180E-009  0.2164242E+03  0.7561462E-02  0.1136577E+00
          2   -1    0    0  501    0  0.00000000000E+00  0.00000000000E+00  0.17720351075E+04  0.17720351075E+04  0.00000000000E+00 0. -1.
         -2   -1    0    0    0  501 -0.00000000000E+00 -0.00000000000E+00 -0.28461819111E+02  0.28461819111E+02  0.00000000000E+00 0.  1.
         25    2    1    2    0    0  0.52454368233E+02 -0.18686228553E+03  0.77967140933E+03  0.81314404181E+03  0.12508697655E+03 0.  0.
          5    1    3    3  502    0 -0.38827936960E+02 -0.87985966850E+02  0.32747456079E+03  0.34133004470E+03  0.41800000000E+01 0.  1.
         -5    1    3    3    0  502  0.91282305194E+02 -0.98876318679E+02  0.45219684855E+03  0.47181399711E+03  0.41800000000E+01 0.  1.
        -11    1    1    2    0    0 -0.47470402022E+02  0.67702486958E+02  0.24376927338E+03  0.25741119722E+03  0.00000000000E+00 0.  1.
         11    1    1    2    0    0 -0.49839662111E+01  0.11915979857E+03  0.72013260569E+03  0.72994168760E+03  0.00000000000E+00 0. -1.
</event>
<event>
 7    1  0.2766180E-009  0.9034824E+02  0.7561462E-02  0.1302011E+00
         -3   -1    0    0    0  501 -0.00000000000E+00  0.00000000000E+00  0.39219975337E+02  0.39219975337E+02  0.00000000000E+00 0.  1.
          3   -1    0    0  501    0  0.00000000000E+00 -0.00000000000E+00 -0.35091059884E+03  0.35091059884E+03  0.00000000000E+00 0. -1.
         25    2    1    2    0    0 -0.37932386825E+02 -0.68609004561E+01 -0.19224651275E+03  0.23257136693E+03  0.12507909948E+03 0.  0.
          5    1    3    3  502    0  0.19955719115E+02 -0.52928385682E+02 -0.87007528176E+02  0.10386253942E+03  0.41800000000E+01 0.  1.
         -5    1    3    3    0  502 -0.57888105940E+02  0.46067485226E+02 -0.10523898457E+03  0.12870882750E+03  0.41800000000E+01 0.  1.
        -11    1    1    2    0    0  0.28066688637E+02  0.19254655724E+02 -0.13264287065E+03  0.13694017640E+03  0.00000000000E+00 0. -1.
         11    1    1    2    0    0  0.98656981881E+01 -0.12393755268E+02  0.13198759893E+02  0.20619030848E+02  0.00000000000E+00 0.  1.
</event>
<event>
 7    1  0.2766180E-009  0.8140933E+02  0.7561462E-02  0.1325099E+00
         -2   -1    0    0    0  501 -0.00000000000E+00  0.00000000000E+00  0.30405989276E+02  0.30405989276E+02  0.00000000000E+00 0.  1.
          2   -1    0    0  501    0  0.00000000000E+00 -0.00000000000E+00 -0.40761551743E+03  0.40761551743E+03  0.00000000000E+00 0. -1.
         25    2    1    2    0    0  0.14194188466E+02 -0.43776223823E+01 -0.18123130580E+03  0.22070971914E+03  0.12508938946E+03 0.  0.
          5    1    3    3  502    0 -0.21234407060E+02  0.27486489708E+02 -0.18197662358E+01  0.35031287570E+02  0.41800000000E+01 0. -1.
         -5    1    3    3    0  502  0.35428595526E+02 -0.31864112090E+02 -0.17941153957E+03  0.18567843157E+03  0.41800000000E+01 0. -1.
        -11    1    1    2    0    0 -0.68378016558E+01 -0.37177254845E+02 -0.15089983953E+03  0.15556241635E+03  0.00000000000E+00 0.  1.
         11    1    1    2    0    0 -0.73563868100E+01  0.41554877227E+02 -0.45078382818E+02  0.61749371217E+02  0.00000000000E+00 0. -1.
</event>
<event>
 7    1  0.2766180E-009  0.1844437E+03  0.7561462E-02  0.1163570E+00
          3   -1    0    0  501    0  0.00000000000E+00  0.00000000000E+00  0.35020279637E+02  0.35020279637E+02  0.00000000000E+00 0. -1.
         -3   -1    0    0    0  501 -0.00000000000E+00 -0.00000000000E+00 -0.12568786354E+04  0.12568786354E+04  0.00000000000E+00 0.  1.
         25    2    1    2    0    0  0.12863876772E+03 -0.12341038902E+03 -0.70481447912E+03  0.73769142690E+03  0.12508850734E+03 0.  0.
          5    1    3    3  502    0  0.36244945170E+01 -0.39657444983E+02 -0.42123501219E+02  0.58118083744E+02  0.41800000000E+01 0.  1.
         -5    1    3    3    0  502  0.12501427320E+03 -0.83752944037E+02 -0.66269097790E+03  0.67957334316E+03  0.41800000000E+01 0.  1.
        -11    1    1    2    0    0 -0.83719504825E+02  0.83015463476E+02 -0.44416135956E+03  0.45954307305E+03  0.00000000000E+00 0.  1.
         11    1    1    2    0    0 -0.44919262891E+02  0.40394925544E+02 -0.72882517120E+02  0.94664415120E+02  0.00000000000E+00 0. -1.
</event>
<event>
 7    1  0.2766180E-009  0.1790114E+03  0.7561462E-02  0.1168763E+00
          1   -1    0    0  501    0  0.00000000000E+00  0.00000000000E+00  0.11761665440E+04  0.11761665440E+04  0.00000000000E+00 0. -1.
         -1   -1    0    0    0  501 -0.00000000000E+00 -0.00000000000E+00 -0.27430870891E+02  0.27430870891E+02  0.00000000000E+00 0.  1.
         25    2    1    2    0    0 -0.80187856656E+02  0.11763835446E+03  0.58013107775E+03  0.61030202941E+03  0.12509046700E+03 0.  0.
          5    1    3    3  502    0  0.30310998199E+02  0.53267240923E+01  0.75783401226E+02  0.81900713689E+02  0.41800000000E+01 0. -1.
         -5    1    3    3    0  502 -0.11049885486E+03  0.11231163037E+03  0.50434767653E+03  0.52840131572E+03  0.41800000000E+01 0. -1.
        -11    1    1    2    0    0  0.49735655389E+02 -0.12789091149E+03  0.45685857952E+03  0.47702146948E+03  0.00000000000E+00 0.  1.
         11    1    1    2    0    0  0.30452201268E+02  0.10252557030E+02  0.11174601586E+03  0.11627391603E+03  0.00000000000E+00 0. -1.
</event>
<event>
 7    1  0.3630114E-009  0.2316743E+03  0.7561462E-02  0.1125467E+00
         -1   -1    0    0    0  501 -0.00000000000E+00  0.00000000000E+00  0.90434600273E+02  0.90434600273E+02  0.00000000000E+00 0.  1.
          1   -1    0    0  501    0  0.00000000000E+00 -0.00000000000E+00 -0.69061773471E+03  0.69061773471E+03  0.00000000000E+00 0. -1.
         25    2    1    2    0    0  0.11101821324E+03 -0.19317691123E+03 -0.35391219984E+03  0.43652010295E+03  0.12511431724E+03 0.  0.
          5    1    3    3  502    0  0.52897857573E+02 -0.79036364971E+02 -0.51860633485E+02  0.10840630991E+03  0.41800000000E+01 0. -1.
         -5    1    3    3    0  502  0.58120355670E+02 -0.11414054626E+03 -0.30205156635E+03  0.32811379304E+03  0.41800000000E+01 0. -1.
        -11    1    1    2    0    0 -0.37552885066E+02  0.15033254896E+03 -0.14414006877E+03  0.21162810277E+03  0.00000000000E+00 0.  1.
         11    1    1    2    0    0 -0.73465328177E+02  0.42844362272E+02 -0.10213086583E+03  0.13290412927E+03  0.00000000000E+00 0. -1.
</event>
<event>
 7    1  0.2766180E-009  0.1463959E+03  0.7561462E-02  0.1204973E+00
         -1   -1    0    0    0  501 -0.00000000000E+00  0.00000000000E+00  0.18977894650E+02  0.18977894650E+02  0.00000000000E+00 0.  1.
          1   -1    0    0  501    0  0.00000000000E+00 -0.00000000000E+00 -0.11808598291E+04  0.11808598291E+04  0.00000000000E+00 0. -1.
         25    2    1    2    0    0  0.10077535766E+03 -0.17085929352E+02 -0.64685604279E+03  0.66672172611E+03  0.12509004070E+03 0.  0.
          5    1    3    3  502    0  0.27615669694E+02 -0.66621746572E+02 -0.25717785956E+03  0.26713106554E+03  0.41800000000E+01 0. -1.
         -5    1    3    3    0  502  0.73159687967E+02  0.49535817220E+02 -0.38967818323E+03  0.39959066057E+03  0.41800000000E+01 0. -1.
        -11    1    1    2    0    0 -0.10752686744E+03  0.34901276107E+02 -0.48112885042E+03  0.49423182516E+03  0.00000000000E+00 0. -1.
         11    1    1    2    0    0  0.67515097790E+01 -0.17815346754E+02 -0.33897041232E+02  0.38884172468E+02  0.00000000000E+00 0.  1.
</event>
<event>
 7    1  0.2766180E-009  0.1163183E+03  0.7561462E-02  0.1249297E+00
         -2   -1    0    0    0  501 -0.00000000000E+00  0.00000000000E+00  0.10881427024E+03  0.10881427024E+03  0.00000000000E+00 0.  1.
          2   -1    0    0  501    0  0.00000000000E+00 -0.00000000000E+00 -0.13944571430E+03  0.13944571430E+03  0.00000000000E+00 0. -1.
         25    2    1    2    0    0 -0.48531141585E+02  0.12006750322E+01  0.15417736917E+02  0.13505977583E+03  0.12508686226E+03 0.  0.
          5    1    3    3  502    0  0.29235576275E+02  0.37629493149E+02  0.10290412170E+02  0.48929159582E+02  0.41800000000E+01 0. -1.
         -5    1    3    3    0  502 -0.77766717860E+02 -0.36428818116E+02  0.51273247475E+01  0.86130616247E+02  0.41800000000E+01 0. -1.
        -11    1    1    2    0    0  0.24020743666E+02  0.42442874243E+02 -0.60823858612E+01  0.49146608408E+02  0.00000000000E+00 0.  1.
         11    1    1    2    0    0  0.24510397919E+02 -0.43643549275E+02 -0.39966795117E+02  0.64053600300E+02  0.00000000000E+00 0. -1.
</event>
<event>
 7    1  0.2766180E-009  0.1070378E+03  0.7561462E-02  0.1266156E+00
          1   -1    0    0  501    0  0.00000000000E+00  0.00000000000E+00  0.21055810830E+03  0.21055810830E+03  0.00000000000E+00 0. -1.
         -1   -1    0    0    0  501 -0.00000000000E+00 -0.00000000000E+00 -0.70772806862E+02  0.70772806862E+02  0.00000000000E+00 0.  1.
         25    2    1    2    0    0  0.44316328687E+02 -0.12273429571E+01  0.12047334152E+03  0.17923857991E+03  0.12508876509E+03 0.  0.
          5    1    3    3  502    0 -0.39544341685E+02  0.18689887012E+02  0.57713181588E+02  0.72535167780E+02  0.41800000000E+01 0.  1.
         -5    1    3    3    0  502  0.83860670372E+02 -0.19917229969E+02  0.62760159934E+02  0.10670341213E+03  0.41800000000E+01 0.  1.
        -11    1    1    2    0    0 -0.60721869610E+02 -0.13034213959E+02 -0.12706921973E+02  0.63391655984E+02  0.00000000000E+00 0.  1.
         11    1    1    2    0    0  0.16405540923E+02  0.14261556916E+02  0.32018881893E+02  0.38700679274E+02  0.00000000000E+00 0. -1.
</event>
<event>
 7    1  0.2766180E-009  0.1512297E+03  0.7561462E-02  0.1198970E+00
         -2   -1    0    0    0  501 -0.00000000000E+00  0.00000000000E+00  0.98194098532E+02  0.98194098532E+02  0.00000000000E+00 0.  1.
          2   -1    0    0  501    0  0.00000000000E+00 -0.00000000000E+00 -0.32223780885E+03  0.32223780885E+03  0.00000000000E+00 0. -1.
         25    2    1    2    0    0 -0.93155169550E+02  0.79838961189E+02 -0.44685766242E+02  0.18082164940E+03  0.12508999101E+03 0.  0.
          5    1    3    3  502    0  0.67001662589E+01  0.57733744863E+02 -0.52139299221E+02  0.78192432160E+02  0.41800000000E+01 0.  1.
         -5    1    3    3    0  502 -0.99855335809E+02  0.22105216326E+02  0.74535329783E+01  0.10262921724E+03  0.41800000000E+01 0.  1.
        -11    1    1    2    0    0 -0.11233597188E+02 -0.15383070179E+01  0.60763287855E+01  0.12863975504E+02  0.00000000000E+00 0.  1.
         11    1    1    2    0    0  0.10438876674E+03 -0.78300654171E+02 -0.18543427286E+03  0.22674628248E+03  0.00000000000E+00 0. -1.
</event>
<event>
 7    1  0.2766180E-009  0.1141900E+03  0.7561462E-02  0.1253002E+00
         -2   -1    0    0    0  501 -0.00000000000E+00  0.00000000000E+00  0.60799559729E+02  0.60799559729E+02  0.00000000000E+00 0.  1.
          2   -1    0    0  501    0  0.00000000000E+00 -0.00000000000E+00 -0.29280692400E+03  0.29280692400E+03  0.00000000000E+00 0. -1.
         25    2    1    2    0    0 -0.80034816104E+01  0.76343866803E+02 -0.15969358916E+03  0.21689037132E+03  0.12508776533E+03 0.  0.
          5    1    3    3  502    0 -0.15318406577E+02 -0.24922645184E+02 -0.24266928272E+01  0.29650515360E+02  0.41800000000E+01 0. -1.
         -5    1    3    3    0  502  0.73149249670E+01  0.10126651199E+03 -0.15726689633E+03  0.18723985596E+03  0.41800000000E+01 0. -1.
        -11    1    1    2    0    0  0.30867627256E+02 -0.64403112804E+02 -0.82379507120E+02  0.10902731100E+03  0.00000000000E+00 0. -1.
         11    1    1    2    0    0 -0.22864145646E+02 -0.11940753998E+02  0.10065732014E+02  0.27688801403E+02  0.00000000000E+00 0.  1.
</event>
<event>
 7    1  0.2766180E-009  0.1063963E+03  0.7561462E-02  0.1267393E+00
         -3   -1    0    0    0  501 -0.00000000000E+00  0.00000000000E+00  0.48059159572E+02  0.48059159572E+02  0.00000000000E+00 0.  1.
          3   -1    0    0  501    0  0.00000000000E+00 -0.00000000000E+00 -0.38042329156E+03  0.38042329156E+03  0.00000000000E+00 0. -1.
         25    2    1    2    0    0 -0.68045765269E+02  0.41653668713E+02 -0.15499493678E+03  0.21456039288E+03  0.12508987760E+03 0.  0.
          5    1    3    3  502    0 -0.81625457382E+02  0.69142127002E+01 -0.15682775829E+03  0.17698287997E+03  0.41800000000E+01 0. -1.
         -5    1    3    3    0  502  0.13579692113E+02  0.34739456013E+02  0.18328215138E+01  0.37577512912E+02  0.41800000000E+01 0. -1.
        -11    1    1    2    0    0  0.22071944755E+02  0.98738132243E+01 -0.12483462763E+03  0.12715481583E+03  0.00000000000E+00 0. -1.
         11    1    1    2    0    0  0.45973820513E+02 -0.51527481937E+02 -0.52534567581E+02  0.86767242426E+02  0.00000000000E+00 0.  1.
</event>
<event>
 7    1  0.3283741E-009  0.1315766E+03  0.7561462E-02  0.1225135E+00
         -2   -1    0    0    0  501 -0.00000000000E+00  0.00000000000E+00  0.18566353286E+02  0.18566353286E+02  0.00000000000E+00 0.  1.
          2   -1    0    0  501    0  0.00000000000E+00 -0.00000000000E+00 -0.10688118874E+04  0.10688118874E+04  0.00000000000E+00 0. -1.
         25    2    1    2    0    0  0.88386800392E+02 -0.22394005678E+01 -0.62426738849E+03  0.64278878354E+03  0.12510158478E+03 0.  0.
          5    1    3    3  502    0 -0.35112492896E+01  0.38348957205E+02 -0.75193919268E+02  0.84584687061E+02  0.41800000000E+01 0. -1.
         -5    1    3    3    0  502  0.91898049682E+02 -0.40588357773E+02 -0.54907346923E+03  0.55820409648E+03  0.41800000000E+01 0. -1.
        -11    1    1    2    0    0 -0.66121930261E+02  0.41975151682E+02 -0.21689198576E+03  0.23059955877E+03  0.00000000000E+00 0.  1.
         11    1    1    2    0    0 -0.22264870131E+02 -0.39735751114E+02 -0.20908615984E+03  0.21398989835E+03  0.00000000000E+00 0. -1.
</event>
<event>
 7    1  0.2766180E-009  0.1000263E+03  0.7561462E-02  0.1280241E+00
         -1   -1    0    0    0  501 -0.00000000000E+00  0.00000000000E+00  0.15384843144E+03  0.15384843144E+03  0.00000000000E+00 0.  1.
          1   -1    0    0  501    0  0.00000000000E+00 -0.00000000000E+00 -0.12096475620E+03  0.12096475620E+03  0.00000000000E+00 0. -1.
         25    2    1    2    0    0 -0.12193744191E+02  0.62656417267E+02 -0.38039293369E+02  0.14549568222E+03  0.12508993437E+03 0.  0.
          5    1    3    3  502    0  0.14976654646E+02 -0.28628904089E+02  0.15584499844E+02  0.36114586653E+02  0.41800000000E+01 0.  1.
         -5    1    3    3    0  502 -0.27170398838E+02  0.91285321356E+02 -0.53623793213E+02  0.10938109556E+03  0.41800000000E+01 0.  1.
        -11    1    1    2    0    0  0.19118993968E+02 -0.15883371171E+02  0.77674876883E+02  0.81554913457E+02  0.00000000000E+00 0.  1.
         11    1    1    2    0    0 -0.69252497771E+01 -0.46773046097E+02 -0.67519082733E+01  0.47762591962E+02  0.00000000000E+00 0. -1.
</event>
<event>
 7    1  0.2766180E-009  0.1348619E+03  0.7561462E-02  0.1220415E+00
         -1   -1    0    0    0  501 -0.00000000000E+00  0.00000000000E+00  0.54009802606E+03  0.54009802606E+03  0.00000000000E+00 0.  1.
          1   -1    0    0  501    0  0.00000000000E+00 -0.00000000000E+00 -0.44553281170E+02  0.44553281170E+02  0.00000000000E+00 0. -1.
         25    2    1    2    0    0 -0.13863833460E+02  0.10569982726E+03  0.31793478442E+03  0.35789737179E+03  0.12507334740E+03 0.  0.
          5    1    3    3  502    0 -0.45779852998E+02  0.13465409678E+02  0.19540735515E+03  0.20119298955E+03  0.41800000000E+01 0. -1.
         -5    1    3    3    0  502  0.31916019538E+02  0.92234417580E+02  0.12252742927E+03  0.15670438224E+03  0.41800000000E+01 0. -1.
        -11    1    1    2    0    0  0.37761491485E+02 -0.82935167541E+02  0.72095154662E+02  0.11619760574E+03  0.00000000000E+00 0. -1.
         11    1    1    2    0    0 -0.23897658026E+02 -0.22764659717E+02  0.10551480581E+03  0.11055632970E+03  0.00000000000E+00 0.  1.
</event>
<event>
 7    1  0.2766180E-009  0.9626998E+02  0.7561462E-02  0.1288341E+00
          1   -1    0    0  501    0  0.00000000000E+00  0.00000000000E+00  0.64541374482E+03  0.64541374482E+03  0.00000000000E+00 0. -1.
         -1   -1    0    0    0  501 -0.00000000000E+00 -0.00000000000E+00 -0.51229847894E+02  0.51229847894E+02  0.00000000000E+00 0.  1.
         25    2    1    2    0    0 -0.54974211068E+02  0.18516435594E+01  0.59751287381E+03  0.61294054945E+03  0.12509552481E+03 0.  0.
          5    1    3    3  502    0 -0.40236144259E+02 -0.52118572247E+02  0.18067125892E+03  0.19234050296E+03  0.41800000000E+01 0. -1.
         -5    1    3    3    0  502 -0.14738066809E+02  0.53970215806E+02  0.41684161489E+03  0.42060004649E+03  0.41800000000E+01 0. -1.
        -11    1    1    2    0    0  0.56224821642E+02  0.11217847186E+02 -0.21545991442E+02  0.61247860464E+02  0.00000000000E+00 0.  1.
         11    1    1    2    0    0 -0.12506105740E+01 -0.13069490745E+02  0.18217014565E+02  0.22455182805E+02  0.00000000000E+00 0. -1.
</event>
<event>
 7    1  0.2766180E-009  0.1496301E+03  0.7561462E-02  0.1200928E+00
          1   -1    0    0  501    0  0.00000000000E+00  0.00000000000E+00  0.17188287791E+03  0.17188287791E+03  0.00000000000E+00 0. -1.
         -1   -1    0    0    0  501 -0.00000000000E+00 -0.00000000000E+00 -0.20519359953E+03  0.20519359953E+03  0.00000000000E+00 0.  1.
         25    2    1    2    0    0 -0.39039567843E+02 -0.12293644449E+03 -0.10109751565E+03  0.20616815167E+03  0.12508853606E+03 0.  0.
          5    1    3    3  502    0  0.92498424521E+01 -0.84604632844E+02  0.28280839685E+01  0.85258277856E+02  0.41800000000E+01 0.  1.
         -5    1    3    3    0  502 -0.48289410295E+02 -0.38331811646E+02 -0.10392559962E+03  0.12090987382E+03  0.41800000000E+01 0.  1.
        -11    1    1    2    0    0  0.21910246279E+02  0.13135317848E+03  0.71967206028E+02  0.15137039054E+03  0.00000000000E+00 0. -1.
         11    1    1    2    0    0  0.17129321565E+02 -0.84167339916E+01 -0.41804120052E+01  0.19537935226E+02  0.00000000000E+00 0.  1.
</event>
<event>
 7    1  0.2766180E-009  0.3846400E+03  0.7561462E-02  0.1049232E+00
         -2   -1    0    0    0  501 -0.00000000000E+00  0.00000000000E+00  0.55624780831E+02  0.55624780831E+02  0.00000000000E+00 0. -1.
          2   -1    0    0  501    0  0.00000000000E+00 -0.00000000000E+00 -0.28665900117E+04  0.28665900117E+04  0.00000000000E+00 0.  1.
         25    2    1    2    0    0 -0.31140191196E+03 -0.21313783059E+03 -0.11624273542E+04  0.12285293589E+04  0.12509255058E+03 0.  0.
          5    1    3    3  502    0 -0.21689603391E+03 -0.18139038398E+03 -0.69033440281E+03  0.74600631434E+03  0.41800000000E+01 0. -1.
         -5    1    3    3    0  502 -0.94505878047E+02 -0.31747446604E+02 -0.47209295139E+03  0.48252304453E+03  0.41800000000E+01 0. -1.
        -11    1    1    2    0    0  0.54956172052E+02  0.81932513771E+02 -0.49389605537E+03  0.50365308613E+03  0.00000000000E+00 0.  1.
         11    1    1    2    0    0  0.25644573991E+03  0.13120531682E+03 -0.11546418213E+04  0.11900323475E+04  0.00000000000E+00 0. -1.
</event>
<event>
 7    1  0.2766180E-009  0.1036655E+03  0.7561462E-02  0.1272771E+00
          1   -1    0    0  501    0  0.00000000000E+00  0.00000000000E+00  0.17704776024E+03  0.17704776024E+03  0.00000000000E+00 0.  1.
         -1   -1    0    0    0  501 -0.00000000000E+00 -0.00000000000E+00 -0.73382081597E+02  0.73382081597E+02  0.00000000000E+00 0. -1.
         25    2    1    2    0    0  0.11675814972E+02  0.14819616116E+02  0.34468714798E+02  0.13111531007E+03  0.12508871475E+03 0.  0.
          5    1    3    3  502    0  0.56649056615E+02 -0.22508405148E+02 -0.36548827082E+01  0.61209267968E+02  0.41800000000E+01 0. -1.
         -5    1    3    3    0  502 -0.44973241643E+02  0.37328021264E+02  0.38123597507E+02  0.69906042100E+02  0.41800000000E+01 0. -1.
        -11    1    1    2    0    0 -0.10849045304E+02  0.35596227328E+02  0.55925139936E+02  0.67174507523E+02  0.00000000000E+00 0.  1.
         11    1    1    2    0    0 -0.82676966761E+00 -0.50415843444E+02  0.13271823907E+02  0.52140024243E+02  0.00000000000E+00 0. -1.
</event>
<event>
 7    1  0.2766180E-009  0.9627186E+02  0.7561462E-02  0.1288337E+00
          1   -1    0    0  501    0  0.00000000000E+00  0.00000000000E+00  0.31980761546E+03  0.31980761546E+03  0.00000000000E+00 0. -1.
         -1   -1    0    0    0  501 -0.00000000000E+00 -0.00000000000E+00 -0.62156624464E+02  0.62156624464E+02  0.00000000000E+00 0.  1.
         25    2    1    2    0    0  0.73030597607E+02 -0.30751746361E+01  0.70651412854E+02  0.16118826461E+03  0.12508840723E+03 0.  0.
          5    1    3    3  502    0  0.44294936341E+02 -0.17602326026E+02 -0.29292956431E+02  0.56101987162E+02  0.41800000000E+01 0. -1.
         -5    1    3    3    0  502  0.28735661266E+02  0.14527151390E+02  0.99944369285E+02  0.10508627745E+03  0.41800000000E+01 0. -1.
        -11    1    1    2    0    0 -0.89301201231E+02 -0.11929193352E+02  0.11895515059E+03  0.14922244485E+03  0.00000000000E+00 0.  1.
         11    1    1    2    0    0  0.16270603624E+02  0.15004367988E+02  0.68044427559E+02  0.71553530471E+02  0.00000000000E+00 0. -1.
</event>
<event>
 7    1  0.2766180E-009  0.2110263E+03  0.7561462E-02  0.1140756E+00
         -2   -1    0    0    0  501 -0.00000000000E+00  0.00000000000E+00  0.23953257736E+04  0.23953257736E+04  0.00000000000E+00 0.  1.
          2   -1    0    0  501    0  0.00000000000E+00 -0.00000000000E+00 -0.20030780446E+02  0.20030780446E+02  0.00000000000E+00 0. -1.
         25    2    1    2    0    0 -0.18264452455E+03 -0.55530317578E+01  0.15194014083E+04  0.15354533669E+04  0.12508614619E+03 0.  0.
          5    1    3    3  502    0 -0.54417411674E+02 -0.59122837427E+02  0.65855199747E+03  0.66344929751E+03  0.41800000000E+01 0.  1.
         -5    1    3    3    0  502 -0.12822711288E+03  0.53569805669E+02  0.86084941079E+03  0.87200406938E+03  0.41800000000E+01 0.  1.
        -11    1    1    2    0    0  0.79131370110E+02  0.45878446336E+02  0.44162842477E+03  0.45100140924E+03  0.00000000000E+00 0.  1.
         11    1    1    2    0    0  0.10351315444E+03 -0.40325414579E+02  0.41426516018E+03  0.42890177796E+03  0.00000000000E+00 0. -1.
</event>
<event>
 7    1  0.2766180E-009  0.1059677E+03  0.7561462E-02  0.1268225E+00
          2   -1    0    0  501    0  0.00000000000E+00  0.00000000000E+00  0.29398709357E+03  0.29398709357E+03  0.00000000000E+00 0.  1.
         -2   -1    0    0    0  501 -0.00000000000E+00 -0.00000000000E+00 -0.44242328401E+02  0.44242328401E+02  0.00000000000E+00 0. -1.
         25    2    1    2    0    0 -0.42249929592E+01 -0.21492539886E+02  0.95862724380E+02  0.15910162384E+03  0.12507551698E+03 0.  0.
          5    1    3    3  502    0  0.14430958828E+02  0.48506884245E+02  0.58562898494E+02  0.77512940029E+02  0.41800000000E+01 0. -1.
         -5    1    3    3    0  502 -0.18655951787E+02 -0.69999424131E+02  0.37299825886E+02  0.81588683816E+02  0.41800000000E+01 0. -1.
        -11    1    1    2    0    0  0.34391591217E+02  0.40348508432E+02  0.68417656694E+02  0.86554950330E+02  0.00000000000E+00 0.  1.
         11    1    1    2    0    0 -0.30166598258E+02 -0.18855968546E+02  0.85464384097E+02  0.92572847797E+02  0.00000000000E+00 0. -1.
</event>
<event>
 7    1  0.2766180E-009  0.1730076E+03  0.7561462E-02  0.1174747E+00
          2   -1    0    0  501    0  0.00000000000E+00  0.00000000000E+00  0.10463361200E+03  0.10463361200E+03  0.00000000000E+00 0. -1.
         -2   -1    0    0    0  501 -0.00000000000E+00 -0.00000000000E+00 -0.35380839544E+03  0.35380839544E+03  0.00000000000E+00 0.  1.
         25    2    1    2    0    0  0.11761399102E+03 -0.90962176360E+02 -0.65285436268E+02  0.20497927401E+03  0.12508855332E+03 0.  0.
          5    1    3    3  502    0  0.50824742799E+02 -0.11289734476E+03 -0.41897678397E+02  0.13077405243E+03  0.41800000000E+01 0. -1.
         -5    1    3    3    0  502  0.66789248217E+02  0.21935168403E+02 -0.23387757872E+02  0.74205221572E+02  0.41800000000E+01 0. -1.
        -11    1    1    2    0    0 -0.10615007525E+03  0.68046100570E+02 -0.18913210435E+03  0.22730829983E+03  0.00000000000E+00 0.  1.
         11    1    1    2    0    0 -0.11463915765E+02  0.22916075791E+02  0.52427571712E+01  0.26154433603E+02  0.00000000000E+00 0. -1.
</event>
<event>
 7    1  0.2766180E-009  0.9200688E+02  0.7561462E-02  0.1298063E+00
          1   -1    0    0  501    0  0.00000000000E+00  0.00000000000E+00  0.36054949599E+03  0.36054949599E+03  0.00000000000E+00 0. -1.
         -1   -1    0    0    0  501 -0.00000000000E+00 -0.00000000000E+00 -0.52315909699E+02  0.52315909699E+02  0.00000000000E+00 0.  1.
         25    2    1    2    0    0 -0.19799019720E+02 -0.57557069360E+02  0.25472343156E+03  0.29022979558E+03  0.12507793668E+03 0.  0.
          5    1    3    3  502    0 -0.84618627753E+01 -0.72019196499E+02  0.26056510984E+03  0.27049956867E+03  0.41800000000E+01 0.  1.
         -5    1    3    3    0  502 -0.11337156944E+02  0.14462127140E+02 -0.58416782775E+01  0.19730226914E+02  0.41800000000E+01 0.  1.
        -11    1    1    2    0    0  0.44854554877E+02  0.48056107815E+02  0.65928511327E+02  0.93101499436E+02  0.00000000000E+00 0. -1.
         11    1    1    2    0    0 -0.25055535157E+02  0.95009615447E+01 -0.12418356598E+02  0.29534110667E+02  0.00000000000E+00 0.  1.
</event>
<event>
 7    1  0.2766180E-009  0.8349246E+02  0.7561462E-02  0.1319423E+00
          1   -1    0    0  501    0  0.00000000000E+00  0.00000000000E+00  0.34665719368E+03  0.34665719368E+03  0.00000000000E+00 0. -1.
         -1   -1    0    0    0  501 -0.00000000000E+00 -0.00000000000E+00 -0.40746611066E+02  0.40746611066E+02  0.00000000000E+00 0.  1.
         25    2    1    2    0    0  0.40912942746E+01  0.52225106475E+02  0.16089314571E+03  0.21042425490E+03  0.12509021656E+03 0.  0.
          5    1    3    3  502    0 -0.26868596216E+02  0.60631828579E+02  0.16493769379E+03  0.17782028942E+03  0.41800000000E+01 0.  1.
         -5    1    3    3    0  502  0.30959890490E+02 -0.84067221040E+01 -0.40445480781E+01  0.32603965478E+02  0.41800000000E+01 0.  1.
        -11    1    1    2    0    0  0.16899259301E+02 -0.69389431918E+01 -0.49471094439E+01  0.18926378137E+02  0.00000000000E+00 0.  1.
         11    1    1    2    0    0 -0.20990553576E+02 -0.45286163283E+02  0.14996454635E+03  0.15805317170E+03  0.00000000000E+00 0. -1.
</event>
<event>
 7    1  0.2766180E-009  0.1325848E+03  0.7561462E-02  0.1223670E+00
         -1   -1    0    0    0  501 -0.00000000000E+00  0.00000000000E+00  0.38235957492E+02  0.38235957492E+02  0.00000000000E+00 0.  1.
          1   -1    0    0  501    0  0.00000000000E+00 -0.00000000000E+00 -0.60669173642E+03  0.60669173642E+03  0.00000000000E+00 0. -1.
         25    2    1    2    0    0 -0.77129219325E+02  0.62736779902E+02 -0.21499915262E+03  0.26787587836E+03  0.12509208829E+03 0.  0.
          5    1    3    3  502    0 -0.80898938502E+02  0.87168339273E+02 -0.21133995793E+03  0.24253867287E+03  0.41800000000E+01 0.  1.
         -5    1    3    3    0  502  0.37697191771E+01 -0.24431559371E+02 -0.36591946940E+01  0.25337205485E+02  0.41800000000E+01 0.  1.
        -11    1    1    2    0    0  0.72450482401E+02 -0.77216103161E+02 -0.34196800961E+03  0.35798536085E+03  0.00000000000E+00 0. -1.
         11    1    1    2    0    0  0.46787369239E+01  0.14479323258E+02 -0.11488616692E+02  0.19066454697E+02  0.00000000000E+00 0.  1.
</event>
<event>
 7    1  0.2766180E-009  0.1134933E+03  0.7561462E-02  0.1254234E+00
         -1   -1    0    0    0  501 -0.00000000000E+00  0.00000000000E+00  0.40385904610E+03  0.40385904610E+03  0.00000000000E+00 0.  1.
          1   -1    0    0  501    0  0.00000000000E+00 -0.00000000000E+00 -0.61829643096E+02  0.61829643096E+02  0.00000000000E+00 0. -1.
         25    2    1    2    0    0 -0.42292176591E+02  0.74454491751E+02  0.29439326871E+03  0.33113100253E+03  0.12509294397E+03 0.  0.
          5    1    3    3  502    0 -0.79239101344E+02  0.47979476042E+02  0.25320406303E+03  0.26964909649E+03  0.41800000000E+01 0. -1.
         -5    1    3    3    0  502  0.36946924752E+02  0.26475015709E+02  0.41189205675E+02  0.61481906034E+02  0.41800000000E+01 0. -1.
        -11    1    1    2    0    0  0.41860880070E+02 -0.54819950699E+02  0.74339695390E+02  0.10140981504E+03  0.00000000000E+00 0.  1.
         11    1    1    2    0    0  0.43129652164E+00 -0.19634541052E+02 -0.26703561091E+02  0.33147871636E+02  0.00000000000E+00 0. -1.
</event>
<event>
 7    1  0.2766180E-009  0.1227887E+03  0.7561462E-02  0.1238566E+00
         -4   -1    0    0    0  501 -0.00000000000E+00  0.00000000000E+00  0.21114403487E+03  0.21114403487E+03  0.00000000000E+00 0.  1.
          4   -1    0    0  501    0  0.00000000000E+00 -0.00000000000E+00 -0.98656284156E+02  0.98656284156E+02  0.00000000000E+00 0. -1.
         25    2    1    2    0    0  0.32165150337E+01 -0.82959587958E+02  0.10892980217E+03  0.18548732670E+03  0.12508879791E+03 0.  0.
          5    1    3    3  502    0 -0.54214782231E+02 -0.34472984588E+02  0.16846746494E+02  0.66550090504E+02  0.41800000000E+01 0. -1.
         -5    1    3    3    0  502  0.57431297264E+02 -0.48486603370E+02  0.92083055671E+02  0.11893723619E+03  0.41800000000E+01 0. -1.
        -11    1    1    2    0    0 -0.16920408270E+02 -0.44047079226E+01 -0.25772240477E+02  0.31143378865E+02  0.00000000000E+00 0. -1.
         11    1    1    2    0    0  0.13703893237E+02  0.87364295881E+02  0.29330189027E+02  0.93169613463E+02  0.00000000000E+00 0.  1.
</event>
<event>
 7    1  0.2766180E-009  0.1967275E+03  0.7561462E-02  0.1152530E+00
          2   -1    0    0  501    0  0.00000000000E+00  0.00000000000E+00  0.12431069072E+04  0.12431069072E+04  0.00000000000E+00 0. -1.
         -2   -1    0    0    0  501 -0.00000000000E+00 -0.00000000000E+00 -0.53157300825E+02  0.53157300825E+02  0.00000000000E+00 0.  1.
         25    2    1    2    0    0 -0.18603718661E+03 -0.62442305500E+01  0.25937030845E+03  0.34287443927E+03  0.12506437935E+03 0.  0.
          5    1    3    3  502    0 -0.12834301921E+03 -0.12144948398E+02  0.25350698308E+03  0.28443398745E+03  0.41800000000E+01 0. -1.
         -5    1    3    3    0  502 -0.57694167405E+02  0.59007178476E+01  0.58633253701E+01  0.58440451813E+02  0.41800000000E+01 0. -1.
        -11    1    1    2    0    0  0.81085812393E+02 -0.41425934707E+02  0.36528603147E+03  0.37646367929E+03  0.00000000000E+00 0.  1.
         11    1    1    2    0    0  0.10495137422E+03  0.47670165257E+02  0.56529326645E+03  0.57692608946E+03  0.00000000000E+00 0. -1.
</event>
<event>
 7    1  0.2766180E-009  0.2128329E+03  0.7561462E-02  0.1139342E+00
         -2   -1    0    0    0  501 -0.00000000000E+00  0.00000000000E+00  0.26581712270E+03  0.26581712270E+03  0.00000000000E+00 0. -1.
          2   -1    0    0  501    0  0.00000000000E+00 -0.00000000000E+00 -0.21628012037E+03  0.21628012037E+03  0.00000000000E+00 0.  1.
         25    2    1    2    0    0  0.15782573455E+03  0.11538373408E+03 -0.57313524211E+02  0.23906099593E+03  0.12507178396E+03 0.  0.
          5    1    3    3  502    0  0.40001432873E+02 -0.53025018162E+01 -0.57468738673E+02  0.70344576778E+02  0.41800000000E+01 0. -1.
         -5    1    3    3    0  502  0.11782430167E+03  0.12068623590E+03  0.15521446232E+00  0.16871641915E+03  0.41800000000E+01 0. -1.
        -11    1    1    2    0    0 -0.16807455865E+03 -0.93772357422E+02  0.10449751813E+03  0.21900238259E+03  0.00000000000E+00 0.  1.
         11    1    1    2    0    0  0.10248824106E+02 -0.21611376659E+02  0.23530084133E+01  0.24033864551E+02  0.00000000000E+00 0. -1.
</event>
<event>
 7    1  0.2766180E-009  0.2456503E+03  0.7561462E-02  0.1116085E+00
          1   -1    0    0  501    0  0.00000000000E+00  0.00000000000E+00  0.17206302808E+04  0.17206302808E+04  0.00000000000E+00 0. -1.
         -1   -1    0    0    0  501 -0.00000000000E+00 -0.00000000000E+00 -0.41337870308E+02  0.41337870308E+02  0.00000000000E+00 0.  1.
         25    2    1    2    0    0  0.64590586992E+01  0.22324847956E+03  0.11869368634E+04  0.12142272616E+04  0.12508845616E+03 0.  0.
          5    1    3    3  502    0 -0.22838228210E+02  0.22493419752E+03  0.10326865323E+04  0.10571546359E+04  0.41800000000E+01 0. -1.
         -5    1    3    3    0  502  0.29297286909E+02 -0.16857179619E+01  0.15425033116E+03  0.15707262565E+03  0.41800000000E+01 0. -1.
        -11    1    1    2    0    0 -0.39179755494E+02 -0.15451500339E+03  0.28058825207E+03  0.32270684330E+03  0.00000000000E+00 0.  1.
         11    1    1    2    0    0  0.32720696795E+02 -0.68733476163E+02  0.21176729497E+03  0.22503404623E+03  0.00000000000E+00 0. -1.
</event>
<event>
 7    1  0.2766180E-009  0.3893682E+03  0.7561462E-02  0.1047525E+00
          2   -1    0    0  501    0  0.00000000000E+00  0.00000000000E+00  0.18616842365E+04  0.18616842365E+04  0.00000000000E+00 0. -1.
         -2   -1    0    0    0  501 -0.00000000000E+00 -0.00000000000E+00 -0.84243823034E+02  0.84243823034E+02  0.00000000000E+00 0.  1.
         25    2    1    2    0    0 -0.36149531763E+03 -0.98574986126E+02  0.10631571768E+04  0.11341721593E+04  0.12508961467E+03 0.  0.
          5    1    3    3  502    0 -0.15713909996E+03 -0.10740212503E+03  0.52161175666E+03  0.55526949339E+03  0.41800000000E+01 0. -1.
         -5    1    3    3    0  502 -0.20435621767E+03  0.88271389048E+01  0.54154542013E+03  0.57890266586E+03  0.41800000000E+01 0. -1.
        -11    1    1    2    0    0  0.27454915577E+03  0.36569816292E+02  0.55018047983E+03  0.61596521881E+03  0.00000000000E+00 0. -1.
         11    1    1    2    0    0  0.86946161859E+02  0.62005169834E+02  0.16410275685E+03  0.19579068148E+03  0.00000000000E+00 0.  1.
</event>
<event>
 7    1  0.2766180E-009  0.1026808E+03  0.7561462E-02  0.1274757E+00
          2   -1    0    0  501    0  0.00000000000E+00  0.00000000000E+00  0.41070188491E+03  0.41070188491E+03  0.00000000000E+00 0. -1.
         -2   -1    0    0    0  501 -0.00000000000E+00 -0.00000000000E+00 -0.40740255156E+02  0.40740255156E+02  0.00000000000E+00 0.  1.
         25    2    1    2    0    0  0.19040193409E+02  0.68159790986E+02  0.15004037841E+03  0.20776976021E+03  0.12509145467E+03 0.  0.
          5    1    3    3  502    0 -0.29488783870E+02  0.33460193109E+02 -0.15360118200E+01  0.44821921304E+02  0.41800000000E+01 0. -1.
         -5    1    3    3    0  502  0.48528977278E+02  0.34699597876E+02  0.15157639023E+03  0.16294783890E+03  0.41800000000E+01 0. -1.
        -11    1    1    2    0    0 -0.46290880581E+02 -0.36224962336E+02  0.93292632013E+02  0.11026608141E+03  0.00000000000E+00 0.  1.
         11    1    1    2    0    0  0.27250687173E+02 -0.31934828650E+02  0.12662861933E+03  0.13340629845E+03  0.00000000000E+00 0. -1.
</event>
<event>
 7    1  0.2766180E-009  0.6410008E+02  0.7561462E-02  0.1381389E+00
         -1   -1    0    0    0  501 -0.00000000000E+00  0.00000000000E+00  0.10880077168E+03  0.10880077168E+03  0.00000000000E+00 0.  1.
          1   -1    0    0  501    0  0.00000000000E+00 -0.00000000000E+00 -0.16085105662E+03  0.16085105662E+03  0.00000000000E+00 0. -1.
         25    2    1    2    0    0 -0.12300396700E+02  0.60595265350E+02 -0.73552974375E+02  0.15772970874E+03  0.12508211318E+03 0.  0.
          5    1    3    3  502    0 -0.14654629956E+02  0.27565826978E+02  0.33269559990E+02  0.45814506633E+02  0.41800000000E+01 0. -1.
         -5    1    3    3    0  502  0.23542332562E+01  0.33029438372E+02 -0.10682253437E+03  0.11191520210E+03  0.41800000000E+01 0. -1.
        -11    1    1    2    0    0  0.12670428706E+02 -0.28048431161E+02  0.56369133263E+02  0.64224087685E+02  0.00000000000E+00 0. -1.
         11    1    1    2    0    0 -0.37003200580E+00 -0.32546834188E+02 -0.34866443829E+02  0.47698031874E+02  0.00000000000E+00 0.  1.
</event>
<event>
 7    1  0.2766180E-009  0.8736677E+02  0.7561462E-02  0.1309357E+00
         -2   -1    0    0    0  501 -0.00000000000E+00  0.00000000000E+00  0.30921789599E+02  0.30921789599E+02  0.00000000000E+00 0.  1.
          2   -1    0    0  501    0  0.00000000000E+00 -0.00000000000E+00 -0.60921131474E+03  0.60921131474E+03  0.00000000000E+00 0. -1.
         25    2    1    2    0    0 -0.20611163862E+02  0.18821944452E+01 -0.50346133206E+03  0.51918041582E+03  0.12508648435E+03 0.  0.
          5    1    3    3  502    0 -0.36300949655E+02 -0.38603323499E+02 -0.43341597766E+03  0.43666332296E+03  0.41800000000E+01 0.  1.
         -5    1    3    3    0  502  0.15689785794E+02  0.40485517944E+02 -0.70045354399E+02  0.82517092862E+02  0.41800000000E+01 0.  1.
        -11    1    1    2    0    0  0.22091513112E+02 -0.36847149048E+02 -0.55267801820E+01  0.43316193782E+02  0.00000000000E+00 0.  1.
         11    1    1    2    0    0 -0.14803492505E+01  0.34964954603E+02 -0.69301412904E+02  0.77636494735E+02  0.00000000000E+00 0. -1.
</event>
<event>
 7    1  0.2766180E-009  0.7178625E+02  0.7561462E-02  0.1354122E+00
          2   -1    0    0  501    0  0.00000000000E+00  0.00000000000E+00  0.83886714518E+03  0.83886714518E+03  0.00000000000E+00 0. -1.
         -2   -1    0    0    0  501 -0.00000000000E+00 -0.00000000000E+00 -0.18556855731E+02  0.18556855731E+02  0.00000000000E+00 0.  1.
         25    2    1    2    0    0 -0.81588235284E+01 -0.30307674498E+02  0.66659907200E+03  0.67896000772E+03  0.12508895937E+03 0.  0.
          5    1    3    3  502    0  0.21969714218E+02 -0.31649554505E+02  0.58942503200E+02  0.70541149173E+02  0.41800000000E+01 0.  1.
         -5    1    3    3    0  502 -0.30128537746E+02  0.13418800066E+01  0.60765656880E+03  0.60841885855E+03  0.41800000000E+01 0.  1.
        -11    1    1    2    0    0 -0.20701708142E+02  0.39065931962E+02  0.13705606810E+03  0.14401067170E+03  0.00000000000E+00 0. -1.
         11    1    1    2    0    0  0.28860531670E+02 -0.87582574636E+01  0.16655149348E+02  0.34453321493E+02  0.00000000000E+00 0.  1.
</event>
<event>
 7    1  0.2766180E-009  0.9436974E+02  0.7561462E-02  0.1292602E+00
         -1   -1    0    0    0  501 -0.00000000000E+00  0.00000000000E+00  0.54978223499E+03  0.54978223499E+03  0.00000000000E+00 0.  1.
          1   -1    0    0  501    0  0.00000000000E+00 -0.00000000000E+00 -0.30486646187E+02  0.30486646187E+02  0.00000000000E+00 0. -1.
         25    2    1    2    0    0  0.11599121530E+01  0.47428022862E+02  0.40297671184E+03  0.42460474851E+03  0.12509276328E+03 0.  0.
          5    1    3    3  502    0 -0.36864045843E+02  0.68743013549E+02  0.16405690112E+03  0.18170497790E+03  0.41800000000E+01 0. -1.
         -5    1    3    3    0  502  0.38023957996E+02 -0.21314990687E+02  0.23891981071E+03  0.24289977061E+03  0.41800000000E+01 0. -1.
        -11    1    1    2    0    0  0.11429720100E+02 -0.52149573121E+02  0.12746834775E+03  0.13819694698E+03  0.00000000000E+00 0.  1.
         11    1    1    2    0    0 -0.12589632253E+02  0.47215502591E+01 -0.11149470780E+02  0.17467185686E+02  0.00000000000E+00 0. -1.
</event>
<event>
 7    1  0.2766180E-009  0.5579657E+02  0.7561462E-02  0.1416369E+00
          2   -1    0    0  501    0  0.00000000000E+00  0.00000000000E+00  0.22899732500E+03  0.22899732500E+03  0.00000000000E+00 0. -1.
         -2   -1    0    0    0  501 -0.00000000000E+00 -0.00000000000E+00 -0.51806865828E+02  0.51806865828E+02  0.00000000000E+00 0.  1.
         25    2    1    2    0    0 -0.40906077723E+01 -0.68362043508E+01  0.88558098143E+02  0.15347357799E+03  0.12509250830E+03 0.  0.
          5    1    3    3  502    0 -0.10774507089E+02  0.21235072832E+02  0.11291948276E+03  0.11547857078E+03  0.41800000000E+01 0. -1.
         -5    1    3    3    0  502  0.66838993172E+01 -0.28071277183E+02 -0.24361384621E+02  0.37995007217E+02  0.41800000000E+01 0. -1.
        -11    1    1    2    0    0  0.27708335500E+02 -0.97786278572E+01 -0.45888686491E+01  0.29739386921E+02  0.00000000000E+00 0.  1.
         11    1    1    2    0    0 -0.23617727727E+02  0.16614832208E+02  0.93221229679E+02  0.97591225913E+02  0.00000000000E+00 0. -1.
</event>
<event>
 7    1  0.2766180E-009  0.1788797E+03  0.7561462E-02  0.1168892E+00
          1   -1    0    0  501    0  0.00000000000E+00  0.00000000000E+00  0.16953077301E+03  0.16953077301E+03  0.00000000000E+00 0. -1.
         -1   -1    0    0    0  501 -0.00000000000E+00 -0.00000000000E+00 -0.28957108654E+03  0.28957108654E+03  0.00000000000E+00 0.  1.
         25    2    1    2    0    0  0.75930099930E+02 -0.14206451793E+03  0.49627012152E+02  0.20990260153E+03  0.12509418238E+03 0.  0.
          5    1    3    3  502    0 -0.12701106519E+02 -0.72246783495E+02 -0.21385198420E+02  0.76522643340E+02  0.41800000000E+01 0.  1.
         -5    1    3    3    0  502  0.88631206448E+02 -0.69817734432E+02  0.71012210572E+02  0.13337995819E+03  0.41800000000E+01 0.  1.
        -11    1    1    2    0    0  0.54833717551E+01  0.42112550013E+02 -0.84855034091E+02  0.94888940583E+02  0.00000000000E+00 0.  1.
         11    1    1    2    0    0 -0.81413471685E+02  0.99951967914E+02 -0.84812291595E+02  0.15431031744E+03  0.00000000000E+00 0. -1.
</event>
<event>
 7    1  0.2766180E-009  0.8100135E+02  0.7561462E-02  0.1326234E+00
          1   -1    0    0  501    0  0.00000000000E+00  0.00000000000E+00  0.50485046398E+02  0.50485046398E+02  0.00000000000E+00 0. -1.
         -1   -1    0    0    0  501 -0.00000000000E+00 -0.00000000000E+00 -0.29213196545E+03  0.29213196545E+03  0.00000000000E+00 0.  1.
         25    2    1    2    0    0  0.10535199463E+02 -0.58220909434E+02 -0.14412943542E+03  0.19980264996E+03  0.12508852886E+03 0.  0.
          5    1    3    3  502    0  0.40339137019E+02 -0.59742172884E+02 -0.24213828108E+02  0.76158749123E+02  0.41800000000E+01 0. -1.
         -5    1    3    3    0  502 -0.29803937556E+02  0.15212634499E+01 -0.11991560731E+03  0.12364390084E+03  0.41800000000E+01 0. -1.
        -11    1    1    2    0    0 -0.17018501612E+01  0.30930450975E+02  0.91956340267E+01  0.32313291021E+02  0.00000000000E+00 0.  1.
         11    1    1    2    0    0 -0.88333493019E+01  0.27290458459E+02 -0.10671311766E+03  0.11050107087E+03  0.00000000000E+00 0. -1.
</event>
<event>
 6    1  0.2766180E-009  0.8864668E+02  0.7561462E-02  0.1306162E+00
          1   -1    0    0  501    0  0.00000000000E+00  0.00000000000E+00  0.34594847186E+03  0.34594847186E+03  0.00000000000E+00 0. -1.
         -1   -1    0    0    0  501 -0.00000000000E+00 -0.00000000000E+00 -0.45801952421E+02  0.45801952421E+02  0.00000000000E+00 0.  1.
          5    1    1    2  502    0  0.25103549953E+02  0.48676016805E+02  0.19262854979E+02  0.58207154321E+02  0.41800000000E+01 0.  1.
         -5    1    1    2    0  502 -0.54104106128E+02  0.93251925694E+01  0.16411338601E+03  0.17310369547E+03  0.41800000000E+01 0.  1.
        -11    1    1    2    0    0  0.11536037946E+02 -0.72305080717E+01 -0.13724099809E+02  0.19331614885E+02  0.00000000000E+00 0.  1.
         11    1    1    2    0    0  0.17464518229E+02 -0.50770701302E+02  0.13049437826E+03  0.14110795961E+03  0.00000000000E+00 0. -1.
</event>
<event>
 7    1  0.2766180E-009  0.1191501E+03  0.7561462E-02  0.1244506E+00
          2   -1    0    0  501    0  0.00000000000E+00  0.00000000000E+00  0.67844040980E+03  0.67844040980E+03  0.00000000000E+00 0. -1.
         -2   -1    0    0    0  501 -0.00000000000E+00 -0.00000000000E+00 -0.32699617020E+02  0.32699617020E+02  0.00000000000E+00 0.  1.
         25    2    1    2    0    0 -0.14346313035E+02 -0.99341688278E+02  0.30177588107E+03  0.34174776423E+03  0.12509302232E+03 0.  0.
          5    1    3    3  502    0  0.24872125322E+02 -0.89472766495E+02  0.10253566694E+03  0.13840171226E+03  0.41800000000E+01 0. -1.
         -5    1    3    3    0  502 -0.39218438357E+02 -0.98689217828E+01  0.19924021413E+03  0.20334605197E+03  0.41800000000E+01 0. -1.
        -11    1    1    2    0    0  0.22558996893E+02  0.86869481090E+02  0.34286632733E+03  0.35441858516E+03  0.00000000000E+00 0. -1.
         11    1    1    2    0    0 -0.82126838575E+01  0.12472207188E+02  0.10985843782E+01  0.14973677435E+02  0.00000000000E+00 0.  1.
</event>
<event>
 7    1  0.2766180E-009  0.1180348E+03  0.7561462E-02  0.1246375E+00
         -1   -1    0    0    0  501 -0.00000000000E+00  0.00000000000E+00  0.79778645819E+02  0.79778645819E+02  0.00000000000E+00 0.  1.
          1   -1    0    0  501    0  0.00000000000E+00 -0.00000000000E+00 -0.20688369731E+03  0.20688369731E+03  0.00000000000E+00 0. -1.
         25    2    1    2    0    0 -0.66656126336E+02 -0.20446047541E+01 -0.95215359137E+02  0.17075620499E+03  0.12507796505E+03 0.  0.
          5    1    3    3  502    0 -0.95511307026E+02  0.23631150979E+02 -0.86192662034E+02  0.13087203084E+03  0.41800000000E+01 0. -1.
         -5    1    3    3    0  502  0.28855180690E+02 -0.25675755733E+02 -0.90226971031E+01  0.39884174156E+02  0.41800000000E+01 0. -1.
        -11    1    1    2    0    0  0.75358754800E+02  0.20703310966E+02 -0.46243849644E+02  0.90807833582E+02  0.00000000000E+00 0. -1.
         11    1    1    2    0    0 -0.87026284641E+01 -0.18658706212E+02  0.14354157294E+02  0.25098304551E+02  0.00000000000E+00 0.  1.
</event>
<event>
 7    1  0.2766180E-009  0.1245312E+03  0.7561462E-02  0.1235804E+00
         -2   -1    0    0    0  501 -0.00000000000E+00  0.00000000000E+00  0.61374868368E+03  0.61374868368E+03  0.00000000000E+00 0.  1.
          2   -1    0    0  501    0  0.00000000000E+00 -0.00000000000E+00 -0.29671944487E+02  0.29671944487E+02  0.00000000000E+00 0. -1.
         25    2    1    2    0    0 -0.28160412544E+02  0.64268938957E+02  0.40552207549E+03  0.43013768443E+03  0.12508704372E+03 0.  0.
          5    1    3    3  502    0  0.18177085663E+02  0.86104409850E+02  0.30155267251E+03  0.31415897654E+03  0.41800000000E+01 0. -1.
         -5    1    3    3    0  502 -0.46337498207E+02 -0.21835470893E+02  0.10396940298E+03  0.11597870789E+03  0.41800000000E+01 0. -1.
        -11    1    1    2    0    0 -0.91602357281E+01 -0.71046955078E+02  0.78463339461E+02  0.10624535465E+03  0.00000000000E+00 0.  1.
         11    1    1    2    0    0  0.37320648272E+02  0.67780161217E+01  0.10009132424E+03  0.10703758909E+03  0.00000000000E+00 0. -1.
</event>
<event>
 7    1  0.2766180E-009  0.1355158E+03  0.7561462E-02  0.1219493E+00
          2   -1    0    0  501    0  0.00000000000E+00  0.00000000000E+00  0.52379655728E+03  0.52379655728E+03  0.00000000000E+00 0.  1.
         -2   -1    0    0    0  501 -0.00000000000E+00 -0.00000000000E+00 -0.69563693499E+02  0.69563693499E+02  0.00000000000E+00 0. -1.
         25    2    1    2    0    0 -0.15514612841E+02  0.82399206053E+02  0.32840525257E+02  0.15412967735E+03  0.12508846858E+03 0.  0.
          5    1    3    3  502    0  0.49115988669E+02  0.67711302824E+02  0.24063159953E+02  0.87141889697E+02  0.41800000000E+01 0.  1.
         -5    1    3    3    0  502 -0.64630601510E+02  0.14687903229E+02  0.87773653042E+01  0.66987787652E+02  0.41800000000E+01 0.  1.
        -11    1    1    2    0    0  0.51421881694E+02 -0.57685793439E+02  0.31307197525E+03  0.32246848275E+03  0.00000000000E+00 0.  1.
         11    1    1    2    0    0 -0.35907268853E+02 -0.24713412614E+02  0.10832036327E+03  0.11676209068E+03  0.00000000000E+00 0. -1.
</event>
<event>
 7    1  0.2766180E-009  0.1252631E+03  0.7561462E-02  0.1234659E+00
         -3   -1    0    0    0  501 -0.00000000000E+00  0.00000000000E+00  0.17643610849E+02  0.17643610849E+02  0.00000000000E+00 0.  1.
          3   -1    0    0  501    0  0.00000000000E+00 -0.00000000000E+00 -0.95057851813E+03  0.95057851813E+03  0.00000000000E+00 0. -1.
         25    2    1    2    0    0  0.42065441710E+02  0.53718701084E+02 -0.63628212999E+03  0.65204104663E+03  0.12508947725E+03 0.  0.
          5    1    3    3  502    0 -0.41778529637E+02  0.38664060706E+02 -0.24196495967E+03  0.24860585118E+03  0.41800000000E+01 0. -1.
         -5    1    3    3    0  502  0.83843971347E+02  0.15054640377E+02 -0.39431717032E+03  0.40343519546E+03  0.41800000000E+01 0. -1.
        -11    1    1    2    0    0 -0.66103937993E+02 -0.24911470926E+02 -0.21530512343E+03  0.22659789976E+03  0.00000000000E+00 0. -1.
         11    1    1    2    0    0  0.24038496282E+02 -0.28807230158E+02 -0.81347653868E+02  0.89583182588E+02  0.00000000000E+00 0.  1.
</event>
<event>
 7    1  0.2766180E-009  0.8780764E+02  0.7561462E-02  0.1308249E+00
         -1   -1    0    0    0  501 -0.00000000000E+00  0.00000000000E+00  0.74860698521E+02  0.74860698521E+02  0.00000000000E+00 0.  1.
          1   -1    0    0  501    0  0.00000000000E+00 -0.00000000000E+00 -0.16601066568E+03  0.16601066568E+03  0.00000000000E+00 0. -1.
         25    2    1    2    0    0  0.18894531423E+02 -0.17872696382E+02 -0.54792330657E+02  0.13901661107E+03  0.12508789734E+03 0.  0.
          5    1    3    3  502    0 -0.49429903499E+02  0.62676359546E+01 -0.42029734492E+02  0.65318983472E+02  0.41800000000E+01 0.  1.
         -5    1    3    3    0  502  0.68324434922E+02 -0.24140332336E+02 -0.12762596165E+02  0.73697627599E+02  0.41800000000E+01 0.  1.
        -11    1    1    2    0    0  0.49182651257E+01  0.27062590745E+02  0.23884324499E+02  0.36428479332E+02  0.00000000000E+00 0.  1.
         11    1    1    2    0    0 -0.23812796549E+02 -0.91898943632E+01 -0.60241961006E+02  0.65426273803E+02  0.00000000000E+00 0. -1.
</event>
<event>
 7    1  0.2766180E-009  0.1167639E+03  0.7561462E-02  0.1248533E+00
         -1   -1    0    0    0  501 -0.00000000000E+00  0.00000000000E+00  0.10101464848E+03  0.10101464848E+03  0.00000000000E+00 0.  1.
          1   -1    0    0  501    0  0.00000000000E+00 -0.00000000000E+00 -0.39825040542E+03  0.39825040542E+03  0.00000000000E+00 0. -1.
         25    2    1    2    0    0 -0.11493243991E+03 -0.12104540914E+02 -0.71036724432E-01  0.17030564153E+03  0.12509204946E+03 0.  0.
          5    1    3    3  502    0 -0.59581791537E+02 -0.49412142635E+01  0.62338934187E+02  0.86475549127E+02  0.41800000000E+01 0. -1.
         -5    1    3    3    0  502 -0.55350648370E+02 -0.71633266510E+01 -0.62409970911E+02  0.83830092406E+02  0.41800000000E+01 0. -1.
        -11    1    1    2    0    0  0.94185292021E+02  0.12094737192E+01 -0.28928897608E+03  0.30423747918E+03  0.00000000000E+00 0. -1.
         11    1    1    2    0    0  0.20747147887E+02  0.10895067195E+02 -0.78757441430E+01  0.24721933186E+02  0.00000000000E+00 0.  1.
</event>
<event>
 7    1  0.2766180E-009  0.1332435E+03  0.7561462E-02  0.1222721E+00
          3   -1    0    0  501    0  0.00000000000E+00  0.00000000000E+00  0.24919428437E+02  0.24919428437E+02  0.00000000000E+00 0. -1.
         -3   -1    0    0    0  501 -0.00000000000E+00 -0.00000000000E+00 -0.86952338309E+03  0.86952338309E+03  0.00000000000E+00 0.  1.
         25    2    1    2    0    0  0.77684902748E+02 -0.55907209337E+02 -0.38223941862E+03  0.41342088172E+03  0.12509713076E+03 0.  0.
          5    1    3    3  502    0  0.10398691757E+03 -0.14914722394E+02 -0.21742083896E+03  0.24150573820E+03  0.41800000000E+01 0.  1.
         -5    1    3    3    0  502 -0.26302014827E+02 -0.40992486944E+02 -0.16481857966E+03  0.17191514352E+03  0.41800000000E+01 0.  1.
        -11    1    1    2    0    0 -0.72315747488E+02  0.18454724889E+02 -0.40810642070E+03  0.41487467364E+03  0.00000000000E+00 0.  1.
         11    1    1    2    0    0 -0.53691552601E+01  0.37452484449E+02 -0.54258115330E+02  0.66147256170E+02  0.00000000000E+00 0. -1.
</event>
<event>
 7    1  0.2766180E-009  0.1212394E+03  0.7561462E-02  0.1241066E+00
         -2   -1    0    0    0  501 -0.00000000000E+00  0.00000000000E+00  0.19861095038E+02  0.19861095038E+02  0.00000000000E+00 0.  1.
          2   -1    0    0  501    0  0.00000000000E+00 -0.00000000000E+00 -0.10776981506E+04  0.10776981506E+04  0.00000000000E+00 0. -1.
         25    2    1    2    0    0  0.53625903822E+02 -0.68646944935E+02 -0.74812781897E+03  0.76349949130E+03  0.12509236223E+03 0.  0.
          5    1    3    3  502    0  0.13974974139E+02  0.32880296168E+02 -0.30638980322E+03  0.30849408048E+03  0.41800000000E+01 0. -1.
         -5    1    3    3    0  502  0.39650929684E+02 -0.10152724110E+03 -0.44173801575E+03  0.45500541081E+03  0.41800000000E+01 0. -1.
        -11    1    1    2    0    0 -0.40975655769E+02  0.17175871374E+02 -0.41949968673E+02  0.61104949021E+02  0.00000000000E+00 0.  1.
         11    1    1    2    0    0 -0.12650248053E+02  0.51471073561E+02 -0.26775926796E+03  0.27295480536E+03  0.00000000000E+00 0. -1.
</event>
<event>
 7    1  0.2766180E-009  0.1144577E+03  0.7561462E-02  0.1252531E+00
         -2   -1    0    0    0  501 -0.00000000000E+00  0.00000000000E+00  0.25604385817E+03  0.25604385817E+03  0.00000000000E+00 0.  1.
          2   -1    0    0  501    0  0.00000000000E+00 -0.00000000000E+00 -0.59920624772E+02  0.59920624772E+02  0.00000000000E+00 0. -1.
         25    2    1    2    0    0  0.38767166860E+02 -0.28422647427E+02  0.15641049765E+03  0.20596261174E+03  0.12508242701E+03 0.  0.
          5    1    3    3  502    0  0.55255042568E+02  0.32857965850E+02  0.10908910021E+03  0.12669123819E+03  0.41800000000E+01 0. -1.
         -5    1    3    3    0  502 -0.16487875708E+02 -0.61280613277E+02  0.47321397439E+02  0.79271373551E+02  0.41800000000E+01 0. -1.
        -11    1    1    2    0    0  0.26009377617E+02  0.24925799222E+02  0.23899145428E+02  0.43231381462E+02  0.00000000000E+00 0. -1.
         11    1    1    2    0    0 -0.64776544477E+02  0.34968482045E+01  0.15813590324E+02  0.66770489745E+02  0.00000000000E+00 0.  1.
</event>
<event>
 7    1  0.2766180E-009  0.1635620E+03  0.7561462E-02  0.1184733E+00
          1   -1    0    0  501    0  0.00000000000E+00  0.00000000000E+00  0.23821084467E+03  0.23821084467E+03  0.00000000000E+00 0. -1.
         -1   -1    0    0    0  501 -0.00000000000E+00 -0.00000000000E+00 -0.14725649826E+03  0.14725649826E+03  0.00000000000E+00 0.  1.
         25    2    1    2    0    0  0.37130400374E+02 -0.12218064289E+03 -0.38427216124E+02  0.18284133500E+03  0.12509007442E+03 0.  0.
          5    1    3    3  502    0 -0.40929126048E+02 -0.60678955615E+02  0.67020655419E+01  0.73617383111E+02  0.41800000000E+01 0.  1.
         -5    1    3    3    0  502  0.78059526422E+02 -0.61501687272E+02 -0.45129281666E+02  0.10922395189E+03  0.41800000000E+01 0.  1.
        -11    1    1    2    0    0 -0.32917795835E+02  0.83439156307E+00  0.16460503304E+02  0.36813389696E+02  0.00000000000E+00 0.  1.
         11    1    1    2    0    0 -0.42126045394E+01  0.12134625132E+03  0.11292105923E+03  0.16581261823E+03  0.00000000000E+00 0. -1.
</event>
<event>
 7    1  0.2766180E-009  0.1098155E+03  0.7561462E-02  0.1260912E+00
          2   -1    0    0  501    0  0.00000000000E+00  0.00000000000E+00  0.24558306884E+03  0.24558306884E+03  0.00000000000E+00 0. -1.
         -2   -1    0    0    0  501 -0.00000000000E+00 -0.00000000000E+00 -0.57804538036E+02  0.57804538036E+02  0.00000000000E+00 0.  1.
         25    2    1    2    0    0  0.27146419669E+02  0.14395221436E+02  0.58250134740E+02  0.14135693732E+03  0.12507819566E+03 0.  0.
          5    1    3    3  502    0  0.24722635539E+02 -0.52019453961E+02  0.45589549116E+02  0.73573851925E+02  0.41800000000E+01 0.  1.
         -5    1    3    3    0  502  0.24237841302E+01  0.66414675397E+02  0.12660585623E+02  0.67783085396E+02  0.41800000000E+01 0.  1.
        -11    1    1    2    0    0  0.28536604966E+02  0.15095853626E+02  0.60455226112E+02  0.68535078492E+02  0.00000000000E+00 0.  1.
         11    1    1    2    0    0 -0.55683024635E+02 -0.29491075062E+02  0.69073169950E+02  0.93495591060E+02  0.00000000000E+00 0. -1.
</event>
<event>
 7    1  0.2766180E-009  0.8816654E+02  0.7561462E-02  0.1307353E+00
          1   -1    0    0  501    0  0.00000000000E+00  0.00000000000E+00  0.89384060076E+03  0.89384060076E+03  0.00000000000E+00 0. -1.
         -1   -1    0    0    0  501 -0.00000000000E+00 -0.00000000000E+00 -0.20234135538E+02  0.20234135538E+02  0.00000000000E+00 0.  1.
         25    2    1    2    0    0 -0.12307446016E+02  0.15127592555E+02  0.72865542127E+03  0.73957160706E+03  0.12508845565E+03 0.  0.
          5    1    3    3  502    0 -0.57012987428E+02  0.19759767536E+02  0.19881623199E+03  0.20781312675E+03  0.41800000000E+01 0.  1.
         -5    1    3    3    0  502  0.44705541412E+02 -0.46321749808E+01  0.52983918929E+03  0.53175848031E+03  0.41800000000E+01 0.  1.
        -11    1    1    2    0    0 -0.23801445409E+02  0.10919235984E+02  0.12128781077E+03  0.12408251915E+03  0.00000000000E+00 0. -1.
         11    1    1    2    0    0  0.36108891426E+02 -0.26046828539E+02  0.23663233183E+02  0.50420610087E+02  0.00000000000E+00 0.  1.
</event>
<event>
 7    1  0.2766180E-009  0.1101596E+03  0.7561462E-02  0.1260275E+00
          1   -1    0    0  501    0  0.00000000000E+00  0.00000000000E+00  0.52056929543E+02  0.52056929543E+02  0.00000000000E+00 0. -1.
         -1   -1    0    0    0  501 -0.00000000000E+00 -0.00000000000E+00 -0.33527731386E+03  0.33527731386E+03  0.00000000000E+00 0.  1.
         25    2    1    2    0    0  0.16697083427E+02 -0.46092682013E+02 -0.23963389872E+03  0.27472779232E+03  0.12509047337E+03 0.  0.
          5    1    3    3  502    0  0.33194844168E+02  0.32751265520E+02 -0.13316141486E+03  0.14115232155E+03  0.41800000000E+01 0. -1.
         -5    1    3    3    0  502 -0.16497760741E+02 -0.78843947532E+02 -0.10647248386E+03  0.13357547077E+03  0.41800000000E+01 0. -1.
        -11    1    1    2    0    0  0.19736167594E+02 -0.12847058125E+02  0.94223187996E+01  0.25364213083E+02  0.00000000000E+00 0. -1.
         11    1    1    2    0    0 -0.36433251020E+02  0.58939740138E+02 -0.53008804399E+02  0.87242238000E+02  0.00000000000E+00 0.  1.
</event>
<event>
 7    1  0.2766180E-009  0.1599947E+03  0.7561462E-02  0.1188703E+00
          1   -1    0    0  501    0  0.00000000000E+00  0.00000000000E+00  0.74824629643E+02  0.74824629643E+02  0.00000000000E+00 0. -1.
         -1   -1    0    0    0  501 -0.00000000000E+00 -0.00000000000E+00 -0.52010906509E+03  0.52010906509E+03  0.00000000000E+00 0.  1.
         25    2    1    2    0    0  0.91482158913E+02 -0.10841084746E+03 -0.10823144788E+03  0.21790427256E+03  0.12508528468E+03 0.  0.
          5    1    3    3  502    0  0.58402112034E+02 -0.12615633557E+03 -0.11382448364E+03  0.17972120958E+03  0.41800000000E+01 0.  1.
         -5    1    3    3    0  502  0.33080046879E+02  0.17745488112E+02  0.55930357645E+01  0.38183062985E+02  0.41800000000E+01 0.  1.
        -11    1    1    2    0    0 -0.26367781196E+02  0.45543879140E+02 -0.38903999171E+02  0.65444831452E+02  0.00000000000E+00 0.  1.
         11    1    1    2    0    0 -0.65114377716E+02  0.62866968322E+02 -0.29814898839E+03  0.31158459072E+03  0.00000000000E+00 0. -1.
</event>
<event>
 7    1  0.2766180E-009  0.1135212E+03  0.7561462E-02  0.1254185E+00
         -2   -1    0    0    0  501 -0.00000000000E+00  0.00000000000E+00  0.32221152610E+03  0.32221152610E+03  0.00000000000E+00 0.  1.
          2   -1    0    0  501    0  0.00000000000E+00 -0.00000000000E+00 -0.53408442967E+02  0.53408442967E+02  0.00000000000E+00 0. -1.
         25    2    1    2    0    0 -0.74291891047E+02 -0.68546184055E+00  0.14176096803E+03  0.20314301650E+03  0.12510458889E+03 0.  0.
          5    1    3    3  502    0 -0.64012212239E+01  0.55666635172E+02  0.66825855093E+02  0.87309319167E+02  0.41800000000E+01 0. -1.
         -5    1    3    3    0  502 -0.67890669823E+02 -0.56352097012E+02  0.74935112938E+02  0.11583369733E+03  0.41800000000E+01 0. -1.
        -11    1    1    2    0    0  0.39665462752E+02 -0.17566174427E+02  0.12606744884E+03  0.13332262027E+03  0.00000000000E+00 0.  1.
         11    1    1    2    0    0  0.34626428295E+02  0.18251636268E+02  0.97466625978E+00  0.39154332292E+02  0.00000000000E+00 0. -1.
</event>
<event>
 7    1  0.2766180E-009  0.1298253E+03  0.7561462E-02  0.1227715E+00
          2   -1    0    0  501    0  0.00000000000E+00  0.00000000000E+00  0.12033128911E+04  0.12033128911E+04  0.00000000000E+00 0. -1.
         -2   -1    0    0    0  501 -0.00000000000E+00 -0.00000000000E+00 -0.35860436688E+02  0.35860436688E+02  0.00000000000E+00 0.  1.
         25    2    1    2    0    0 -0.69884168117E+02 -0.40289865165E+02  0.10766069167E+04  0.10868472879E+04  0.12508998385E+03 0.  0.
          5    1    3    3  502    0 -0.69384547752E+02  0.25128368042E+02  0.37709224511E+03  0.38426772447E+03  0.41800000000E+01 0.  1.
         -5    1    3    3    0  502 -0.49962036447E+00 -0.65418233208E+02  0.69951467158E+03  0.70257956348E+03  0.41800000000E+01 0.  1.
        -11    1    1    2    0    0  0.80786731564E+02  0.24702859527E+01  0.73746033636E+02  0.10941241148E+03  0.00000000000E+00 0. -1.
         11    1    1    2    0    0 -0.10902563448E+02  0.37819579213E+02  0.17099504133E+02  0.42913628408E+02  0.00000000000E+00 0.  1.
</event>
<event>
 7    1  0.2766180E-009  0.1572235E+03  0.7561462E-02  0.1191868E+00
         -1   -1    0    0    0  501 -0.00000000000E+00  0.00000000000E+00  0.54953540607E+02  0.54953540607E+02  0.00000000000E+00 0.  1.
          1   -1    0    0  501    0  0.00000000000E+00 -0.00000000000E+00 -0.60966001514E+03  0.60966001514E+03  0.00000000000E+00 0. -1.
         25    2    1    2    0    0  0.12648699285E+03 -0.17232269982E+02 -0.16211436415E+03  0.24129708163E+03  0.12508918439E+03 0.  0.
          5    1    3    3  502    0 -0.11906693119E+02 -0.31557933802E+02 -0.58924093338E+02  0.68023479054E+02  0.41800000000E+01 0.  1.
         -5    1    3    3    0  502  0.13839368597E+03  0.14325663820E+02 -0.10319027081E+03  0.17327360257E+03  0.41800000000E+01 0.  1.
        -11    1    1    2    0    0 -0.84056639863E+02 -0.18176697671E+02 -0.13652429394E+03  0.16135301013E+03  0.00000000000E+00 0.  1.
         11    1    1    2    0    0 -0.42430352984E+02  0.35408967653E+02 -0.25606781645E+03  0.26196346399E+03  0.00000000000E+00 0. -1.
</event>
<event>
 7    1  0.2766180E-009  0.1206407E+03  0.7561462E-02  0.1242044E+00
          1   -1    0    0  501    0  0.00000000000E+00  0.00000000000E+00  0.27278458874E+02  0.27278458874E+02  0.00000000000E+00 0. -1.
         -1   -1    0    0    0  501 -0.00000000000E+00 -0.00000000000E+00 -0.68755277854E+03  0.68755277854E+03  0.00000000000E+00 0.  1.
         25    2    1    2    0    0  0.11291088082E+02  0.82536286068E+02 -0.39256649234E+03  0.42035212140E+03  0.12509087845E+03 0.  0.
          5    1    3    3  502    0  0.26385383135E+02 -0.25924975317E+02 -0.14337342565E+03  0.14812732487E+03  0.41800000000E+01 0.  1.
         -5    1    3    3    0  502 -0.15094295053E+02  0.10846126139E+03 -0.24919306669E+03  0.27222479654E+03  0.41800000000E+01 0.  1.
        -11    1    1    2    0    0 -0.28602048512E+02 -0.53438672532E+02 -0.64655518485E+02  0.88623388401E+02  0.00000000000E+00 0. -1.
         11    1    1    2    0    0  0.17310960430E+02 -0.29097613536E+02 -0.20305230884E+03  0.20585572761E+03  0.00000000000E+00 0.  1.
</event>
<event>
 7    1  0.2766180E-009  0.1990253E+03  0.7561462E-02  0.1150564E+00
         -1   -1    0    0    0  501 -0.00000000000E+00  0.00000000000E+00  0.19490258813E+03  0.19490258813E+03  0.00000000000E+00 0.  1.
          1   -1    0    0  501    0  0.00000000000E+00 -0.00000000000E+00 -0.26321881021E+03  0.26321881021E+03  0.00000000000E+00 0. -1.
         25    2    1    2    0    0 -0.77225572414E+02  0.16660347896E+03  0.33081626143E+02  0.22463805061E+03  0.12508937428E+03 0.  0.
          5    1    3    3  502    0 -0.18685550366E+02  0.11705486347E+03 -0.33216868950E+02  0.12317395681E+03  0.41800000000E+01 0. -1.
         -5    1    3    3    0  502 -0.58540022047E+02  0.49548615492E+02  0.66298495093E+02  0.10146409380E+03  0.41800000000E+01 0. -1.
        -11    1    1    2    0    0 -0.12878720104E+02  0.38563656370E+00  0.72981371321E+01  0.14807867931E+02  0.00000000000E+00 0.  1.
         11    1    1    2    0    0  0.90104292518E+02 -0.16698911552E+03 -0.10869598536E+03  0.21867547980E+03  0.00000000000E+00 0. -1.
</event>
<event>
 7    1  0.3880176E-009  0.1891646E+03  0.7561462E-02  0.1159217E+00
          1   -1    0    0  501    0  0.00000000000E+00  0.00000000000E+00  0.53591255720E+03  0.53591255720E+03  0.00000000000E+00 0. -1.
         -1   -1    0    0    0  501 -0.00000000000E+00 -0.00000000000E+00 -0.86339161290E+02  0.86339161290E+02  0.00000000000E+00 0.  1.
         25    2    1    2    0    0 -0.16512400549E+03  0.15833330600E+02  0.11416538486E+03  0.23708864464E+03  0.12514255379E+03 0.  0.
          5    1    3    3  502    0 -0.14104793666E+03 -0.29691730275E+02  0.45606447219E+02  0.15124000698E+03  0.41800000000E+01 0.  1.
         -5    1    3    3    0  502 -0.24076068828E+02  0.45525060875E+02  0.68558937637E+02  0.85848637659E+02  0.41800000000E+01 0.  1.
        -11    1    1    2    0    0  0.11590201943E+03  0.24927661117E+02  0.16506911246E+03  0.20323011165E+03  0.00000000000E+00 0.  1.
         11    1    1    2    0    0  0.49221986063E+02 -0.40760991717E+02  0.17033889860E+03  0.18193296220E+03  0.00000000000E+00 0. -1.
</event>
<event>
 7    1  0.2766180E-009  0.3067208E+03  0.7561462E-02  0.1081928E+00
         -2   -1    0    0    0  501 -0.00000000000E+00  0.00000000000E+00  0.44096575903E+03  0.44096575903E+03  0.00000000000E+00 0.  1.
          2   -1    0    0  501    0  0.00000000000E+00 -0.00000000000E+00 -0.23557816764E+03  0.23557816764E+03  0.00000000000E+00 0. -1.
         25    2    1    2    0    0  0.26439000242E+03 -0.14012705148E+03  0.51584403039E+02  0.32839927490E+03  0.12508984443E+03 0.  0.
          5    1    3    3  502    0  0.24627688282E+03 -0.10668348313E+03  0.54716520368E+01  0.26847919838E+03  0.41800000000E+01 0.  1.
         -5    1    3    3    0  502  0.18113119602E+02 -0.33443568343E+02  0.46112751003E+02  0.59920076521E+02  0.41800000000E+01 0.  1.
        -11    1    1    2    0    0 -0.21927411137E+03  0.14261259055E+03  0.15283726333E+03  0.30295002222E+03  0.00000000000E+00 0.  1.
         11    1    1    2    0    0 -0.45115891049E+02 -0.24855390694E+01  0.96592502780E+00  0.45194629557E+02  0.00000000000E+00 0. -1.
</event>
<event>
 7    1  0.2766180E-009  0.8972100E+02  0.7561462E-02  0.1303529E+00
         -2   -1    0    0    0  501 -0.00000000000E+00  0.00000000000E+00  0.32816954098E+02  0.32816954098E+02  0.00000000000E+00 0.  1.
          2   -1    0    0  501    0  0.00000000000E+00 -0.00000000000E+00 -0.51973854382E+03  0.51973854382E+03  0.00000000000E+00 0. -1.
         25    2    1    2    0    0 -0.63266337613E+02  0.20150953635E+02 -0.21174198043E+03  0.25473827311E+03  0.12509288990E+03 0.  0.
          5    1    3    3  502    0 -0.55058749390E+02  0.45377505623E+02 -0.21602728417E+03  0.22754305923E+03  0.41800000000E+01 0. -1.
         -5    1    3    3    0  502 -0.82075882232E+01 -0.25226551988E+02  0.42853037379E+01  0.27195213876E+02  0.41800000000E+01 0. -1.
        -11    1    1    2    0    0  0.91330824620E+01  0.14287052958E+02 -0.18487503369E+01  0.17057284523E+02  0.00000000000E+00 0.  1.
         11    1    1    2    0    0  0.54133255151E+02 -0.34438006593E+02 -0.27333085895E+03  0.28075994028E+03  0.00000000000E+00 0. -1.
</event>
<event>
 7    1  0.4001976E-009  0.9798314E+02  0.7561462E-02  0.1284595E+00
         -1   -1    0    0    0  501 -0.00000000000E+00  0.00000000000E+00  0.93112276818E+02  0.93112276818E+02  0.00000000000E+00 0.  1.
          1   -1    0    0  501    0  0.00000000000E+00 -0.00000000000E+00 -0.17516155344E+03  0.17516155344E+03  0.00000000000E+00 0. -1.
         25    2    1    2    0    0 -0.12943445089E+02  0.11710058350E+02 -0.11336899923E+03  0.16973916267E+03  0.12511672599E+03 0.  0.
          5    1    3    3  502    0 -0.30282811890E+02 -0.49179078274E+02 -0.30736539862E+02  0.65557895928E+02  0.41800000000E+01 0.  1.
         -5    1    3    3    0  502  0.17339366802E+02  0.60889136624E+02 -0.82632459364E+02  0.10418126674E+03  0.41800000000E+01 0.  1.
        -11    1    1    2    0    0  0.33642417648E+02  0.18191403311E+02  0.45554950699E+02  0.59481030193E+02  0.00000000000E+00 0.  1.
         11    1    1    2    0    0 -0.20698972560E+02 -0.29901461661E+02 -0.14235228093E+02  0.39053637390E+02  0.00000000000E+00 0. -1.
</event>
<event>
 7    1  0.3212916E-009  0.1752439E+03  0.7561462E-02  0.1172487E+00
          2   -1    0    0  501    0  0.00000000000E+00  0.00000000000E+00  0.87824618398E+03  0.87824618398E+03  0.00000000000E+00 0. -1.
         -2   -1    0    0    0  501 -0.00000000000E+00 -0.00000000000E+00 -0.63214059441E+02  0.63214059441E+02  0.00000000000E+00 0.  1.
         25    2    1    2    0    0 -0.14173188710E+03 -0.90115137245E+02  0.66888746630E+03  0.70090402537E+03  0.12508934578E+03 0.  0.
          5    1    3    3  502    0 -0.48882502125E+02 -0.60916657826E+02  0.11866814351E+03  0.14212648909E+03  0.41800000000E+01 0. -1.
         -5    1    3    3    0  502 -0.92849384978E+02 -0.29198479419E+02  0.55021932279E+03  0.55877753629E+03  0.41800000000E+01 0. -1.
        -11    1    1    2    0    0  0.31306372695E+02  0.46642435059E+02  0.53660618017E+01  0.56430491215E+02  0.00000000000E+00 0.  1.
         11    1    1    2    0    0  0.11042551441E+03  0.43472702186E+02  0.14077859644E+03  0.18412572684E+03  0.00000000000E+00 0. -1.
</event>
<event>
 7    1  0.2766180E-009  0.2572301E+03  0.7561462E-02  0.1108819E+00
         -2   -1    0    0    0  501 -0.00000000000E+00  0.00000000000E+00  0.75499370767E+02  0.75499370767E+02  0.00000000000E+00 0. -1.
          2   -1    0    0  501    0  0.00000000000E+00 -0.00000000000E+00 -0.12620683042E+04  0.12620683042E+04  0.00000000000E+00 0.  1.
         25    2    1    2    0    0 -0.60608898971E+02 -0.24207525371E+03 -0.91558956959E+03  0.95719711967E+03  0.12509276100E+03 0.  0.
          5    1    3    3  502    0 -0.67585424269E+02 -0.15323026124E+03 -0.39559711310E+03  0.42960662335E+03  0.41800000000E+01 0. -1.
         -5    1    3    3    0  502  0.69765252975E+01 -0.88844992471E+02 -0.51999245650E+03  0.52759049632E+03  0.41800000000E+01 0. -1.
        -11    1    1    2    0    0  0.60402806401E+02  0.10879755239E+03 -0.18066500659E+03  0.21937468184E+03  0.00000000000E+00 0.  1.
         11    1    1    2    0    0  0.20609257008E+00  0.13327770133E+03 -0.90314357241E+02  0.16099587345E+03  0.00000000000E+00 0. -1.
</event>
<event>
 7    1  0.2766180E-009  0.2125440E+03  0.7561462E-02  0.1139567E+00
          1   -1    0    0  501    0  0.00000000000E+00  0.00000000000E+00  0.62653120857E+03  0.62653120857E+03  0.00000000000E+00 0. -1.
         -1   -1    0    0    0  501 -0.00000000000E+00 -0.00000000000E+00 -0.13584154554E+03  0.13584154554E+03  0.00000000000E+00 0.  1.
         25    2    1    2    0    0 -0.19293926708E+03 -0.27907393411E+02  0.60483108816E+01  0.23170603749E+03  0.12508685925E+03 0.  0.
          5    1    3    3  502    0 -0.61460474471E+02 -0.48063834538E+02  0.48566540891E+02  0.91998388066E+02  0.41800000000E+01 0. -1.
         -5    1    3    3    0  502 -0.13147879261E+03  0.20156441126E+02 -0.42518230009E+02  0.13970764942E+03  0.41800000000E+01 0. -1.
        -11    1    1    2    0    0  0.11341237465E+03 -0.27807403585E+02  0.22570976867E+03  0.25412697237E+03  0.00000000000E+00 0. -1.
         11    1    1    2    0    0  0.79526892434E+02  0.55714796996E+02  0.25893158348E+03  0.27653974425E+03  0.00000000000E+00 0.  1.
</event>
<event>
 7    1  0.2766180E-009  0.1366656E+03  0.7561462E-02  0.1217887E+00
          2   -1    0    0  501    0  0.00000000000E+00  0.00000000000E+00  0.68684225429E+03  0.68684225429E+03  0.00000000000E+00 0. -1.
         -2   -1    0    0    0  501 -0.00000000000E+00 -0.00000000000E+00 -0.35004209887E+02  0.35004209887E+02  0.00000000000E+00 0.  1.
         25    2    1    2    0    0  0.72269896060E+02  0.54019032619E+02  0.50017722536E+03  0.52341557933E+03  0.12508244543E+03 0.  0.
          5    1    3    3  502    0  0.21098411196E+02  0.85364308468E+02  0.36486640586E+03  0.37533608225E+03  0.41800000000E+01 0. -1.
         -5    1    3    3    0  502  0.51171484864E+02 -0.31345275849E+02  0.13531081951E+03  0.14807949708E+03  0.41800000000E+01 0. -1.
        -11    1    1    2    0    0 -0.80526571008E+02 -0.70296501908E+02  0.14213141191E+03  0.17784112312E+03  0.00000000000E+00 0. -1.
         11    1    1    2    0    0  0.82566749487E+01  0.16277469289E+02  0.95294071219E+01  0.20589761722E+02  0.00000000000E+00 0.  1.
</event>
<event>
 7    1  0.2766180E-009  0.1394775E+03  0.7561462E-02  0.1214034E+00
          1   -1    0    0  501    0  0.00000000000E+00  0.00000000000E+00  0.50907437822E+03  0.50907437822E+03  0.00000000000E+00 0. -1.
         -1   -1    0    0    0  501 -0.00000000000E+00 -0.00000000000E+00 -0.53113623652E+02  0.53113623652E+02  0.00000000000E+00 0.  1.
         25    2    1    2    0    0 -0.58312099220E+01  0.12103502905E+03  0.20565313859E+03  0.26948988102E+03  0.12509237104E+03 0.  0.
          5    1    3    3  502    0  0.16865576157E+02  0.43866336599E+02  0.17828312127E+03  0.18442084176E+03  0.41800000000E+01 0. -1.
         -5    1    3    3    0  502 -0.22696786079E+02  0.77168692447E+02  0.27370017325E+02  0.85069039260E+02  0.41800000000E+01 0. -1.
        -11    1    1    2    0    0 -0.22437029445E+02  0.42123951257E+01  0.46799184282E+02  0.52070415904E+02  0.00000000000E+00 0.  1.
         11    1    1    2    0    0  0.28268239367E+02 -0.12524742417E+03  0.20350843170E+03  0.24062770495E+03  0.00000000000E+00 0. -1.
</event>
<event>
 7    1  0.2766180E-009  0.1805754E+03  0.7561462E-02  0.1167247E+00
         -2   -1    0    0    0  501 -0.00000000000E+00  0.00000000000E+00  0.29472599956E+02  0.29472599956E+02  0.00000000000E+00 0.  1.
          2   -1    0    0  501    0  0.00000000000E+00 -0.00000000000E+00 -0.15069805493E+04  0.15069805493E+04  0.00000000000E+00 0. -1.
         25    2    1    2    0    0  0.15051876745E+03 -0.48080622884E+02 -0.10836138754E+04  0.11021951756E+04  0.12509008151E+03 0.  0.
          5    1    3    3  502    0  0.40025704571E+02  0.41146303060E+02 -0.38512186304E+03  0.38939876358E+03  0.41800000000E+01 0. -1.
         -5    1    3    3    0  502  0.11049306288E+03 -0.89226925945E+02 -0.69849201232E+03  0.71279641198E+03  0.41800000000E+01 0. -1.
        -11    1    1    2    0    0 -0.42928428400E+02  0.30101827459E+02 -0.23978234084E+03  0.24544763385E+03  0.00000000000E+00 0. -1.
         11    1    1    2    0    0 -0.10759033905E+03  0.17978795425E+02 -0.15411173311E+03  0.18881033982E+03  0.00000000000E+00 0.  1.
</event>
<event>
 7    1  0.2766180E-009  0.1086536E+03  0.7561462E-02  0.1263084E+00
          2   -1    0    0  501    0  0.00000000000E+00  0.00000000000E+00  0.33794399853E+03  0.33794399853E+03  0.00000000000E+00 0. -1.
         -2   -1    0    0    0  501 -0.00000000000E+00 -0.00000000000E+00 -0.37037152794E+02  0.37037152794E+02  0.00000000000E+00 0.  1.
         25    2    1    2    0    0  0.16912146137E+02 -0.79960282293E+01  0.14114547546E+03  0.18952505146E+03  0.12509093786E+03 0.  0.
          5    1    3    3  502    0  0.61415413203E+02  0.29138469375E+02  0.82244148394E+02  0.10678237552E+03  0.41800000000E+01 0.  1.
         -5    1    3    3    0  502 -0.44503267066E+02 -0.37134497605E+02  0.58901327062E+02  0.82742675939E+02  0.41800000000E+01 0.  1.
        -11    1    1    2    0    0 -0.25418535244E+02 -0.37225032899E+02  0.10267607330E+03  0.11213465582E+03  0.00000000000E+00 0. -1.
         11    1    1    2    0    0  0.85063891069E+01  0.45221061128E+02  0.57085296980E+02  0.73321444042E+02  0.00000000000E+00 0.  1.
</event>
<event>
 7    1  0.2766180E-009  0.1157525E+03  0.7561462E-02  0.1250273E+00
         -2   -1    0    0    0  501 -0.00000000000E+00  0.00000000000E+00  0.41011946237E+03  0.41011946237E+03  0.00000000000E+00 0.  1.
          2   -1    0    0  501    0  0.00000000000E+00 -0.00000000000E+00 -0.73810884691E+02  0.73810884691E+02  0.00000000000E+00 0. -1.
         25    2    1    2    0    0 -0.92845734780E+02 -0.98557886386E+01  0.31462207605E+03  0.35121464574E+03  0.12508880689E+03 0.  0.
          5    1    3    3  502    0  0.18400356727E+01  0.18072566756E+02  0.19576809111E+03  0.19665355653E+03  0.41800000000E+01 0.  1.
         -5    1    3    3    0  502 -0.94685770453E+02 -0.27928355395E+02  0.11885398494E+03  0.15456108921E+03  0.41800000000E+01 0.  1.
        -11    1    1    2    0    0  0.59480302420E+02  0.37851230454E+02  0.44676231385E+02  0.83466086968E+02  0.00000000000E+00 0.  1.
         11    1    1    2    0    0  0.33365432360E+02 -0.27995441816E+02 -0.22989729760E+02  0.49249614348E+02  0.00000000000E+00 0. -1.
</event>
<event>
 7    1  0.2766180E-009  0.2111906E+03  0.7561462E-02  0.1140627E+00
          1   -1    0    0  501    0  0.00000000000E+00  0.00000000000E+00  0.50619149925E+03  0.50619149925E+03  0.00000000000E+00 0. -1.
         -1   -1    0    0    0  501 -0.00000000000E+00 -0.00000000000E+00 -0.10433305157E+03  0.10433305157E+03  0.00000000000E+00 0.  1.
         25    2    1    2    0    0  0.93469999765E+02  0.17894916760E+03  0.24856605326E+03  0.34379376013E+03  0.12509844615E+03 0.  0.
          5    1    3    3  502    0  0.93892210786E+02  0.18252576912E+03  0.25988987988E+03  0.33119726101E+03  0.41800000000E+01 0.  1.
         -5    1    3    3    0  502 -0.42221102088E+00 -0.35766015235E+01 -0.11323826618E+02  0.12596499112E+02  0.41800000000E+01 0.  1.
        -11    1    1    2    0    0 -0.10189187900E+03 -0.14941386327E+03  0.10390625439E+03  0.20857364945E+03  0.00000000000E+00 0.  1.
         11    1    1    2    0    0  0.84218792331E+01 -0.29535304330E+02  0.49386140030E+02  0.58157141253E+02  0.00000000000E+00 0. -1.
</event>
<event>
 7    1  0.2766180E-009  0.1562396E+03  0.7561462E-02  0.1193009E+00
          2   -1    0    0  501    0  0.00000000000E+00  0.00000000000E+00  0.33483447094E+02  0.33483447094E+02  0.00000000000E+00 0. -1.
         -2   -1    0    0    0  501 -0.00000000000E+00 -0.00000000000E+00 -0.78210700384E+03  0.78210700384E+03  0.00000000000E+00 0.  1.
         25    2    1    2    0    0  0.55310992238E+02  0.10367949024E+03 -0.45688125207E+03  0.48805416099E+03  0.12509053923E+03 0.  0.
          5    1    3    3  502    0  0.91278643309E+02  0.55336909971E+02 -0.34152733037E+03  0.35784403603E+03  0.41800000000E+01 0.  1.
         -5    1    3    3    0  502 -0.35967651071E+02  0.48342580272E+02 -0.11535392170E+03  0.13021012496E+03  0.41800000000E+01 0.  1.
        -11    1    1    2    0    0 -0.75461652425E+02 -0.99152347831E+02 -0.21950536573E+03  0.25240494181E+03  0.00000000000E+00 0.  1.
         11    1    1    2    0    0  0.20150660187E+02 -0.45271424117E+01 -0.72236938943E+02  0.75131348133E+02  0.00000000000E+00 0. -1.
</event>
<event>
 7    1  0.2766180E-009  0.8305997E+02  0.7561462E-02  0.1320585E+00
          1   -1    0    0  501    0  0.00000000000E+00  0.00000000000E+00  0.33433245851E+03  0.33433245851E+03  0.00000000000E+00 0. -1.
         -1   -1    0    0    0  501 -0.00000000000E+00 -0.00000000000E+00 -0.39657009168E+02  0.39657009168E+02  0.00000000000E+00 0.  1.
         25    2    1    2    0    0  0.65241757825E+01  0.24275233864E+01  0.11700110436E+03  0.17143292401E+03  0.12510608009E+03 0.  0.
          5    1    3    3  502    0 -0.51002977640E+01  0.38608035553E+02 -0.86358078565E+01  0.40107892289E+02  0.41800000000E+01 0. -1.
         -5    1    3    3    0  502  0.11624473546E+02 -0.36180512167E+02  0.12563691222E+03  0.13132503172E+03  0.41800000000E+01 0. -1.
        -11    1    1    2    0    0  0.38810933672E+02 -0.15105750219E+02  0.42868156400E+02  0.59767475229E+02  0.00000000000E+00 0.  1.
         11    1    1    2    0    0 -0.45335109454E+02  0.12678226833E+02  0.13480618858E+03  0.14278906844E+03  0.00000000000E+00 0. -1.
</event>
<event>
 7    1  0.2766180E-009  0.1751323E+03  0.7561462E-02  0.1172599E+00
          2   -1    0    0  501    0  0.00000000000E+00  0.00000000000E+00  0.30845489627E+03  0.30845489627E+03  0.00000000000E+00 0. -1.
         -2   -1    0    0    0  501 -0.00000000000E+00 -0.00000000000E+00 -0.15237497037E+03  0.15237497037E+03  0.00000000000E+00 0.  1.
         25    2    1    2    0    0 -0.14705110554E+03 -0.76905698663E+01 -0.42264811834E+02  0.19778216061E+03  0.12509315022E+03 0.  0.
          5    1    3    3  502    0 -0.14546320904E+03  0.28165613683E+02 -0.56936600159E+02  0.15878317234E+03  0.41800000000E+01 0.  1.
         -5    1    3    3    0  502 -0.15878964959E+01 -0.35856183549E+02  0.14671788325E+02  0.38998988277E+02  0.41800000000E+01 0.  1.
        -11    1    1    2    0    0  0.93931069202E+02 -0.32393781430E+02  0.81194352248E+02  0.12831572653E+03  0.00000000000E+00 0.  1.
         11    1    1    2    0    0  0.53120036336E+02  0.40084351296E+02  0.11715038549E+03  0.13473197950E+03  0.00000000000E+00 0. -1.
</event>
<event>
 7    1  0.2766180E-009  0.1462393E+03  0.7561462E-02  0.1205172E+00
         -1   -1    0    0    0  501 -0.00000000000E+00  0.00000000000E+00  0.45577617930E+02  0.45577617930E+02  0.00000000000E+00 0.  1.
          1   -1    0    0  501    0  0.00000000000E+00 -0.00000000000E+00 -0.63743993715E+03  0.63743993715E+03  0.00000000000E+00 0. -1.
         25    2    1    2    0    0 -0.51719106344E+02 -0.11600350538E+03 -0.33893058803E+03  0.38295361482E+03  0.12509136013E+03 0.  0.
          5    1    3    3  502    0 -0.51589087182E+02 -0.79785237723E+02 -0.33262464219E+03  0.34595338280E+03  0.41800000000E+01 0.  1.
         -5    1    3    3    0  502 -0.13001916172E+00 -0.36218267656E+02 -0.63059458400E+01  0.37000232025E+02  0.41800000000E+01 0.  1.
        -11    1    1    2    0    0 -0.29805794987E+02  0.26965749466E+02 -0.74082634826E+02  0.84283888388E+02  0.00000000000E+00 0. -1.
         11    1    1    2    0    0  0.81524901331E+02  0.89037755914E+02 -0.17884909636E+03  0.21578005187E+03  0.00000000000E+00 0.  1.
</event>
<event>
 7    1  0.2766180E-009  0.1164902E+03  0.7561462E-02  0.1249002E+00
          1   -1    0    0  501    0  0.00000000000E+00  0.00000000000E+00  0.27440042587E+03  0.27440042587E+03  0.00000000000E+00 0. -1.
         -1   -1    0    0    0  501 -0.00000000000E+00 -0.00000000000E+00 -0.22667729023E+03  0.22667729023E+03  0.00000000000E+00 0.  1.
         25    2    1    2    0    0 -0.41814334241E+01  0.67797728294E+02  0.24006294668E+03  0.27909214087E+03  0.12509271912E+03 0.  0.
          5    1    3    3  502    0 -0.38141836105E+02  0.85006276175E+02  0.11373032463E+03  0.14708135773E+03  0.41800000000E+01 0. -1.
         -5    1    3    3    0  502  0.33960402681E+02 -0.17208547881E+02  0.12633262205E+03  0.13201078314E+03  0.41800000000E+01 0. -1.
        -11    1    1    2    0    0  0.16000700498E+02 -0.81651593012E+02 -0.18403641894E+03  0.20197130626E+03  0.00000000000E+00 0.  1.
         11    1    1    2    0    0 -0.11819267074E+02  0.13853864718E+02 -0.83033921115E+01  0.20014268969E+02  0.00000000000E+00 0. -1.
</event>
<event>
 7    1  0.2766180E-009  0.5850205E+02  0.7561462E-02  0.1404228E+00
         -2   -1    0    0    0  501 -0.00000000000E+00  0.00000000000E+00  0.14899904329E+03  0.14899904329E+03  0.00000000000E+00 0.  1.
          2   -1    0    0  501    0  0.00000000000E+00 -0.00000000000E+00 -0.12435868081E+03  0.12435868081E+03  0.00000000000E+00 0. -1.
         25    2    1    2    0    0  0.34856142588E+02  0.43619013046E+02 -0.46125928088E+02  0.14454233085E+03  0.12508922892E+03 0.  0.
          5    1    3    3  502    0  0.13201035858E+02  0.15079372673E+02 -0.87378855986E+02  0.89745148623E+02  0.41800000000E+01 0.  1.
         -5    1    3    3    0  502  0.21655106730E+02  0.28539640373E+02  0.41252927897E+02  0.54797182229E+02  0.41800000000E+01 0.  1.
        -11    1    1    2    0    0 -0.28093114617E+02 -0.16644385445E+02  0.89509201071E+02  0.95279356274E+02  0.00000000000E+00 0.  1.
         11    1    1    2    0    0 -0.67630279717E+01 -0.26974627601E+02 -0.18742910507E+02  0.33536036973E+02  0.00000000000E+00 0. -1.
</event>
<event>
 7    1  0.2766180E-009  0.1147717E+03  0.7561462E-02  0.1251980E+00
          1   -1    0    0  501    0  0.00000000000E+00  0.00000000000E+00  0.61705745293E+03  0.61705745293E+03  0.00000000000E+00 0. -1.
         -1   -1    0    0    0  501 -0.00000000000E+00 -0.00000000000E+00 -0.27881968050E+02  0.27881968050E+02  0.00000000000E+00 0.  1.
         25    2    1    2    0    0 -0.29769473912E+02  0.68417998948E+02  0.30266939480E+03  0.33589379913E+03  0.12509451463E+03 0.  0.
          5    1    3    3  502    0 -0.38636786729E+02 -0.23468004805E+02  0.15660843427E+03  0.16305588803E+03  0.41800000000E+01 0. -1.
         -5    1    3    3    0  502  0.88673128176E+01  0.91886003753E+02  0.14606096053E+03  0.17283791110E+03  0.41800000000E+01 0. -1.
        -11    1    1    2    0    0  0.44067907148E+02 -0.61997837666E+02  0.28292044755E+03  0.29296704926E+03  0.00000000000E+00 0. -1.
         11    1    1    2    0    0 -0.14298433236E+02 -0.64201612827E+01  0.35856425373E+01  0.16078572583E+02  0.00000000000E+00 0.  1.
</event>
<event>
 7    1  0.2766180E-009  0.2154772E+03  0.7561462E-02  0.1137301E+00
         -2   -1    0    0    0  501 -0.00000000000E+00  0.00000000000E+00  0.32106587324E+03  0.32106587324E+03  0.00000000000E+00 0.  1.
          2   -1    0    0  501    0  0.00000000000E+00 -0.00000000000E+00 -0.19535322818E+03  0.19535322818E+03  0.00000000000E+00 0. -1.
         25    2    1    2    0    0 -0.12767913651E+03 -0.14501863258E+03 -0.55417706076E+02  0.23674916968E+03  0.12508669595E+03 0.  0.
          5    1    3    3  502    0 -0.73206235019E+02 -0.14995458796E+03 -0.68376220857E+02  0.18038378884E+03  0.41800000000E+01 0. -1.
         -5    1    3    3    0  502 -0.54472901488E+02  0.49359553822E+01  0.12958514781E+02  0.56365380842E+02  0.41800000000E+01 0. -1.
        -11    1    1    2    0    0  0.71558852190E+00  0.51460197075E+02  0.23116926280E+02  0.56418580544E+02  0.00000000000E+00 0. -1.
         11    1    1    2    0    0  0.12696354799E+03  0.93558435507E+02  0.15801342486E+03  0.22325135119E+03  0.00000000000E+00 0.  1.
</event>
<event>
 7    1  0.2766180E-009  0.1187886E+03  0.7561462E-02  0.1245109E+00
          2   -1    0    0  501    0  0.00000000000E+00  0.00000000000E+00  0.87034452862E+02  0.87034452862E+02  0.00000000000E+00 0. -1.
         -2   -1    0    0    0  501 -0.00000000000E+00 -0.00000000000E+00 -0.19635207747E+03  0.19635207747E+03  0.00000000000E+00 0.  1.
         25    2    1    2    0    0  0.11413791706E+02 -0.52780723534E+02 -0.11187242782E+03  0.17629105031E+03  0.12508802859E+03 0.  0.
          5    1    3    3  502    0 -0.12754322894E+02 -0.87887238433E+02 -0.95404340847E+02  0.13040820559E+03  0.41800000000E+01 0. -1.
         -5    1    3    3    0  502  0.24168114600E+02  0.35106514898E+02 -0.16468086978E+02  0.45882844728E+02  0.41800000000E+01 0. -1.
        -11    1    1    2    0    0  0.39202025486E+02  0.33886740851E+02 -0.68066576856E+01  0.52263185863E+02  0.00000000000E+00 0. -1.
         11    1    1    2    0    0 -0.50615817192E+02  0.18893982683E+02  0.93614609060E+01  0.54832294151E+02  0.00000000000E+00 0.  1.
</event>
<event>
 7    1  0.2766180E-009  0.1082197E+03  0.7561462E-02  0.1263903E+00
         -1   -1    0    0    0  501 -0.00000000000E+00  0.00000000000E+00  0.63769278360E+02  0.63769278360E+02  0.00000000000E+00 0. -1.
          1   -1    0    0  501    0  0.00000000000E+00 -0.00000000000E+00 -0.33870118221E+03  0.33870118221E+03  0.00000000000E+00 0.  1.
         25    2    1    2    0    0 -0.58263545491E+02 -0.37063086972E+01 -0.25858273529E+03  0.29312351252E+03  0.12509190678E+03 0.  0.
          5    1    3    3  502    0  0.12625313290E+02 -0.50945061431E+02 -0.93233797645E+02  0.10707385882E+03  0.41800000000E+01 0. -1.
         -5    1    3    3    0  502 -0.70888858780E+02  0.47238752734E+02 -0.16534893765E+03  0.18604965370E+03  0.41800000000E+01 0. -1.
        -11    1    1    2    0    0  0.67802862458E+02  0.75326535555E+01  0.20386150253E+02  0.71200871829E+02  0.00000000000E+00 0. -1.
         11    1    1    2    0    0 -0.95393169670E+01 -0.38263448583E+01 -0.36735318812E+02  0.38146076225E+02  0.00000000000E+00 0.  1.
</event>
<event>
 7    1  0.2766180E-009  0.1077195E+03  0.7561462E-02  0.1264852E+00
         -2   -1    0    0    0  501 -0.00000000000E+00  0.00000000000E+00  0.13589053180E+03  0.13589053180E+03  0.00000000000E+00 0.  1.
          2   -1    0    0  501    0  0.00000000000E+00 -0.00000000000E+00 -0.96904880321E+02  0.96904880321E+02  0.00000000000E+00 0. -1.
         25    2    1    2    0    0 -0.30323757152E+02  0.97941987291E+01  0.18710157996E+01  0.12910689145E+03  0.12509848977E+03 0.  0.
          5    1    3    3  502    0 -0.35006523611E+02  0.64427560891E+02  0.75101183654E+01  0.73825751439E+02  0.41800000000E+01 0.  1.
         -5    1    3    3    0  502  0.46827664589E+01 -0.54633362162E+02 -0.56391025658E+01  0.55281140008E+02  0.41800000000E+01 0.  1.
        -11    1    1    2    0    0  0.56581097438E+02 -0.18195686225E+02  0.45523606719E+02  0.74865895795E+02  0.00000000000E+00 0.  1.
         11    1    1    2    0    0 -0.26257340286E+02  0.84014874958E+01 -0.84089710387E+01  0.28822624880E+02  0.00000000000E+00 0. -1.
</event>
<event>
 7    1  0.2766180E-009  0.1946941E+03  0.7561462E-02  0.1154294E+00
          1   -1    0    0  501    0  0.00000000000E+00  0.00000000000E+00  0.25939370354E+03  0.25939370354E+03  0.00000000000E+00 0. -1.
         -1   -1    0    0    0  501 -0.00000000000E+00 -0.00000000000E+00 -0.18628297594E+03  0.18628297594E+03  0.00000000000E+00 0.  1.
         25    2    1    2    0    0 -0.10428662278E+03 -0.15960903914E+03  0.53071785183E+02  0.23412665397E+03  0.12509168897E+03 0.  0.
          5    1    3    3  502    0 -0.66619530163E+02 -0.10455743475E+03  0.94102022948E+02  0.15570190135E+03  0.41800000000E+01 0.  1.
         -5    1    3    3    0  502 -0.37667092614E+02 -0.55051604393E+02 -0.41030237765E+02  0.78424752619E+02  0.41800000000E+01 0.  1.
        -11    1    1    2    0    0  0.20259060216E+02  0.80806312119E+02 -0.26331933281E+02  0.87369676143E+02  0.00000000000E+00 0.  1.
         11    1    1    2    0    0  0.84027562562E+02  0.78802727022E+02  0.46370875707E+02  0.12418034937E+03  0.00000000000E+00 0. -1.
</event>
<event>
 7    1  0.2766180E-009  0.1114051E+03  0.7561462E-02  0.1257990E+00
         -3   -1    0    0    0  501 -0.00000000000E+00  0.00000000000E+00  0.53947090344E+03  0.53947090344E+03  0.00000000000E+00 0.  1.
          3   -1    0    0  501    0  0.00000000000E+00 -0.00000000000E+00 -0.23324371398E+02  0.23324371398E+02  0.00000000000E+00 0. -1.
         25    2    1    2    0    0  0.59185534169E+01 -0.26791845207E+02  0.27923275729E+03  0.30719915184E+03  0.12509018309E+03 0.  0.
          5    1    3    3  502    0 -0.41432887579E+02 -0.57830271844E+02  0.15864919964E+03  0.17391970981E+03  0.41800000000E+01 0.  1.
         -5    1    3    3    0  502  0.47351440996E+02  0.31038426637E+02  0.12058355765E+03  0.13327944203E+03  0.41800000000E+01 0.  1.
        -11    1    1    2    0    0  0.42475230365E+02  0.13933616334E+02  0.13158560532E+03  0.13897144449E+03  0.00000000000E+00 0. -1.
         11    1    1    2    0    0 -0.48393783782E+02  0.12858228873E+02  0.10532816944E+03  0.11662467851E+03  0.00000000000E+00 0.  1.
</event>
<event>
 7    1  0.2766180E-009  0.1248553E+03  0.7561462E-02  0.1235296E+00
          3   -1    0    0  501    0  0.00000000000E+00  0.00000000000E+00  0.42431189856E+03  0.42431189856E+03  0.00000000000E+00 0. -1.
         -3   -1    0    0    0  501 -0.00000000000E+00 -0.00000000000E+00 -0.44609073186E+02  0.44609073186E+02  0.00000000000E+00 0.  1.
         25    2    1    2    0    0  0.15640460231E+02  0.73314792140E+02  0.27471945426E+03  0.31102744426E+03  0.12509040649E+03 0.  0.
          5    1    3    3  502    0  0.59645615208E+02  0.65504437049E+02  0.23466982784E+03  0.25087014805E+03  0.41800000000E+01 0. -1.
         -5    1    3    3    0  502 -0.44005154977E+02  0.78103550913E+01  0.40049626422E+02  0.60157296213E+02  0.41800000000E+01 0. -1.
        -11    1    1    2    0    0 -0.35901524613E+02  0.40774872983E+01  0.20499982319E+02  0.41542684642E+02  0.00000000000E+00 0.  1.
         11    1    1    2    0    0  0.20261064382E+02 -0.77392279438E+02  0.84483388799E+02  0.11635084284E+03  0.00000000000E+00 0. -1.
</event>
<event>
 7    1  0.2766180E-009  0.1003920E+03  0.7561462E-02  0.1279474E+00
          1   -1    0    0  501    0  0.00000000000E+00  0.00000000000E+00  0.11840678489E+03  0.11840678489E+03  0.00000000000E+00 0. -1.
         -1   -1    0    0    0  501 -0.00000000000E+00 -0.00000000000E+00 -0.13384312610E+03  0.13384312610E+03  0.00000000000E+00 0.  1.
         25    2    1    2    0    0  0.24865945382E+02  0.44487824430E+02 -0.42345327231E+02  0.14155642600E+03  0.12509042026E+03 0.  0.
          5    1    3    3  502    0  0.50685895975E+02  0.46234825058E+01 -0.69838991643E+02  0.86518170317E+02  0.41800000000E+01 0.  1.
         -5    1    3    3    0  502 -0.25819950592E+02  0.39864341924E+02  0.27493664411E+02  0.55038255681E+02  0.41800000000E+01 0.  1.
        -11    1    1    2    0    0 -0.58346927362E+02 -0.28393801325E+02  0.33403228012E+02  0.72981830121E+02  0.00000000000E+00 0. -1.
         11    1    1    2    0    0  0.33480981980E+02 -0.16094023106E+02 -0.64942419872E+01  0.37711654870E+02  0.00000000000E+00 0.  1.
</event>
<event>
 7    1  0.2766180E-009  0.8312037E+02  0.7561462E-02  0.1320422E+00
         -1   -1    0    0    0  501 -0.00000000000E+00  0.00000000000E+00  0.31790361542E+02  0.31790361542E+02  0.00000000000E+00 0.  1.
          1   -1    0    0  501    0  0.00000000000E+00 -0.00000000000E+00 -0.57189149074E+03  0.57189149074E+03  0.00000000000E+00 0. -1.
         25    2    1    2    0    0  0.79320488814E+01 -0.78268601917E+02 -0.25461416227E+03  0.29438009435E+03  0.12506948818E+03 0.  0.
          5    1    3    3  502    0  0.22718863484E+02 -0.43963569433E+02 -0.25183829289E+03  0.25668841104E+03  0.41800000000E+01 0.  1.
         -5    1    3    3    0  502 -0.14786814603E+02 -0.34305032484E+02 -0.27758693787E+01  0.37691683308E+02  0.41800000000E+01 0.  1.
        -11    1    1    2    0    0 -0.54300695677E+01  0.21859727241E+02 -0.48493443242E+01  0.23040170809E+02  0.00000000000E+00 0.  1.
         11    1    1    2    0    0 -0.25019793137E+01  0.56408874676E+02 -0.28063762261E+03  0.28626158713E+03  0.00000000000E+00 0. -1.
</event>
<event>
 7    1  0.2766180E-009  0.9254382E+02  0.7561462E-02  0.1296806E+00
         -4   -1    0    0    0  501 -0.00000000000E+00  0.00000000000E+00  0.33742847633E+03  0.33742847633E+03  0.00000000000E+00 0. -1.
          4   -1    0    0  501    0  0.00000000000E+00 -0.00000000000E+00 -0.77154559447E+02  0.77154559447E+02  0.00000000000E+00 0.  1.
         25    2    1    2    0    0  0.42310726519E+02 -0.62897121047E+02  0.25797672853E+03  0.29655728823E+03  0.12509191551E+03 0.  0.
          5    1    3    3  502    0  0.11076565703E+02 -0.27904231261E+02 -0.38266812867E+01  0.30552451943E+02  0.41800000000E+01 0.  1.
         -5    1    3    3    0  502  0.31234160816E+02 -0.34992889786E+02  0.26180340981E+03  0.26600483629E+03  0.41800000000E+01 0.  1.
        -11    1    1    2    0    0 -0.26195280707E+01 -0.17674454549E+02 -0.18618697598E+02  0.25805119088E+02  0.00000000000E+00 0.  1.
         11    1    1    2    0    0 -0.39691198449E+02  0.80571575596E+02  0.20915885953E+02  0.92220628460E+02  0.00000000000E+00 0. -1.
</event>
<event>
 7    1  0.2766180E-009  0.9907314E+02  0.7561462E-02  0.1282257E+00
         -1   -1    0    0    0  501 -0.00000000000E+00  0.00000000000E+00  0.38078324343E+03  0.38078324343E+03  0.00000000000E+00 0.  1.
          1   -1    0    0  501    0  0.00000000000E+00 -0.00000000000E+00 -0.34397952458E+02  0.34397952458E+02  0.00000000000E+00 0. -1.
         25    2    1    2    0    0 -0.35045504649E+02  0.51546606548E+00  0.19239226702E+03  0.23214676715E+03  0.12509549948E+03 0.  0.
          5    1    3    3  502    0 -0.62929622467E+02  0.19056363563E+02  0.18662335178E+03  0.19791167274E+03  0.41800000000E+01 0. -1.
         -5    1    3    3    0  502  0.27884117818E+02 -0.18540897498E+02  0.57689152322E+01  0.34235094413E+02  0.41800000000E+01 0. -1.
        -11    1    1    2    0    0  0.49876300055E+02 -0.35031073071E+02  0.10327088354E+03  0.11991537339E+03  0.00000000000E+00 0.  1.
         11    1    1    2    0    0 -0.14830795405E+02  0.34515607006E+02  0.50722140409E+02  0.63119055340E+02  0.00000000000E+00 0. -1.
</event>
<event>
 7    1  0.2766180E-009  0.9787652E+02  0.7561462E-02  0.1284826E+00
         -2   -1    0    0    0  501 -0.00000000000E+00  0.00000000000E+00  0.24609027913E+02  0.24609027913E+02  0.00000000000E+00 0.  1.
          2   -1    0    0  501    0  0.00000000000E+00 -0.00000000000E+00 -0.66922043823E+03  0.66922043823E+03  0.00000000000E+00 0. -1.
         25    2    1    2    0    0  0.68476619206E+02  0.54588519515E+01 -0.36940799421E+03  0.39601621824E+03  0.12509089688E+03 0.  0.
          5    1    3    3  502    0  0.24980535888E+02  0.24849452735E+02 -0.15207075748E+02  0.38603756648E+02  0.41800000000E+01 0. -1.
         -5    1    3    3    0  502  0.43496083318E+02 -0.19390600784E+02 -0.35420091846E+03  0.35741246159E+03  0.41800000000E+01 0. -1.
        -11    1    1    2    0    0  0.51417617507E+01  0.30221553238E+02 -0.96990623715E+02  0.10172001319E+03  0.00000000000E+00 0. -1.
         11    1    1    2    0    0 -0.73618380957E+02 -0.35680405189E+02 -0.17821279239E+03  0.19609323472E+03  0.00000000000E+00 0.  1.
</event>
<event>
 7    1  0.2766180E-009  0.1047543E+03  0.7561462E-02  0.1270604E+00
         -2   -1    0    0    0  501 -0.00000000000E+00  0.00000000000E+00  0.14371898125E+03  0.14371898125E+03  0.00000000000E+00 0.  1.
          2   -1    0    0  501    0  0.00000000000E+00 -0.00000000000E+00 -0.12503904193E+03  0.12503904193E+03  0.00000000000E+00 0. -1.
         25    2    1    2    0    0 -0.19050181497E+02  0.18404445391E+02  0.83424851151E+02  0.15267092831E+03  0.12508826298E+03 0.  0.
          5    1    3    3  502    0 -0.24256335313E+02  0.70326906915E+02  0.58279735341E+02  0.94595156273E+02  0.41800000000E+01 0.  1.
         -5    1    3    3    0  502  0.52061538165E+01 -0.51922461524E+02  0.25145115810E+02  0.58075772035E+02  0.41800000000E+01 0.  1.
        -11    1    1    2    0    0 -0.68392567397E+01 -0.45009506173E+02 -0.50698035215E+01  0.45807575644E+02  0.00000000000E+00 0.  1.
         11    1    1    2    0    0  0.25889438236E+02  0.26605060782E+02 -0.59675108305E+02  0.70279519226E+02  0.00000000000E+00 0. -1.
</event>
<event>
 7    1  0.2766180E-009  0.1040716E+03  0.7561462E-02  0.1271960E+00
         -4   -1    0    0    0  501 -0.00000000000E+00  0.00000000000E+00  0.59568548908E+02  0.59568548908E+02  0.00000000000E+00 0.  1.
          4   -1    0    0  501    0  0.00000000000E+00 -0.00000000000E+00 -0.37791307081E+03  0.37791307081E+03  0.00000000000E+00 0. -1.
         25    2    1    2    0    0 -0.45983698601E+02  0.67967663633E+02 -0.26517029739E+03  0.30447696479E+03  0.12512726176E+03 0.  0.
          5    1    3    3  502    0 -0.72057924253E+02  0.49954069302E+02 -0.87455012296E+02  0.12390966493E+03  0.41800000000E+01 0.  1.
         -5    1    3    3    0  502  0.26074225651E+02  0.18013594331E+02 -0.17771528509E+03  0.18056729986E+03  0.41800000000E+01 0.  1.
        -11    1    1    2    0    0  0.16270402293E+02 -0.24456242180E+01 -0.58590199325E+02  0.60856540532E+02  0.00000000000E+00 0. -1.
         11    1    1    2    0    0  0.29713296308E+02 -0.65522039415E+02  0.54159748165E+01  0.72148114388E+02  0.00000000000E+00 0.  1.
</event>
<event>
 7    1  0.2766180E-009  0.1802150E+03  0.7561462E-02  0.1167595E+00
          2   -1    0    0  501    0  0.00000000000E+00  0.00000000000E+00  0.14680050098E+04  0.14680050098E+04  0.00000000000E+00 0. -1.
         -2   -1    0    0    0  501 -0.00000000000E+00 -0.00000000000E+00 -0.25189068692E+02  0.25189068692E+02  0.00000000000E+00 0.  1.
         25    2    1    2    0    0  0.80076396874E+02  0.12814941837E+03  0.93185506835E+03  0.95228067714E+03  0.12510042715E+03 0.  0.
          5    1    3    3  502    0  0.69278889697E+02  0.14972541990E+03  0.70257905815E+03  0.72170081840E+03  0.41800000000E+01 0.  1.
         -5    1    3    3    0  502  0.10797507177E+02 -0.21576001533E+02  0.22927601020E+03  0.23057985874E+03  0.41800000000E+01 0. -1.
        -11    1    1    2    0    0 -0.89682274455E+02 -0.75018207907E+02  0.41094314224E+03  0.42725274490E+03  0.00000000000E+00 0.  1.
         11    1    1    2    0    0  0.96058775809E+01 -0.53131210461E+02  0.10001773054E+03  0.11366065648E+03  0.00000000000E+00 0. -1.
</event>
<event>
 7    1  0.2766180E-009  0.1195380E+03  0.7561462E-02  0.1243861E+00
         -1   -1    0    0    0  501 -0.00000000000E+00  0.00000000000E+00  0.99813675901E+02  0.99813675901E+02  0.00000000000E+00 0.  1.
          1   -1    0    0  501    0  0.00000000000E+00 -0.00000000000E+00 -0.25046234343E+03  0.25046234343E+03  0.00000000000E+00 0. -1.
         25    2    1    2    0    0  0.64080198912E+02  0.61261432092E+02 -0.16251559669E+03  0.22342340792E+03  0.12508982805E+03 0.  0.
          5    1    3    3  502    0 -0.82486935946E+01  0.70992535097E+02 -0.43561991930E+02  0.83803940996E+02  0.41800000000E+01 0.  1.
         -5    1    3    3    0  502  0.72328892507E+02 -0.97311030056E+01 -0.11895360476E+03  0.13961946692E+03  0.41800000000E+01 0.  1.
        -11    1    1    2    0    0 -0.48561536919E+02 -0.24311730081E+02  0.48309316975E+02  0.72684752143E+02  0.00000000000E+00 0.  1.
         11    1    1    2    0    0 -0.15518661993E+02 -0.36949702011E+02 -0.36442387813E+02  0.54167859273E+02  0.00000000000E+00 0. -1.
</event>
<event>
 7    1  0.2766180E-009  0.6590346E+02  0.7561462E-02  0.1374605E+00
          2   -1    0    0  501    0  0.00000000000E+00  0.00000000000E+00  0.46173152858E+03  0.46173152858E+03  0.00000000000E+00 0. -1.
         -2   -1    0    0    0  501 -0.00000000000E+00 -0.00000000000E+00 -0.26749919263E+02  0.26749919263E+02  0.00000000000E+00 0.  1.
         25    2    1    2    0    0  0.18873490262E+02  0.47245296972E+01  0.21114621387E+03  0.24619036932E+03  0.12509374285E+03 0.  0.
          5    1    3    3  502    0  0.19888093263E+02 -0.12369521179E+02 -0.89282140381E+01  0.25411153333E+02  0.41800000000E+01 0.  1.
         -5    1    3    3    0  502 -0.10146030007E+01  0.17094050876E+02  0.22007442790E+03  0.22077921599E+03  0.41800000000E+01 0.  1.
        -11    1    1    2    0    0 -0.50770961757E+02  0.14932057956E+02  0.15687417710E+03  0.16556015328E+03  0.00000000000E+00 0. -1.
         11    1    1    2    0    0  0.31897471495E+02 -0.19656587653E+02  0.66961218348E+02  0.76730925243E+02  0.00000000000E+00 0.  1.
</event>
<event>
 7    1  0.2766180E-009  0.8893802E+02  0.7561462E-02  0.1305444E+00
         -2   -1    0    0    0  501 -0.00000000000E+00  0.00000000000E+00  0.99271548485E+02  0.99271548485E+02  0.00000000000E+00 0.  1.
          2   -1    0    0  501    0  0.00000000000E+00 -0.00000000000E+00 -0.15382399491E+03  0.15382399491E+03  0.00000000000E+00 0. -1.
         25    2    1    2    0    0 -0.29930476491E+02 -0.33463168874E+02  0.93552276835E+01  0.13323264574E+03  0.12509116880E+03 0.  0.
          5    1    3    3  502    0  0.37433608407E+02 -0.50776361621E+02  0.39857649972E+01  0.63347238775E+02  0.41800000000E+01 0.  1.
         -5    1    3    3    0  502 -0.67364084899E+02  0.17313192747E+02  0.53694626862E+01  0.69885406967E+02  0.41800000000E+01 0.  1.
        -11    1    1    2    0    0  0.17044343397E+02  0.17052093412E+02 -0.86094042268E+02  0.89406194671E+02  0.00000000000E+00 0. -1.
         11    1    1    2    0    0  0.12886133095E+02  0.16411075462E+02  0.22186368164E+02  0.30456702978E+02  0.00000000000E+00 0.  1.
</event>
<event>
 7    1  0.2766180E-009  0.1286946E+03  0.7561462E-02  0.1229406E+00
          2   -1    0    0  501    0  0.00000000000E+00  0.00000000000E+00  0.37411951420E+03  0.37411951420E+03  0.00000000000E+00 0. -1.
         -2   -1    0    0    0  501 -0.00000000000E+00 -0.00000000000E+00 -0.46522401087E+02  0.46522401087E+02  0.00000000000E+00 0.  1.
         25    2    1    2    0    0 -0.38834232913E+02 -0.60183850777E+02  0.14436947779E+03  0.20400996069E+03  0.12508926574E+03 0.  0.
          5    1    3    3  502    0 -0.66652310786E+02  0.89663133219E+01  0.85958860512E+02  0.10922144207E+03  0.41800000000E+01 0. -1.
         -5    1    3    3    0  502  0.27818077873E+02 -0.69150164099E+02  0.58410617277E+02  0.94788518619E+02  0.41800000000E+01 0. -1.
        -11    1    1    2    0    0  0.80735586306E+01  0.78922871021E+02  0.11970747311E+03  0.14361017038E+03  0.00000000000E+00 0.  1.
         11    1    1    2    0    0  0.30760674282E+02 -0.18739020244E+02  0.63520162217E+02  0.73021784216E+02  0.00000000000E+00 0. -1.
</event>
<event>
 7    1  0.2766180E-009  0.9355404E+02  0.7561462E-02  0.1294466E+00
          1   -1    0    0  501    0  0.00000000000E+00  0.00000000000E+00  0.36892438019E+03  0.36892438019E+03  0.00000000000E+00 0. -1.
         -1   -1    0    0    0  501 -0.00000000000E+00 -0.00000000000E+00 -0.36600442405E+02  0.36600442405E+02  0.00000000000E+00 0.  1.
         25    2    1    2    0    0 -0.19914769629E+02 -0.25574671519E+02  0.12982529949E+03  0.18317349030E+03  0.12508899747E+03 0.  0.
          5    1    3    3  502    0  0.45297727393E+02  0.17907975741E+02  0.65248702441E+02  0.81531866606E+02  0.41800000000E+01 0. -1.
         -5    1    3    3    0  502 -0.65212497022E+02 -0.43482647259E+02  0.64576597046E+02  0.10164162369E+03  0.41800000000E+01 0. -1.
        -11    1    1    2    0    0  0.28905152976E+02  0.35865707637E+02  0.20350133512E+03  0.20864958723E+03  0.00000000000E+00 0. -1.
         11    1    1    2    0    0 -0.89903833468E+01 -0.10291036118E+02 -0.10026968246E+01  0.13701745072E+02  0.00000000000E+00 0.  1.
</event>
<event>
 7    1  0.2766180E-009  0.1029031E+03  0.7561462E-02  0.1274307E+00
         -1   -1    0    0    0  501 -0.00000000000E+00  0.00000000000E+00  0.73743958889E+02  0.73743958889E+02  0.00000000000E+00 0.  1.
          1   -1    0    0  501    0  0.00000000000E+00 -0.00000000000E+00 -0.18276585353E+03  0.18276585353E+03  0.00000000000E+00 0. -1.
         25    2    1    2    0    0 -0.42801891240E+02 -0.42698409313E+01 -0.55363871165E+02  0.14340157842E+03  0.12509444843E+03 0.  0.
          5    1    3    3  502    0 -0.78700875217E+02  0.12147872250E+02 -0.64623153942E+02  0.10264026006E+03  0.41800000000E+01 0. -1.
         -5    1    3    3    0  502  0.35898983977E+02 -0.16417713181E+02  0.92592827772E+01  0.40761318357E+02  0.41800000000E+01 0. -1.
        -11    1    1    2    0    0  0.61997141580E+02 -0.95323686184E+01 -0.10080644610E+02  0.63530551794E+02  0.00000000000E+00 0.  1.
         11    1    1    2    0    0 -0.19195250339E+02  0.13802209550E+02 -0.43577378861E+02  0.49577682201E+02  0.00000000000E+00 0. -1.
</event>
<event>
 7    1  0.2766180E-009  0.1076338E+03  0.7561462E-02  0.1265016E+00
          2   -1    0    0  501    0  0.00000000000E+00  0.00000000000E+00  0.15506362693E+03  0.15506362693E+03  0.00000000000E+00 0. -1.
         -2   -1    0    0    0  501 -0.00000000000E+00 -0.00000000000E+00 -0.95445765431E+02  0.95445765431E+02  0.00000000000E+00 0.  1.
         25    2    1    2    0    0 -0.38583884151E+02  0.54064721334E+01 -0.40256396136E-01  0.13102058893E+03  0.12509375303E+03 0.  0.
          5    1    3    3  502    0  0.92228157252E+00 -0.56445110072E+02 -0.76299913745E+01  0.57119088076E+02  0.41800000000E+01 0.  1.
         -5    1    3    3    0  502 -0.39506165724E+02  0.61851582205E+02  0.75897349784E+01  0.73901500854E+02  0.41800000000E+01 0.  1.
        -11    1    1    2    0    0  0.53648362097E+02  0.18622741664E+02  0.69243083010E+02  0.89551983828E+02  0.00000000000E+00 0. -1.
         11    1    1    2    0    0 -0.15064477946E+02 -0.24029213798E+02 -0.95849651164E+01  0.29936819601E+02  0.00000000000E+00 0.  1.
</event>
<event>
 7    1  0.2766180E-009  0.1302366E+03  0.7561462E-02  0.1227105E+00
          2   -1    0    0  501    0  0.00000000000E+00  0.00000000000E+00  0.16065940832E+04  0.16065940832E+04  0.00000000000E+00 0. -1.
         -2   -1    0    0    0  501 -0.00000000000E+00 -0.00000000000E+00 -0.13606874870E+02  0.13606874870E+02  0.00000000000E+00 0.  1.
         25    2    1    2    0    0 -0.47603595339E+02 -0.69262447249E+02  0.11530775819E+04  0.11628840140E+04  0.12509169102E+03 0.  0.
          5    1    3    3  502    0 -0.83138592358E+02 -0.54226063813E+02  0.57617042880E+03  0.58467283755E+03  0.41800000000E+01 0.  1.
         -5    1    3    3    0  502  0.35534997020E+02 -0.15036383436E+02  0.57690715314E+03  0.57821117646E+03  0.41800000000E+01 0.  1.
        -11    1    1    2    0    0  0.73955413382E+02  0.45500716000E+02  0.35117834013E+03  0.36175398395E+03  0.00000000000E+00 0. -1.
         11    1    1    2    0    0 -0.26351818043E+02  0.23761731249E+02  0.88731286296E+02  0.95562960157E+02  0.00000000000E+00 0.  1.
</event>
<event>
 7    1  0.2766180E-009  0.1041327E+03  0.7561462E-02  0.1271838E+00
          1   -1    0    0  501    0  0.00000000000E+00  0.00000000000E+00  0.11955935186E+04  0.11955935186E+04  0.00000000000E+00 0. -1.
         -1   -1    0    0    0  501 -0.00000000000E+00 -0.00000000000E+00 -0.20722335490E+02  0.20722335490E+02  0.00000000000E+00 0.  1.
         25    2    1    2    0    0  0.10179152867E+02 -0.92319845160E+02  0.90626585051E+03  0.91956097417E+03  0.12509206387E+03 0.  0.
          5    1    3    3  502    0  0.85427892220E+01 -0.77421381902E+02  0.22536770254E+03  0.23848505901E+03  0.41800000000E+01 0.  1.
         -5    1    3    3    0  502  0.16363636446E+01 -0.14898463258E+02  0.68089814798E+03  0.68107591516E+03  0.41800000000E+01 0.  1.
        -11    1    1    2    0    0  0.28483687887E+02  0.48663216520E+02  0.70673286659E+02  0.90410964848E+02  0.00000000000E+00 0.  1.
         11    1    1    2    0    0 -0.38662840753E+02  0.43656628641E+02  0.19793204597E+03  0.20634391510E+03  0.00000000000E+00 0. -1.
</event>
<event>
 7    1  0.2766180E-009  0.1139811E+03  0.7561462E-02  0.1253370E+00
          3   -1    0    0  501    0  0.00000000000E+00  0.00000000000E+00  0.24184446941E+03  0.24184446941E+03  0.00000000000E+00 0. -1.
         -3   -1    0    0    0  501 -0.00000000000E+00 -0.00000000000E+00 -0.89093555988E+02  0.89093555988E+02  0.00000000000E+00 0.  1.
         25    2    1    2    0    0  0.49023995204E+02  0.17060892355E+01 -0.14570891643E+02  0.13514335665E+03  0.12508058649E+03 0.  0.
          5    1    3    3  502    0  0.88254771004E+02 -0.16634464914E+02 -0.22872195084E+01  0.89935053239E+02  0.41800000000E+01 0. -1.
         -5    1    3    3    0  502 -0.39230775801E+02  0.18340554150E+02 -0.12283672134E+02  0.45208303414E+02  0.41800000000E+01 0. -1.
        -11    1    1    2    0    0 -0.30412682887E+02 -0.41012722263E+02  0.12536943461E+03  0.13536790537E+03  0.00000000000E+00 0. -1.
         11    1    1    2    0    0 -0.18611312317E+02  0.39306633028E+02  0.41952370452E+02  0.60426763380E+02  0.00000000000E+00 0.  1.
</event>
<event>
 7    1  0.2766180E-009  0.1075899E+03  0.7561462E-02  0.1265099E+00
         -1   -1    0    0    0  501 -0.00000000000E+00  0.00000000000E+00  0.94477643299E+02  0.94477643299E+02  0.00000000000E+00 0.  1.
          1   -1    0    0  501    0  0.00000000000E+00 -0.00000000000E+00 -0.14959743069E+03  0.14959743069E+03  0.00000000000E+00 0. -1.
         25    2    1    2    0    0 -0.22714212281E+02  0.21759725270E+02  0.52994846576E+01  0.12910166111E+03  0.12509889400E+03 0.  0.
          5    1    3    3  502    0 -0.83433138941E+01 -0.46740750467E+02 -0.23693422306E+02  0.53227429973E+02  0.41800000000E+01 0. -1.
         -5    1    3    3    0  502 -0.14370898387E+02  0.68500475737E+02  0.28992906964E+02  0.75874231139E+02  0.41800000000E+01 0. -1.
        -11    1    1    2    0    0  0.47509045366E+02  0.17781832955E+02 -0.26152519415E+02  0.57072386024E+02  0.00000000000E+00 0. -1.
         11    1    1    2    0    0 -0.24794833085E+02 -0.39541558225E+02 -0.34266752634E+02  0.57901026853E+02  0.00000000000E+00 0.  1.
</event>
<event>
 7    1  0.2766180E-009  0.2162121E+03  0.7561462E-02  0.1136739E+00
          1   -1    0    0  501    0  0.00000000000E+00  0.00000000000E+00  0.21052392027E+04  0.21052392027E+04  0.00000000000E+00 0. -1.
         -1   -1    0    0    0  501 -0.00000000000E+00 -0.00000000000E+00 -0.43351422199E+02  0.43351422199E+02  0.00000000000E+00 0.  1.
         25    2    1    2    0    0 -0.18601780908E+03  0.10229485173E+03  0.17089140474E+04  0.17265866138E+04  0.12508897450E+03 0.  0.
          5    1    3    3  502    0 -0.13794175735E+03  0.50418840303E+02  0.70349564541E+03  0.71867488017E+03  0.41800000000E+01 0.  1.
         -5    1    3    3    0  502 -0.48076051728E+02  0.51876011423E+02  0.10054184020E+04  0.10079117336E+04  0.41800000000E+01 0.  1.
        -11    1    1    2    0    0  0.50824261274E+02 -0.44741759127E+02  0.19423639467E+03  0.20570052882E+03  0.00000000000E+00 0. -1.
         11    1    1    2    0    0  0.13519354780E+03 -0.57553092599E+02  0.15873733843E+03  0.21630348228E+03  0.00000000000E+00 0.  1.
</event>
<event>
 7    1  0.2766180E-009  0.1798415E+03  0.7561462E-02  0.1167957E+00
          1   -1    0    0  501    0  0.00000000000E+00  0.00000000000E+00  0.95356778966E+03  0.95356778966E+03  0.00000000000E+00 0. -1.
         -1   -1    0    0    0  501 -0.00000000000E+00 -0.00000000000E+00 -0.37696848792E+02  0.37696848792E+02  0.00000000000E+00 0.  1.
         25    2    1    2    0    0 -0.10435282735E+03  0.11560735985E+03  0.44944375520E+03  0.49183483239E+03  0.12508892451E+03 0.  0.
          5    1    3    3  502    0 -0.80515443525E+02  0.25011098624E+01  0.14137410469E+03  0.16276701777E+03  0.41800000000E+01 0. -1.
         -5    1    3    3    0  502 -0.23837383824E+02  0.11310624998E+03  0.30806965051E+03  0.32906781462E+03  0.41800000000E+01 0. -1.
        -11    1    1    2    0    0 -0.20158512713E+01 -0.20705645704E+02  0.13997625118E+02  0.25074308152E+02  0.00000000000E+00 0.  1.
         11    1    1    2    0    0  0.10636867862E+03 -0.94901714142E+02  0.45242956055E+03  0.47435549791E+03  0.00000000000E+00 0. -1.
</event>
<event>
 7    1  0.2766180E-009  0.8069371E+02  0.7561462E-02  0.1327094E+00
          1   -1    0    0  501    0  0.00000000000E+00  0.00000000000E+00  0.66912881173E+02  0.66912881173E+02  0.00000000000E+00 0. -1.
         -1   -1    0    0    0  501 -0.00000000000E+00 -0.00000000000E+00 -0.21477320625E+03  0.21477320625E+03  0.00000000000E+00 0.  1.
         25    2    1    2    0    0 -0.83433654411E+01  0.49023740017E+02 -0.99620753116E+02  0.16746394550E+03  0.12508772825E+03 0.  0.
          5    1    3    3  502    0 -0.55296300781E+01  0.51760433415E+02  0.13706842499E+02  0.53991380862E+02  0.41800000000E+01 0.  1.
         -5    1    3    3    0  502 -0.28137353630E+01 -0.27366933979E+01 -0.11332759562E+03  0.11347256464E+03  0.41800000000E+01 0.  1.
        -11    1    1    2    0    0 -0.96847408263E+01  0.25227377572E+02 -0.14884671699E+02  0.30850741249E+02  0.00000000000E+00 0.  1.
         11    1    1    2    0    0  0.18028106267E+02 -0.74251117589E+02 -0.33354900261E+02  0.83371400674E+02  0.00000000000E+00 0. -1.
</event>
<event>
 7    1  0.2766180E-009  0.1736855E+03  0.7561462E-02  0.1174058E+00
         -2   -1    0    0    0  501 -0.00000000000E+00  0.00000000000E+00  0.34917815483E+03  0.34917815483E+03  0.00000000000E+00 0.  1.
          2   -1    0    0  501    0  0.00000000000E+00 -0.00000000000E+00 -0.12117128255E+03  0.12117128255E+03  0.00000000000E+00 0. -1.
         25    2    1    2    0    0 -0.14473987623E+03 -0.94102143146E+02  0.14898708510E+03  0.26009480346E+03  0.12508920874E+03 0.  0.
          5    1    3    3  502    0 -0.11980114295E+03 -0.68010381405E+02  0.37496172070E+02  0.14283263336E+03  0.41800000000E+01 0.  1.
         -5    1    3    3    0  502 -0.24938733280E+02 -0.26091761741E+02  0.11149091303E+03  0.11726217010E+03  0.41800000000E+01 0.  1.
        -11    1    1    2    0    0  0.10938380158E+03  0.63675352890E+02  0.10015381121E+02  0.12696328002E+03  0.00000000000E+00 0. -1.
         11    1    1    2    0    0  0.35356074653E+02  0.30426790256E+02  0.69004406057E+02  0.83291353906E+02  0.00000000000E+00 0.  1.
</event>
<event>
 7    1  0.2766180E-009  0.1969500E+03  0.7561462E-02  0.1152338E+00
          1   -1    0    0  501    0  0.00000000000E+00  0.00000000000E+00  0.15763960522E+04  0.15763960522E+04  0.00000000000E+00 0. -1.
         -1   -1    0    0    0  501 -0.00000000000E+00 -0.00000000000E+00 -0.46306679185E+02  0.46306679185E+02  0.00000000000E+00 0.  1.
         25    2    1    2    0    0  0.16058681009E+03  0.93048166951E+02  0.12735774428E+04  0.12930942812E+04  0.12508889798E+03 0.  0.
          5    1    3    3  502    0  0.87243079349E+02  0.55592358287E+01  0.84611377872E+03  0.85062815551E+03  0.41800000000E+01 0. -1.
         -5    1    3    3    0  502  0.73343730736E+02  0.87488931123E+02  0.42746366409E+03  0.44246612573E+03  0.41800000000E+01 0. -1.
        -11    1    1    2    0    0 -0.87780932909E+02 -0.22186781315E+02  0.18310191952E+03  0.20426467727E+03  0.00000000000E+00 0. -1.
         11    1    1    2    0    0 -0.72805877177E+02 -0.70861385636E+02  0.73410010642E+02  0.12534377283E+03  0.00000000000E+00 0.  1.
</event>
<event>
 7    1  0.2766180E-009  0.3678330E+03  0.7561462E-02  0.1055525E+00
         -2   -1    0    0    0  501 -0.00000000000E+00  0.00000000000E+00  0.90881311580E+02  0.90881311580E+02  0.00000000000E+00 0.  1.
          2   -1    0    0  501    0  0.00000000000E+00 -0.00000000000E+00 -0.15103236812E+04  0.15103236812E+04  0.00000000000E+00 0. -1.
         25    2    1    2    0    0  0.17729074144E+03 -0.30564875070E+03 -0.68107393568E+03  0.77740761386E+03  0.12509087271E+03 0.  0.
          5    1    3    3  502    0  0.17512249544E+03 -0.18794663111E+03 -0.47585253399E+03  0.54078177767E+03  0.41800000000E+01 0. -1.
         -5    1    3    3    0  502  0.21682460027E+01 -0.11770211958E+03 -0.20522140168E+03  0.23662583619E+03  0.41800000000E+01 0. -1.
        -11    1    1    2    0    0 -0.17701537894E+03  0.25567698344E+03 -0.58537159971E+03  0.66284619181E+03  0.00000000000E+00 0.  1.
         11    1    1    2    0    0 -0.27536249336E+00  0.49971767254E+02 -0.15299683425E+03  0.16095118712E+03  0.00000000000E+00 0. -1.
</event>
<event>
 7    1  0.2766180E-009  0.1015720E+03  0.7561462E-02  0.1277025E+00
         -2   -1    0    0    0  501 -0.00000000000E+00  0.00000000000E+00  0.21143032215E+03  0.21143032215E+03  0.00000000000E+00 0.  1.
          2   -1    0    0  501    0  0.00000000000E+00 -0.00000000000E+00 -0.86579108130E+02  0.86579108130E+02  0.00000000000E+00 0. -1.
         25    2    1    2    0    0 -0.64220015498E+02 -0.20641593234E+02  0.19720658554E+02  0.14348734352E+03  0.12509767230E+03 0.  0.
          5    1    3    3  502    0 -0.40364552002E+02  0.37772771714E+02 -0.30008309730E+02  0.63040069751E+02  0.41800000000E+01 0. -1.
         -5    1    3    3    0  502 -0.23855463496E+02 -0.58414364948E+02  0.49728968284E+02  0.80447273773E+02  0.41800000000E+01 0. -1.
        -11    1    1    2    0    0  0.54188109645E+02  0.36762093897E+02  0.21737883162E+02  0.68995205188E+02  0.00000000000E+00 0. -1.
         11    1    1    2    0    0  0.10031905853E+02 -0.16120500662E+02  0.83392672307E+02  0.85526881571E+02  0.00000000000E+00 0.  1.
</event>
<event>
 7    1  0.2766180E-009  0.1143004E+03  0.7561462E-02  0.1252807E+00
          2   -1    0    0  501    0  0.00000000000E+00  0.00000000000E+00  0.15328590946E+03  0.15328590946E+03  0.00000000000E+00 0. -1.
         -2   -1    0    0    0  501 -0.00000000000E+00 -0.00000000000E+00 -0.10217717299E+03  0.10217717299E+03  0.00000000000E+00 0.  1.
         25    2    1    2    0    0  0.60866754070E+02 -0.11288500468E+02  0.17683176879E+02  0.14069280254E+03  0.12509827316E+03 0.  0.
          5    1    3    3  502    0  0.13122821164E+02 -0.53496249016E+02 -0.28232612242E+02  0.62037165377E+02  0.41800000000E+01 0. -1.
         -5    1    3    3    0  502  0.47743932906E+02  0.42207748547E+02  0.45915789121E+02  0.78655637162E+02  0.41800000000E+01 0. -1.
        -11    1    1    2    0    0  0.22936407770E+02 -0.64737622042E+01  0.10815744366E+02  0.26171907165E+02  0.00000000000E+00 0. -1.
         11    1    1    2    0    0 -0.83803161840E+02  0.17762262673E+02  0.22609815228E+02  0.88598372752E+02  0.00000000000E+00 0.  1.
</event>
<event>
 7    1  0.2766180E-009  0.9139555E+02  0.7561462E-02  0.1299507E+00
         -2   -1    0    0    0  501 -0.00000000000E+00  0.00000000000E+00  0.51844944548E+02  0.51844944548E+02  0.00000000000E+00 0.  1.
          2   -1    0    0  501    0  0.00000000000E+00 -0.00000000000E+00 -0.27624655976E+03  0.27624655976E+03  0.00000000000E+00 0. -1.
         25    2    1    2    0    0 -0.45252003107E+02  0.17884609740E+02 -0.14803927897E+03  0.19981898082E+03  0.12507755165E+03 0.  0.
          5    1    3    3  502    0  0.42341495204E+02  0.18604118971E+02 -0.48083632712E+02  0.66846268359E+02  0.41800000000E+01 0.  1.
         -5    1    3    3    0  502 -0.87593498310E+02 -0.71950923128E+00 -0.99955646256E+02  0.13297271246E+03  0.41800000000E+01 0.  1.
        -11    1    1    2    0    0  0.27481718260E+02 -0.10835775823E+02  0.16244770647E+02  0.33712778729E+02  0.00000000000E+00 0.  1.
         11    1    1    2    0    0  0.17770284846E+02 -0.70488339170E+01 -0.92607106895E+02  0.94559744768E+02  0.00000000000E+00 0. -1.
</event>
<event>
 7    1  0.2766180E-009  0.1706010E+03  0.7561462E-02  0.1177223E+00
         -1   -1    0    0    0  501 -0.00000000000E+00  0.00000000000E+00  0.78170008925E+02  0.78170008925E+02  0.00000000000E+00 0.  1.
          1   -1    0    0  501    0  0.00000000000E+00 -0.00000000000E+00 -0.53782022585E+03  0.53782022585E+03  0.00000000000E+00 0. -1.
         25    2    1    2    0    0  0.11731499580E+03 -0.11359114953E+03 -0.15061279314E+03  0.25494694829E+03  0.12509186821E+03 0.  0.
          5    1    3    3  502    0  0.12497894428E+03 -0.96700999494E+02 -0.16692453407E+03  0.22989582922E+03  0.41800000000E+01 0.  1.
         -5    1    3    3    0  502 -0.76639484792E+01 -0.16890150039E+02  0.16311740929E+02  0.25051119072E+02  0.41800000000E+01 0.  1.
        -11    1    1    2    0    0 -0.55068711944E+02  0.64688888663E+02 -0.24472906192E+03  0.25905506963E+03  0.00000000000E+00 0.  1.
         11    1    1    2    0    0 -0.62246283856E+02  0.48902260870E+02 -0.64308361858E+02  0.10198821685E+03  0.00000000000E+00 0. -1.
</event>
<event>
 7    1  0.2766180E-009  0.1180949E+03  0.7561462E-02  0.1246273E+00
         -1   -1    0    0    0  501 -0.00000000000E+00  0.00000000000E+00  0.15439573792E+02  0.15439573792E+02  0.00000000000E+00 0.  1.
          1   -1    0    0  501    0  0.00000000000E+00 -0.00000000000E+00 -0.91674897164E+03  0.91674897164E+03  0.00000000000E+00 0. -1.
         25    2    1    2    0    0 -0.47623575336E+02 -0.36680889995E+01 -0.55000450706E+03  0.56606888273E+03  0.12509021705E+03 0.  0.
          5    1    3    3  502    0 -0.50928809375E+02 -0.58735691800E+02 -0.34994380676E+03  0.35849932413E+03  0.41800000000E+01 0. -1.
         -5    1    3    3    0  502  0.33052340386E+01  0.55067602801E+02 -0.20006070030E+03  0.20756955859E+03  0.41800000000E+01 0. -1.
        -11    1    1    2    0    0  0.53751058157E+02  0.39471949641E+02 -0.23434941240E+03  0.24365315133E+03  0.00000000000E+00 0. -1.
         11    1    1    2    0    0 -0.61274828216E+01 -0.35803860642E+02 -0.11695547839E+03  0.12246651137E+03  0.00000000000E+00 0.  1.
</event>
<event>
 7    1  0.2766180E-009  0.1596720E+03  0.7561462E-02  0.1189068E+00
          1   -1    0    0  501    0  0.00000000000E+00  0.00000000000E+00  0.10315164323E+04  0.10315164323E+04  0.00000000000E+00 0. -1.
         -1   -1    0    0    0  501 -0.00000000000E+00 -0.00000000000E+00 -0.52249744859E+02  0.52249744859E+02  0.00000000000E+00 0.  1.
         25    2    1    2    0    0  0.64093994365E+02  0.14181028851E+03  0.82930437367E+03  0.85300759796E+03  0.12513201006E+03 0.  0.
          5    1    3    3  502    0  0.22838846965E+02  0.10622050241E+03  0.74261572819E+03  0.75053314398E+03  0.41800000000E+01 0. -1.
         -5    1    3    3    0  502  0.41255147401E+02  0.35589786100E+02  0.86688645480E+02  0.10247445397E+03  0.41800000000E+01 0. -1.
        -11    1    1    2    0    0 -0.30284813992E+02 -0.54611076561E+02  0.11232741770E+02  0.63448515580E+02  0.00000000000E+00 0.  1.
         11    1    1    2    0    0 -0.33809180373E+02 -0.87199211951E+02  0.13872957201E+03  0.16731006364E+03  0.00000000000E+00 0. -1.
</event>
<event>
 7    1  0.2766180E-009  0.3522462E+03  0.7561462E-02  0.1061697E+00
         -1   -1    0    0    0  501 -0.00000000000E+00  0.00000000000E+00  0.30053524092E+03  0.30053524092E+03  0.00000000000E+00 0.  1.
          1   -1    0    0  501    0  0.00000000000E+00 -0.00000000000E+00 -0.43175694664E+03  0.43175694664E+03  0.00000000000E+00 0. -1.
         25    2    1    2    0    0 -0.29105267340E+03  0.18189668907E+03 -0.74711937255E+02  0.37286195141E+03  0.12508435974E+03 0.  0.
          5    1    3    3  502    0 -0.56727403650E+02 -0.10275633865E+02 -0.34005656474E+02  0.67062985681E+02  0.41800000000E+01 0. -1.
         -5    1    3    3    0  502 -0.23432526975E+03  0.19217232294E+03 -0.40706280781E+02  0.30579896573E+03  0.41800000000E+01 0. -1.
        -11    1    1    2    0    0  0.15028626637E+03 -0.10362555524E+03  0.15083851423E+02  0.18317134092E+03  0.00000000000E+00 0.  1.
         11    1    1    2    0    0  0.14076640703E+03 -0.78271133831E+02 -0.71593619894E+02  0.17625889523E+03  0.00000000000E+00 0. -1.
</event>
<event>
 7    1  0.2766180E-009  0.1383310E+03  0.7561462E-02  0.1215592E+00
         -4   -1    0    0    0  501 -0.00000000000E+00  0.00000000000E+00  0.28073651554E+02  0.28073651554E+02  0.00000000000E+00 0.  1.
          4   -1    0    0  501    0  0.00000000000E+00 -0.00000000000E+00 -0.98777502433E+03  0.98777502433E+03  0.00000000000E+00 0. -1.
         25    2    1    2    0    0 -0.51909172641E+02  0.11213420821E+03 -0.57799844624E+03  0.60415118174E+03  0.12509118146E+03 0.  0.
          5    1    3    3  502    0  0.53221065598E+01 -0.37425347811E+01  0.34717620170E+01  0.84768458948E+01  0.41800000000E+01 0. -1.
         -5    1    3    3    0  502 -0.57231279200E+02  0.11587674299E+03 -0.58147020826E+03  0.59567433584E+03  0.41800000000E+01 0. -1.
        -11    1    1    2    0    0  0.37332156318E+02 -0.13166043672E+02 -0.42627559990E+02  0.58173391444E+02  0.00000000000E+00 0.  1.
         11    1    1    2    0    0  0.14577016323E+02 -0.98968164541E+02 -0.33907536654E+03  0.35352410271E+03  0.00000000000E+00 0. -1.
</event>
<event>
 7    1  0.2766180E-009  0.9709745E+02  0.7561462E-02  0.1286521E+00
          1   -1    0    0  501    0  0.00000000000E+00  0.00000000000E+00  0.22749421446E+03  0.22749421446E+03  0.00000000000E+00 0. -1.
         -1   -1    0    0    0  501 -0.00000000000E+00 -0.00000000000E+00 -0.57781575506E+02  0.57781575506E+02  0.00000000000E+00 0.  1.
         25    2    1    2    0    0 -0.28123900747E+02 -0.14637725132E+01  0.11833361324E+03  0.17448000456E+03  0.12508929430E+03 0.  0.
          5    1    3    3  502    0 -0.61211222929E+02 -0.33455864356E+02  0.10544933817E+03  0.12650353352E+03  0.41800000000E+01 0.  1.
         -5    1    3    3    0  502  0.33087322182E+02  0.31992091842E+02  0.12884275061E+02  0.47976471041E+02  0.41800000000E+01 0.  1.
        -11    1    1    2    0    0  0.46314507116E+01  0.36017914540E+02  0.58059843097E+02  0.68481281267E+02  0.00000000000E+00 0. -1.
         11    1    1    2    0    0  0.23492450035E+02 -0.34554142026E+02 -0.66808173745E+01  0.42314504140E+02  0.00000000000E+00 0.  1.
</event>
<event>
 7    1  0.2766180E-009  0.9938824E+02  0.7561462E-02  0.1281588E+00
         -1   -1    0    0    0  501 -0.00000000000E+00  0.00000000000E+00  0.89422279265E+02  0.89422279265E+02  0.00000000000E+00 0.  1.
          1   -1    0    0  501    0  0.00000000000E+00 -0.00000000000E+00 -0.16470406077E+03  0.16470406077E+03  0.00000000000E+00 0. -1.
         25    2    1    2    0    0  0.83278949081E+01  0.47257262589E+02 -0.72773126418E+02  0.15246367412E+03  0.12508653523E+03 0.  0.
          5    1    3    3  502    0  0.45877959891E+02  0.44234594809E+02 -0.90382158698E+02  0.11067020192E+03  0.41800000000E+01 0. -1.
         -5    1    3    3    0  502 -0.37550064983E+02  0.30226677803E+01  0.17609032280E+02  0.41793472201E+02  0.41800000000E+01 0. -1.
        -11    1    1    2    0    0 -0.35042917287E+02  0.77194811620E+01 -0.15641196097E+02  0.39143881473E+02  0.00000000000E+00 0. -1.
         11    1    1    2    0    0  0.26715022379E+02 -0.54976743751E+02  0.13132541015E+02  0.62518784439E+02  0.00000000000E+00 0.  1.
</event>
<event>
 7    1  0.2766180E-009  0.1163395E+03  0.7561462E-02  0.1249261E+00
          2   -1    0    0  501    0  0.00000000000E+00  0.00000000000E+00  0.90533731570E+03  0.90533731570E+03  0.00000000000E+00 0. -1.
         -2   -1    0    0    0  501 -0.00000000000E+00 -0.00000000000E+00 -0.17088471184E+02  0.17088471184E+02  0.00000000000E+00 0.  1.
         25    2    1    2    0    0  0.53139116219E+02 -0.36097737650E+01  0.61263154550E+03  0.62753611195E+03  0.12508942849E+03 0.  0.
          5    1    3    3  502    0  0.36029969486E+02  0.55511555457E+02  0.42182203474E+03  0.42700233358E+03  0.41800000000E+01 0.  1.
         -5    1    3    3    0  502  0.17109146733E+02 -0.59121329222E+02  0.19080951075E+03  0.20053377836E+03  0.41800000000E+01 0.  1.
        -11    1    1    2    0    0  0.14491399801E+02  0.29016288024E+02  0.77626356465E+02  0.84129643152E+02  0.00000000000E+00 0.  1.
         11    1    1    2    0    0 -0.67630516021E+02 -0.25406514259E+02  0.19799094256E+03  0.21076003178E+03  0.00000000000E+00 0. -1.
</event>
<event>
 7    1  0.2766180E-009  0.9951025E+02  0.7561462E-02  0.1281329E+00
          3   -1    0    0  501    0  0.00000000000E+00  0.00000000000E+00  0.68397560610E+02  0.68397560610E+02  0.00000000000E+00 0. -1.
         -3   -1    0    0    0  501 -0.00000000000E+00 -0.00000000000E+00 -0.21408646325E+03  0.21408646325E+03  0.00000000000E+00 0.  1.
         25    2    1    2    0    0  0.31938069138E+02 -0.30459208069E+02 -0.12151349035E+03  0.17989032283E+03  0.12508875367E+03 0.  0.
          5    1    3    3  502    0  0.50452425941E+02  0.13466990986E+02 -0.34513366948E+01  0.52499440517E+02  0.41800000000E+01 0.  1.
         -5    1    3    3    0  502 -0.18514356803E+02 -0.43926199055E+02 -0.11806215365E+03  0.12739088231E+03  0.41800000000E+01 0.  1.
        -11    1    1    2    0    0 -0.43529885027E+02 -0.19354332694E+02 -0.18620408737E+02  0.51148418412E+02  0.00000000000E+00 0.  1.
         11    1    1    2    0    0  0.11591815888E+02  0.49813540763E+02 -0.55550035526E+01  0.51445282616E+02  0.00000000000E+00 0. -1.
</event>
<event>
 6    1  0.2766180E-009  0.1784160E+03  0.7561462E-02  0.1169345E+00
         -2   -1    0    0    0  501 -0.00000000000E+00  0.00000000000E+00  0.65421104632E+02  0.65421104632E+02  0.00000000000E+00 0.  1.
          2   -1    0    0  501    0  0.00000000000E+00 -0.00000000000E+00 -0.65339127796E+03  0.65339127796E+03  0.00000000000E+00 0. -1.
          5    1    1    2  502    0 -0.96679577929E+01 -0.16015507850E+03 -0.13316897540E+03  0.20855351109E+03  0.41800000000E+01 0.  1.
         -5    1    1    2    0  502 -0.37724039192E+02  0.10542872561E+02 -0.33312268645E+02  0.51589097076E+02  0.41800000000E+01 0.  1.
        -11    1    1    2    0    0  0.36882779764E+02  0.11620725459E+03 -0.39861202722E+03  0.41684051351E+03  0.00000000000E+00 0.  1.
         11    1    1    2    0    0  0.10509217221E+02  0.33404951346E+02 -0.22876902062E+02  0.41829260918E+02  0.00000000000E+00 0. -1.
</event>
<event>
 7    1  0.2766180E-009  0.1818298E+03  0.7561462E-02  0.1166044E+00
          1   -1    0    0  501    0  0.00000000000E+00  0.00000000000E+00  0.64785591273E+03  0.64785591273E+03  0.00000000000E+00 0. -1.
         -1   -1    0    0    0  501 -0.00000000000E+00 -0.00000000000E+00 -0.70927297059E+02  0.70927297059E+02  0.00000000000E+00 0.  1.
         25    2    1    2    0    0 -0.63253961474E+02  0.14956450690E+03  0.44765183890E+03  0.49235057519E+03  0.12508522957E+03 0.  0.
          5    1    3    3  502    0  0.24620802813E+02  0.22070891086E+02  0.18040278551E+03  0.18345556842E+03  0.41800000000E+01 0. -1.
         -5    1    3    3    0  502 -0.87874764287E+02  0.12749361582E+03  0.26724905339E+03  0.30889500677E+03  0.41800000000E+01 0. -1.
        -11    1    1    2    0    0  0.82856050198E+01 -0.10316572646E+03  0.38080225356E+02  0.11028110414E+03  0.00000000000E+00 0.  1.
         11    1    1    2    0    0  0.54968356454E+02 -0.46398780442E+02  0.91196551413E+02  0.11615153046E+03  0.00000000000E+00 0. -1.
</event>
<event>
 7    1  0.2766180E-009  0.1676532E+03  0.7561462E-02  0.1180318E+00
         -2   -1    0    0    0  501 -0.00000000000E+00  0.00000000000E+00  0.22374800301E+02  0.22374800301E+02  0.00000000000E+00 0.  1.
          2   -1    0    0  501    0  0.00000000000E+00 -0.00000000000E+00 -0.12881207312E+04  0.12881207312E+04  0.00000000000E+00 0. -1.
         25    2    1    2    0    0  0.13013354735E+03 -0.94418845968E+00 -0.62951733886E+03  0.65488544611E+03  0.12508891223E+03 0.  0.
          5    1    3    3  502    0 -0.13298178699E+02 -0.30665403769E+02 -0.10395353092E+03  0.10927496299E+03  0.41800000000E+01 0.  1.
         -5    1    3    3    0  502  0.14343172605E+03  0.29721215309E+02 -0.52556380794E+03  0.54561048312E+03  0.41800000000E+01 0.  1.
        -11    1    1    2    0    0 -0.37567335575E+02  0.39766413955E+02 -0.16580665672E+03  0.17459816664E+03  0.00000000000E+00 0.  1.
         11    1    1    2    0    0 -0.92566211773E+02 -0.38822225495E+02 -0.47042193534E+03  0.48101191877E+03  0.00000000000E+00 0. -1.
</event>
<event>
 7    1  0.2766180E-009  0.1500591E+03  0.7561462E-02  0.1200400E+00
         -2   -1    0    0    0  501 -0.00000000000E+00  0.00000000000E+00  0.17226514083E+02  0.17226514083E+02  0.00000000000E+00 0.  1.
          2   -1    0    0  501    0  0.00000000000E+00 -0.00000000000E+00 -0.16771927398E+04  0.16771927398E+04  0.00000000000E+00 0. -1.
         25    2    1    2    0    0  0.38618699392E+02 -0.11411541971E+03 -0.11457600055E+04  0.11588480669E+04  0.12509643951E+03 0.  0.
          5    1    3    3  502    0 -0.43234288628E+02 -0.64625424263E+02 -0.52981300044E+03  0.53550437627E+03  0.41800000000E+01 0. -1.
         -5    1    3    3    0  502  0.81852988020E+02 -0.49489995443E+02 -0.61594700502E+03  0.62334369066E+03  0.41800000000E+01 0. -1.
        -11    1    1    2    0    0  0.51138771200E+01  0.40967198385E+02 -0.56376676284E+02  0.69876982702E+02  0.00000000000E+00 0.  1.
         11    1    1    2    0    0 -0.43732576512E+02  0.73148221321E+02 -0.45782954397E+03  0.46569420424E+03  0.00000000000E+00 0. -1.
</event>
<event>
 7    1  0.2766180E-009  0.1353550E+03  0.7561462E-02  0.1219719E+00
         -2   -1    0    0    0  501 -0.00000000000E+00  0.00000000000E+00  0.16136135494E+02  0.16136135494E+02  0.00000000000E+00 0.  1.
          2   -1    0    0  501    0  0.00000000000E+00 -0.00000000000E+00 -0.18389331873E+04  0.18389331873E+04  0.00000000000E+00 0. -1.
         25    2    1    2    0    0  0.58796545958E+02  0.81322673922E+02 -0.14405567885E+04  0.14494558018E+04  0.12509136483E+03 0.  0.
          5    1    3    3  502    0  0.94518532573E+02  0.80510129869E+02 -0.11436348097E+04  0.11503624143E+04  0.41800000000E+01 0. -1.
         -5    1    3    3    0  502 -0.35721986615E+02  0.81254405270E+00 -0.29692197881E+03  0.29909338751E+03  0.41800000000E+01 0. -1.
        -11    1    1    2    0    0 -0.52009759802E+02 -0.32753042739E+02 -0.88151518662E+02  0.10746379467E+03  0.00000000000E+00 0.  1.
         11    1    1    2    0    0 -0.67867861554E+01 -0.48569631183E+02 -0.29408874472E+03  0.29814972633E+03  0.00000000000E+00 0. -1.
</event>
<event>
 7    1  0.2766180E-009  0.1412500E+03  0.7561462E-02  0.1211657E+00
         -2   -1    0    0    0  501 -0.00000000000E+00  0.00000000000E+00  0.55548814457E+02  0.55548814457E+02  0.00000000000E+00 0.  1.
          2   -1    0    0  501    0  0.00000000000E+00 -0.00000000000E+00 -0.50949781052E+03  0.50949781052E+03  0.00000000000E+00 0. -1.
         25    2    1    2    0    0 -0.63393356507E+02  0.11055221581E+03 -0.22055167353E+03  0.28377938124E+03  0.12508871431E+03 0.  0.
          5    1    3    3  502    0 -0.70465394520E+02  0.39454999663E+02 -0.41374833103E+02  0.90837316328E+02  0.41800000000E+01 0.  1.
         -5    1    3    3    0  502  0.70720380127E+01  0.71097216150E+02 -0.17917684043E+03  0.19294206491E+03  0.41800000000E+01 0.  1.
        -11    1    1    2    0    0  0.84718854142E+01 -0.38741333735E+02 -0.15993253363E+03  0.16477584500E+03  0.00000000000E+00 0. -1.
         11    1    1    2    0    0  0.54921471093E+02 -0.71810882077E+02 -0.73464788897E+02  0.11649139874E+03  0.00000000000E+00 0.  1.
</event>
<event>
 7    1  0.2766180E-009  0.3247679E+03  0.7561462E-02  0.1073476E+00
          1   -1    0    0  501    0  0.00000000000E+00  0.00000000000E+00  0.30712939866E+03  0.30712939866E+03  0.00000000000E+00 0. -1.
         -1   -1    0    0    0  501 -0.00000000000E+00 -0.00000000000E+00 -0.46754113304E+03  0.46754113304E+03  0.00000000000E+00 0.  1.
         25    2    1    2    0    0 -0.28602411679E+03 -0.12182926165E+03  0.11006499972E+03  0.35273580505E+03  0.12512425671E+03 0.  0.
          5    1    3    3  502    0 -0.20497309309E+03 -0.33493197878E+02  0.10477528431E+03  0.23266090303E+03  0.41800000000E+01 0.  1.
         -5    1    3    3    0  502 -0.81051023703E+02 -0.88336063773E+02  0.52897154147E+01  0.12007490202E+03  0.41800000000E+01 0.  1.
        -11    1    1    2    0    0  0.43682163398E+02  0.55423751580E+02 -0.40838644905E+02  0.81533542521E+02  0.00000000000E+00 0.  1.
         11    1    1    2    0    0  0.24234195340E+03  0.66405510071E+02 -0.22963808920E+03  0.34040118412E+03  0.00000000000E+00 0. -1.
</event>
<event>
 7    1  0.2766180E-009  0.1083109E+03  0.7561462E-02  0.1263730E+00
          4   -1    0    0  501    0  0.00000000000E+00  0.00000000000E+00  0.73775011202E+03  0.73775011202E+03  0.00000000000E+00 0. -1.
         -4   -1    0    0    0  501 -0.00000000000E+00 -0.00000000000E+00 -0.21018690565E+02  0.21018690565E+02  0.00000000000E+00 0.  1.
         25    2    1    2    0    0  0.54510825965E+02 -0.12252813290E+02  0.47708928435E+03  0.49637017105E+03  0.12509036685E+03 0.  0.
          5    1    3    3  502    0  0.38275378692E+02  0.47630659867E+02  0.12938786905E+03  0.14315158899E+03  0.41800000000E+01 0. -1.
         -5    1    3    3    0  502  0.16235447273E+02 -0.59883473157E+02  0.34770141530E+03  0.35321858206E+03  0.41800000000E+01 0. -1.
        -11    1    1    2    0    0 -0.53584969697E+02 -0.22721000015E+02  0.20523553118E+03  0.21332889180E+03  0.00000000000E+00 0. -1.
         11    1    1    2    0    0 -0.92585626827E+00  0.34973813305E+02  0.34406605930E+02  0.49069739744E+02  0.00000000000E+00 0.  1.
</event>
<event>
 7    1  0.2766180E-009  0.1005727E+03  0.7561462E-02  0.1279096E+00
          3   -1    0    0  501    0  0.00000000000E+00  0.00000000000E+00  0.62781347106E+03  0.62781347106E+03  0.00000000000E+00 0. -1.
         -3   -1    0    0    0  501 -0.00000000000E+00 -0.00000000000E+00 -0.25292037279E+02  0.25292037279E+02  0.00000000000E+00 0.  1.
         25    2    1    2    0    0 -0.21433505736E+02  0.11129123528E+02  0.47808229670E+03  0.49476437082E+03  0.12508336281E+03 0.  0.
          5    1    3    3  502    0 -0.48929217683E+01 -0.55532460451E+02  0.26554293844E+03  0.27136381373E+03  0.41800000000E+01 0.  1.
         -5    1    3    3    0  502 -0.16540583968E+02  0.66661583980E+02  0.21253935826E+03  0.22340055709E+03  0.41800000000E+01 0.  1.
        -11    1    1    2    0    0  0.43497229870E+02  0.11328939220E+02  0.11791203799E+03  0.12618875771E+03  0.00000000000E+00 0. -1.
         11    1    1    2    0    0 -0.22063724134E+02 -0.22458062748E+02  0.65270990945E+01  0.32152379813E+02  0.00000000000E+00 0.  1.
</event>
<event>
 7    1  0.2766180E-009  0.1026236E+03  0.7561462E-02  0.1274874E+00
         -1   -1    0    0    0  501 -0.00000000000E+00  0.00000000000E+00  0.14090497462E+03  0.14090497462E+03  0.00000000000E+00 0.  1.
          1   -1    0    0  501    0  0.00000000000E+00 -0.00000000000E+00 -0.10357673521E+03  0.10357673521E+03  0.00000000000E+00 0. -1.
         25    2    1    2    0    0  0.18893908607E+02 -0.27006925868E+02 -0.24510787680E+02  0.13165799757E+03  0.12508675303E+03 0.  0.
          5    1    3    3  502    0  0.24906069974E+01 -0.71716401880E+02  0.10169398175E+02  0.72597069369E+02  0.41800000000E+01 0. -1.
         -5    1    3    3    0  502  0.16403301610E+02  0.44709476012E+02 -0.34680185855E+02  0.59060928200E+02  0.41800000000E+01 0. -1.
        -11    1    1    2    0    0 -0.15761310149E+02 -0.27106248837E+02  0.47221253476E+02  0.56683457935E+02  0.00000000000E+00 0.  1.
         11    1    1    2    0    0 -0.31325984582E+01  0.54113174705E+02  0.14617773617E+02  0.56140254322E+02  0.00000000000E+00 0. -1.
</event>
<event>
 7    1  0.2766180E-009  0.1030178E+03  0.7561462E-02  0.1274075E+00
         -2   -1    0    0    0  501 -0.00000000000E+00  0.00000000000E+00  0.91275785519E+02  0.91275785519E+02  0.00000000000E+00 0.  1.
          2   -1    0    0  501    0  0.00000000000E+00 -0.00000000000E+00 -0.13239903805E+03  0.13239903805E+03  0.00000000000E+00 0. -1.
         25    2    1    2    0    0  0.17466813901E+02 -0.14235792309E+02 -0.48055253250E+02  0.13588509319E+03  0.12509078230E+03 0.  0.
          5    1    3    3  502    0  0.64900715020E+02  0.16682250091E+02 -0.10865361300E+02  0.68014180539E+02  0.41800000000E+01 0.  1.
         -5    1    3    3    0  502 -0.47433901119E+02 -0.30918042400E+02 -0.37189891950E+02  0.67870912654E+02  0.41800000000E+01 0.  1.
        -11    1    1    2    0    0  0.62583154707E+01  0.43782252483E+02 -0.11432756185E+02  0.45681068934E+02  0.00000000000E+00 0. -1.
         11    1    1    2    0    0 -0.23725129372E+02 -0.29546460174E+02  0.18364756902E+02  0.42108661444E+02  0.00000000000E+00 0.  1.
</event>
<event>
 7    1  0.2766180E-009  0.2612831E+03  0.7561462E-02  0.1106375E+00
         -2   -1    0    0    0  501 -0.00000000000E+00  0.00000000000E+00  0.49272199982E+03  0.49272199982E+03  0.00000000000E+00 0.  1.
          2   -1    0    0  501    0  0.00000000000E+00 -0.00000000000E+00 -0.21436436143E+03  0.21436436143E+03  0.00000000000E+00 0. -1.
         25    2    1    2    0    0 -0.23954897272E+03  0.28265634518E+02 -0.62876482805E+02  0.27889801070E+03  0.12509193362E+03 0.  0.
          5    1    3    3  502    0 -0.38380350397E+02 -0.41901603788E+02 -0.93942047963E+00  0.56983774949E+02  0.41800000000E+01 0. -1.
         -5    1    3    3    0  502 -0.20116862232E+03  0.70167238306E+02 -0.61937062325E+02  0.22191423575E+03  0.41800000000E+01 0. -1.
        -11    1    1    2    0    0  0.11373886319E+02  0.16430314541E+02  0.60252972850E+02  0.63480243093E+02  0.00000000000E+00 0.  1.
         11    1    1    2    0    0  0.22817508640E+03 -0.44695949059E+02  0.28098114835E+03  0.36470810746E+03  0.00000000000E+00 0. -1.
</event>
<event>
 7    1  0.2766180E-009  0.1752848E+03  0.7561462E-02  0.1172446E+00
          2   -1    0    0  501    0  0.00000000000E+00  0.00000000000E+00  0.17006560574E+04  0.17006560574E+04  0.00000000000E+00 0. -1.
         -2   -1    0    0    0  501 -0.00000000000E+00 -0.00000000000E+00 -0.19987752832E+02  0.19987752832E+02  0.00000000000E+00 0.  1.
         25    2    1    2    0    0 -0.14715320467E+03 -0.16616535108E+02  0.98522415808E+03  0.10041137513E+04  0.12509040302E+03 0.  0.
          5    1    3    3  502    0 -0.85315431126E+02  0.46168256439E+02  0.66130991299E+03  0.66839995819E+03  0.41800000000E+01 0.  1.
         -5    1    3    3    0  502 -0.61837773547E+02 -0.62784791547E+02  0.32391424510E+03  0.33571379308E+03  0.41800000000E+01 0.  1.
        -11    1    1    2    0    0  0.57075867005E+02 -0.29286670923E+02  0.17571436089E+03  0.18705854782E+03  0.00000000000E+00 0. -1.
         11    1    1    2    0    0  0.90077337668E+02  0.45903206031E+02  0.51972978564E+03  0.52947151120E+03  0.00000000000E+00 0.  1.
</event>
<event>
 6    1  0.2766180E-009  0.1460944E+03  0.7561462E-02  0.1205356E+00
         -1   -1    0    0    0  501 -0.00000000000E+00  0.00000000000E+00  0.33748835905E+02  0.33748835905E+02  0.00000000000E+00 0.  1.
          1   -1    0    0  501    0  0.00000000000E+00 -0.00000000000E+00 -0.87530125260E+03  0.87530125260E+03  0.00000000000E+00 0. -1.
          5    1    1    2  502    0  0.69218647310E+02  0.22938562029E+02 -0.33267588118E+03  0.34059963753E+03  0.41800000000E+01 0. -1.
         -5    1    1    2    0  502 -0.45435525527E+02  0.72782437359E+02 -0.34936414276E+03  0.35976999154E+03  0.41800000000E+01 0. -1.
        -11    1    1    2    0    0  0.34090146464E+02 -0.43745938552E+02 -0.52370825941E+02  0.76279411610E+02  0.00000000000E+00 0. -1.
         11    1    1    2    0    0 -0.57873268248E+02 -0.51975060836E+02 -0.10714156681E+03  0.13240104782E+03  0.00000000000E+00 0.  1.
</event>
<event>
 7    1  0.2766180E-009  0.1248775E+03  0.7561462E-02  0.1235261E+00
          2   -1    0    0  501    0  0.00000000000E+00  0.00000000000E+00  0.63488878371E+03  0.63488878371E+03  0.00000000000E+00 0. -1.
         -2   -1    0    0    0  501 -0.00000000000E+00 -0.00000000000E+00 -0.38668465895E+02  0.38668465895E+02  0.00000000000E+00 0.  1.
         25    2    1    2    0    0  0.78116616240E+02  0.70067341997E+02  0.23619816415E+03  0.28713835832E+03  0.12508887210E+03 0.  0.
          5    1    3    3  502    0  0.41650978094E+02  0.17504982619E+02  0.21481856927E+03  0.21955800714E+03  0.41800000000E+01 0. -1.
         -5    1    3    3    0  502  0.36465638146E+02  0.52562359378E+02  0.21379594871E+02  0.67580351180E+02  0.41800000000E+01 0. -1.
        -11    1    1    2    0    0 -0.90351162556E+02 -0.25246629751E+02  0.23393837178E+03  0.25204738975E+03  0.00000000000E+00 0.  1.
         11    1    1    2    0    0  0.12234546317E+02 -0.44820712246E+02  0.12608378189E+03  0.13437150153E+03  0.00000000000E+00 0. -1.
</event>
<event>
 7    1  0.2766180E-009  0.1304341E+03  0.7561462E-02  0.1226813E+00
         -1   -1    0    0    0  501 -0.00000000000E+00  0.00000000000E+00  0.17548852351E+02  0.17548852351E+02  0.00000000000E+00 0.  1.
          1   -1    0    0  501    0  0.00000000000E+00 -0.00000000000E+00 -0.11022886604E+04  0.11022886604E+04  0.00000000000E+00 0. -1.
         25    2    1    2    0    0  0.12197650335E+02  0.82998977503E+02 -0.71014542202E+03  0.72594193439E+03  0.12509020247E+03 0.  0.
          5    1    3    3  502    0 -0.25318477569E+02 -0.23082100017E+02 -0.10871833158E+03  0.11406558056E+03  0.41800000000E+01 0.  1.
         -5    1    3    3    0  502  0.37516127904E+02  0.10608107752E+03 -0.60142709044E+03  0.61187635383E+03  0.41800000000E+01 0.  1.
        -11    1    1    2    0    0 -0.41866777795E+02 -0.69554749571E+02 -0.32162139457E+03  0.33170922767E+03  0.00000000000E+00 0.  1.
         11    1    1    2    0    0  0.29669127461E+02 -0.13444227933E+02 -0.52972991460E+02  0.62186350699E+02  0.00000000000E+00 0. -1.
</event>
<event>
 7    1  0.2766180E-009  0.9160562E+02  0.7561462E-02  0.1299009E+00
         -2   -1    0    0    0  501 -0.00000000000E+00  0.00000000000E+00  0.30891526468E+03  0.30891526468E+03  0.00000000000E+00 0.  1.
          2   -1    0    0  501    0  0.00000000000E+00 -0.00000000000E+00 -0.41330600685E+02  0.41330600685E+02  0.00000000000E+00 0. -1.
         25    2    1    2    0    0 -0.19033029583E+02 -0.32739987838E+01  0.11151313238E+03  0.16868828873E+03  0.12509030650E+03 0.  0.
          5    1    3    3  502    0 -0.55715506062E+02 -0.12740810280E+02  0.73559446525E+01  0.57776536623E+02  0.41800000000E+01 0. -1.
         -5    1    3    3    0  502  0.36682476480E+02  0.94668114959E+01  0.10415718773E+03  0.11091175211E+03  0.41800000000E+01 0. -1.
        -11    1    1    2    0    0  0.16503575090E+02 -0.40609176768E+02  0.10725905086E+03  0.11587051920E+03  0.00000000000E+00 0.  1.
         11    1    1    2    0    0  0.25294544931E+01  0.43883175552E+02  0.48812480755E+02  0.65687057432E+02  0.00000000000E+00 0. -1.
</event>
<event>
 7    1  0.2766180E-009  0.1218620E+03  0.7561462E-02  0.1240057E+00
         -2   -1    0    0    0  501 -0.00000000000E+00  0.00000000000E+00  0.20742907591E+02  0.20742907591E+02  0.00000000000E+00 0.  1.
          2   -1    0    0  501    0  0.00000000000E+00 -0.00000000000E+00 -0.19502518637E+04  0.19502518637E+04  0.00000000000E+00 0. -1.
         25    2    1    2    0    0  0.60556631488E+02  0.53711394761E+02 -0.17417552000E+04  0.17481164044E+04  0.12509103498E+03 0.  0.
          5    1    3    3  502    0 -0.32546560825E+02  0.44133931844E+02 -0.69980892032E+03  0.70196658035E+03  0.41800000000E+01 0. -1.
         -5    1    3    3    0  502  0.93103192313E+02  0.95774629168E+01 -0.10419462797E+04  0.10461498240E+04  0.41800000000E+01 0. -1.
        -11    1    1    2    0    0  0.32576083125E+01 -0.24746615127E+02 -0.12910350807E+03  0.13149419291E+03  0.00000000000E+00 0. -1.
         11    1    1    2    0    0 -0.63814239801E+02 -0.28964779634E+02 -0.58650248028E+02  0.91384173982E+02  0.00000000000E+00 0.  1.
</event>
<event>
 7    1  0.2766180E-009  0.2640395E+03  0.7561462E-02  0.1104740E+00
         -2   -1    0    0    0  501 -0.00000000000E+00  0.00000000000E+00  0.39943579654E+02  0.39943579654E+02  0.00000000000E+00 0.  1.
          2   -1    0    0  501    0  0.00000000000E+00 -0.00000000000E+00 -0.20999913831E+04  0.20999913831E+04  0.00000000000E+00 0. -1.
         25    2    1    2    0    0  0.56885326055E+01 -0.25670442062E+03 -0.76460478013E+03  0.81620897660E+03  0.12508838763E+03 0.  0.
          5    1    3    3  502    0  0.39108831821E+01 -0.30855525022E+01  0.34426133139E+01  0.73579635727E+01  0.41800000000E+01 0. -1.
         -5    1    3    3    0  502  0.17776494234E+01 -0.25361886812E+03 -0.76804739344E+03  0.80885101302E+03  0.41800000000E+01 0. -1.
        -11    1    1    2    0    0  0.26975465390E+02  0.36957084156E+02 -0.14568529440E+03  0.15270136478E+03  0.00000000000E+00 0.  1.
         11    1    1    2    0    0 -0.32663997995E+02  0.21974733646E+03 -0.11497577289E+04  0.11710246214E+04  0.00000000000E+00 0. -1.
</event>
<event>
 7    1  0.2766180E-009  0.1463515E+03  0.7561462E-02  0.1205029E+00
         -2   -1    0    0    0  501 -0.00000000000E+00  0.00000000000E+00  0.16579886135E+02  0.16579886135E+02  0.00000000000E+00 0.  1.
          2   -1    0    0  501    0  0.00000000000E+00 -0.00000000000E+00 -0.17387501852E+04  0.17387501852E+04  0.00000000000E+00 0. -1.
         25    2    1    2    0    0 -0.10239866482E+02  0.10090416414E+03 -0.13413401944E+04  0.13509728072E+04  0.12508998115E+03 0.  0.
          5    1    3    3  502    0 -0.67164875290E+02  0.57900847482E+02 -0.80926355222E+03  0.81411829482E+03  0.41800000000E+01 0.  1.
         -5    1    3    3    0  502  0.56925008809E+02  0.43003316659E+02 -0.53207664219E+03  0.53685451235E+03  0.41800000000E+01 0.  1.
        -11    1    1    2    0    0  0.10540337140E+02 -0.11644394099E+03 -0.35899776057E+03  0.37755752171E+03  0.00000000000E+00 0. -1.
         11    1    1    2    0    0 -0.30047065838E+00  0.15539776851E+02 -0.21832344070E+02  0.26799742439E+02  0.00000000000E+00 0.  1.
</event>
<event>
 7    1  0.2766180E-009  0.1032825E+03  0.7561462E-02  0.1273541E+00
          1   -1    0    0  501    0  0.00000000000E+00  0.00000000000E+00  0.74543536400E+02  0.74543536400E+02  0.00000000000E+00 0. -1.
         -1   -1    0    0    0  501 -0.00000000000E+00 -0.00000000000E+00 -0.16639257955E+03  0.16639257955E+03  0.00000000000E+00 0.  1.
         25    2    1    2    0    0 -0.34883033661E+01 -0.19157458563E+02 -0.32450091054E+02  0.13069315572E+03  0.12509402889E+03 0.  0.
          5    1    3    3  502    0  0.72712714978E+01  0.51875552393E+02 -0.21024011989E+01  0.52591223756E+02  0.41800000000E+01 0.  1.
         -5    1    3    3    0  502 -0.10759574864E+02 -0.71033010956E+02 -0.30347689855E+02  0.78101931962E+02  0.41800000000E+01 0.  1.
        -11    1    1    2    0    0  0.41613506971E+02  0.86291634519E+01 -0.56341544391E+02  0.70572771298E+02  0.00000000000E+00 0.  1.
         11    1    1    2    0    0 -0.38125203605E+02  0.10528295111E+02 -0.30574077003E+01  0.39670188930E+02  0.00000000000E+00 0. -1.
</event>
<event>
 7    1  0.2766180E-009  0.1403258E+03  0.7561462E-02  0.1212891E+00
          3   -1    0    0  501    0  0.00000000000E+00  0.00000000000E+00  0.67889448346E+02  0.67889448346E+02  0.00000000000E+00 0. -1.
         -3   -1    0    0    0  501 -0.00000000000E+00 -0.00000000000E+00 -0.49043535875E+03  0.49043535875E+03  0.00000000000E+00 0.  1.
         25    2    1    2    0    0  0.73823598180E+01  0.11810673651E+03 -0.34953293161E+03  0.38964693202E+03  0.12509101049E+03 0.  0.
          5    1    3    3  502    0 -0.50556397161E+01  0.13619468937E+03 -0.33807112021E+03  0.36453272504E+03  0.41800000000E+01 0.  1.
         -5    1    3    3    0  502  0.12437999534E+02 -0.18087952868E+02 -0.11461811397E+02  0.25114206973E+02  0.41800000000E+01 0.  1.
        -11    1    1    2    0    0  0.11127018604E+02 -0.58116565438E+02 -0.86172782054E+02  0.10453274170E+03  0.00000000000E+00 0.  1.
         11    1    1    2    0    0 -0.18509378422E+02 -0.59990171069E+02  0.13159803255E+02  0.64145133379E+02  0.00000000000E+00 0. -1.
</event>
<event>
 7    1  0.2766180E-009  0.1931638E+03  0.7561462E-02  0.1155638E+00
         -1   -1    0    0    0  501 -0.00000000000E+00  0.00000000000E+00  0.17816811558E+03  0.17816811558E+03  0.00000000000E+00 0.  1.
          1   -1    0    0  501    0  0.00000000000E+00 -0.00000000000E+00 -0.60844003877E+03  0.60844003877E+03  0.00000000000E+00 0. -1.
         25    2    1    2    0    0  0.64682413076E+02  0.14608192812E+03  0.99435708267E+02  0.22596197393E+03  0.12509040450E+03 0.  0.
          5    1    3    3  502    0  0.20007504236E+02 -0.21355326911E+02  0.14800996165E+02  0.33058918626E+02  0.41800000000E+01 0. -1.
         -5    1    3    3    0  502  0.44674908840E+02  0.16743725503E+03  0.84634712102E+02  0.19290305531E+03  0.41800000000E+01 0. -1.
        -11    1    1    2    0    0 -0.75571705772E+02 -0.59569638996E+02 -0.29235359828E+03  0.30778279846E+03  0.00000000000E+00 0.  1.
         11    1    1    2    0    0  0.10889292695E+02 -0.86512289127E+02 -0.23735403318E+03  0.25286338196E+03  0.00000000000E+00 0. -1.
</event>
<event>
 7    1  0.2766180E-009  0.2061186E+03  0.7561462E-02  0.1144677E+00
         -2   -1    0    0    0  501 -0.00000000000E+00  0.00000000000E+00  0.61620083900E+02  0.61620083900E+02  0.00000000000E+00 0.  1.
          2   -1    0    0  501    0  0.00000000000E+00 -0.00000000000E+00 -0.11075117929E+04  0.11075117929E+04  0.00000000000E+00 0. -1.
         25    2    1    2    0    0  0.17517622786E+03 -0.44227176843E+02 -0.86338564105E+03  0.89091247698E+03  0.12509005753E+03 0.  0.
          5    1    3    3  502    0  0.70813906651E+02 -0.80195101473E+02 -0.48820451029E+03  0.49980694267E+03  0.41800000000E+01 0. -1.
         -5    1    3    3    0  502  0.10436232121E+03  0.35967924631E+02 -0.37518113076E+03  0.39110553432E+03  0.41800000000E+01 0. -1.
        -11    1    1    2    0    0 -0.81611864239E+02 -0.16361552295E+02 -0.28241506229E+02  0.87896413192E+02  0.00000000000E+00 0.  1.
         11    1    1    2    0    0 -0.93564363619E+02  0.60588729138E+02 -0.15426456177E+03  0.19032298667E+03  0.00000000000E+00 0. -1.
</event>
<event>
 7    1  0.2766180E-009  0.1036907E+03  0.7561462E-02  0.1272721E+00
          1   -1    0    0  501    0  0.00000000000E+00  0.00000000000E+00  0.34849643685E+02  0.34849643685E+02  0.00000000000E+00 0. -1.
         -1   -1    0    0    0  501 -0.00000000000E+00 -0.00000000000E+00 -0.57546634775E+03  0.57546634775E+03  0.00000000000E+00 0.  1.
         25    2    1    2    0    0 -0.71650163848E+02 -0.47207288086E+02 -0.36963995255E+03  0.39955423567E+03  0.12509044206E+03 0.  0.
          5    1    3    3  502    0 -0.90284283640E+01 -0.46333685268E+02 -0.30785052072E+03  0.31147670606E+03  0.41800000000E+01 0.  1.
         -5    1    3    3    0  502 -0.62621735484E+02 -0.87360281847E+00 -0.61789431822E+02  0.88077529608E+02  0.41800000000E+01 0.  1.
        -11    1    1    2    0    0  0.51835949293E+02  0.68776672799E+01 -0.24873340497E+02  0.57904671779E+02  0.00000000000E+00 0. -1.
         11    1    1    2    0    0  0.19814214555E+02  0.40329620806E+02 -0.14610341102E+03  0.15285708398E+03  0.00000000000E+00 0.  1.
</event>
<event>
 7    1  0.2766180E-009  0.2575540E+03  0.7561462E-02  0.1108622E+00
          1   -1    0    0  501    0  0.00000000000E+00  0.00000000000E+00  0.20751440861E+03  0.20751440861E+03  0.00000000000E+00 0. -1.
         -1   -1    0    0    0  501 -0.00000000000E+00 -0.00000000000E+00 -0.35955085644E+03  0.35955085644E+03  0.00000000000E+00 0.  1.
         25    2    1    2    0    0  0.30026800805E+01 -0.25022836733E+03 -0.59193036520E+02  0.28596454808E+03  0.12509458536E+03 0.  0.
          5    1    3    3  502    0  0.27304967511E+02 -0.21210136556E+03 -0.32550188796E+01  0.21391731596E+03  0.41800000000E+01 0. -1.
         -5    1    3    3    0  502 -0.24302287431E+02 -0.38127001770E+02 -0.55938017640E+02  0.72047232118E+02  0.41800000000E+01 0. -1.
        -11    1    1    2    0    0  0.22142695944E+02  0.17708899759E+03 -0.97969468668E+02  0.20358985447E+03  0.00000000000E+00 0.  1.
         11    1    1    2    0    0 -0.25145376024E+02  0.73139369736E+02  0.51260573561E+01  0.77510862496E+02  0.00000000000E+00 0. -1.
</event>
<event>
 7    1  0.2766180E-009  0.9200715E+02  0.7561462E-02  0.1298063E+00
         -1   -1    0    0    0  501 -0.00000000000E+00  0.00000000000E+00  0.49308243843E+02  0.49308243843E+02  0.00000000000E+00 0.  1.
          1   -1    0    0  501    0  0.00000000000E+00 -0.00000000000E+00 -0.24735229513E+03  0.24735229513E+03  0.00000000000E+00 0. -1.
         25    2    1    2    0    0  0.64968042396E+01 -0.13205579101E+02 -0.12629964880E+03  0.17836917814E+03  0.12508943457E+03 0.  0.
          5    1    3    3  502    0 -0.33301904252E+02 -0.31883761515E+02 -0.12596890541E+03  0.13420591867E+03  0.41800000000E+01 0. -1.
         -5    1    3    3    0  502  0.39798708492E+02  0.18678182415E+02 -0.33074338279E+00  0.44163259471E+02  0.41800000000E+01 0. -1.
        -11    1    1    2    0    0 -0.49473771492E+02  0.99046666900E+01 -0.32638639472E+02  0.60091906897E+02  0.00000000000E+00 0.  1.
         11    1    1    2    0    0  0.42976967253E+02  0.33009124107E+01 -0.39105763017E+02  0.58199453933E+02  0.00000000000E+00 0. -1.
</event>
<event>
 7    1  0.2766180E-009  0.1059765E+03  0.7561462E-02  0.1268208E+00
          4   -1    0    0  501    0  0.00000000000E+00  0.00000000000E+00  0.26212948308E+03  0.26212948308E+03  0.00000000000E+00 0. -1.
         -4   -1    0    0    0  501 -0.00000000000E+00 -0.00000000000E+00 -0.48956346097E+02  0.48956346097E+02  0.00000000000E+00 0.  1.
         25    2    1    2    0    0  0.18099754682E+02  0.25579936477E+02  0.14304662138E+03  0.19259657129E+03  0.12509663910E+03 0.  0.
          5    1    3    3  502    0  0.88679380683E+01  0.73080779799E+02  0.11471117019E+03  0.13636555895E+03  0.41800000000E+01 0. -1.
         -5    1    3    3    0  502  0.92318166133E+01 -0.47500843322E+02  0.28335451197E+02  0.56231012340E+02  0.41800000000E+01 0. -1.
        -11    1    1    2    0    0 -0.52002750668E+02 -0.16303346376E+02  0.21719689457E+02  0.58667112509E+02  0.00000000000E+00 0.  1.
         11    1    1    2    0    0  0.33902995986E+02 -0.92765901014E+01  0.48406826148E+02  0.59822145385E+02  0.00000000000E+00 0. -1.
</event>
<event>
 7    1  0.2766180E-009  0.1494045E+03  0.7561462E-02  0.1201207E+00
         -2   -1    0    0    0  501 -0.00000000000E+00  0.00000000000E+00  0.45613289055E+02  0.45613289055E+02  0.00000000000E+00 0.  1.
          2   -1    0    0  501    0  0.00000000000E+00 -0.00000000000E+00 -0.56155576728E+03  0.56155576728E+03  0.00000000000E+00 0. -1.
         25    2    1    2    0    0  0.41052854874E+02  0.10927846093E+03 -0.31812438684E+03  0.36121589414E+03  0.12508668098E+03 0.  0.
          5    1    3    3  502    0  0.38227235854E+02  0.13728183964E+03 -0.26110458559E+03  0.29749067561E+03  0.41800000000E+01 0.  1.
         -5    1    3    3    0  502  0.28256190199E+01 -0.28003378714E+02 -0.57019801250E+02  0.63725218531E+02  0.41800000000E+01 0.  1.
        -11    1    1    2    0    0  0.11557163651E+02 -0.34293647751E+02 -0.10895764236E+02  0.37793385479E+02  0.00000000000E+00 0.  1.
         11    1    1    2    0    0 -0.52610018525E+02 -0.74984813177E+02 -0.18692232715E+03  0.20815977672E+03  0.00000000000E+00 0. -1.
</event>
<event>
 7    1  0.2766180E-009  0.1057057E+03  0.7561462E-02  0.1268735E+00
         -3   -1    0    0    0  501 -0.00000000000E+00  0.00000000000E+00  0.13407385634E+02  0.13407385634E+02  0.00000000000E+00 0.  1.
          3   -1    0    0  501    0  0.00000000000E+00 -0.00000000000E+00 -0.10181941752E+04  0.10181941752E+04  0.00000000000E+00 0. -1.
         25    2    1    2    0    0 -0.25200066544E+02 -0.22764103156E+02 -0.69973592240E+03  0.71163926291E+03  0.12508729618E+03 0.  0.
          5    1    3    3  502    0 -0.61708278376E+02 -0.40912478716E+02 -0.27145686957E+03  0.28140370817E+03  0.41800000000E+01 0.  1.
         -5    1    3    3    0  502  0.36508211832E+02  0.18148375561E+02 -0.42827905283E+03  0.43023555474E+03  0.41800000000E+01 0.  1.
        -11    1    1    2    0    0 -0.20878587413E+02 -0.23182841854E+02 -0.11032474456E+03  0.11465124871E+03  0.00000000000E+00 0.  1.
         11    1    1    2    0    0  0.46078653957E+02  0.45946945010E+02 -0.19472612264E+03  0.20531104926E+03  0.00000000000E+00 0. -1.
</event>
<event>
 7    1  0.2766180E-009  0.9180277E+02  0.7561462E-02  0.1298544E+00
         -1   -1    0    0    0  501 -0.00000000000E+00  0.00000000000E+00  0.21328208692E+03  0.21328208692E+03  0.00000000000E+00 0.  1.
          1   -1    0    0  501    0  0.00000000000E+00 -0.00000000000E+00 -0.55811445344E+02  0.55811445344E+02  0.00000000000E+00 0. -1.
         25    2    1    2    0    0 -0.10007576772E+02  0.10521027569E+02  0.77536150967E+02  0.14788917416E+03  0.12509400271E+03 0.  0.
          5    1    3    3  502    0 -0.40387734832E+02  0.55392994927E+02  0.27394173252E+02  0.73942316301E+02  0.41800000000E+01 0.  1.
         -5    1    3    3    0  502  0.30380158059E+02 -0.44871967358E+02  0.50141977715E+02  0.73946857861E+02  0.41800000000E+01 0.  1.
        -11    1    1    2    0    0 -0.21904969938E+02  0.84167429497E+01  0.80746090707E+02  0.84086862436E+02  0.00000000000E+00 0.  1.
         11    1    1    2    0    0  0.31912546710E+02 -0.18937770519E+02 -0.81160009916E+00  0.37117495665E+02  0.00000000000E+00 0. -1.
</event>
<event>
 7    1  0.2766180E-009  0.1105490E+03  0.7561462E-02  0.1259557E+00
          2   -1    0    0  501    0  0.00000000000E+00  0.00000000000E+00  0.17876564392E+03  0.17876564392E+03  0.00000000000E+00 0. -1.
         -2   -1    0    0    0  501 -0.00000000000E+00 -0.00000000000E+00 -0.13056096542E+03  0.13056096542E+03  0.00000000000E+00 0.  1.
         25    2    1    2    0    0  0.19525926090E+02  0.87518591377E+02  0.88566127361E+02  0.17757232245E+03  0.12508878910E+03 0.  0.
          5    1    3    3  502    0 -0.70346682421E+01  0.46542831749E+02  0.11323790156E+03  0.12270296041E+03  0.41800000000E+01 0.  1.
         -5    1    3    3    0  502  0.26560594332E+02  0.40975759628E+02 -0.24671774199E+02  0.54869362038E+02  0.41800000000E+01 0.  1.
        -11    1    1    2    0    0 -0.54227094698E+02 -0.56016940767E+02 -0.31334643423E+02  0.84025801578E+02  0.00000000000E+00 0.  1.
         11    1    1    2    0    0  0.34701168609E+02 -0.31501650610E+02 -0.90268054433E+01  0.47728485315E+02  0.00000000000E+00 0. -1.
</event>
<event>
 7    1  0.2766180E-009  0.1218688E+03  0.7561462E-02  0.1240046E+00
         -2   -1    0    0    0  501 -0.00000000000E+00  0.00000000000E+00  0.38008740661E+03  0.38008740661E+03  0.00000000000E+00 0.  1.
          2   -1    0    0  501    0  0.00000000000E+00 -0.00000000000E+00 -0.42232785279E+02  0.42232785279E+02  0.00000000000E+00 0. -1.
         25    2    1    2    0    0  0.32560758208E+02  0.57170344161E+02  0.19164060031E+03  0.23812137575E+03  0.12508804370E+03 0.  0.
          5    1    3    3  502    0  0.47077883642E+02 -0.24003233913E+02  0.10949371747E+03  0.12165043745E+03  0.41800000000E+01 0.  1.
         -5    1    3    3    0  502 -0.14517125433E+02  0.81173578073E+02  0.82146882836E+02  0.11647093830E+03  0.41800000000E+01 0.  1.
        -11    1    1    2    0    0 -0.55895364657E+02 -0.11778548263E+02  0.10089839734E+03  0.11594616240E+03  0.00000000000E+00 0.  1.
         11    1    1    2    0    0  0.23334606448E+02 -0.45391795898E+02  0.45315623688E+02  0.68252653745E+02  0.00000000000E+00 0. -1.
</event>
<event>
 7    1  0.2766180E-009  0.1121744E+03  0.7561462E-02  0.1256595E+00
          2   -1    0    0  501    0  0.00000000000E+00  0.00000000000E+00  0.14806790433E+03  0.14806790433E+03  0.00000000000E+00 0. -1.
         -2   -1    0    0    0  501 -0.00000000000E+00 -0.00000000000E+00 -0.21970674961E+03  0.21970674961E+03  0.00000000000E+00 0.  1.
         25    2    1    2    0    0 -0.99309001269E+02 -0.28398801694E+02  0.63728799400E+02  0.17429284027E+03  0.12509142507E+03 0.  0.
          5    1    3    3  502    0 -0.11275043669E+02  0.17818698001E+02  0.71318178442E+02  0.74487499519E+02  0.41800000000E+01 0. -1.
         -5    1    3    3    0  502 -0.88033957600E+02 -0.46217499696E+02 -0.75893790427E+01  0.99805340754E+02  0.41800000000E+01 0. -1.
        -11    1    1    2    0    0  0.31245504156E+02  0.10429883906E+02 -0.11583371507E+03  0.12042638230E+03  0.00000000000E+00 0.  1.
         11    1    1    2    0    0  0.68063497113E+02  0.17968917788E+02 -0.19533929617E+02  0.73055431365E+02  0.00000000000E+00 0. -1.
</event>
<event>
 7    1  0.2766180E-009  0.1277900E+03  0.7561462E-02  0.1230772E+00
          2   -1    0    0  501    0  0.00000000000E+00  0.00000000000E+00  0.85921096487E+03  0.85921096487E+03  0.00000000000E+00 0. -1.
         -2   -1    0    0    0  501 -0.00000000000E+00 -0.00000000000E+00 -0.22801154685E+02  0.22801154685E+02  0.00000000000E+00 0.  1.
         25    2    1    2    0    0 -0.75393790829E+02  0.47954982825E+01  0.60472778208E+03  0.62213394240E+03  0.12509089242E+03 0.  0.
          5    1    3    3  502    0 -0.52308416910E+02  0.60484006850E+02  0.25671203308E+03  0.26891081401E+03  0.41800000000E+01 0. -1.
         -5    1    3    3    0  502 -0.23085373919E+02 -0.55688508567E+02  0.34801574901E+03  0.35322312839E+03  0.41800000000E+01 0. -1.
        -11    1    1    2    0    0  0.79396323407E+02  0.26365548613E+02  0.14150943509E+03  0.16438928963E+03  0.00000000000E+00 0.  1.
         11    1    1    2    0    0 -0.40025325781E+01 -0.31161046895E+02  0.90172593011E+02  0.95488887526E+02  0.00000000000E+00 0. -1.
</event>
<event>
 7    1  0.2766180E-009  0.1093749E+03  0.7561462E-02  0.1261732E+00
          4   -1    0    0  501    0  0.00000000000E+00  0.00000000000E+00  0.52115770582E+03  0.52115770582E+03  0.00000000000E+00 0. -1.
         -4   -1    0    0    0  501 -0.00000000000E+00 -0.00000000000E+00 -0.10874157452E+03  0.10874157452E+03  0.00000000000E+00 0.  1.
         25    2    1    2    0    0  0.66190321826E+00  0.47186076882E+02  0.48605056572E+03  0.50410307497E+03  0.12509114194E+03 0.  0.
          5    1    3    3  502    0 -0.12413091982E+02  0.80764340467E+02  0.20505880951E+03  0.22077941775E+03  0.41800000000E+01 0.  1.
         -5    1    3    3    0  502  0.13074995201E+02 -0.33578263585E+02  0.28099175621E+03  0.28332365722E+03  0.41800000000E+01 0.  1.
        -11    1    1    2    0    0 -0.12157682021E+02 -0.72151992845E+02 -0.62173400205E+02  0.96016930781E+02  0.00000000000E+00 0. -1.
         11    1    1    2    0    0  0.11495778803E+02  0.24965915963E+02 -0.11461034214E+02  0.29779274595E+02  0.00000000000E+00 0.  1.
</event>
<event>
 7    1  0.2766180E-009  0.9395187E+02  0.7561462E-02  0.1293554E+00
         -2   -1    0    0    0  501 -0.00000000000E+00  0.00000000000E+00  0.38007688458E+02  0.38007688458E+02  0.00000000000E+00 0.  1.
          2   -1    0    0  501    0  0.00000000000E+00 -0.00000000000E+00 -0.33618848281E+03  0.33618848281E+03  0.00000000000E+00 0. -1.
         25    2    1    2    0    0 -0.19123498581E+02  0.13506942850E+02 -0.14442298030E+03  0.19249046418E+03  0.12508571404E+03 0.  0.
          5    1    3    3  502    0 -0.11924858348E+02  0.64106008228E+02 -0.11781121587E+03  0.13471725027E+03  0.41800000000E+01 0.  1.
         -5    1    3    3    0  502 -0.71986402324E+01 -0.50599065378E+02 -0.26611764435E+02  0.57773213902E+02  0.41800000000E+01 0.  1.
        -11    1    1    2    0    0 -0.20791548388E+01 -0.38473771734E+02 -0.18878857819E+02  0.42906471177E+02  0.00000000000E+00 0.  1.
         11    1    1    2    0    0  0.21202653419E+02  0.24966828884E+02 -0.13487895623E+03  0.13879923592E+03  0.00000000000E+00 0. -1.
</event>
<event>
 7    1  0.2766180E-009  0.1061757E+03  0.7561462E-02  0.1267820E+00
         -1   -1    0    0    0  501 -0.00000000000E+00  0.00000000000E+00  0.12387265739E+02  0.12387265739E+02  0.00000000000E+00 0.  1.
          1   -1    0    0  501    0  0.00000000000E+00 -0.00000000000E+00 -0.14835562812E+04  0.14835562812E+04  0.00000000000E+00 0. -1.
         25    2    1    2    0    0  0.45173088336E+02 -0.35888917126E+02 -0.11120123851E+04  0.11205124970E+04  0.12509232191E+03 0.  0.
          5    1    3    3  502    0 -0.26114633582E+02 -0.29741935506E+02 -0.13167477238E+03  0.13755826000E+03  0.41800000000E+01 0.  1.
         -5    1    3    3    0  502  0.71287721918E+02 -0.61469816201E+01 -0.98033761273E+03  0.98295423699E+03  0.41800000000E+01 0.  1.
        -11    1    1    2    0    0  0.20440695621E+02  0.28178971219E+02 -0.20160732784E+03  0.20459078937E+03  0.00000000000E+00 0. -1.
         11    1    1    2    0    0 -0.65613783957E+02  0.77099459066E+01 -0.15754930251E+03  0.17084026057E+03  0.00000000000E+00 0.  1.
</event>
<event>
 7    1  0.2766180E-009  0.1177034E+03  0.7561462E-02  0.1246935E+00
          3   -1    0    0  501    0  0.00000000000E+00  0.00000000000E+00  0.28220013290E+03  0.28220013290E+03  0.00000000000E+00 0. -1.
         -3   -1    0    0    0  501 -0.00000000000E+00 -0.00000000000E+00 -0.84698722269E+02  0.84698722269E+02  0.00000000000E+00 0.  1.
         25    2    1    2    0    0 -0.82822470189E+02 -0.46234110089E+01  0.19147068194E+03  0.24329170322E+03  0.12509553675E+03 0.  0.
          5    1    3    3  502    0  0.79766556246E+01 -0.35745634891E+02  0.11418796771E+03  0.11999059054E+03  0.41800000000E+01 0.  1.
         -5    1    3    3    0  502 -0.90799125814E+02  0.31122223882E+02  0.77282714227E+02  0.12330111267E+03  0.41800000000E+01 0.  1.
        -11    1    1    2    0    0  0.84763680598E+02  0.19900567314E+02 -0.23602850649E+02  0.90210912238E+02  0.00000000000E+00 0.  1.
         11    1    1    2    0    0 -0.19412104093E+01 -0.15277156305E+02  0.29633579341E+02  0.33396239716E+02  0.00000000000E+00 0. -1.
</event>
<event>
 7    1  0.2766180E-009  0.1894181E+03  0.7561462E-02  0.1158987E+00
         -1   -1    0    0    0  501 -0.00000000000E+00  0.00000000000E+00  0.65817144840E+03  0.65817144840E+03  0.00000000000E+00 0.  1.
          1   -1    0    0  501    0  0.00000000000E+00 -0.00000000000E+00 -0.71792601450E+02  0.71792601450E+02  0.00000000000E+00 0. -1.
         25    2    1    2    0    0 -0.78010366606E+01  0.15833129755E+03  0.47519029963E+03  0.51632160616E+03  0.12511004821E+03 0.  0.
          5    1    3    3  502    0  0.16972705437E+02  0.17113653152E+03  0.38176944293E+03  0.41873758501E+03  0.41800000000E+01 0. -1.
         -5    1    3    3    0  502 -0.24773742098E+02 -0.12805233972E+02  0.93420856706E+02  0.97584021143E+02  0.41800000000E+01 0. -1.
        -11    1    1    2    0    0  0.16859373523E+02 -0.16593150724E+03  0.90356963244E+02  0.18968891475E+03  0.00000000000E+00 0. -1.
         11    1    1    2    0    0 -0.90583368627E+01  0.76002096937E+01  0.20831584072E+02  0.23953528948E+02  0.00000000000E+00 0.  1.
</event>
<event>
 7    1  0.2766180E-009  0.9697943E+02  0.7561462E-02  0.1286779E+00
         -2   -1    0    0    0  501 -0.00000000000E+00  0.00000000000E+00  0.11562185167E+03  0.11562185167E+03  0.00000000000E+00 0.  1.
          2   -1    0    0  501    0  0.00000000000E+00 -0.00000000000E+00 -0.13050540950E+03  0.13050540950E+03  0.00000000000E+00 0. -1.
         25    2    1    2    0    0  0.55837714524E+02 -0.50122886103E+01 -0.14413590371E+02  0.13784801182E+03  0.12510535311E+03 0.  0.
          5    1    3    3  502    0  0.39913974765E+02  0.58798449404E+02 -0.79573253448E+01  0.71632216639E+02  0.41800000000E+01 0. -1.
         -5    1    3    3    0  502  0.15923739759E+02 -0.63810738015E+02 -0.64562650259E+01  0.66215795185E+02  0.41800000000E+01 0. -1.
        -11    1    1    2    0    0 -0.32272301375E+02  0.76221893646E+01 -0.46140997642E+02  0.56820690511E+02  0.00000000000E+00 0. -1.
         11    1    1    2    0    0 -0.23565413149E+02 -0.26099007542E+01  0.45671030182E+02  0.51458558829E+02  0.00000000000E+00 0.  1.
</event>
<event>
 6    1  0.2766180E-009  0.1245904E+03  0.7561462E-02  0.1235711E+00
         -1   -1    0    0    0  501 -0.00000000000E+00  0.00000000000E+00  0.12214703915E+02  0.12214703915E+02  0.00000000000E+00 0. -1.
          1   -1    0    0  501    0  0.00000000000E+00 -0.00000000000E+00 -0.14181439341E+04  0.14181439341E+04  0.00000000000E+00 0.  1.
          5    1    1    2  502    0 -0.54654033982E+02  0.44985738159E+02 -0.38068999035E+03  0.38723780965E+03  0.41800000000E+01 0.  1.
         -5    1    1    2    0  502  0.62749102421E+02  0.18222154198E+02 -0.58514152222E+03  0.58879331703E+03  0.41800000000E+01 0.  1.
        -11    1    1    2    0    0 -0.70190239537E+01 -0.87850098068E+02 -0.34024099552E+03  0.35146954557E+03  0.00000000000E+00 0. -1.
         11    1    1    2    0    0 -0.10760444854E+01  0.24642205712E+02 -0.99856722077E+02  0.10285796575E+03  0.00000000000E+00 0.  1.
</event>
<event>
 7    1  0.2766180E-009  0.1086602E+03  0.7561462E-02  0.1263071E+00
          1   -1    0    0  501    0  0.00000000000E+00  0.00000000000E+00  0.71358806714E+02  0.71358806714E+02  0.00000000000E+00 0. -1.
         -1   -1    0    0    0  501 -0.00000000000E+00 -0.00000000000E+00 -0.19324726146E+03  0.19324726146E+03  0.00000000000E+00 0.  1.
         25    2    1    2    0    0 -0.31094394950E+02 -0.19604999041E+02 -0.47216163088E+02  0.13866655201E+03  0.12509128349E+03 0.  0.
          5    1    3    3  502    0 -0.61341265234E+02  0.31059049389E+02 -0.38387480965E+02  0.78857380531E+02  0.41800000000E+01 0. -1.
         -5    1    3    3    0  502  0.30246870284E+02 -0.50664048430E+02 -0.88286821227E+01  0.59809171481E+02  0.41800000000E+01 0. -1.
        -11    1    1    2    0    0  0.52766295477E+02  0.34448239788E+02 -0.21412204697E+02  0.66554080813E+02  0.00000000000E+00 0. -1.
         11    1    1    2    0    0 -0.21671900527E+02 -0.14843240747E+02 -0.53260086958E+02  0.59385435345E+02  0.00000000000E+00 0.  1.
</event>
<event>
 7    1  0.2766180E-009  0.2642409E+03  0.7561462E-02  0.1104622E+00
         -1   -1    0    0    0  501 -0.00000000000E+00  0.00000000000E+00  0.36978626115E+03  0.36978626115E+03  0.00000000000E+00 0.  1.
          1   -1    0    0  501    0  0.00000000000E+00 -0.00000000000E+00 -0.20745852013E+03  0.20745852013E+03  0.00000000000E+00 0. -1.
         25    2    1    2    0    0 -0.20008653872E+03 -0.15690992635E+03  0.14192307180E+03  0.31693006253E+03  0.12508860165E+03 0.  0.
          5    1    3    3  502    0 -0.59515809929E+02 -0.19250721461E+01  0.77770624012E+02  0.98038665298E+02  0.41800000000E+01 0.  1.
         -5    1    3    3    0  502 -0.14057072879E+03 -0.15498485421E+03  0.64152447791E+02  0.21889139723E+03  0.41800000000E+01 0.  1.
        -11    1    1    2    0    0  0.20884387486E+02  0.41215567205E+02  0.30142207247E+01  0.46302982056E+02  0.00000000000E+00 0.  1.
         11    1    1    2    0    0  0.17920215123E+03  0.11569435915E+03  0.17390448493E+02  0.21401173669E+03  0.00000000000E+00 0. -1.
</event>
<event>
 7    1  0.2766180E-009  0.1354233E+03  0.7561462E-02  0.1219623E+00
         -2   -1    0    0    0  501 -0.00000000000E+00  0.00000000000E+00  0.16400086328E+03  0.16400086328E+03  0.00000000000E+00 0.  1.
          2   -1    0    0  501    0  0.00000000000E+00 -0.00000000000E+00 -0.12920381375E+03  0.12920381375E+03  0.00000000000E+00 0. -1.
         25    2    1    2    0    0 -0.54441565831E+02 -0.73620978075E+02  0.51143550221E+02  0.16326150971E+03  0.12511884479E+03 0.  0.
          5    1    3    3  502    0 -0.55342904666E+02 -0.10113199143E+03  0.64732263867E+02  0.13228097056E+03  0.41800000000E+01 0. -1.
         -5    1    3    3    0  502  0.90133883463E+00  0.27511013354E+02 -0.13588713645E+02  0.30980539149E+02  0.41800000000E+01 0. -1.
        -11    1    1    2    0    0  0.79213842896E+02  0.51929014983E+02 -0.20023699482E+02  0.96811177270E+02  0.00000000000E+00 0. -1.
         11    1    1    2    0    0 -0.24772277065E+02  0.21691963092E+02  0.36771987927E+01  0.33131990050E+02  0.00000000000E+00 0.  1.
</event>
<event>
 7    1  0.2766180E-009  0.1318867E+03  0.7561462E-02  0.1224683E+00
          3   -1    0    0  501    0  0.00000000000E+00  0.00000000000E+00  0.13190015539E+03  0.13190015539E+03  0.00000000000E+00 0. -1.
         -3   -1    0    0    0  501 -0.00000000000E+00 -0.00000000000E+00 -0.16763133146E+03  0.16763133146E+03  0.00000000000E+00 0.  1.
         25    2    1    2    0    0  0.66681575414E+02 -0.73352590545E+02  0.26719328920E+01  0.15962610471E+03  0.12508524709E+03 0.  0.
          5    1    3    3  502    0 -0.20801348536E+02 -0.13914968049E+02 -0.38453754206E+02  0.46070446592E+02  0.41800000000E+01 0. -1.
         -5    1    3    3    0  502  0.87482923950E+02 -0.59437622496E+02  0.41125687098E+02  0.11355565812E+03  0.41800000000E+01 0. -1.
        -11    1    1    2    0    0  0.20795818223E+02  0.25289741190E+02 -0.20129821348E+02  0.38434968095E+02  0.00000000000E+00 0.  1.
         11    1    1    2    0    0 -0.87477393637E+02  0.48062849355E+02 -0.18273287618E+02  0.10147041404E+03  0.00000000000E+00 0. -1.
</event>
<event>
 7    1  0.2766180E-009  0.1617802E+03  0.7561462E-02  0.1186702E+00
          1   -1    0    0  501    0  0.00000000000E+00  0.00000000000E+00  0.18205723643E+03  0.18205723643E+03  0.00000000000E+00 0. -1.
         -1   -1    0    0    0  501 -0.00000000000E+00 -0.00000000000E+00 -0.20498444256E+03  0.20498444256E+03  0.00000000000E+00 0.  1.
         25    2    1    2    0    0  0.25331472958E+02  0.15010124908E+03  0.34360668615E+02  0.19999991375E+03  0.12508893418E+03 0.  0.
          5    1    3    3  502    0 -0.26265060487E+02  0.64913766491E+02 -0.35160454632E+02  0.78468977644E+02  0.41800000000E+01 0. -1.
         -5    1    3    3    0  502  0.51596533445E+02  0.85187482591E+02  0.69521123248E+02  0.12153093611E+03  0.41800000000E+01 0. -1.
        -11    1    1    2    0    0 -0.78502557897E+01 -0.10596042097E+03 -0.81348724927E+02  0.13381648768E+03  0.00000000000E+00 0.  1.
         11    1    1    2    0    0 -0.17481217168E+02 -0.44140828109E+02  0.24060850180E+02  0.53225277558E+02  0.00000000000E+00 0. -1.
</event>
<event>
 7    1  0.2766180E-009  0.2815994E+03  0.7561462E-02  0.1094819E+00
          1   -1    0    0  501    0  0.00000000000E+00  0.00000000000E+00  0.21877960949E+03  0.21877960949E+03  0.00000000000E+00 0. -1.
         -1   -1    0    0    0  501 -0.00000000000E+00 -0.00000000000E+00 -0.39333765485E+03  0.39333765485E+03  0.00000000000E+00 0.  1.
         25    2    1    2    0    0 -0.72144463913E+02  0.25758773805E+03 -0.35534589789E+02  0.29743706717E+03  0.12509930210E+03 0.  0.
          5    1    3    3  502    0 -0.10584449920E+03  0.21599842322E+03 -0.38630527631E+02  0.24365583701E+03  0.41800000000E+01 0. -1.
         -5    1    3    3    0  502  0.33700035284E+02  0.41589314829E+02  0.30959378421E+01  0.53781230158E+02  0.41800000000E+01 0. -1.
        -11    1    1    2    0    0  0.55525766987E+02 -0.14763862374E+03 -0.33231245621E+02  0.16119736259E+03  0.00000000000E+00 0.  1.
         11    1    1    2    0    0  0.16618696926E+02 -0.10994911431E+03 -0.10579220995E+03  0.15348283459E+03  0.00000000000E+00 0. -1.
</event>
<event>
 7    1  0.2766180E-009  0.8863162E+02  0.7561462E-02  0.1306200E+00
         -1   -1    0    0    0  501 -0.00000000000E+00  0.00000000000E+00  0.10267873729E+04  0.10267873729E+04  0.00000000000E+00 0.  1.
          1   -1    0    0  501    0  0.00000000000E+00 -0.00000000000E+00 -0.12792877775E+02  0.12792877775E+02  0.00000000000E+00 0. -1.
         25    2    1    2    0    0 -0.69241832142E+01  0.37498313917E+02  0.59680549581E+03  0.61096595796E+03  0.12509410096E+03 0.  0.
          5    1    3    3  502    0  0.32619345701E+02  0.17464809063E+02  0.49955123808E+02  0.62305923188E+02  0.41800000000E+01 0. -1.
         -5    1    3    3    0  502 -0.39543528915E+02  0.20033504854E+02  0.54685037200E+03  0.54866003477E+03  0.41800000000E+01 0. -1.
        -11    1    1    2    0    0 -0.96635628259E+01 -0.63733901415E+02  0.22972397704E+03  0.23859694102E+03  0.00000000000E+00 0. -1.
         11    1    1    2    0    0  0.16587746040E+02  0.26235587499E+02  0.18746502225E+03  0.19001735167E+03  0.00000000000E+00 0.  1.
</event>
<event>
 7    1  0.2766180E-009  0.1256083E+03  0.7561462E-02  0.1234122E+00
         -3   -1    0    0    0  501 -0.00000000000E+00  0.00000000000E+00  0.42403579065E+03  0.42403579065E+03  0.00000000000E+00 0.  1.
          3   -1    0    0  501    0  0.00000000000E+00 -0.00000000000E+00 -0.78509316384E+02  0.78509316384E+02  0.00000000000E+00 0. -1.
         25    2    1    2    0    0  0.84619193122E+01  0.10133908056E+03  0.32899579734E+03  0.36637096426E+03  0.12509290729E+03 0.  0.
          5    1    3    3  502    0  0.25253140687E+02 -0.41142364336E+01  0.18630490123E+03  0.18810007091E+03  0.41800000000E+01 0. -1.
         -5    1    3    3    0  502 -0.16791221374E+02  0.10545331699E+03  0.14269089611E+03  0.17827089334E+03  0.41800000000E+01 0. -1.
        -11    1    1    2    0    0 -0.34066642917E+02 -0.70841264419E+02  0.41782647583E+02  0.89021404972E+02  0.00000000000E+00 0.  1.
         11    1    1    2    0    0  0.25604723605E+02 -0.30497816139E+02 -0.25251970660E+02  0.47152737803E+02  0.00000000000E+00 0. -1.
</event>
<event>
 7    1  0.2766180E-009  0.1455609E+03  0.7561462E-02  0.1206036E+00
          2   -1    0    0  501    0  0.00000000000E+00  0.00000000000E+00  0.48609706534E+03  0.48609706534E+03  0.00000000000E+00 0. -1.
         -2   -1    0    0    0  501 -0.00000000000E+00 -0.00000000000E+00 -0.59268618049E+02  0.59268618049E+02  0.00000000000E+00 0.  1.
         25    2    1    2    0    0 -0.11937118690E+03  0.48629442730E+02  0.20003595928E+03  0.26883862556E+03  0.12508204757E+03 0.  0.
          5    1    3    3  502    0 -0.80412510499E+02  0.72962288745E+01  0.24783664113E+02  0.84564231253E+02  0.41800000000E+01 0. -1.
         -5    1    3    3    0  502 -0.38958676396E+02  0.41333213855E+02  0.17525229517E+03  0.18427439431E+03  0.41800000000E+01 0. -1.
        -11    1    1    2    0    0  0.54409175108E+02 -0.66519417390E+02  0.92380968515E+02  0.12617224168E+03  0.00000000000E+00 0.  1.
         11    1    1    2    0    0  0.64962011787E+02  0.17889974660E+02  0.13441151949E+03  0.15035481616E+03  0.00000000000E+00 0. -1.
</event>
<event>
 7    1  0.2766180E-009  0.1372513E+03  0.7561462E-02  0.1217076E+00
         -1   -1    0    0    0  501 -0.00000000000E+00  0.00000000000E+00  0.10466863183E+03  0.10466863183E+03  0.00000000000E+00 0.  1.
          1   -1    0    0  501    0  0.00000000000E+00 -0.00000000000E+00 -0.39051589264E+03  0.39051589264E+03  0.00000000000E+00 0. -1.
         25    2    1    2    0    0 -0.59790142835E+02  0.93540449361E+02  0.91783703878E+01  0.16751439591E+03  0.12510856688E+03 0.  0.
          5    1    3    3  502    0 -0.77712709669E+02  0.77918843624E+02 -0.36358951675E+02  0.11597438167E+03  0.41800000000E+01 0.  1.
         -5    1    3    3    0  502  0.17922566834E+02  0.15621605737E+02  0.45537322063E+02  0.51540014245E+02  0.41800000000E+01 0.  1.
        -11    1    1    2    0    0  0.27580474218E+02  0.11860569161E+02 -0.41466910097E+02  0.51194338475E+02  0.00000000000E+00 0.  1.
         11    1    1    2    0    0  0.32209668617E+02 -0.10540101852E+03 -0.25355872110E+03  0.27647579009E+03  0.00000000000E+00 0. -1.
</event>
<event>
 7    1  0.2766180E-009  0.1110297E+03  0.7561462E-02  0.1258675E+00
         -1   -1    0    0    0  501 -0.00000000000E+00  0.00000000000E+00  0.31405270955E+02  0.31405270955E+02  0.00000000000E+00 0.  1.
          1   -1    0    0  501    0  0.00000000000E+00 -0.00000000000E+00 -0.48784435509E+03  0.48784435509E+03  0.00000000000E+00 0. -1.
         25    2    1    2    0    0 -0.45030879927E+02  0.29631096230E+02 -0.23968745170E+03  0.27568857539E+03  0.12509330153E+03 0.  0.
          5    1    3    3  502    0 -0.72206845976E+02  0.50442698230E+02 -0.21746879903E+03  0.23466666863E+03  0.41800000000E+01 0.  1.
         -5    1    3    3    0  502  0.27175966050E+02 -0.20811602000E+02 -0.22218652668E+02  0.41021906768E+02  0.41800000000E+01 0.  1.
        -11    1    1    2    0    0  0.22588273919E+02  0.28916764074E+02 -0.13854809957E+03  0.14332475451E+03  0.00000000000E+00 0. -1.
         11    1    1    2    0    0  0.22442606008E+02 -0.58547860304E+02 -0.78203532868E+02  0.10023629614E+03  0.00000000000E+00 0.  1.
</event>
<event>
 7    1  0.2766180E-009  0.5388636E+02  0.7561462E-02  0.1425440E+00
         -2   -1    0    0    0  501 -0.00000000000E+00  0.00000000000E+00  0.30234482157E+02  0.30234482157E+02  0.00000000000E+00 0.  1.
          2   -1    0    0  501    0  0.00000000000E+00 -0.00000000000E+00 -0.41298345156E+03  0.41298345156E+03  0.00000000000E+00 0. -1.
         25    2    1    2    0    0  0.64943628584E+01 -0.16279781974E+02 -0.19298091528E+03  0.23064739676E+03  0.12509748167E+03 0.  0.
          5    1    3    3  502    0 -0.23182852531E+01  0.78353631417E+01  0.16862105207E+02  0.19198186219E+02  0.41800000000E+01 0. -1.
         -5    1    3    3    0  502  0.88126481115E+01 -0.24115145116E+02 -0.20984302049E+03  0.21144921054E+03  0.41800000000E+01 0. -1.
        -11    1    1    2    0    0 -0.77979526585E+01 -0.27600981409E+02 -0.14987820002E+02  0.32361350232E+02  0.00000000000E+00 0.  1.
         11    1    1    2    0    0  0.13035898001E+01  0.43880763383E+02 -0.17478023412E+03  0.18020918672E+03  0.00000000000E+00 0. -1.
</event>
<event>
 7    1  0.2766180E-009  0.1856756E+03  0.7561462E-02  0.1162420E+00
          2   -1    0    0  501    0  0.00000000000E+00  0.00000000000E+00  0.71600638574E+03  0.71600638574E+03  0.00000000000E+00 0.  1.
         -2   -1    0    0    0  501 -0.00000000000E+00 -0.00000000000E+00 -0.10161244641E+03  0.10161244641E+03  0.00000000000E+00 0. -1.
         25    2    1    2    0    0 -0.13137632067E+03  0.88809497850E+02  0.28665279943E+02  0.20400024850E+03  0.12509012181E+03 0.  0.
          5    1    3    3  502    0 -0.12743808410E+03  0.31427760657E+02  0.52728167811E+02  0.14151290224E+03  0.41800000000E+01 0.  1.
         -5    1    3    3    0  502 -0.39382365648E+01  0.57381737192E+02 -0.24062887868E+02  0.62487346263E+02  0.41800000000E+01 0.  1.
        -11    1    1    2    0    0  0.35301579702E+02 -0.78078292656E+02  0.25197409157E+03  0.26614538158E+03  0.00000000000E+00 0.  1.
         11    1    1    2    0    0  0.96074740966E+02 -0.10731205193E+02  0.33375456781E+03  0.34747320206E+03  0.00000000000E+00 0. -1.
</event>
<event>
 7    1  0.2766180E-009  0.1238495E+03  0.7561462E-02  0.1236878E+00
          2   -1    0    0  501    0  0.00000000000E+00  0.00000000000E+00  0.45137096463E+03  0.45137096463E+03  0.00000000000E+00 0. -1.
         -2   -1    0    0    0  501 -0.00000000000E+00 -0.00000000000E+00 -0.39703305941E+02  0.39703305941E+02  0.00000000000E+00 0.  1.
         25    2    1    2    0    0  0.73081200100E+02 -0.24553099001E+02  0.19711707863E+03  0.24585799570E+03  0.12508914774E+03 0.  0.
          5    1    3    3  502    0 -0.31358387381E+02  0.12567859323E+02  0.64822353549E+02  0.73216865999E+02  0.41800000000E+01 0.  1.
         -5    1    3    3    0  502  0.10443958748E+03 -0.37120958324E+02  0.13229472508E+03  0.17264112970E+03  0.41800000000E+01 0.  1.
        -11    1    1    2    0    0 -0.73587394199E+02 -0.44591747945E+01  0.85276295783E+02  0.11272548712E+03  0.00000000000E+00 0.  1.
         11    1    1    2    0    0  0.50619409919E+00  0.29012273795E+02  0.12927428427E+03  0.13249078775E+03  0.00000000000E+00 0. -1.
</event>
<event>
 7    1  0.5113303E-009  0.6511226E+02  0.7561462E-02  0.1377550E+00
         -1   -1    0    0    0  501 -0.00000000000E+00  0.00000000000E+00  0.78358003065E+02  0.78358003065E+02  0.00000000000E+00 0.  1.
          1   -1    0    0  501    0  0.00000000000E+00 -0.00000000000E+00 -0.16386520073E+03  0.16386520073E+03  0.00000000000E+00 0. -1.
         25    2    1    2    0    0 -0.82014950524E+01 -0.24926424136E+02 -0.71706753398E+02  0.14655939084E+03  0.12509678421E+03 0.  0.
          5    1    3    3  502    0 -0.28975016192E+02  0.31807503652E+02 -0.74279385908E+02  0.85942820658E+02  0.41800000000E+01 0. -1.
         -5    1    3    3    0  502  0.20773521140E+02 -0.56733927788E+02  0.25726325100E+01  0.60616570183E+02  0.41800000000E+01 0. -1.
        -11    1    1    2    0    0  0.47505054971E+01  0.94468593649E+01 -0.52650222867E+02  0.53701549533E+02  0.00000000000E+00 0. -1.
         11    1    1    2    0    0  0.34509895554E+01  0.15479564771E+02  0.38849778597E+02  0.41962263422E+02  0.00000000000E+00 0.  1.
</event>
<event>
 7    1  0.2766180E-009  0.1618580E+03  0.7561462E-02  0.1186615E+00
          1   -1    0    0  501    0  0.00000000000E+00  0.00000000000E+00  0.18943608455E+03  0.18943608455E+03  0.00000000000E+00 0. -1.
         -1   -1    0    0    0  501 -0.00000000000E+00 -0.00000000000E+00 -0.16808099178E+03  0.16808099178E+03  0.00000000000E+00 0.  1.
         25    2    1    2    0    0 -0.20187584280E+00  0.12016766397E+03 -0.62947000639E+02  0.18452444487E+03  0.12508652064E+03 0.  0.
          5    1    3    3  502    0  0.41309613053E+02 -0.44949947333E+01 -0.19318797149E+02  0.46014969646E+02  0.41800000000E+01 0. -1.
         -5    1    3    3    0  502 -0.41511488896E+02  0.12466265871E+03 -0.43628203491E+02  0.13850947522E+03  0.41800000000E+01 0. -1.
        -11    1    1    2    0    0 -0.27273708908E+02 -0.11995603567E+03  0.62906823797E+02  0.13816864396E+03  0.00000000000E+00 0.  1.
         11    1    1    2    0    0  0.27475584751E+02 -0.21162829814E+00  0.21395269613E+02  0.34823987505E+02  0.00000000000E+00 0. -1.
</event>
<event>
 7    1  0.2766180E-009  0.3664298E+03  0.7561462E-02  0.1056067E+00
          1   -1    0    0  501    0  0.00000000000E+00  0.00000000000E+00  0.11375121643E+03  0.11375121643E+03  0.00000000000E+00 0. -1.
         -1   -1    0    0    0  501 -0.00000000000E+00 -0.00000000000E+00 -0.12362019773E+04  0.12362019773E+04  0.00000000000E+00 0.  1.
         25    2    1    2    0    0  0.25279728858E+03 -0.24922283358E+03 -0.46767734714E+03  0.60032315765E+03  0.12508917897E+03 0.  0.
          5    1    3    3  502    0  0.15439611293E+03 -0.65485849480E+02 -0.21708852741E+03  0.27435644207E+03  0.41800000000E+01 0. -1.
         -5    1    3    3    0  502  0.98401175648E+02 -0.18373698410E+03 -0.25058881973E+03  0.32596671558E+03  0.41800000000E+01 0. -1.
        -11    1    1    2    0    0 -0.11804072249E+03  0.14032857123E+03 -0.41598948028E+03  0.45461298681E+03  0.00000000000E+00 0.  1.
         11    1    1    2    0    0 -0.13475656610E+03  0.10889426235E+03 -0.23878393341E+03  0.29501704922E+03  0.00000000000E+00 0. -1.
</event>
<event>
 7    1  0.2766180E-009  0.1911259E+03  0.7561462E-02  0.1157450E+00
          2   -1    0    0  501    0  0.00000000000E+00  0.00000000000E+00  0.29510902633E+03  0.29510902633E+03  0.00000000000E+00 0. -1.
         -2   -1    0    0    0  501 -0.00000000000E+00 -0.00000000000E+00 -0.14461385460E+03  0.14461385460E+03  0.00000000000E+00 0.  1.
         25    2    1    2    0    0 -0.15423578987E+03  0.58787107146E+02  0.26867671900E+02  0.20883630996E+03  0.12508449033E+03 0.  0.
          5    1    3    3  502    0 -0.14906412638E+03  0.15138995976E+02  0.51238485268E+02  0.15840504330E+03  0.41800000000E+01 0. -1.
         -5    1    3    3    0  502 -0.51716634914E+01  0.43648111170E+02 -0.24370813368E+02  0.50431266653E+02  0.41800000000E+01 0. -1.
        -11    1    1    2    0    0  0.13745162606E+03 -0.11381888547E+02  0.11560080468E+03  0.17996122621E+03  0.00000000000E+00 0.  1.
         11    1    1    2    0    0  0.16784163804E+02 -0.47405218599E+02  0.80266951551E+01  0.50925344772E+02  0.00000000000E+00 0. -1.
</event>
<event>
 7    1  0.2766180E-009  0.1223664E+03  0.7561462E-02  0.1239243E+00
         -1   -1    0    0    0  501 -0.00000000000E+00  0.00000000000E+00  0.41515824132E+03  0.41515824132E+03  0.00000000000E+00 0.  1.
          1   -1    0    0  501    0  0.00000000000E+00 -0.00000000000E+00 -0.67963749440E+02  0.67963749440E+02  0.00000000000E+00 0. -1.
         25    2    1    2    0    0 -0.23089709930E+02 -0.82886887759E+02  0.32166622130E+03  0.35569748547E+03  0.12509265515E+03 0.  0.
          5    1    3    3  502    0 -0.50077582591E+02  0.12000850542E+02  0.88338625037E+02  0.10233752863E+03  0.41800000000E+01 0.  1.
         -5    1    3    3    0  502  0.26987872661E+02 -0.94887738301E+02  0.23332759627E+03  0.25335995684E+03  0.41800000000E+01 0.  1.
        -11    1    1    2    0    0 -0.10399150392E+02  0.11673235924E+02 -0.28126238762E+02  0.32179062645E+02  0.00000000000E+00 0. -1.
         11    1    1    2    0    0  0.33488860322E+02  0.71213651834E+02  0.53654509342E+02  0.95245442652E+02  0.00000000000E+00 0.  1.
</event>
<event>
 7    1  0.2766180E-009  0.1221279E+03  0.7561462E-02  0.1239627E+00
          1   -1    0    0  501    0  0.00000000000E+00  0.00000000000E+00  0.26000963920E+03  0.26000963920E+03  0.00000000000E+00 0. -1.
         -1   -1    0    0    0  501 -0.00000000000E+00 -0.00000000000E+00 -0.63431212449E+02  0.63431212449E+02  0.00000000000E+00 0.  1.
         25    2    1    2    0    0 -0.37347508611E+02  0.56979721835E+02  0.12433099820E+03  0.18907105147E+03  0.12509252692E+03 0.  0.
          5    1    3    3  502    0  0.42118204502E+02  0.26197156974E+02  0.18438515448E+02  0.53081874834E+02  0.41800000000E+01 0.  1.
         -5    1    3    3    0  502 -0.79465713113E+02  0.30782564862E+02  0.10589248275E+03  0.13598917664E+03  0.41800000000E+01 0.  1.
        -11    1    1    2    0    0  0.55100987507E+02 -0.63025361367E+01  0.18678130861E+02  0.58521050559E+02  0.00000000000E+00 0.  1.
         11    1    1    2    0    0 -0.17753478896E+02 -0.50677185699E+02  0.53569297692E+02  0.75848749617E+02  0.00000000000E+00 0. -1.
</event>
<event>
 7    1  0.2766180E-009  0.1651654E+03  0.7561462E-02  0.1182985E+00
          1   -1    0    0  501    0  0.00000000000E+00  0.00000000000E+00  0.82812082019E+03  0.82812082019E+03  0.00000000000E+00 0. -1.
         -1   -1    0    0    0  501 -0.00000000000E+00 -0.00000000000E+00 -0.36023721588E+02  0.36023721588E+02  0.00000000000E+00 0.  1.
         25    2    1    2    0    0  0.12305556072E+03 -0.40965899444E+02  0.33731812069E+03  0.38242605632E+03  0.12508116591E+03 0.  0.
          5    1    3    3  502    0  0.13871214094E+03 -0.55886321052E+02  0.32351220306E+03  0.35642945565E+03  0.41800000000E+01 0. -1.
         -5    1    3    3    0  502 -0.15656580215E+02  0.14920421608E+02  0.13805917635E+02  0.25996600677E+02  0.41800000000E+01 0. -1.
        -11    1    1    2    0    0 -0.57416528680E+02  0.66864893679E+02  0.26250253330E+03  0.27690278395E+03  0.00000000000E+00 0.  1.
         11    1    1    2    0    0 -0.65639032045E+02 -0.25898994235E+02  0.19227644461E+03  0.20481570150E+03  0.00000000000E+00 0. -1.
</event>
<event>
 7    1  0.2766180E-009  0.1245433E+03  0.7561462E-02  0.1235785E+00
         -2   -1    0    0    0  501 -0.00000000000E+00  0.00000000000E+00  0.20060151433E+02  0.20060151433E+02  0.00000000000E+00 0.  1.
          2   -1    0    0  501    0  0.00000000000E+00 -0.00000000000E+00 -0.94753546062E+03  0.94753546062E+03  0.00000000000E+00 0. -1.
         25    2    1    2    0    0 -0.78035319224E+02  0.54781192768E+00 -0.42297137616E+03  0.44793178079E+03  0.12509310154E+03 0.  0.
          5    1    3    3  502    0 -0.98603012240E+02  0.14100584853E+02 -0.40517029619E+03  0.41725510402E+03  0.41800000000E+01 0.  1.
         -5    1    3    3    0  502  0.20567693016E+02 -0.13552772925E+02 -0.17801079966E+02  0.30676676774E+02  0.41800000000E+01 0.  1.
        -11    1    1    2    0    0  0.51186008829E+01 -0.40800098053E+02 -0.18070284833E+03  0.18532233398E+03  0.00000000000E+00 0. -1.
         11    1    1    2    0    0  0.72916718341E+02  0.40252286125E+02 -0.32380108470E+03  0.33434149728E+03  0.00000000000E+00 0.  1.
</event>
<event>
 7    1  0.2766180E-009  0.9326265E+02  0.7561462E-02  0.1295138E+00
         -1   -1    0    0    0  501 -0.00000000000E+00  0.00000000000E+00  0.92865576712E+02  0.92865576712E+02  0.00000000000E+00 0.  1.
          1   -1    0    0  501    0  0.00000000000E+00 -0.00000000000E+00 -0.16065639374E+03  0.16065639374E+03  0.00000000000E+00 0. -1.
         25    2    1    2    0    0  0.31376406681E+02 -0.34117123181E+02 -0.84460573694E+01  0.13366279183E+03  0.12508376811E+03 0.  0.
          5    1    3    3  502    0  0.13999536072E+02 -0.80336844463E+02 -0.16918346562E+02  0.83388838815E+02  0.41800000000E+01 0.  1.
         -5    1    3    3    0  502  0.17376870610E+02  0.46219721282E+02  0.84722891923E+01  0.50273953014E+02  0.41800000000E+01 0.  1.
        -11    1    1    2    0    0 -0.33351032721E+02  0.15820855491E+02  0.17493005891E+02  0.40848452934E+02  0.00000000000E+00 0.  1.
         11    1    1    2    0    0  0.19746260392E+01  0.18296267690E+02 -0.76837765545E+02  0.79010725686E+02  0.00000000000E+00 0. -1.
</event>
<event>
 7    1  0.2766180E-009  0.1432590E+03  0.7561462E-02  0.1209010E+00
         -1   -1    0    0    0  501 -0.00000000000E+00  0.00000000000E+00  0.83370517919E+02  0.83370517919E+02  0.00000000000E+00 0.  1.
          1   -1    0    0  501    0  0.00000000000E+00 -0.00000000000E+00 -0.43617927612E+03  0.43617927612E+03  0.00000000000E+00 0. -1.
         25    2    1    2    0    0 -0.10989168198E+03 -0.81465245202E+02 -0.87431659111E+02  0.20496345732E+03  0.12511177353E+03 0.  0.
          5    1    3    3  502    0 -0.10689132400E+03 -0.52000177590E+02 -0.11415074761E+03  0.16485641994E+03  0.41800000000E+01 0.  1.
         -5    1    3    3    0  502 -0.30003579866E+01 -0.29465067612E+02  0.26719088496E+02  0.40107037381E+02  0.41800000000E+01 0.  1.
        -11    1    1    2    0    0  0.46024339281E+02  0.43708874360E+02 -0.21681228297E+03  0.22591208810E+03  0.00000000000E+00 0. -1.
         11    1    1    2    0    0  0.63867342703E+02  0.37756370842E+02 -0.48564816119E+02  0.88674248617E+02  0.00000000000E+00 0.  1.
</event>
<event>
 7    1  0.2766180E-009  0.1044671E+03  0.7561462E-02  0.1271173E+00
         -2   -1    0    0    0  501 -0.00000000000E+00  0.00000000000E+00  0.73209841127E+02  0.73209841127E+02  0.00000000000E+00 0.  1.
          2   -1    0    0  501    0  0.00000000000E+00 -0.00000000000E+00 -0.23756490873E+03  0.23756490873E+03  0.00000000000E+00 0. -1.
         25    2    1    2    0    0  0.61521217284E+02  0.34821758456E+02 -0.11460036353E+03  0.18378655668E+03  0.12508732973E+03 0.  0.
          5    1    3    3  502    0  0.92413741603E+02  0.46416030915E+01 -0.48063933918E+02  0.10435256710E+03  0.41800000000E+01 0. -1.
         -5    1    3    3    0  502 -0.30892524320E+02  0.30180155364E+02 -0.66536429607E+02  0.79433989586E+02  0.41800000000E+01 0. -1.
        -11    1    1    2    0    0 -0.15086312905E+02 -0.35384203149E+00 -0.65368755939E+02  0.67087974290E+02  0.00000000000E+00 0. -1.
         11    1    1    2    0    0 -0.46434904378E+02 -0.34467916424E+02  0.15614051858E+02  0.59900218887E+02  0.00000000000E+00 0.  1.
</event>
<event>
 7    1  0.2778546E-009  0.9251606E+02  0.7561462E-02  0.1296871E+00
         -1   -1    0    0    0  501 -0.00000000000E+00  0.00000000000E+00  0.28330320198E+03  0.28330320198E+03  0.00000000000E+00 0.  1.
          1   -1    0    0  501    0  0.00000000000E+00 -0.00000000000E+00 -0.62449585269E+02  0.62449585269E+02  0.00000000000E+00 0. -1.
         25    2    1    2    0    0  0.69446861446E+02  0.16254142836E+02  0.85827387463E+02  0.16763369490E+03  0.12509057320E+03 0.  0.
          5    1    3    3  502    0  0.50238190433E+01 -0.32878915817E+01 -0.31478748754E+02  0.32317688840E+02  0.41800000000E+01 0. -1.
         -5    1    3    3    0  502  0.64423042402E+02  0.19542034418E+02  0.11730613622E+03  0.13531600606E+03  0.41800000000E+01 0. -1.
        -11    1    1    2    0    0 -0.25409514496E+02  0.34642029630E+02  0.26684570732E+02  0.50574499098E+02  0.00000000000E+00 0. -1.
         11    1    1    2    0    0 -0.44037346950E+02 -0.50896172467E+02  0.10834165852E+03  0.12754459326E+03  0.00000000000E+00 0.  1.
</event>
<event>
 7    1  0.2766180E-009  0.7997362E+02  0.7561462E-02  0.1329126E+00
          3   -1    0    0  501    0  0.00000000000E+00  0.00000000000E+00  0.89743866291E+02  0.89743866291E+02  0.00000000000E+00 0. -1.
         -3   -1    0    0    0  501 -0.00000000000E+00 -0.00000000000E+00 -0.16020452305E+03  0.16020452305E+03  0.00000000000E+00 0.  1.
         25    2    1    2    0    0  0.69764286297E-01  0.84518128022E+01  0.22987923784E+02  0.12745309575E+03  0.12507761179E+03 0.  0.
          5    1    3    3  502    0  0.35250376598E+02  0.44784837602E+02 -0.20408148543E+02  0.60681427606E+02  0.41800000000E+01 0.  1.
         -5    1    3    3    0  502 -0.35180612312E+02 -0.36333024800E+02  0.43396072326E+02  0.66771668147E+02  0.41800000000E+01 0.  1.
        -11    1    1    2    0    0  0.21693299209E+02 -0.18095520735E+02 -0.94535812887E+02  0.98666443229E+02  0.00000000000E+00 0.  1.
         11    1    1    2    0    0 -0.21763063496E+02  0.96437079326E+01  0.10872323419E+01  0.23828850362E+02  0.00000000000E+00 0. -1.
</event>
<event>
 7    1  0.2766180E-009  0.1171506E+03  0.7561462E-02  0.1247873E+00
          2   -1    0    0  501    0  0.00000000000E+00  0.00000000000E+00  0.65275289234E+03  0.65275289234E+03  0.00000000000E+00 0. -1.
         -2   -1    0    0    0  501 -0.00000000000E+00 -0.00000000000E+00 -0.27850376831E+02  0.27850376831E+02  0.00000000000E+00 0.  1.
         25    2    1    2    0    0  0.10213204107E+02  0.73418683776E+02  0.42041536430E+03  0.44484998813E+03  0.12509124962E+03 0.  0.
          5    1    3    3  502    0  0.53339865246E+02  0.49169165393E+02  0.11944822713E+03  0.13981451790E+03  0.41800000000E+01 0.  1.
         -5    1    3    3    0  502 -0.43126661139E+02  0.24249518383E+02  0.30096713717E+03  0.30503547023E+03  0.41800000000E+01 0.  1.
        -11    1    1    2    0    0 -0.46842834002E+02 -0.32212038171E+02  0.13882360991E+03  0.15001287001E+03  0.00000000000E+00 0. -1.
         11    1    1    2    0    0  0.36629629895E+02 -0.41206645605E+02  0.65663541301E+02  0.85740411035E+02  0.00000000000E+00 0.  1.
</event>
<event>
 7    1  0.2766180E-009  0.1326877E+03  0.7561462E-02  0.1223521E+00
          3   -1    0    0  501    0  0.00000000000E+00  0.00000000000E+00  0.86962939207E+03  0.86962939207E+03  0.00000000000E+00 0. -1.
         -3   -1    0    0    0  501 -0.00000000000E+00 -0.00000000000E+00 -0.30487832308E+02  0.30487832308E+02  0.00000000000E+00 0.  1.
         25    2    1    2    0    0 -0.80047721615E+02  0.36854459932E+02  0.70275848396E+03  0.71922280704E+03  0.12508425334E+03 0.  0.
          5    1    3    3  502    0  0.32229480882E+02  0.12964516907E+02  0.23367206515E+03  0.23627721974E+03  0.41800000000E+01 0.  1.
         -5    1    3    3    0  502 -0.11227720250E+03  0.23889943025E+02  0.46908641881E+03  0.48294558729E+03  0.41800000000E+01 0.  1.
        -11    1    1    2    0    0  0.94317119752E+02 -0.26760460701E+02  0.12873326123E+03  0.16181499894E+03  0.00000000000E+00 0. -1.
         11    1    1    2    0    0 -0.14269398136E+02 -0.10093999231E+02  0.76498145789E+01  0.19079418407E+02  0.00000000000E+00 0.  1.
</event>
<event>
 7    1  0.4281226E-009  0.1578791E+03  0.7561462E-02  0.1191112E+00
         -2   -1    0    0    0  501 -0.00000000000E+00  0.00000000000E+00  0.13429605017E+03  0.13429605017E+03  0.00000000000E+00 0.  1.
          2   -1    0    0  501    0  0.00000000000E+00 -0.00000000000E+00 -0.27890523280E+03  0.27890523280E+03  0.00000000000E+00 0. -1.
         25    2    1    2    0    0  0.21498572762E+02 -0.14791397210E+03 -0.15839163341E+02  0.19554859466E+03  0.12509053523E+03 0.  0.
          5    1    3    3  502    0  0.11367226382E+02 -0.14002774344E+03 -0.57422421610E+02  0.15182815836E+03  0.41800000000E+01 0.  1.
         -5    1    3    3    0  502  0.10131346379E+02 -0.78862286668E+01  0.41583258269E+02  0.43720436301E+02  0.41800000000E+01 0.  1.
        -11    1    1    2    0    0  0.21887394912E+02  0.53250094326E+02 -0.79001072693E+01  0.58112324825E+02  0.00000000000E+00 0.  1.
         11    1    1    2    0    0 -0.43385967674E+02  0.94663877779E+02 -0.12086991202E+03  0.15954036348E+03  0.00000000000E+00 0. -1.
</event>
<event>
 7    1  0.2766180E-009  0.1775765E+03  0.7561462E-02  0.1170169E+00
          4   -1    0    0  501    0  0.00000000000E+00  0.00000000000E+00  0.22006258632E+03  0.22006258632E+03  0.00000000000E+00 0. -1.
         -4   -1    0    0    0  501 -0.00000000000E+00 -0.00000000000E+00 -0.27199738472E+03  0.27199738472E+03  0.00000000000E+00 0.  1.
         25    2    1    2    0    0  0.10707877014E+03 -0.11320009057E+03  0.12809915694E+03  0.23735248097E+03  0.12508670070E+03 0.  0.
          5    1    3    3  502    0  0.72845711649E+02 -0.13173473451E+03  0.67089666590E+02  0.16486064948E+03  0.41800000000E+01 0.  1.
         -5    1    3    3    0  502  0.34233058495E+02  0.18534643940E+02  0.61009490354E+02  0.72491831493E+02  0.41800000000E+01 0.  1.
        -11    1    1    2    0    0 -0.51702054355E+02  0.93107393586E+02 -0.16054694577E+03  0.19265879415E+03  0.00000000000E+00 0.  1.
         11    1    1    2    0    0 -0.55376715790E+02  0.20092696987E+02 -0.19487009569E+02  0.62048695924E+02  0.00000000000E+00 0. -1.
</event>
<event>
 7    1  0.2766180E-009  0.1981454E+03  0.7561462E-02  0.1151313E+00
          2   -1    0    0  501    0  0.00000000000E+00  0.00000000000E+00  0.61739344588E+03  0.61739344588E+03  0.00000000000E+00 0. -1.
         -2   -1    0    0    0  501 -0.00000000000E+00 -0.00000000000E+00 -0.70996211227E+02  0.70996211227E+02  0.00000000000E+00 0.  1.
         25    2    1    2    0    0 -0.12442628837E+03 -0.12150533736E+03  0.35364398805E+03  0.41346957122E+03  0.12509023860E+03 0.  0.
          5    1    3    3  502    0 -0.10516791837E+02  0.22549964472E+02  0.80007882749E+02  0.83891820282E+02  0.41800000000E+01 0. -1.
         -5    1    3    3    0  502 -0.11390949653E+03 -0.14405530183E+03  0.27363610530E+03  0.32957775093E+03  0.41800000000E+01 0. -1.
        -11    1    1    2    0    0  0.10080400361E+03  0.12793930143E+03  0.13278626611E+03  0.21014781574E+03  0.00000000000E+00 0.  1.
         11    1    1    2    0    0  0.23622284763E+02 -0.64339640696E+01  0.59966980489E+02  0.64772270148E+02  0.00000000000E+00 0. -1.
</event>
<event>
 7    1  0.2766180E-009  0.1962129E+03  0.7561462E-02  0.1152974E+00
         -1   -1    0    0    0  501 -0.00000000000E+00  0.00000000000E+00  0.14227624074E+03  0.14227624074E+03  0.00000000000E+00 0.  1.
          1   -1    0    0  501    0  0.00000000000E+00 -0.00000000000E+00 -0.42698974378E+03  0.42698974378E+03  0.00000000000E+00 0. -1.
         25    2    1    2    0    0 -0.17824878191E+03 -0.59304707263E+02 -0.11682489421E+02  0.22599561272E+03  0.12509140600E+03 0.  0.
          5    1    3    3  502    0 -0.41605329267E+02 -0.17573559639E+02  0.52441770940E+02  0.69335742306E+02  0.41800000000E+01 0.  1.
         -5    1    3    3    0  502 -0.13664345264E+03 -0.41731147624E+02 -0.64124260361E+02  0.15665987042E+03  0.41800000000E+01 0.  1.
        -11    1    1    2    0    0  0.10792905469E+03  0.75821463325E+02 -0.14313538786E+03  0.19464150227E+03  0.00000000000E+00 0.  1.
         11    1    1    2    0    0  0.70319727218E+02 -0.16516756062E+02 -0.12989562576E+03  0.14862886953E+03  0.00000000000E+00 0. -1.
</event>
<event>
 7    1  0.2766180E-009  0.1093050E+03  0.7561462E-02  0.1261862E+00
          2   -1    0    0  501    0  0.00000000000E+00  0.00000000000E+00  0.67214503096E+03  0.67214503096E+03  0.00000000000E+00 0. -1.
         -2   -1    0    0    0  501 -0.00000000000E+00 -0.00000000000E+00 -0.34470428026E+02  0.34470428026E+02  0.00000000000E+00 0.  1.
         25    2    1    2    0    0  0.40080418062E+02 -0.80680895944E+02  0.21255210467E+03  0.26256844376E+03  0.12509174064E+03 0.  0.
          5    1    3    3  502    0  0.21352672343E+02 -0.31631623172E+02  0.20593751967E+03  0.20948563342E+03  0.41800000000E+01 0. -1.
         -5    1    3    3    0  502  0.18727745720E+02 -0.49049272772E+02  0.66145849999E+01  0.53082810343E+02  0.41800000000E+01 0. -1.
        -11    1    1    2    0    0  0.13579242451E+02 -0.13503827420E+02  0.48779240506E+02  0.52403849905E+02  0.00000000000E+00 0.  1.
         11    1    1    2    0    0 -0.53659660513E+02  0.94184723364E+02  0.37634325776E+03  0.39164316532E+03  0.00000000000E+00 0. -1.
</event>
<event>
 7    1  0.3241846E-009  0.8384943E+02  0.7561462E-02  0.1318469E+00
         -2   -1    0    0    0  501 -0.00000000000E+00  0.00000000000E+00  0.30704327012E+02  0.30704327012E+02  0.00000000000E+00 0.  1.
          2   -1    0    0  501    0  0.00000000000E+00 -0.00000000000E+00 -0.57646335149E+03  0.57646335149E+03  0.00000000000E+00 0. -1.
         25    2    1    2    0    0 -0.39859505626E+02  0.30728367498E+02 -0.43154755539E+03  0.45212127127E+03  0.12508932255E+03 0.  0.
          5    1    3    3  502    0 -0.11778005592E+02  0.45789188527E+02 -0.48974799600E+02  0.68200986778E+02  0.41800000000E+01 0.  1.
         -5    1    3    3    0  502 -0.28081500033E+02 -0.15060821028E+02 -0.38257275579E+03  0.38392028449E+03  0.41800000000E+01 0.  1.
        -11    1    1    2    0    0  0.44596411048E+02 -0.50727789319E+02 -0.11619284127E+03  0.13439838113E+03  0.00000000000E+00 0. -1.
         11    1    1    2    0    0 -0.47369054223E+01  0.19999421821E+02  0.19813721822E+01  0.20648026101E+02  0.00000000000E+00 0.  1.
</event>
<event>
 7    1  0.2766180E-009  0.1005659E+03  0.7561462E-02  0.1279110E+00
         -1   -1    0    0    0  501 -0.00000000000E+00  0.00000000000E+00  0.75062124929E+02  0.75062124929E+02  0.00000000000E+00 0.  1.
          1   -1    0    0  501    0  0.00000000000E+00 -0.00000000000E+00 -0.22109743360E+03  0.22109743360E+03  0.00000000000E+00 0. -1.
         25    2    1    2    0    0  0.51898817792E+02  0.45686842948E+02 -0.95584891765E+02  0.17193941757E+03  0.12508363951E+03 0.  0.
          5    1    3    3  502    0  0.43118686161E+02  0.81716323821E+02 -0.31363252844E+02  0.97662196904E+02  0.41800000000E+01 0.  1.
         -5    1    3    3    0  502  0.87801316310E+01 -0.36029480873E+02 -0.64221638921E+02  0.74277220661E+02  0.41800000000E+01 0.  1.
        -11    1    1    2    0    0 -0.37342148567E+02 -0.42211355500E+02  0.13986840308E+02  0.58067773287E+02  0.00000000000E+00 0.  1.
         11    1    1    2    0    0 -0.14556669225E+02 -0.34754874481E+01 -0.64437257216E+02  0.66152367678E+02  0.00000000000E+00 0. -1.
</event>
<event>
 7    1  0.2766180E-009  0.1088221E+03  0.7561462E-02  0.1262767E+00
         -2   -1    0    0    0  501 -0.00000000000E+00  0.00000000000E+00  0.95221317803E+01  0.95221317803E+01  0.00000000000E+00 0.  1.
          2   -1    0    0  501    0  0.00000000000E+00 -0.00000000000E+00 -0.29095164415E+04  0.29095164415E+04  0.00000000000E+00 0. -1.
         25    2    1    2    0    0  0.17234003101E+02 -0.53897111243E+02 -0.25441697493E+04  0.25478713006E+04  0.12508613699E+03 0.  0.
          5    1    3    3  502    0 -0.67705184374E+01 -0.79816642189E+02 -0.22682381291E+04  0.22696559693E+04  0.41800000000E+01 0.  1.
         -5    1    3    3    0  502  0.24004521539E+02  0.25919530946E+02 -0.27593162029E+03  0.27821533138E+03  0.41800000000E+01 0.  1.
        -11    1    1    2    0    0  0.69750621279E+01  0.71554447502E+02 -0.29104783199E+03  0.29979581543E+03  0.00000000000E+00 0.  1.
         11    1    1    2    0    0 -0.24209065229E+02 -0.17657336259E+02 -0.64776728387E+02  0.71371457205E+02  0.00000000000E+00 0. -1.
</event>
<event>
 7    1  0.2766180E-009  0.9270412E+02  0.7561462E-02  0.1296432E+00
         -1   -1    0    0    0  501 -0.00000000000E+00  0.00000000000E+00  0.90830493867E+02  0.90830493867E+02  0.00000000000E+00 0.  1.
          1   -1    0    0  501    0  0.00000000000E+00 -0.00000000000E+00 -0.19529839737E+03  0.19529839737E+03  0.00000000000E+00 0. -1.
         25    2    1    2    0    0 -0.10257655283E+02  0.94221764802E+01  0.22146385496E+02  0.12779327367E+03  0.12508661600E+03 0.  0.
          5    1    3    3  502    0  0.24045935282E+02  0.53278845123E+02  0.37884338688E+02  0.69782074052E+02  0.41800000000E+01 0.  1.
         -5    1    3    3    0  502 -0.34303590564E+02 -0.43856668643E+02 -0.15737953192E+02  0.58011199615E+02  0.41800000000E+01 0.  1.
        -11    1    1    2    0    0 -0.19005153593E+02  0.21296627629E+02 -0.42917451714E+01  0.28864533395E+02  0.00000000000E+00 0.  1.
         11    1    1    2    0    0  0.29262808876E+02 -0.30718804109E+02 -0.12232254383E+03  0.12947108418E+03  0.00000000000E+00 0. -1.
</event>
<event>
 7    1  0.2766180E-009  0.7755387E+02  0.7561462E-02  0.1336140E+00
          4   -1    0    0  501    0  0.00000000000E+00  0.00000000000E+00  0.11494767755E+03  0.11494767755E+03  0.00000000000E+00 0. -1.
         -4   -1    0    0    0  501 -0.00000000000E+00 -0.00000000000E+00 -0.11544624651E+03  0.11544624651E+03  0.00000000000E+00 0.  1.
         25    2    1    2    0    0 -0.28998314692E+02  0.10466986332E+02  0.25937987242E+02  0.13141852921E+03  0.12509032968E+03 0.  0.
          5    1    3    3  502    0  0.43812207338E+02  0.14841619072E+02 -0.13531770007E+02  0.48377312534E+02  0.41800000000E+01 0. -1.
         -5    1    3    3    0  502 -0.72810522030E+02 -0.43746327403E+01  0.39469757250E+02  0.83041216677E+02  0.41800000000E+01 0. -1.
        -11    1    1    2    0    0  0.21870925588E+02  0.12268021190E+01 -0.59383901172E+02  0.63295261655E+02  0.00000000000E+00 0.  1.
         11    1    1    2    0    0  0.71273891039E+01 -0.11693788451E+02  0.32947344975E+02  0.35680133193E+02  0.00000000000E+00 0. -1.
</event>
<event>
 7    1  0.2766180E-009  0.1215368E+03  0.7561462E-02  0.1240583E+00
         -1   -1    0    0    0  501 -0.00000000000E+00  0.00000000000E+00  0.31874296088E+02  0.31874296088E+02  0.00000000000E+00 0.  1.
          1   -1    0    0  501    0  0.00000000000E+00 -0.00000000000E+00 -0.88779215208E+03  0.88779215208E+03  0.00000000000E+00 0. -1.
         25    2    1    2    0    0 -0.20172425310E+02  0.10440728198E+03 -0.65329624714E+03  0.67360450842E+03  0.12505694687E+03 0.  0.
          5    1    3    3  502    0 -0.34489894434E+02  0.10821459506E+03 -0.64710913931E+03  0.65701420227E+03  0.41800000000E+01 0. -1.
         -5    1    3    3    0  502  0.14317469123E+02 -0.38073130802E+01 -0.61871078351E+01  0.16590306156E+02  0.41800000000E+01 0. -1.
        -11    1    1    2    0    0  0.99959941612E+01 -0.91924892315E+00  0.68819997263E+01  0.12170736957E+02  0.00000000000E+00 0.  1.
         11    1    1    2    0    0  0.10176431149E+02 -0.10348803306E+03 -0.20950360858E+03  0.23389120279E+03  0.00000000000E+00 0. -1.
</event>
<event>
 7    1  0.2766180E-009  0.1257187E+03  0.7561462E-02  0.1233950E+00
          2   -1    0    0  501    0  0.00000000000E+00  0.00000000000E+00  0.23455079595E+04  0.23455079595E+04  0.00000000000E+00 0. -1.
         -2   -1    0    0    0  501 -0.00000000000E+00 -0.00000000000E+00 -0.12457807403E+02  0.12457807403E+02  0.00000000000E+00 0.  1.
         25    2    1    2    0    0  0.68903385484E+02 -0.28632484543E+02  0.19856207523E+04  0.19909553701E+04  0.12508404373E+03 0.  0.
          5    1    3    3  502    0  0.10478770497E+03 -0.27343346768E+02  0.13742818530E+04  0.13785485866E+04  0.41800000000E+01 0.  1.
         -5    1    3    3    0  502 -0.35884319490E+02 -0.12891377751E+01  0.61133889928E+03  0.61240678347E+03  0.41800000000E+01 0.  1.
        -11    1    1    2    0    0  0.24156577340E+01  0.35206253527E+02  0.50782444656E+02  0.61839893070E+02  0.00000000000E+00 0. -1.
         11    1    1    2    0    0 -0.71319043218E+02 -0.65737689844E+01  0.29664695518E+03  0.30517050379E+03  0.00000000000E+00 0.  1.
</event>
<event>
 7    1  0.2766180E-009  0.1041211E+03  0.7561462E-02  0.1271861E+00
         -1   -1    0    0    0  501 -0.00000000000E+00  0.00000000000E+00  0.54699136107E+02  0.54699136107E+02  0.00000000000E+00 0.  1.
          1   -1    0    0  501    0  0.00000000000E+00 -0.00000000000E+00 -0.26087309788E+03  0.26087309788E+03  0.00000000000E+00 0. -1.
         25    2    1    2    0    0 -0.32955671206E+02 -0.36820498002E+02 -0.12968486007E+03  0.18683536577E+03  0.12508983026E+03 0.  0.
          5    1    3    3  502    0 -0.35519586557E+02  0.31789482954E+02 -0.10204092110E+03  0.11270330179E+03  0.41800000000E+01 0.  1.
         -5    1    3    3    0  502  0.25639153512E+01 -0.68609980957E+02 -0.27643938967E+02  0.74132063983E+02  0.41800000000E+01 0.  1.
        -11    1    1    2    0    0  0.58134962162E+02  0.20706615543E+02 -0.20081842101E+02  0.64897751386E+02  0.00000000000E+00 0.  1.
         11    1    1    2    0    0 -0.25179290956E+02  0.16113882460E+02 -0.56407259605E+02  0.63839116826E+02  0.00000000000E+00 0. -1.
</event>
<event>
 7    1  0.2766180E-009  0.1100156E+03  0.7561462E-02  0.1260541E+00
          1   -1    0    0  501    0  0.00000000000E+00  0.00000000000E+00  0.81278631488E+03  0.81278631488E+03  0.00000000000E+00 0. -1.
         -1   -1    0    0    0  501 -0.00000000000E+00 -0.00000000000E+00 -0.58334853771E+02  0.58334853771E+02  0.00000000000E+00 0.  1.
         25    2    1    2    0    0  0.21686407416E+00  0.99542874957E+02  0.70825311454E+03  0.72607124796E+03  0.12509257325E+03 0.  0.
          5    1    3    3  502    0  0.20348014175E+02  0.58759234328E+02  0.11282443714E+03  0.12889342619E+03  0.41800000000E+01 0. -1.
         -5    1    3    3    0  502 -0.20131150100E+02  0.40783640630E+02  0.59542867740E+03  0.59717782177E+03  0.41800000000E+01 0. -1.
        -11    1    1    2    0    0 -0.21479314707E+02 -0.18816980519E+02 -0.22962704864E+02  0.36643219439E+02  0.00000000000E+00 0.  1.
         11    1    1    2    0    0  0.21262450633E+02 -0.80725894438E+02  0.69161051434E+02  0.10840670125E+03  0.00000000000E+00 0. -1.
</event>
<event>
 7    1  0.2766180E-009  0.1111888E+03  0.7561462E-02  0.1258384E+00
          2   -1    0    0  501    0  0.00000000000E+00  0.00000000000E+00  0.11758729526E+04  0.11758729526E+04  0.00000000000E+00 0.  1.
         -2   -1    0    0    0  501 -0.00000000000E+00 -0.00000000000E+00 -0.17047101021E+02  0.17047101021E+02  0.00000000000E+00 0. -1.
         25    2    1    2    0    0  0.30685712269E+02  0.84028857750E+02  0.67730045888E+03  0.69454037828E+03  0.12509182064E+03 0.  0.
          5    1    3    3  502    0 -0.95298313586E-01  0.47120177346E+02  0.60947925422E+03  0.61131232109E+03  0.41800000000E+01 0.  1.
         -5    1    3    3    0  502  0.30781010583E+02  0.36908680404E+02  0.67821204658E+02  0.83228057186E+02  0.41800000000E+01 0.  1.
        -11    1    1    2    0    0  0.17571652106E+02 -0.75883389365E+02  0.33344049925E+03  0.34241731598E+03  0.00000000000E+00 0.  1.
         11    1    1    2    0    0 -0.48257364375E+02 -0.81454683854E+01  0.14808489348E+03  0.15596235940E+03  0.00000000000E+00 0. -1.
</event>
<event>
 7    1  0.2766180E-009  0.1247185E+03  0.7561462E-02  0.1235510E+00
          2   -1    0    0  501    0  0.00000000000E+00  0.00000000000E+00  0.83887246175E+02  0.83887246175E+02  0.00000000000E+00 0. -1.
         -2   -1    0    0    0  501 -0.00000000000E+00 -0.00000000000E+00 -0.23937939350E+03  0.23937939350E+03  0.00000000000E+00 0.  1.
         25    2    1    2    0    0 -0.15267205472E+02 -0.58578491107E+02 -0.15735944427E+03  0.20993729814E+03  0.12508855769E+03 0.  0.
          5    1    3    3  502    0 -0.45099037881E+02  0.23777435628E+02 -0.62218998151E+02  0.80547909928E+02  0.41800000000E+01 0. -1.
         -5    1    3    3    0  502  0.29831832409E+02 -0.82355926735E+02 -0.95140446122E+02  0.12938938821E+03  0.41800000000E+01 0. -1.
        -11    1    1    2    0    0  0.54347489553E+02  0.38907303285E+02 -0.10969988945E+02  0.67733068194E+02  0.00000000000E+00 0.  1.
         11    1    1    2    0    0 -0.39080284081E+02  0.19671187822E+02  0.12837285888E+02  0.45596273347E+02  0.00000000000E+00 0. -1.
</event>
<event>
 7    1  0.2766180E-009  0.1140206E+03  0.7561462E-02  0.1253300E+00
         -2   -1    0    0    0  501 -0.00000000000E+00  0.00000000000E+00  0.22558530198E+03  0.22558530198E+03  0.00000000000E+00 0. -1.
          2   -1    0    0  501    0  0.00000000000E+00 -0.00000000000E+00 -0.14921267957E+03  0.14921267957E+03  0.00000000000E+00 0.  1.
         25    2    1    2    0    0  0.74234389960E+02  0.49337396759E+02 -0.78882085220E+02  0.17266958999E+03  0.12508988994E+03 0.  0.
          5    1    3    3  502    0 -0.24102278517E+01  0.15862547279E+02  0.30618165758E+02  0.34819162524E+02  0.41800000000E+01 0. -1.
         -5    1    3    3    0  502  0.76644617812E+02  0.33474849480E+02 -0.10950025098E+03  0.13785042746E+03  0.41800000000E+01 0. -1.
        -11    1    1    2    0    0 -0.88574868734E+01 -0.60718091398E+02  0.58315435801E+02  0.84651235959E+02  0.00000000000E+00 0.  1.
         11    1    1    2    0    0 -0.65376903087E+02  0.11380694639E+02  0.96939271821E+02  0.11747715560E+03  0.00000000000E+00 0. -1.
</event>
<event>
 7    1  0.2766180E-009  0.1261501E+03  0.7561462E-02  0.1233283E+00
         -2   -1    0    0    0  501 -0.00000000000E+00  0.00000000000E+00  0.10111006306E+03  0.10111006306E+03  0.00000000000E+00 0.  1.
          2   -1    0    0  501    0  0.00000000000E+00 -0.00000000000E+00 -0.25980645319E+03  0.25980645319E+03  0.00000000000E+00 0. -1.
         25    2    1    2    0    0 -0.10466985755E+02  0.11335451627E+03 -0.43647352942E+02  0.17467463741E+03  0.12508930164E+03 0.  0.
          5    1    3    3  502    0  0.39079996841E+01  0.11979564888E+03  0.83114611599E+01  0.12021989328E+03  0.41800000000E+01 0.  1.
         -5    1    3    3    0  502 -0.14374985440E+02 -0.64411326114E+01 -0.51958814102E+02  0.54454744133E+02  0.41800000000E+01 0.  1.
        -11    1    1    2    0    0  0.13225695505E+02 -0.31425101226E+02  0.11048540069E+02  0.35840288033E+02  0.00000000000E+00 0.  1.
         11    1    1    2    0    0 -0.27587097494E+01 -0.81929415044E+02 -0.12609757725E+03  0.15040159081E+03  0.00000000000E+00 0. -1.
</event>
<event>
 7    1  0.2766180E-009  0.2213585E+03  0.7561462E-02  0.1132874E+00
          2   -1    0    0  501    0  0.00000000000E+00  0.00000000000E+00  0.11435604628E+03  0.11435604628E+03  0.00000000000E+00 0. -1.
         -2   -1    0    0    0  501 -0.00000000000E+00 -0.00000000000E+00 -0.46471255275E+03  0.46471255275E+03  0.00000000000E+00 0.  1.
         25    2    1    2    0    0 -0.20194730449E+03  0.25234330647E+02 -0.17379648320E+03  0.29541398999E+03  0.12507886581E+03 0.  0.
          5    1    3    3  502    0 -0.17324459354E+03  0.68854292352E+02 -0.13390067201E+03  0.22956799675E+03  0.41800000000E+01 0.  1.
         -5    1    3    3    0  502 -0.28702710951E+02 -0.43619961705E+02 -0.39895811190E+02  0.65845993238E+02  0.41800000000E+01 0.  1.
        -11    1    1    2    0    0  0.14600039489E+03 -0.12889871786E+02 -0.17229558215E+03  0.22620351839E+03  0.00000000000E+00 0.  1.
         11    1    1    2    0    0  0.55946909606E+02 -0.12344458861E+02 -0.42644411253E+01  0.57451090653E+02  0.00000000000E+00 0. -1.
</event>
<event>
 7    1  0.2766180E-009  0.9691432E+02  0.7561462E-02  0.1286922E+00
         -2   -1    0    0    0  501 -0.00000000000E+00  0.00000000000E+00  0.20072243011E+03  0.20072243011E+03  0.00000000000E+00 0.  1.
          2   -1    0    0  501    0  0.00000000000E+00 -0.00000000000E+00 -0.87081382792E+02  0.87081382792E+02  0.00000000000E+00 0. -1.
         25    2    1    2    0    0 -0.76565168609E+02 -0.38312758047E+01  0.60357356438E+02  0.15864247335E+03  0.12509004819E+03 0.  0.
          5    1    3    3  502    0  0.11510193765E+02 -0.23795128248E+02  0.62735513381E+02  0.68204909853E+02  0.41800000000E+01 0.  1.
         -5    1    3    3    0  502 -0.88075362373E+02  0.19963852444E+02 -0.23781569433E+01  0.90437563501E+02  0.41800000000E+01 0.  1.
        -11    1    1    2    0    0  0.60832695507E+02  0.29898110513E+01  0.78543259364E+02  0.99391143491E+02  0.00000000000E+00 0.  1.
         11    1    1    2    0    0  0.15732473101E+02  0.84146475346E+00 -0.25259568488E+02  0.29770196053E+02  0.00000000000E+00 0. -1.
</event>
<event>
 7    1  0.2766180E-009  0.6404724E+02  0.7561462E-02  0.1381592E+00
         -2   -1    0    0    0  501 -0.00000000000E+00  0.00000000000E+00  0.29198356574E+02  0.29198356574E+02  0.00000000000E+00 0.  1.
          2   -1    0    0  501    0  0.00000000000E+00 -0.00000000000E+00 -0.42548837760E+03  0.42548837760E+03  0.00000000000E+00 0. -1.
         25    2    1    2    0    0 -0.86922482817E+01 -0.22708078214E+02 -0.27781077145E+03  0.30564029082E+03  0.12508377449E+03 0.  0.
          5    1    3    3  502    0 -0.79850464704E+01  0.20964942461E+02  0.15327613314E+01  0.22871631704E+02  0.41800000000E+01 0.  1.
         -5    1    3    3    0  502 -0.70720181133E+00 -0.43673020675E+02 -0.27934353278E+03  0.28276865911E+03  0.41800000000E+01 0.  1.
        -11    1    1    2    0    0 -0.21961456446E+02 -0.19607235943E+01  0.21583956795E+01  0.22154202268E+02  0.00000000000E+00 0.  1.
         11    1    1    2    0    0  0.30653704727E+02  0.24668801808E+02 -0.12063764526E+03  0.12689224109E+03  0.00000000000E+00 0. -1.
</event>
<event>
 7    1  0.2766180E-009  0.1193501E+03  0.7561462E-02  0.1244173E+00
         -2   -1    0    0    0  501 -0.00000000000E+00  0.00000000000E+00  0.21352146460E+02  0.21352146460E+02  0.00000000000E+00 0.  1.
          2   -1    0    0  501    0  0.00000000000E+00 -0.00000000000E+00 -0.69223810474E+03  0.69223810474E+03  0.00000000000E+00 0. -1.
         25    2    1    2    0    0  0.58784369873E+02 -0.96264313936E+01 -0.39230984622E+03  0.41605621892E+03  0.12508993380E+03 0.  0.
          5    1    3    3  502    0  0.63658595158E+02  0.46408709016E+02 -0.27149011193E+03  0.28271989369E+03  0.41800000000E+01 0. -1.
         -5    1    3    3    0  502 -0.48742252846E+01 -0.56035140409E+02 -0.12081973429E+03  0.13333632523E+03  0.41800000000E+01 0. -1.
        -11    1    1    2    0    0 -0.34957772066E+02 -0.37089241565E+02 -0.15886429195E+03  0.16683980617E+03  0.00000000000E+00 0. -1.
         11    1    1    2    0    0 -0.23826597807E+02  0.46715672959E+02 -0.11971182011E+03  0.13069422611E+03  0.00000000000E+00 0.  1.
</event>
<event>
 7    1  0.2766180E-009  0.1453290E+03  0.7561462E-02  0.1206333E+00
         -1   -1    0    0    0  501 -0.00000000000E+00  0.00000000000E+00  0.18187739014E+02  0.18187739014E+02  0.00000000000E+00 0.  1.
          1   -1    0    0  501    0  0.00000000000E+00 -0.00000000000E+00 -0.16830022851E+04  0.16830022851E+04  0.00000000000E+00 0. -1.
         25    2    1    2    0    0 -0.97244532455E+02 -0.55920450731E+01 -0.13547070865E+04  0.13639523402E+04  0.12508767310E+03 0.  0.
          5    1    3    3  502    0 -0.24957628536E+02  0.57089979798E+02 -0.57776000423E+03  0.58112498131E+03  0.41800000000E+01 0.  1.
         -5    1    3    3    0  502 -0.72286903919E+02 -0.62682024871E+02 -0.77694708230E+03  0.78282735889E+03  0.41800000000E+01 0.  1.
        -11    1    1    2    0    0  0.10567757162E+03 -0.18168683375E+02 -0.25564256715E+03  0.27722007925E+03  0.00000000000E+00 0. -1.
         11    1    1    2    0    0 -0.84330391660E+01  0.23760728448E+02 -0.54464892399E+02  0.60017604667E+02  0.00000000000E+00 0.  1.
</event>
<event>
 7    1  0.2766180E-009  0.1603400E+03  0.7561462E-02  0.1188313E+00
          2   -1    0    0  501    0  0.00000000000E+00  0.00000000000E+00  0.17751023263E+03  0.17751023263E+03  0.00000000000E+00 0. -1.
         -2   -1    0    0    0  501 -0.00000000000E+00 -0.00000000000E+00 -0.20762587199E+03  0.20762587199E+03  0.00000000000E+00 0.  1.
         25    2    1    2    0    0 -0.16402334254E+02  0.15110066449E+03  0.30728906924E+02  0.19922842780E+03  0.12508898170E+03 0.  0.
          5    1    3    3  502    0 -0.10418337546E+02 -0.47107459068E+01 -0.29584614737E+02  0.31991478762E+02  0.41800000000E+01 0.  1.
         -5    1    3    3    0  502 -0.59839967076E+01  0.15581141040E+03  0.60313521660E+02  0.16723694904E+03  0.41800000000E+01 0.  1.
        -11    1    1    2    0    0 -0.19880757951E+01 -0.26350777116E+02  0.22540327257E+02  0.34733013875E+02  0.00000000000E+00 0. -1.
         11    1    1    2    0    0  0.18390410049E+02 -0.12474988738E+03 -0.83384873542E+02  0.15117466295E+03  0.00000000000E+00 0.  1.
</event>
<event>
 7    1  0.2766180E-009  0.1405723E+03  0.7561462E-02  0.1212561E+00
          1   -1    0    0  501    0  0.00000000000E+00  0.00000000000E+00  0.15104317613E+03  0.15104317613E+03  0.00000000000E+00 0. -1.
         -1   -1    0    0    0  501 -0.00000000000E+00 -0.00000000000E+00 -0.16364182386E+03  0.16364182386E+03  0.00000000000E+00 0.  1.
         25    2    1    2    0    0 -0.62956250124E+02 -0.95168603455E+02 -0.14515808260E+02  0.16993707789E+03  0.12508936502E+03 0.  0.
          5    1    3    3  502    0 -0.37507968864E+02 -0.11493181458E+03  0.19913143655E+02  0.12259761589E+03  0.41800000000E+01 0. -1.
         -5    1    3    3    0  502 -0.25448281260E+02  0.19763211125E+02 -0.34428951915E+02  0.47339462006E+02  0.41800000000E+01 0. -1.
        -11    1    1    2    0    0  0.61484935449E+02  0.41921517273E+02  0.34796866262E+02  0.82150062686E+02  0.00000000000E+00 0. -1.
         11    1    1    2    0    0  0.14713146750E+01  0.53247086182E+02 -0.32879705730E+02  0.62597859409E+02  0.00000000000E+00 0.  1.
</event>
<event>
 7    1  0.2766180E-009  0.6193968E+02  0.7561462E-02  0.1389867E+00
          1   -1    0    0  501    0  0.00000000000E+00  0.00000000000E+00  0.34571611267E+03  0.34571611267E+03  0.00000000000E+00 0. -1.
         -1   -1    0    0    0  501 -0.00000000000E+00 -0.00000000000E+00 -0.34772517952E+02  0.34772517952E+02  0.00000000000E+00 0.  1.
         25    2    1    2    0    0 -0.13971420916E+02  0.20162850966E+02  0.19567594468E+03  0.23353415859E+03  0.12508951491E+03 0.  0.
          5    1    3    3  502    0 -0.20426018660E+02  0.10230490270E+02 -0.11543233906E+02  0.25934606580E+02  0.41800000000E+01 0. -1.
         -5    1    3    3    0  502  0.64545977443E+01  0.99323606965E+01  0.20721917858E+03  0.20759955201E+03  0.41800000000E+01 0. -1.
        -11    1    1    2    0    0 -0.18687642170E+02 -0.43905227419E+02  0.43302691329E+02  0.64436170285E+02  0.00000000000E+00 0.  1.
         11    1    1    2    0    0  0.32659063086E+02  0.23742376453E+02  0.71964958708E+02  0.82518301746E+02  0.00000000000E+00 0. -1.
</event>
<event>
 7    1  0.2766180E-009  0.7546083E+02  0.7561462E-02  0.1342450E+00
         -2   -1    0    0    0  501 -0.00000000000E+00  0.00000000000E+00  0.29210163306E+02  0.29210163306E+02  0.00000000000E+00 0.  1.
          2   -1    0    0  501    0  0.00000000000E+00 -0.00000000000E+00 -0.42866657678E+03  0.42866657678E+03  0.00000000000E+00 0. -1.
         25    2    1    2    0    0 -0.30710566998E+02 -0.88771768871E+01 -0.20193203018E+03  0.23967978459E+03  0.12509161097E+03 0.  0.
          5    1    3    3  502    0 -0.22172217118E+02 -0.32611984198E+02 -0.37254115133E+01  0.39830890226E+02  0.41800000000E+01 0. -1.
         -5    1    3    3    0  502 -0.85383498806E+01  0.23734807310E+02 -0.19820661866E+03  0.19984889437E+03  0.41800000000E+01 0. -1.
        -11    1    1    2    0    0  0.38537075417E+02 -0.28232052450E+02 -0.67087148945E+02  0.82358002166E+02  0.00000000000E+00 0.  1.
         11    1    1    2    0    0 -0.78265084190E+01  0.37109229337E+02 -0.13043723436E+03  0.13583895333E+03  0.00000000000E+00 0. -1.
</event>
<event>
 7    1  0.2766180E-009  0.9684867E+02  0.7561462E-02  0.1287066E+00
          2   -1    0    0  501    0  0.00000000000E+00  0.00000000000E+00  0.20192871162E+03  0.20192871162E+03  0.00000000000E+00 0.  1.
         -2   -1    0    0    0  501 -0.00000000000E+00 -0.00000000000E+00 -0.92262808786E+02  0.92262808786E+02  0.00000000000E+00 0. -1.
         25    2    1    2    0    0 -0.46994528000E+02 -0.16564780515E+02  0.13174105955E+03  0.18837778316E+03  0.12509038652E+03 0.  0.
          5    1    3    3  502    0  0.92307416327E+01  0.21691728882E+02  0.11600477770E+03  0.11844964559E+03  0.41800000000E+01 0. -1.
         -5    1    3    3    0  502 -0.56225269632E+02 -0.38256509397E+02  0.15736281859E+02  0.69928137564E+02  0.41800000000E+01 0. -1.
        -11    1    1    2    0    0 -0.44164746645E+00  0.45863838985E+02 -0.50023042737E-01  0.45865992644E+02  0.00000000000E+00 0.  1.
         11    1    1    2    0    0  0.47436175466E+02 -0.29299058470E+02 -0.22025133675E+02  0.59947744607E+02  0.00000000000E+00 0. -1.
</event>
<event>
 7    1  0.2766180E-009  0.1487753E+03  0.7561462E-02  0.1201986E+00
          1   -1    0    0  501    0  0.00000000000E+00  0.00000000000E+00  0.77088045731E+03  0.77088045731E+03  0.00000000000E+00 0. -1.
         -1   -1    0    0    0  501 -0.00000000000E+00 -0.00000000000E+00 -0.60187320989E+02  0.60187320989E+02  0.00000000000E+00 0.  1.
         25    2    1    2    0    0  0.35193340334E+02  0.11466872486E+03  0.64344035460E+03  0.66637126631E+03  0.12509071494E+03 0.  0.
          5    1    3    3  502    0  0.54762014871E+02  0.25576567727E+02  0.42960515586E+03  0.43385608378E+03  0.41800000000E+01 0.  1.
         -5    1    3    3    0  502 -0.19568674537E+02  0.89092157129E+02  0.21383519874E+03  0.23251518253E+03  0.41800000000E+01 0.  1.
        -11    1    1    2    0    0 -0.50831070740E+02 -0.28901485471E+02  0.47428464043E+02  0.75289792246E+02  0.00000000000E+00 0. -1.
         11    1    1    2    0    0  0.15637730405E+02 -0.85767239386E+02  0.19824317673E+02  0.89406719744E+02  0.00000000000E+00 0.  1.
</event>
<event>
 7    1  0.2766180E-009  0.1952900E+03  0.7561462E-02  0.1153775E+00
         -2   -1    0    0    0  501 -0.00000000000E+00  0.00000000000E+00  0.49324134933E+02  0.49324134933E+02  0.00000000000E+00 0.  1.
          2   -1    0    0  501    0  0.00000000000E+00 -0.00000000000E+00 -0.10250362493E+04  0.10250362493E+04  0.00000000000E+00 0. -1.
         25    2    1    2    0    0  0.10976079312E+03  0.12352901783E+03 -0.25290743883E+03  0.32697999174E+03  0.12508753907E+03 0.  0.
          5    1    3    3  502    0  0.11653071429E+03  0.50210481384E+02 -0.19729486830E+03  0.23461295205E+03  0.41800000000E+01 0. -1.
         -5    1    3    3    0  502 -0.67699211751E+01  0.73318536449E+02 -0.55612570532E+02  0.92367039689E+02  0.41800000000E+01 0. -1.
        -11    1    1    2    0    0 -0.63960252379E+02 -0.66052391850E+01 -0.26151899086E+03  0.26930786407E+03  0.00000000000E+00 0. -1.
         11    1    1    2    0    0 -0.45800540738E+02 -0.11692377865E+03 -0.46128568470E+03  0.47807252845E+03  0.00000000000E+00 0.  1.
</event>
<event>
 7    1  0.2766180E-009  0.1308804E+03  0.7561462E-02  0.1226155E+00
          1   -1    0    0  501    0  0.00000000000E+00  0.00000000000E+00  0.43269638772E+03  0.43269638772E+03  0.00000000000E+00 0. -1.
         -1   -1    0    0    0  501 -0.00000000000E+00 -0.00000000000E+00 -0.99567157762E+02  0.99567157762E+02  0.00000000000E+00 0.  1.
         25    2    1    2    0    0 -0.29737497688E+01  0.77431980753E+02 -0.29519554037E+02  0.15003961224E+03  0.12504369773E+03 0.  0.
          5    1    3    3  502    0 -0.60890059286E+02  0.54193224027E+02 -0.31436940258E+02  0.87465755945E+02  0.41800000000E+01 0. -1.
         -5    1    3    3    0  502  0.57916309517E+02  0.23238756726E+02  0.19173862211E+01  0.62573856299E+02  0.41800000000E+01 0. -1.
        -11    1    1    2    0    0  0.39825884407E+02 -0.69189338669E+02  0.28353712153E+03  0.29456164879E+03  0.00000000000E+00 0. -1.
         11    1    1    2    0    0 -0.36852134638E+02 -0.82426420842E+01  0.79111662464E+02  0.87662284443E+02  0.00000000000E+00 0.  1.
</event>
<event>
 7    1  0.2766180E-009  0.2419030E+03  0.7561462E-02  0.1118532E+00
          2   -1    0    0  501    0  0.00000000000E+00  0.00000000000E+00  0.73245141963E+03  0.73245141963E+03  0.00000000000E+00 0. -1.
         -2   -1    0    0    0  501 -0.00000000000E+00 -0.00000000000E+00 -0.87635778922E+02  0.87635778922E+02  0.00000000000E+00 0.  1.
         25    2    1    2    0    0  0.39773175747E+02 -0.22288218977E+03  0.38567663461E+03  0.46438343418E+03  0.12508849441E+03 0.  0.
          5    1    3    3  502    0  0.13374612556E+02 -0.22913451315E+03  0.32622075352E+03  0.39889717698E+03  0.41800000000E+01 0.  1.
         -5    1    3    3    0  502  0.26398563191E+02  0.62523233783E+01  0.59455881088E+02  0.65486257201E+02  0.41800000000E+01 0.  1.
        -11    1    1    2    0    0 -0.57035983411E+01  0.66495718823E+02  0.14345190814E+03  0.15821713435E+03  0.00000000000E+00 0.  1.
         11    1    1    2    0    0 -0.34069577406E+02  0.15638647095E+03  0.11568709796E+03  0.19748663002E+03  0.00000000000E+00 0. -1.
</event>
<event>
 7    1  0.2766180E-009  0.9918731E+02  0.7561462E-02  0.1282014E+00
          1   -1    0    0  501    0  0.00000000000E+00  0.00000000000E+00  0.17699465167E+03  0.17699465167E+03  0.00000000000E+00 0. -1.
         -1   -1    0    0    0  501 -0.00000000000E+00 -0.00000000000E+00 -0.10317640878E+03  0.10317640878E+03  0.00000000000E+00 0.  1.
         25    2    1    2    0    0 -0.26119018517E+02  0.64794590227E+02  0.16427083936E+02  0.14419982620E+03  0.12507277377E+03 0.  0.
          5    1    3    3  502    0 -0.23156624892E+02  0.22138871007E+02 -0.53283711100E+02  0.62313603286E+02  0.41800000000E+01 0. -1.
         -5    1    3    3    0  502 -0.29623936250E+01  0.42655719220E+02  0.69710795036E+02  0.81886222911E+02  0.41800000000E+01 0. -1.
        -11    1    1    2    0    0  0.63607500031E+02 -0.24758264029E+02  0.35273854884E+02  0.76831832832E+02  0.00000000000E+00 0. -1.
         11    1    1    2    0    0 -0.37488481513E+02 -0.40036326198E+02  0.22117304062E+02  0.59139401422E+02  0.00000000000E+00 0.  1.
</event>
<event>
 7    1  0.2766180E-009  0.9142994E+02  0.7561462E-02  0.1299425E+00
         -2   -1    0    0    0  501 -0.00000000000E+00  0.00000000000E+00  0.38351033724E+02  0.38351033724E+02  0.00000000000E+00 0.  1.
          2   -1    0    0  501    0  0.00000000000E+00 -0.00000000000E+00 -0.45842987704E+03  0.45842987704E+03  0.00000000000E+00 0. -1.
         25    2    1    2    0    0 -0.29519844257E+02  0.47896236781E+02 -0.30237220634E+03  0.33202779928E+03  0.12509211654E+03 0.  0.
          5    1    3    3  502    0 -0.35302001939E+02  0.22718932006E+02 -0.30292950840E+03  0.30585313579E+03  0.41800000000E+01 0.  1.
         -5    1    3    3    0  502  0.57821576820E+01  0.25177304775E+02  0.55730205520E+00  0.26174663489E+02  0.41800000000E+01 0.  1.
        -11    1    1    2    0    0 -0.22462811270E+02 -0.57417799099E+02 -0.72821600946E+02  0.95416807261E+02  0.00000000000E+00 0. -1.
         11    1    1    2    0    0  0.51982655528E+02  0.95215623185E+01 -0.44885036031E+02  0.69336304229E+02  0.00000000000E+00 0.  1.
</event>
<event>
 7    1  0.2766180E-009  0.2612037E+03  0.7561462E-02  0.1106422E+00
         -1   -1    0    0    0  501 -0.00000000000E+00  0.00000000000E+00  0.82458459095E+02  0.82458459095E+02  0.00000000000E+00 0.  1.
          1   -1    0    0  501    0  0.00000000000E+00 -0.00000000000E+00 -0.13158379564E+04  0.13158379564E+04  0.00000000000E+00 0. -1.
         25    2    1    2    0    0 -0.24460802165E+03  0.12402548986E+02 -0.10320935252E+04  0.10681064379E+04  0.12508960964E+03 0.  0.
          5    1    3    3  502    0 -0.19473206650E+03  0.53147715648E+02 -0.88041739969E+03  0.90327046198E+03  0.41800000000E+01 0.  1.
         -5    1    3    3    0  502 -0.49875955150E+02 -0.40745166662E+02 -0.15167612553E+03  0.16483597594E+03  0.41800000000E+01 0.  1.
        -11    1    1    2    0    0  0.19911053239E+03 -0.39534621596E+02 -0.12880236442E+03  0.24041222825E+03  0.00000000000E+00 0.  1.
         11    1    1    2    0    0  0.45497489258E+02  0.27132072610E+02 -0.72483607623E+02  0.89777749286E+02  0.00000000000E+00 0. -1.
</event>
<event>
 7    1  0.2766180E-009  0.1631633E+03  0.7561462E-02  0.1185171E+00
         -3   -1    0    0    0  501 -0.00000000000E+00  0.00000000000E+00  0.15704107545E+03  0.15704107545E+03  0.00000000000E+00 0.  1.
          3   -1    0    0  501    0  0.00000000000E+00 -0.00000000000E+00 -0.18833528803E+03  0.18833528803E+03  0.00000000000E+00 0. -1.
         25    2    1    2    0    0 -0.12100267306E+03  0.39282597355E+02  0.25386121674E+02  0.18021726315E+03  0.12509611273E+03 0.  0.
          5    1    3    3  502    0 -0.14387253990E+03  0.33699644283E+02  0.35984199211E+01  0.14786951947E+03  0.41800000000E+01 0. -1.
         -5    1    3    3    0  502  0.22869866834E+02  0.55829530728E+01  0.21787701752E+02  0.32347743687E+02  0.41800000000E+01 0. -1.
        -11    1    1    2    0    0  0.85340420017E+02 -0.67747246240E+02 -0.33600590219E+02  0.11402489344E+03  0.00000000000E+00 0. -1.
         11    1    1    2    0    0  0.35662253047E+02  0.28464648885E+02 -0.23079744040E+02  0.51134206883E+02  0.00000000000E+00 0.  1.
</event>
<event>
 7    1  0.2766180E-009  0.1042704E+03  0.7561462E-02  0.1271564E+00
         -1   -1    0    0    0  501 -0.00000000000E+00  0.00000000000E+00  0.27436327993E+02  0.27436327993E+02  0.00000000000E+00 0.  1.
          1   -1    0    0  501    0  0.00000000000E+00 -0.00000000000E+00 -0.82336884288E+03  0.82336884288E+03  0.00000000000E+00 0. -1.
         25    2    1    2    0    0 -0.73311902200E+02  0.57568081664E+01 -0.64130687322E+03  0.65751805350E+03  0.12509080379E+03 0.  0.
          5    1    3    3  502    0  0.14492447923E+01 -0.43944220566E+02 -0.34687663442E+03  0.34967708924E+03  0.41800000000E+01 0. -1.
         -5    1    3    3    0  502 -0.74761146992E+02  0.49701028733E+02 -0.29443023880E+03  0.30784096426E+03  0.41800000000E+01 0. -1.
        -11    1    1    2    0    0  0.30556299299E+02 -0.83256141424E+01 -0.14625434258E+03  0.14964403096E+03  0.00000000000E+00 0. -1.
         11    1    1    2    0    0  0.42755602901E+02  0.25688059760E+01 -0.83712990852E+01  0.43643086416E+02  0.00000000000E+00 0.  1.
</event>
<event>
 7    1  0.2766180E-009  0.1059643E+03  0.7561462E-02  0.1268231E+00
         -1   -1    0    0    0  501 -0.00000000000E+00  0.00000000000E+00  0.28666117364E+03  0.28666117364E+03  0.00000000000E+00 0.  1.
          1   -1    0    0  501    0  0.00000000000E+00 -0.00000000000E+00 -0.46945264491E+02  0.46945264491E+02  0.00000000000E+00 0. -1.
         25    2    1    2    0    0  0.33283273635E+02  0.13412885491E+02  0.16341240311E+03  0.20890069277E+03  0.12509278216E+03 0.  0.
          5    1    3    3  502    0 -0.30935684991E+02 -0.24552210246E+02  0.14473610311E+02  0.42270384778E+02  0.41800000000E+01 0.  1.
         -5    1    3    3    0  502  0.64218958626E+02  0.37965095737E+02  0.14893879280E+03  0.16663030799E+03  0.41800000000E+01 0.  1.
        -11    1    1    2    0    0 -0.70609380029E+01  0.38602644224E+02  0.40170917694E+02  0.56158023603E+02  0.00000000000E+00 0.  1.
         11    1    1    2    0    0 -0.26222335633E+02 -0.52015529715E+02  0.36132588346E+02  0.68547721757E+02  0.00000000000E+00 0. -1.
</event>
<event>
 7    1  0.2766180E-009  0.1339118E+03  0.7561462E-02  0.1221764E+00
         -1   -1    0    0    0  501 -0.00000000000E+00  0.00000000000E+00  0.27517743787E+02  0.27517743787E+02  0.00000000000E+00 0.  1.
          1   -1    0    0  501    0  0.00000000000E+00 -0.00000000000E+00 -0.10490418347E+04  0.10490418347E+04  0.00000000000E+00 0. -1.
         25    2    1    2    0    0  0.52977674812E+02 -0.10550276663E+03 -0.71627136993E+03  0.73663280402E+03  0.12508295163E+03 0.  0.
          5    1    3    3  502    0  0.47761633257E+02 -0.92381146738E+02 -0.25908772105E+03  0.27921205111E+03  0.41800000000E+01 0. -1.
         -5    1    3    3    0  502  0.52160415554E+01 -0.13121619896E+02 -0.45718364887E+03  0.45742075291E+03  0.41800000000E+01 0. -1.
        -11    1    1    2    0    0  0.12411854471E+02  0.76470874629E+02 -0.17324332597E+03  0.18977644425E+03  0.00000000000E+00 0.  1.
         11    1    1    2    0    0 -0.65389529283E+02  0.29031892005E+02 -0.13200939505E+03  0.15015033025E+03  0.00000000000E+00 0. -1.
</event>
<event>
 7    1  0.2766180E-009  0.1322106E+03  0.7561462E-02  0.1224212E+00
         -2   -1    0    0    0  501 -0.00000000000E+00  0.00000000000E+00  0.69871601993E+02  0.69871601993E+02  0.00000000000E+00 0.  1.
          2   -1    0    0  501    0  0.00000000000E+00 -0.00000000000E+00 -0.32729115568E+03  0.32729115568E+03  0.00000000000E+00 0. -1.
         25    2    1    2    0    0 -0.60380153593E+02  0.82768843881E+02 -0.10580893193E+03  0.19322293633E+03  0.12507249330E+03 0.  0.
          5    1    3    3  502    0 -0.85252946098E+02  0.97021943183E+02 -0.10065136281E+03  0.16379710472E+03  0.41800000000E+01 0.  1.
         -5    1    3    3    0  502  0.24872792505E+02 -0.14253099302E+02 -0.51575691186E+01  0.29425831610E+02  0.41800000000E+01 0.  1.
        -11    1    1    2    0    0  0.30991148165E+02 -0.19905455380E+02  0.40382483012E+00  0.36835329413E+02  0.00000000000E+00 0.  1.
         11    1    1    2    0    0  0.29389005427E+02 -0.62863388501E+02 -0.15201444658E+03  0.16710449193E+03  0.00000000000E+00 0. -1.
</event>
<event>
 7    1  0.2766180E-009  0.1055068E+03  0.7561462E-02  0.1269124E+00
          1   -1    0    0  501    0  0.00000000000E+00  0.00000000000E+00  0.15021773032E+03  0.15021773032E+03  0.00000000000E+00 0. -1.
         -1   -1    0    0    0  501 -0.00000000000E+00 -0.00000000000E+00 -0.12012874662E+03  0.12012874662E+03  0.00000000000E+00 0.  1.
         25    2    1    2    0    0  0.69889310693E+02  0.25656740419E+02 -0.18018029344E+02  0.14668416414E+03  0.12509520594E+03 0.  0.
          5    1    3    3  502    0  0.90277982848E+02  0.19464464973E+02 -0.52216375526E+02  0.10617439360E+03  0.41800000000E+01 0. -1.
         -5    1    3    3    0  502 -0.20388672154E+02  0.61922754460E+01  0.34198346182E+02  0.40509770538E+02  0.41800000000E+01 0. -1.
        -11    1    1    2    0    0 -0.74964992188E+02 -0.37606680780E+02  0.11292909677E+02  0.84625896167E+02  0.00000000000E+00 0.  1.
         11    1    1    2    0    0  0.50756814950E+01  0.11949940361E+02  0.36814103366E+02  0.39036416638E+02  0.00000000000E+00 0. -1.
</event>
<event>
 7    1  0.2766180E-009  0.1300109E+03  0.7561462E-02  0.1227440E+00
          2   -1    0    0  501    0  0.00000000000E+00  0.00000000000E+00  0.49965822159E+02  0.49965822159E+02  0.00000000000E+00 0. -1.
         -2   -1    0    0    0  501 -0.00000000000E+00 -0.00000000000E+00 -0.43271399668E+03  0.43271399668E+03  0.00000000000E+00 0.  1.
         25    2    1    2    0    0  0.45113076256E+02  0.78680183123E+02 -0.27464734424E+03  0.31512649758E+03  0.12509110645E+03 0.  0.
          5    1    3    3  502    0 -0.11190991520E+02 -0.27169027462E+02 -0.91444161255E+02  0.96140009216E+02  0.41800000000E+01 0.  1.
         -5    1    3    3    0  502  0.56304067776E+02  0.10584921058E+03 -0.18320318299E+03  0.21898648837E+03  0.41800000000E+01 0.  1.
        -11    1    1    2    0    0 -0.29870703428E+02  0.36774161403E+00 -0.74596371236E+02  0.80355539689E+02  0.00000000000E+00 0.  1.
         11    1    1    2    0    0 -0.15242372828E+02 -0.79047924737E+02 -0.33504459041E+02  0.87197781568E+02  0.00000000000E+00 0. -1.
</event>
<event>
 7    1  0.2766180E-009  0.1189241E+03  0.7561462E-02  0.1244883E+00
         -2   -1    0    0    0  501 -0.00000000000E+00  0.00000000000E+00  0.12454633744E+03  0.12454633744E+03  0.00000000000E+00 0.  1.
          2   -1    0    0  501    0  0.00000000000E+00 -0.00000000000E+00 -0.14406367431E+03  0.14406367431E+03  0.00000000000E+00 0. -1.
         25    2    1    2    0    0 -0.68520661309E+02 -0.30356744212E+02  0.11985563608E+02  0.14631164674E+03  0.12508729468E+03 0.  0.
          5    1    3    3  502    0 -0.98170837441E+02  0.11124241385E+01  0.24173146787E+02  0.10119567301E+03  0.41800000000E+01 0.  1.
         -5    1    3    3    0  502  0.29650176132E+02 -0.31469168351E+02 -0.12187583179E+02  0.45115973724E+02  0.41800000000E+01 0.  1.
        -11    1    1    2    0    0 -0.13901580138E+01 -0.13528589769E+02  0.20601294578E+02  0.24685392822E+02  0.00000000000E+00 0.  1.
         11    1    1    2    0    0  0.69910819323E+02  0.43885333982E+02 -0.52104195052E+02  0.97612972186E+02  0.00000000000E+00 0. -1.
</event>
<event>
 7    1  0.2766180E-009  0.1449617E+03  0.7561462E-02  0.1206804E+00
          1   -1    0    0  501    0  0.00000000000E+00  0.00000000000E+00  0.29858220162E+03  0.29858220162E+03  0.00000000000E+00 0. -1.
         -1   -1    0    0    0  501 -0.00000000000E+00 -0.00000000000E+00 -0.90305928999E+02  0.90305928999E+02  0.00000000000E+00 0.  1.
         25    2    1    2    0    0 -0.11820388315E+03  0.39612719870E+00  0.15277570003E+03  0.23013062490E+03  0.12508946834E+03 0.  0.
          5    1    3    3  502    0 -0.12313928604E+03  0.26243098141E+02  0.72052900849E+02  0.14512434974E+03  0.41800000000E+01 0. -1.
         -5    1    3    3    0  502  0.49354028948E+01 -0.25846970942E+02  0.80722799183E+02  0.85006275160E+02  0.41800000000E+01 0. -1.
        -11    1    1    2    0    0  0.56262285889E+02 -0.35091548405E+02 -0.35633110036E+01  0.66404508644E+02  0.00000000000E+00 0.  1.
         11    1    1    2    0    0  0.61941597258E+02  0.34695421206E+02  0.59063883592E+02  0.92352997074E+02  0.00000000000E+00 0. -1.
</event>
<event>
 7    1  0.2766180E-009  0.9629597E+02  0.7561462E-02  0.1288284E+00
         -4   -1    0    0    0  501 -0.00000000000E+00  0.00000000000E+00  0.17142265360E+03  0.17142265360E+03  0.00000000000E+00 0.  1.
          4   -1    0    0  501    0  0.00000000000E+00 -0.00000000000E+00 -0.79836203425E+02  0.79836203425E+02  0.00000000000E+00 0. -1.
         25    2    1    2    0    0 -0.56850664365E+01 -0.40107609654E+02  0.65405325251E+02  0.14685363350E+03  0.12508873958E+03 0.  0.
          5    1    3    3  502    0 -0.48990188502E+02 -0.57105659380E+02  0.65952402112E+02  0.10014133336E+03  0.41800000000E+01 0.  1.
         -5    1    3    3    0  502  0.43305122065E+02  0.16998049726E+02 -0.54707686114E+00  0.46712300143E+02  0.41800000000E+01 0.  1.
        -11    1    1    2    0    0  0.31753097930E+02  0.19169068806E+02  0.50788542610E+02  0.62890289294E+02  0.00000000000E+00 0.  1.
         11    1    1    2    0    0 -0.26068031494E+02  0.20938540849E+02 -0.24607417686E+02  0.41514934229E+02  0.00000000000E+00 0. -1.
</event>
<event>
 7    1  0.2766180E-009  0.2508483E+03  0.7561462E-02  0.1112770E+00
         -2   -1    0    0    0  501 -0.00000000000E+00  0.00000000000E+00  0.95455124838E+03  0.95455124838E+03  0.00000000000E+00 0.  1.
          2   -1    0    0  501    0  0.00000000000E+00 -0.00000000000E+00 -0.77338998802E+02  0.77338998802E+02  0.00000000000E+00 0. -1.
         25    2    1    2    0    0 -0.23428133824E+03  0.43916870160E+02  0.31273285755E+03  0.41263241629E+03  0.12508890378E+03 0.  0.
          5    1    3    3  502    0 -0.12216902651E+03  0.65661813781E+02  0.99632197861E+02  0.17082386273E+03  0.41800000000E+01 0. -1.
         -5    1    3    3    0  502 -0.11211231173E+03 -0.21744943622E+02  0.21310065969E+03  0.24180855356E+03  0.41800000000E+01 0. -1.
        -11    1    1    2    0    0  0.62260971601E+02 -0.44685397239E+02  0.11712831357E+03  0.13997233709E+03  0.00000000000E+00 0.  1.
         11    1    1    2    0    0  0.17202036664E+03  0.76852707895E+00  0.44735107845E+03  0.47928549380E+03  0.00000000000E+00 0. -1.
</event>
<event>
 7    1  0.2766180E-009  0.1047810E+03  0.7561462E-02  0.1270552E+00
          4   -1    0    0  501    0  0.00000000000E+00  0.00000000000E+00  0.31130663362E+03  0.31130663362E+03  0.00000000000E+00 0. -1.
         -4   -1    0    0    0  501 -0.00000000000E+00 -0.00000000000E+00 -0.53424701923E+02  0.53424701923E+02  0.00000000000E+00 0.  1.
         25    2    1    2    0    0  0.45660632517E+02  0.29707504535E+02  0.12238922906E+03  0.18328576759E+03  0.12508844880E+03 0.  0.
          5    1    3    3  502    0  0.37294428702E+02 -0.24317572760E+02  0.12038326811E+03  0.12842049057E+03  0.41800000000E+01 0.  1.
         -5    1    3    3    0  502  0.83662038153E+01  0.54025077295E+02  0.20059609485E+01  0.54865277019E+02  0.41800000000E+01 0.  1.
        -11    1    1    2    0    0 -0.28299541041E+02  0.33854746324E+02  0.93288094848E+02  0.10319726989E+03  0.00000000000E+00 0. -1.
         11    1    1    2    0    0 -0.17361091476E+02 -0.63562250859E+02  0.42204607786E+02  0.78248298064E+02  0.00000000000E+00 0.  1.
</event>
<event>
 7    1  0.2766180E-009  0.1027552E+03  0.7561462E-02  0.1274607E+00
          2   -1    0    0  501    0  0.00000000000E+00  0.00000000000E+00  0.10607728115E+04  0.10607728115E+04  0.00000000000E+00 0. -1.
         -2   -1    0    0    0  501 -0.00000000000E+00 -0.00000000000E+00 -0.28079509881E+02  0.28079509881E+02  0.00000000000E+00 0.  1.
         25    2    1    2    0    0 -0.14453444263E+02 -0.32165836865E+01  0.96668199918E+03  0.97485396476E+03  0.12508763566E+03 0.  0.
          5    1    3    3  502    0 -0.65186603722E+02 -0.23956638233E+02  0.61120019476E+03  0.61514743298E+03  0.41800000000E+01 0.  1.
         -5    1    3    3    0  502  0.50733159458E+02  0.20740054547E+02  0.35548180442E+03  0.35970653178E+03  0.41800000000E+01 0.  1.
        -11    1    1    2    0    0 -0.19240053059E+02 -0.28703045292E+02  0.57094699044E+02  0.66737164382E+02  0.00000000000E+00 0. -1.
         11    1    1    2    0    0  0.33693497323E+02  0.31919628978E+02  0.89166033893E+01  0.47261192240E+02  0.00000000000E+00 0.  1.
</event>
<event>
 7    1  0.2766180E-009  0.1649974E+03  0.7561462E-02  0.1183168E+00
          2   -1    0    0  501    0  0.00000000000E+00  0.00000000000E+00  0.32159079673E+02  0.32159079673E+02  0.00000000000E+00 0. -1.
         -2   -1    0    0    0  501 -0.00000000000E+00 -0.00000000000E+00 -0.11618111167E+04  0.11618111167E+04  0.00000000000E+00 0.  1.
         25    2    1    2    0    0  0.11875722707E+03  0.10402347754E+03 -0.52792497379E+03  0.56504549453E+03  0.12508984801E+03 0.  0.
          5    1    3    3  502    0  0.85858152272E+02  0.70481553551E+02 -0.16428458682E+03  0.19835868917E+03  0.41800000000E+01 0. -1.
         -5    1    3    3    0  502  0.32899074797E+02  0.33541923991E+02 -0.36364038698E+03  0.36668680537E+03  0.41800000000E+01 0. -1.
        -11    1    1    2    0    0 -0.31730114059E+02 -0.72439640588E+02 -0.17159869156E+03  0.18894552816E+03  0.00000000000E+00 0.  1.
         11    1    1    2    0    0 -0.87027113010E+02 -0.31583836954E+02 -0.43012837167E+03  0.43997917368E+03  0.00000000000E+00 0. -1.
</event>
<event>
 7    1  0.2766180E-009  0.1142537E+03  0.7561462E-02  0.1252889E+00
          2   -1    0    0  501    0  0.00000000000E+00  0.00000000000E+00  0.14121594110E+03  0.14121594110E+03  0.00000000000E+00 0. -1.
         -2   -1    0    0    0  501 -0.00000000000E+00 -0.00000000000E+00 -0.13935269520E+03  0.13935269520E+03  0.00000000000E+00 0.  1.
         25    2    1    2    0    0  0.65585722187E+02 -0.87798396643E+01  0.62029882172E+02  0.15450908629E+03  0.12508708536E+03 0.  0.
          5    1    3    3  502    0 -0.28065503953E+02 -0.32377064388E+02  0.30750427936E+02  0.52905652144E+02  0.41800000000E+01 0.  1.
         -5    1    3    3    0  502  0.93651226140E+02  0.23597224723E+02  0.31279454236E+02  0.10160343414E+03  0.41800000000E+01 0.  1.
        -11    1    1    2    0    0 -0.61627539922E+02 -0.16018270001E+02 -0.31446227290E+01  0.63752861134E+02  0.00000000000E+00 0. -1.
         11    1    1    2    0    0 -0.39581822648E+01  0.24798109665E+02 -0.57022013550E+02  0.62306688879E+02  0.00000000000E+00 0.  1.
</event>
<event>
 7    1  0.2766180E-009  0.9780508E+02  0.7561462E-02  0.1284980E+00
          2   -1    0    0  501    0  0.00000000000E+00  0.00000000000E+00  0.90485900938E+03  0.90485900938E+03  0.00000000000E+00 0. -1.
         -2   -1    0    0    0  501 -0.00000000000E+00 -0.00000000000E+00 -0.20201034943E+02  0.20201034943E+02  0.00000000000E+00 0.  1.
         25    2    1    2    0    0  0.22779216262E+02 -0.32889414258E+02  0.67400708340E+03  0.68668160167E+03  0.12508184252E+03 0.  0.
          5    1    3    3  502    0  0.20310068900E+02 -0.56717391376E+02  0.64898891595E+03  0.65179248753E+03  0.41800000000E+01 0. -1.
         -5    1    3    3    0  502  0.24691473622E+01  0.23827977118E+02  0.25018167454E+02  0.34889114133E+02  0.41800000000E+01 0. -1.
        -11    1    1    2    0    0  0.32535300308E+02  0.43761413599E+02  0.90478661914E+02  0.10564087915E+03  0.00000000000E+00 0.  1.
         11    1    1    2    0    0 -0.55314516569E+02 -0.10871999342E+02  0.12017222913E+03  0.13273756351E+03  0.00000000000E+00 0. -1.
</event>
<event>
 7    1  0.2766180E-009  0.1305043E+03  0.7561462E-02  0.1226709E+00
         -1   -1    0    0    0  501 -0.00000000000E+00  0.00000000000E+00  0.19187160236E+03  0.19187160236E+03  0.00000000000E+00 0.  1.
          1   -1    0    0  501    0  0.00000000000E+00 -0.00000000000E+00 -0.10629865724E+03  0.10629865724E+03  0.00000000000E+00 0. -1.
         25    2    1    2    0    0  0.36535854509E+02 -0.84818912304E+02  0.45729419028E+02  0.16207509137E+03  0.12509212177E+03 0.  0.
          5    1    3    3  502    0 -0.44923885483E+02 -0.26406539354E+02  0.30713974055E+02  0.60632346234E+02  0.41800000000E+01 0.  1.
         -5    1    3    3    0  502  0.81459739993E+02 -0.58412372950E+02  0.15015444974E+02  0.10144274514E+03  0.41800000000E+01 0.  1.
        -11    1    1    2    0    0  0.13911904531E+02  0.34289314915E+02 -0.20770446652E+02  0.42434769461E+02  0.00000000000E+00 0. -1.
         11    1    1    2    0    0 -0.50447759040E+02  0.50529597389E+02  0.60613972745E+02  0.93660398763E+02  0.00000000000E+00 0.  1.
</event>
<event>
 7    1  0.2766180E-009  0.1093089E+03  0.7561462E-02  0.1261855E+00
         -2   -1    0    0    0  501 -0.00000000000E+00  0.00000000000E+00  0.15398935301E+03  0.15398935301E+03  0.00000000000E+00 0.  1.
          2   -1    0    0  501    0  0.00000000000E+00 -0.00000000000E+00 -0.12251735268E+03  0.12251735268E+03  0.00000000000E+00 0. -1.
         25    2    1    2    0    0  0.32871589614E+02  0.44996692903E+01  0.94006801816E+02  0.15995438755E+03  0.12508932361E+03 0.  0.
          5    1    3    3  502    0 -0.43556572058E+02  0.22725484894E+02  0.47982557973E+02  0.68799861212E+02  0.41800000000E+01 0. -1.
         -5    1    3    3    0  502  0.76428161673E+02 -0.18225815604E+02  0.46024243843E+02  0.91154526341E+02  0.41800000000E+01 0. -1.
        -11    1    1    2    0    0 -0.36743882702E+02 -0.40348365524E+02 -0.14454683995E+02  0.56453887430E+02  0.00000000000E+00 0.  1.
         11    1    1    2    0    0  0.38722930877E+01  0.35848696234E+02 -0.48080117490E+02  0.60098430706E+02  0.00000000000E+00 0. -1.
</event>
<event>
 7    1  0.2766180E-009  0.1398361E+03  0.7561462E-02  0.1213550E+00
          4   -1    0    0  501    0  0.00000000000E+00  0.00000000000E+00  0.31262301688E+03  0.31262301688E+03  0.00000000000E+00 0. -1.
         -4   -1    0    0    0  501 -0.00000000000E+00 -0.00000000000E+00 -0.69495706806E+02  0.69495706806E+02  0.00000000000E+00 0.  1.
         25    2    1    2    0    0  0.88774952323E+02  0.43070272911E+02  0.13378250193E+03  0.20804046642E+03  0.12508811804E+03 0.  0.
          5    1    3    3  502    0  0.10817663967E+03  0.76679548569E+01  0.12672357041E+03  0.16684519351E+03  0.41800000000E+01 0.  1.
         -5    1    3    3    0  502 -0.19401687344E+02  0.35402318054E+02  0.70589315194E+01  0.41195272903E+02  0.41800000000E+01 0.  1.
        -11    1    1    2    0    0 -0.26451799613E+02 -0.60342304501E+02  0.31961842847E+02  0.73228756738E+02  0.00000000000E+00 0.  1.
         11    1    1    2    0    0 -0.62323152711E+02  0.17272031590E+02  0.77382965297E+02  0.10084950053E+03  0.00000000000E+00 0. -1.
</event>
<event>
 7    1  0.2766180E-009  0.7755765E+02  0.7561462E-02  0.1336129E+00
          3   -1    0    0  501    0  0.00000000000E+00  0.00000000000E+00  0.10235446797E+04  0.10235446797E+04  0.00000000000E+00 0. -1.
         -3   -1    0    0    0  501 -0.00000000000E+00 -0.00000000000E+00 -0.15605837538E+02  0.15605837538E+02  0.00000000000E+00 0.  1.
         25    2    1    2    0    0  0.12539299846E+02 -0.28524894958E+02  0.80288966957E+03  0.81317363113E+03  0.12509448108E+03 0.  0.
          5    1    3    3  502    0  0.31195937534E+02 -0.73590293856E+00  0.47230268675E+02  0.56761771914E+02  0.41800000000E+01 0.  1.
         -5    1    3    3    0  502 -0.18656637687E+02 -0.27788992019E+02  0.75565940090E+03  0.75641185922E+03  0.41800000000E+01 0.  1.
        -11    1    1    2    0    0 -0.42659658360E+02 -0.71033216469E+01  0.62627829906E+02  0.76108795212E+02  0.00000000000E+00 0.  1.
         11    1    1    2    0    0  0.30120358514E+02  0.35628216605E+02  0.14242134270E+03  0.14986809091E+03  0.00000000000E+00 0. -1.
</event>
<event>
 7    1  0.2766180E-009  0.1105027E+03  0.7561462E-02  0.1259642E+00
         -1   -1    0    0    0  501 -0.00000000000E+00  0.00000000000E+00  0.51952746563E+02  0.51952746563E+02  0.00000000000E+00 0.  1.
          1   -1    0    0  501    0  0.00000000000E+00 -0.00000000000E+00 -0.91861327088E+03  0.91861327088E+03  0.00000000000E+00 0. -1.
         25    2    1    2    0    0  0.10708087881E+03 -0.15997212359E+02 -0.79439650753E+03  0.81144004096E+03  0.12508758324E+03 0.  0.
          5    1    3    3  502    0  0.74184490220E+02  0.28710644765E+01 -0.74655072413E+03  0.75024465189E+03  0.41800000000E+01 0.  1.
         -5    1    3    3    0  502  0.32896388593E+02 -0.18868276835E+02 -0.47845783404E+02  0.61195389065E+02  0.41800000000E+01 0.  1.
        -11    1    1    2    0    0 -0.17153370587E+02  0.51826086341E+01 -0.65938451945E+02  0.68329912920E+02  0.00000000000E+00 0. -1.
         11    1    1    2    0    0 -0.89927508225E+02  0.10814603725E+02 -0.63255648457E+01  0.90796063571E+02  0.00000000000E+00 0.  1.
</event>
<event>
 7    1  0.2766180E-009  0.8564912E+02  0.7561462E-02  0.1313744E+00
          1   -1    0    0  501    0  0.00000000000E+00  0.00000000000E+00  0.11957017438E+03  0.11957017438E+03  0.00000000000E+00 0. -1.
         -1   -1    0    0    0  501 -0.00000000000E+00 -0.00000000000E+00 -0.13298415424E+03  0.13298415424E+03  0.00000000000E+00 0.  1.
         25    2    1    2    0    0  0.40533523442E+02 -0.19986555111E+02 -0.52605326182E+02  0.14302587309E+03  0.12508657451E+03 0.  0.
          5    1    3    3  502    0 -0.41550201873E+02 -0.72102712516E+01  0.37680690423E+01  0.42545011829E+02  0.41800000000E+01 0.  1.
         -5    1    3    3    0  502  0.82083725315E+02 -0.12776283859E+02 -0.56373395225E+02  0.10048086126E+03  0.41800000000E+01 0.  1.
        -11    1    1    2    0    0 -0.11044966079E+02  0.20663870331E+01  0.65298645520E+02  0.66258390697E+02  0.00000000000E+00 0. -1.
         11    1    1    2    0    0 -0.29488557363E+02  0.17920168077E+02 -0.26107299201E+02  0.43270064835E+02  0.00000000000E+00 0.  1.
</event>
<event>
 7    1  0.2766180E-009  0.1109147E+03  0.7561462E-02  0.1258885E+00
          2   -1    0    0  501    0  0.00000000000E+00  0.00000000000E+00  0.18915442111E+03  0.18915442111E+03  0.00000000000E+00 0. -1.
         -2   -1    0    0    0  501 -0.00000000000E+00 -0.00000000000E+00 -0.13090033507E+03  0.13090033507E+03  0.00000000000E+00 0.  1.
         25    2    1    2    0    0 -0.76222761350E+01  0.75265359068E+02  0.11639688523E+03  0.18686510985E+03  0.12508941210E+03 0.  0.
          5    1    3    3  502    0 -0.20243214811E+02  0.94582419652E+02  0.36283954251E+02  0.10339061654E+03  0.41800000000E+01 0.  1.
         -5    1    3    3    0  502  0.12620938676E+02 -0.19317060584E+02  0.80112930981E+02  0.83474493308E+02  0.41800000000E+01 0.  1.
        -11    1    1    2    0    0  0.28253612381E+01  0.12931841334E+02 -0.41170688229E+02  0.43246280252E+02  0.00000000000E+00 0.  1.
         11    1    1    2    0    0  0.47969148969E+01 -0.88197200402E+02 -0.16972110960E+02  0.89943366079E+02  0.00000000000E+00 0. -1.
</event>
<event>
 7    1  0.2766180E-009  0.1244712E+03  0.7561462E-02  0.1235898E+00
          1   -1    0    0  501    0  0.00000000000E+00  0.00000000000E+00  0.98320058805E+03  0.98320058805E+03  0.00000000000E+00 0. -1.
         -1   -1    0    0    0  501 -0.00000000000E+00 -0.00000000000E+00 -0.19297205627E+02  0.19297205627E+02  0.00000000000E+00 0.  1.
         25    2    1    2    0    0  0.81685209242E+02  0.88100767504E+01  0.61236212385E+03  0.63038462521E+03  0.12508922462E+03 0.  0.
          5    1    3    3  502    0  0.95915988588E+01 -0.50281234651E+02  0.30068651532E+03  0.30504106972E+03  0.41800000000E+01 0.  1.
         -5    1    3    3    0  502  0.72093610384E+02  0.59091311401E+02  0.31167560853E+03  0.32534355548E+03  0.41800000000E+01 0.  1.
        -11    1    1    2    0    0 -0.36704176176E+02  0.27988924206E+02  0.64903368060E+02  0.79643101475E+02  0.00000000000E+00 0.  1.
         11    1    1    2    0    0 -0.44981033066E+02 -0.36799000957E+02  0.28663789052E+03  0.29247006699E+03  0.00000000000E+00 0. -1.
</event>
<event>
 7    1  0.2766180E-009  0.1184820E+03  0.7561462E-02  0.1245622E+00
         -1   -1    0    0    0  501 -0.00000000000E+00  0.00000000000E+00  0.53996299549E+02  0.53996299549E+02  0.00000000000E+00 0.  1.
          1   -1    0    0  501    0  0.00000000000E+00 -0.00000000000E+00 -0.36526137502E+03  0.36526137502E+03  0.00000000000E+00 0. -1.
         25    2    1    2    0    0  0.34953310251E+02 -0.70735452881E+02 -0.99713646100E+02  0.17837413225E+03  0.12509708888E+03 0.  0.
          5    1    3    3  502    0  0.24572233621E+02 -0.10258798672E+03 -0.98812138206E+02  0.14460083244E+03  0.41800000000E+01 0. -1.
         -5    1    3    3    0  502  0.10381076631E+02  0.31852533838E+02 -0.90150789479E+00  0.33773299815E+02  0.41800000000E+01 0. -1.
        -11    1    1    2    0    0 -0.48854591347E+02  0.37445505993E+02 -0.18795085137E+03  0.19777375849E+03  0.00000000000E+00 0. -1.
         11    1    1    2    0    0  0.13901281096E+02  0.33289946888E+02 -0.23600577993E+02  0.43109783826E+02  0.00000000000E+00 0.  1.
</event>
<event>
 7    1  0.2766180E-009  0.1191197E+03  0.7561462E-02  0.1244556E+00
          2   -1    0    0  501    0  0.00000000000E+00  0.00000000000E+00  0.71175409260E+02  0.71175409260E+02  0.00000000000E+00 0. -1.
         -2   -1    0    0    0  501 -0.00000000000E+00 -0.00000000000E+00 -0.34773183250E+03  0.34773183250E+03  0.00000000000E+00 0.  1.
         25    2    1    2    0    0  0.86116438563E+02 -0.43068791396E+01 -0.25944525446E+03  0.30065346308E+03  0.12508427001E+03 0.  0.
          5    1    3    3  502    0  0.10722914251E+03  0.28600878025E+02 -0.20920648700E+03  0.23685634007E+03  0.41800000000E+01 0. -1.
         -5    1    3    3    0  502 -0.21112703944E+02 -0.32907757165E+02 -0.50238767455E+02  0.63797123014E+02  0.41800000000E+01 0. -1.
        -11    1    1    2    0    0 -0.63369396591E+02 -0.43609432108E+01 -0.47501392357E+02  0.79316332024E+02  0.00000000000E+00 0.  1.
         11    1    1    2    0    0 -0.22747041972E+02  0.86678223504E+01  0.30390223576E+02  0.38937446652E+02  0.00000000000E+00 0. -1.
</event>
<event>
 7    1  0.2766180E-009  0.1900223E+03  0.7561462E-02  0.1158441E+00
         -2   -1    0    0    0  501 -0.00000000000E+00  0.00000000000E+00  0.52076302805E+02  0.52076302805E+02  0.00000000000E+00 0.  1.
          2   -1    0    0  501    0  0.00000000000E+00 -0.00000000000E+00 -0.72869452686E+03  0.72869452686E+03  0.00000000000E+00 0. -1.
         25    2    1    2    0    0 -0.14977558756E+03  0.52899680817E+02 -0.40701058891E+03  0.45446190955E+03  0.12508758885E+03 0.  0.
          5    1    3    3  502    0 -0.17094160142E+03  0.45018625944E+02 -0.33390606318E+03  0.37783387779E+03  0.41800000000E+01 0. -1.
         -5    1    3    3    0  502  0.21166013858E+02  0.78810548730E+01 -0.73104525730E+02  0.76628031756E+02  0.41800000000E+01 0. -1.
        -11    1    1    2    0    0  0.13412005327E+03 -0.74620452382E+02 -0.24908234248E+03  0.29257206623E+03  0.00000000000E+00 0.  1.
         11    1    1    2    0    0  0.15655534288E+02  0.21720771565E+02 -0.20525292671E+02  0.33736853891E+02  0.00000000000E+00 0. -1.
</event>
<event>
 7    1  0.2766180E-009  0.1251057E+03  0.7561462E-02  0.1234904E+00
          2   -1    0    0  501    0  0.00000000000E+00  0.00000000000E+00  0.16967265813E+04  0.16967265813E+04  0.00000000000E+00 0. -1.
         -2   -1    0    0    0  501 -0.00000000000E+00 -0.00000000000E+00 -0.15084043453E+02  0.15084043453E+02  0.00000000000E+00 0.  1.
         25    2    1    2    0    0 -0.43210928068E+02 -0.54836135082E+02  0.13972872142E+04  0.14046110827E+04  0.12508616573E+03 0.  0.
          5    1    3    3  502    0  0.40913921859E+02  0.14564767925E+01  0.47372068500E+03  0.47550481609E+03  0.41800000000E+01 0.  1.
         -5    1    3    3    0  502 -0.84124849927E+02 -0.56292611875E+02  0.92356652915E+03  0.92910626663E+03  0.41800000000E+01 0.  1.
        -11    1    1    2    0    0  0.16654092030E+02  0.73453673786E+02  0.13721472166E+03  0.15652693319E+03  0.00000000000E+00 0.  1.
         11    1    1    2    0    0  0.26556836038E+02 -0.18617538704E+02  0.14714060209E+03  0.15067260889E+03  0.00000000000E+00 0. -1.
</event>
<event>
 6    1  0.2766180E-009  0.1014594E+03  0.7561462E-02  0.1277257E+00
         -1   -1    0    0    0  501 -0.00000000000E+00  0.00000000000E+00  0.18844886900E+02  0.18844886900E+02  0.00000000000E+00 0.  1.
          1   -1    0    0  501    0  0.00000000000E+00 -0.00000000000E+00 -0.67642119104E+03  0.67642119104E+03  0.00000000000E+00 0. -1.
          5    1    1    2  502    0 -0.54479160479E+02  0.21705348599E+00 -0.16413101641E+03  0.17298696190E+03  0.41800000000E+01 0.  1.
         -5    1    1    2    0  502  0.69279813782E+02 -0.96398715846E+01 -0.28895001803E+03  0.29732508310E+03  0.41800000000E+01 0.  1.
        -11    1    1    2    0    0  0.14264222983E+02  0.36062206367E+02 -0.39660987173E+02  0.55470214430E+02  0.00000000000E+00 0.  1.
         11    1    1    2    0    0 -0.29064876286E+02 -0.26639388269E+02 -0.16483428253E+03  0.16948381851E+03  0.00000000000E+00 0. -1.
</event>
<event>
 7    1  0.2766180E-009  0.1228044E+03  0.7561462E-02  0.1238541E+00
         -1   -1    0    0    0  501 -0.00000000000E+00  0.00000000000E+00  0.26131665208E+03  0.26131665208E+03  0.00000000000E+00 0.  1.
          1   -1    0    0  501    0  0.00000000000E+00 -0.00000000000E+00 -0.61936237711E+02  0.61936237711E+02  0.00000000000E+00 0. -1.
         25    2    1    2    0    0  0.19799762483E+02  0.54863830789E+02  0.15150040131E+03  0.20494335918E+03  0.12508932149E+03 0.  0.
          5    1    3    3  502    0  0.61470676456E+02  0.69886643700E+02  0.95486375346E+02  0.13340879772E+03  0.41800000000E+01 0.  1.
         -5    1    3    3    0  502 -0.41670913972E+02 -0.15022812911E+02  0.56014025960E+02  0.71534561460E+02  0.41800000000E+01 0.  1.
        -11    1    1    2    0    0  0.23464559448E+02 -0.59956968658E+02  0.32401596623E+02  0.72078340051E+02  0.00000000000E+00 0.  1.
         11    1    1    2    0    0 -0.43264321931E+02  0.50931378698E+01  0.15478416442E+02  0.46231190565E+02  0.00000000000E+00 0. -1.
</event>
<event>
 7    1  0.2766180E-009  0.9250958E+02  0.7561462E-02  0.1296886E+00
         -3   -1    0    0    0  501 -0.00000000000E+00  0.00000000000E+00  0.19578233482E+03  0.19578233482E+03  0.00000000000E+00 0.  1.
          3   -1    0    0  501    0  0.00000000000E+00 -0.00000000000E+00 -0.67907482943E+02  0.67907482943E+02  0.00000000000E+00 0. -1.
         25    2    1    2    0    0 -0.36443575126E+02 -0.93555037869E+01  0.84581412806E+02  0.15562015226E+03  0.12509179341E+03 0.  0.
          5    1    3    3  502    0  0.38567118790E+02 -0.62620606940E+01  0.68131255791E+02  0.78650978834E+02  0.41800000000E+01 0.  1.
         -5    1    3    3    0  502 -0.75010693917E+02 -0.30934430930E+01  0.16450157015E+02  0.76969173426E+02  0.41800000000E+01 0.  1.
        -11    1    1    2    0    0 -0.16938026564E+01 -0.21444856800E+02 -0.19068668934E+02  0.28746564761E+02  0.00000000000E+00 0. -1.
         11    1    1    2    0    0  0.38137377783E+02  0.30800360587E+02  0.62362108007E+02  0.79323100743E+02  0.00000000000E+00 0.  1.
</event>
<event>
 7    1  0.2766180E-009  0.2455124E+03  0.7561462E-02  0.1116174E+00
         -2   -1    0    0    0  501 -0.00000000000E+00  0.00000000000E+00  0.73374631215E+02  0.73374631215E+02  0.00000000000E+00 0.  1.
          2   -1    0    0  501    0  0.00000000000E+00 -0.00000000000E+00 -0.87654625903E+03  0.87654625903E+03  0.00000000000E+00 0. -1.
         25    2    1    2    0    0 -0.17496575564E+03  0.14880387219E+03 -0.42469346151E+03  0.49876562376E+03  0.12508798173E+03 0.  0.
          5    1    3    3  502    0  0.18269614368E+02  0.48976498698E+01 -0.20587940408E+02  0.28268382933E+02  0.41800000000E+01 0. -1.
         -5    1    3    3    0  502 -0.19323537000E+03  0.14390622232E+03 -0.40410552110E+03  0.47049724083E+03  0.41800000000E+01 0. -1.
        -11    1    1    2    0    0  0.13630959966E+03 -0.10363595079E+03 -0.33899580711E+03  0.37978793359E+03  0.00000000000E+00 0.  1.
         11    1    1    2    0    0  0.38656155973E+02 -0.45167921395E+02 -0.39482359199E+02  0.71367332903E+02  0.00000000000E+00 0. -1.
</event>
<event>
 7    1  0.2766180E-009  0.8598950E+02  0.7561462E-02  0.1312865E+00
         -1   -1    0    0    0  501 -0.00000000000E+00  0.00000000000E+00  0.10481502739E+03  0.10481502739E+03  0.00000000000E+00 0.  1.
          1   -1    0    0  501    0  0.00000000000E+00 -0.00000000000E+00 -0.13003608738E+03  0.13003608738E+03  0.00000000000E+00 0. -1.
         25    2    1    2    0    0  0.14447905947E+02  0.25667998636E+01 -0.57296451093E+02  0.13836478564E+03  0.12508637076E+03 0.  0.
          5    1    3    3  502    0 -0.36643711747E+02 -0.24783715973E+01  0.22583242240E+02  0.43317192504E+02  0.41800000000E+01 0. -1.
         -5    1    3    3    0  502  0.51091617694E+02  0.50451714609E+01 -0.79879693332E+02  0.95047593134E+02  0.41800000000E+01 0. -1.
        -11    1    1    2    0    0 -0.10098658157E+02  0.39725568479E+02 -0.33784792789E+01  0.41128065962E+02  0.00000000000E+00 0. -1.
         11    1    1    2    0    0 -0.43492477900E+01 -0.42292368342E+02  0.35453870380E+02  0.55358263171E+02  0.00000000000E+00 0.  1.
</event>
<event>
 7    1  0.2766180E-009  0.4886277E+02  0.7561462E-02  0.1451574E+00
         -2   -1    0    0    0  501 -0.00000000000E+00  0.00000000000E+00  0.53411467386E+02  0.53411467386E+02  0.00000000000E+00 0.  1.
          2   -1    0    0  501    0  0.00000000000E+00 -0.00000000000E+00 -0.28657693523E+03  0.28657693523E+03  0.00000000000E+00 0. -1.
         25    2    1    2    0    0  0.16845834998E+02  0.97024806006E+01 -0.20833326707E+03  0.24377920927E+03  0.12509049690E+03 0.  0.
          5    1    3    3  502    0  0.11821531907E+02  0.14983923872E+01  0.15334926109E+02  0.19865199600E+02  0.41800000000E+01 0.  1.
         -5    1    3    3    0  502  0.50243030906E+01  0.82040882135E+01 -0.22366819318E+03  0.22391400967E+03  0.41800000000E+01 0.  1.
        -11    1    1    2    0    0  0.18144606337E+02 -0.29330100340E+02 -0.40449867553E+02  0.53157062655E+02  0.00000000000E+00 0. -1.
         11    1    1    2    0    0 -0.34990441335E+02  0.19627619740E+02  0.15617666781E+02  0.43052130692E+02  0.00000000000E+00 0.  1.
</event>
<event>
 7    1  0.2766180E-009  0.9099860E+02  0.7561462E-02  0.1300451E+00
         -1   -1    0    0    0  501 -0.00000000000E+00  0.00000000000E+00  0.24007943661E+03  0.24007943661E+03  0.00000000000E+00 0.  1.
          1   -1    0    0  501    0  0.00000000000E+00 -0.00000000000E+00 -0.10427533010E+03  0.10427533010E+03  0.00000000000E+00 0. -1.
         25    2    1    2    0    0  0.33043146078E+02 -0.23428747088E+02  0.19084897503E+03  0.23176150150E+03  0.12509718868E+03 0.  0.
          5    1    3    3  502    0  0.56240418064E+02 -0.12300786362E+02  0.19674490116E+03  0.20503736855E+03  0.41800000000E+01 0. -1.
         -5    1    3    3    0  502 -0.23197271986E+02 -0.11127960726E+02 -0.58959261253E+01  0.26724132959E+02  0.41800000000E+01 0. -1.
        -11    1    1    2    0    0 -0.21102277947E+01  0.54397846600E+02 -0.29689302083E+02  0.62008333587E+02  0.00000000000E+00 0.  1.
         11    1    1    2    0    0 -0.30932918284E+02 -0.30969099512E+02 -0.25355566436E+02  0.50584931624E+02  0.00000000000E+00 0. -1.
</event>
<event>
 7    1  0.3129650E-009  0.7335754E+02  0.7561462E-02  0.1349034E+00
         -1   -1    0    0    0  501 -0.00000000000E+00  0.00000000000E+00  0.22592146419E+02  0.22592146419E+02  0.00000000000E+00 0.  1.
          1   -1    0    0  501    0  0.00000000000E+00 -0.00000000000E+00 -0.61124971726E+03  0.61124971726E+03  0.00000000000E+00 0. -1.
         25    2    1    2    0    0 -0.40935207486E+02 -0.16452126573E+02 -0.30586930578E+03  0.33339067927E+03  0.12508776571E+03 0.  0.
          5    1    3    3  502    0  0.99752253800E+01  0.39981370816E+01 -0.26399267371E+03  0.26424438385E+03  0.41800000000E+01 0. -1.
         -5    1    3    3    0  502 -0.50910432866E+02 -0.20450263655E+02 -0.41876632063E+02  0.69146295426E+02  0.41800000000E+01 0. -1.
        -11    1    1    2    0    0  0.46844839323E+02  0.36420053671E+02 -0.26902216207E+03  0.27548826285E+03  0.00000000000E+00 0. -1.
         11    1    1    2    0    0 -0.59096318371E+01 -0.19967927098E+02 -0.13766102993E+02  0.24962921557E+02  0.00000000000E+00 0.  1.
</event>
<event>
 7    1  0.2766180E-009  0.9412732E+02  0.7561462E-02  0.1293154E+00
          1   -1    0    0  501    0  0.00000000000E+00  0.00000000000E+00  0.10056167998E+03  0.10056167998E+03  0.00000000000E+00 0. -1.
         -1   -1    0    0    0  501 -0.00000000000E+00 -0.00000000000E+00 -0.20182712407E+03  0.20182712407E+03  0.00000000000E+00 0.  1.
         25    2    1    2    0    0 -0.68185465546E+00  0.76602468984E+01  0.42261420371E+02  0.13225916456E+03  0.12508922676E+03 0.  0.
          5    1    3    3  502    0 -0.57340248324E+02 -0.18195085238E+02  0.34188415715E+02  0.69320165708E+02  0.41800000000E+01 0.  1.
         -5    1    3    3    0  502  0.56658393668E+02  0.25855332136E+02  0.80730046559E+01  0.62938998857E+02  0.41800000000E+01 0.  1.
        -11    1    1    2    0    0 -0.23248809742E+02 -0.26370744570E+02 -0.13363618716E+03  0.13818304470E+03  0.00000000000E+00 0.  1.
         11    1    1    2    0    0  0.23930664397E+02  0.18710497671E+02 -0.98906773030E+01  0.31946594797E+02  0.00000000000E+00 0. -1.
</event>
<event>
 7    1  0.2766180E-009  0.9964230E+02  0.7561462E-02  0.1281050E+00
         -2   -1    0    0    0  501 -0.00000000000E+00  0.00000000000E+00  0.44270482828E+02  0.44270482828E+02  0.00000000000E+00 0.  1.
          2   -1    0    0  501    0  0.00000000000E+00 -0.00000000000E+00 -0.42384193071E+03  0.42384193071E+03  0.00000000000E+00 0. -1.
         25    2    1    2    0    0  0.76717614249E+02 -0.23529976080E+02 -0.25579966541E+03  0.29583888146E+03  0.12509165780E+03 0.  0.
          5    1    3    3  502    0  0.67102828620E+02  0.41442207440E+01 -0.25753097519E+03  0.26619474028E+03  0.41800000000E+01 0. -1.
         -5    1    3    3    0  502  0.96147856293E+01 -0.27674196824E+02  0.17313097786E+01  0.29644141177E+02  0.41800000000E+01 0. -1.
        -11    1    1    2    0    0 -0.46420029882E+02  0.45426211256E+02 -0.11765960688E+03  0.13439547215E+03  0.00000000000E+00 0. -1.
         11    1    1    2    0    0 -0.30297584367E+02 -0.21896235176E+02 -0.61121755949E+01  0.37878059928E+02  0.00000000000E+00 0.  1.
</event>
<event>
 7    1  0.2766180E-009  0.1184149E+03  0.7561462E-02  0.1245735E+00
          3   -1    0    0  501    0  0.00000000000E+00  0.00000000000E+00  0.39189694408E+02  0.39189694408E+02  0.00000000000E+00 0. -1.
         -3   -1    0    0    0  501 -0.00000000000E+00 -0.00000000000E+00 -0.57005717368E+03  0.57005717368E+03  0.00000000000E+00 0.  1.
         25    2    1    2    0    0 -0.87209128069E+02 -0.25112540523E+01 -0.40023286753E+03  0.42830696994E+03  0.12509505917E+03 0.  0.
          5    1    3    3  502    0 -0.78042138500E+02  0.52127087957E+02 -0.20850147845E+03  0.22868788248E+03  0.41800000000E+01 0. -1.
         -5    1    3    3    0  502 -0.91669895688E+01 -0.54638342009E+02 -0.19173138909E+03  0.19961908746E+03  0.41800000000E+01 0. -1.
        -11    1    1    2    0    0  0.35301106871E+02  0.28754953452E+01  0.49460969606E+01  0.35761718288E+02  0.00000000000E+00 0. -1.
         11    1    1    2    0    0  0.51908021198E+02 -0.36424129288E+00 -0.13558070870E+03  0.14517817986E+03  0.00000000000E+00 0.  1.
</event>
<event>
 7    1  0.2766180E-009  0.9269269E+02  0.7561462E-02  0.1296459E+00
         -1   -1    0    0    0  501 -0.00000000000E+00  0.00000000000E+00  0.17951895473E+03  0.17951895473E+03  0.00000000000E+00 0.  1.
          1   -1    0    0  501    0  0.00000000000E+00 -0.00000000000E+00 -0.71770307476E+02  0.71770307476E+02  0.00000000000E+00 0. -1.
         25    2    1    2    0    0  0.18562305988E+02 -0.26937589336E+02  0.72695274382E+02  0.14833351618E+03  0.12509211079E+03 0.  0.
          5    1    3    3  502    0  0.13529775978E+02  0.42019635426E+02  0.64939141736E+02  0.78633765830E+02  0.41800000000E+01 0. -1.
         -5    1    3    3    0  502  0.50325300100E+01 -0.68957224762E+02  0.77561326464E+01  0.69699750350E+02  0.41800000000E+01 0. -1.
        -11    1    1    2    0    0  0.20964133866E+02  0.24399921978E+02  0.50967391936E+02  0.60270441694E+02  0.00000000000E+00 0.  1.
         11    1    1    2    0    0 -0.39526439854E+02  0.25376673586E+01 -0.15914019064E+02  0.42685304332E+02  0.00000000000E+00 0. -1.
</event>
<event>
 7    1  0.2766180E-009  0.2703045E+03  0.7561462E-02  0.1101105E+00
         -1   -1    0    0    0  501 -0.00000000000E+00  0.00000000000E+00  0.36952745467E+02  0.36952745467E+02  0.00000000000E+00 0.  1.
          1   -1    0    0  501    0  0.00000000000E+00 -0.00000000000E+00 -0.20771815091E+04  0.20771815091E+04  0.00000000000E+00 0. -1.
         25    2    1    2    0    0  0.18724018412E+03 -0.16574640204E+03 -0.12202058467E+04  0.12518316514E+04  0.12509763713E+03 0.  0.
          5    1    3    3  502    0  0.11983095084E+02  0.20299804184E+02 -0.11045089854E+03  0.11301570690E+03  0.41800000000E+01 0. -1.
         -5    1    3    3    0  502  0.17525708903E+03 -0.18604620623E+03 -0.11097549481E+04  0.11388159445E+04  0.41800000000E+01 0. -1.
        -11    1    1    2    0    0 -0.48708933151E+02  0.51960336599E+01 -0.94729779508E+02  0.10664562842E+03  0.00000000000E+00 0. -1.
         11    1    1    2    0    0 -0.13853125097E+03  0.16055036838E+03 -0.72529313750E+03  0.75565697482E+03  0.00000000000E+00 0.  1.
</event>
<event>
 7    1  0.2766180E-009  0.1086078E+03  0.7561462E-02  0.1263170E+00
          2   -1    0    0  501    0  0.00000000000E+00  0.00000000000E+00  0.16671659927E+03  0.16671659927E+03  0.00000000000E+00 0. -1.
         -2   -1    0    0    0  501 -0.00000000000E+00 -0.00000000000E+00 -0.13443196130E+03  0.13443196130E+03  0.00000000000E+00 0.  1.
         25    2    1    2    0    0 -0.91114068436E+01 -0.95465393877E+01  0.12005900743E+03  0.17388271441E+03  0.12508748520E+03 0.  0.
          5    1    3    3  502    0  0.99584805773E+01  0.55892938687E+02  0.62831106022E+02  0.84784504566E+02  0.41800000000E+01 0. -1.
         -5    1    3    3    0  502 -0.19069887421E+02 -0.65439478075E+02  0.57227901412E+02  0.89098209842E+02  0.41800000000E+01 0. -1.
        -11    1    1    2    0    0 -0.27343656582E+02  0.37252503799E+02 -0.47767700565E+02  0.66461852305E+02  0.00000000000E+00 0.  1.
         11    1    1    2    0    0  0.36455063426E+02 -0.27705964412E+02 -0.40006668895E+02  0.60803993861E+02  0.00000000000E+00 0. -1.
</event>
<event>
 7    1  0.2766180E-009  0.1224692E+03  0.7561462E-02  0.1239078E+00
         -2   -1    0    0    0  501 -0.00000000000E+00  0.00000000000E+00  0.17904290545E+03  0.17904290545E+03  0.00000000000E+00 0.  1.
          2   -1    0    0  501    0  0.00000000000E+00 -0.00000000000E+00 -0.16018980484E+03  0.16018980484E+03  0.00000000000E+00 0. -1.
         25    2    1    2    0    0 -0.75455822930E+02 -0.72865250354E+01  0.11530526594E+03  0.18625012623E+03  0.12508849071E+03 0.  0.
          5    1    3    3  502    0 -0.25086921289E+02 -0.55554187037E+02  0.13185544988E+02  0.62505618257E+02  0.41800000000E+01 0. -1.
         -5    1    3    3    0  502 -0.50368901641E+02  0.48267662001E+02  0.10211972095E+03  0.12374450798E+03  0.41800000000E+01 0. -1.
        -11    1    1    2    0    0  0.34696457589E+02 -0.39051440534E+02 -0.65980496624E+02  0.84156313558E+02  0.00000000000E+00 0. -1.
         11    1    1    2    0    0  0.40759365342E+02  0.46337965569E+02 -0.30471668712E+02  0.68826270495E+02  0.00000000000E+00 0.  1.
</event>
<event>
 7    1  0.2766180E-009  0.1215164E+03  0.7561462E-02  0.1240616E+00
         -1   -1    0    0    0  501 -0.00000000000E+00  0.00000000000E+00  0.11399648811E+03  0.11399648811E+03  0.00000000000E+00 0.  1.
          1   -1    0    0  501    0  0.00000000000E+00 -0.00000000000E+00 -0.15884234008E+03  0.15884234008E+03  0.00000000000E+00 0. -1.
         25    2    1    2    0    0 -0.16428303096E+02 -0.69246638075E+02 -0.56939848377E+02  0.15477305401E+03  0.12509023099E+03 0.  0.
          5    1    3    3  502    0  0.22860216585E+01  0.34637628897E+02 -0.42424009577E+00  0.34966321086E+02  0.41800000000E+01 0. -1.
         -5    1    3    3    0  502 -0.18714324755E+02 -0.10388426697E+03 -0.56515608281E+02  0.11980673293E+03  0.41800000000E+01 0. -1.
        -11    1    1    2    0    0 -0.19689640426E+01 -0.15543072427E+02 -0.20133413177E+02  0.25511139646E+02  0.00000000000E+00 0. -1.
         11    1    1    2    0    0  0.18397267139E+02  0.84789710502E+02  0.32227409587E+02  0.92554634535E+02  0.00000000000E+00 0.  1.
</event>
<event>
 7    1  0.2766180E-009  0.6482171E+02  0.7561462E-02  0.1378643E+00
          1   -1    0    0  501    0  0.00000000000E+00  0.00000000000E+00  0.23688011575E+03  0.23688011575E+03  0.00000000000E+00 0. -1.
         -1   -1    0    0    0  501 -0.00000000000E+00 -0.00000000000E+00 -0.57832772981E+02  0.57832772981E+02  0.00000000000E+00 0.  1.
         25    2    1    2    0    0  0.86523930181E+01 -0.54913878868E+01  0.15389414892E+03  0.19857683955E+03  0.12507730765E+03 0.  0.
          5    1    3    3  502    0 -0.14834474505E+02  0.68370345106E+01 -0.17961875194E+02  0.24635503551E+02  0.41800000000E+01 0. -1.
         -5    1    3    3    0  502  0.23486867523E+02 -0.12328422397E+02  0.17185602412E+03  0.17394133600E+03  0.41800000000E+01 0. -1.
        -11    1    1    2    0    0  0.21104372160E+02  0.36996896723E+02  0.30618398782E+02  0.52456183957E+02  0.00000000000E+00 0. -1.
         11    1    1    2    0    0 -0.29756765178E+02 -0.31505508836E+02 -0.54652049334E+01  0.43679865222E+02  0.00000000000E+00 0.  1.
</event>
<event>
 7    1  0.2766180E-009  0.1225336E+03  0.7561462E-02  0.1238975E+00
          1   -1    0    0  501    0  0.00000000000E+00  0.00000000000E+00  0.11325139779E+04  0.11325139779E+04  0.00000000000E+00 0. -1.
         -1   -1    0    0    0  501 -0.00000000000E+00 -0.00000000000E+00 -0.22943521996E+02  0.22943521996E+02  0.00000000000E+00 0.  1.
         25    2    1    2    0    0  0.58090932026E+02  0.31842406301E+02  0.94938059447E+03  0.95987443634E+03  0.12508766988E+03 0.  0.
          5    1    3    3  502    0 -0.21023555776E+02  0.50774259181E+02  0.26550326066E+03  0.27116317802E+03  0.41800000000E+01 0.  1.
         -5    1    3    3    0  502  0.79114487803E+02 -0.18931852880E+02  0.68387733381E+03  0.68871125832E+03  0.41800000000E+01 0.  1.
        -11    1    1    2    0    0 -0.75086160295E+02 -0.44522859597E+02  0.14587411735E+03  0.16999845472E+03  0.00000000000E+00 0. -1.
         11    1    1    2    0    0  0.16995228268E+02  0.12680453296E+02  0.14315744036E+02  0.25584608791E+02  0.00000000000E+00 0.  1.
</event>
<event>
 7    1  0.2766180E-009  0.1531280E+03  0.7561462E-02  0.1196681E+00
          1   -1    0    0  501    0  0.00000000000E+00  0.00000000000E+00  0.67456781110E+03  0.67456781110E+03  0.00000000000E+00 0. -1.
         -1   -1    0    0    0  501 -0.00000000000E+00 -0.00000000000E+00 -0.49410857351E+02  0.49410857351E+02  0.00000000000E+00 0.  1.
         25    2    1    2    0    0  0.38774523881E+02 -0.11725389262E+03  0.17049630878E+03  0.24488493134E+03  0.12509076407E+03 0.  0.
          5    1    3    3  502    0 -0.30551675971E+02 -0.19694845566E+02  0.98683135102E+02  0.10524792350E+03  0.41800000000E+01 0. -1.
         -5    1    3    3    0  502  0.69326199852E+02 -0.97559047052E+02  0.71813173675E+02  0.13963700785E+03  0.41800000000E+01 0. -1.
        -11    1    1    2    0    0 -0.61256927950E+02  0.50231654801E+02  0.26930888053E+03  0.28071854855E+03  0.00000000000E+00 0.  1.
         11    1    1    2    0    0  0.22482404068E+02  0.67022237817E+02  0.18535176444E+03  0.19837518856E+03  0.00000000000E+00 0. -1.
</event>
<event>
 7    1  0.2766180E-009  0.2067631E+03  0.7561462E-02  0.1144155E+00
         -2   -1    0    0    0  501 -0.00000000000E+00  0.00000000000E+00  0.45607812326E+02  0.45607812326E+02  0.00000000000E+00 0.  1.
          2   -1    0    0  501    0  0.00000000000E+00 -0.00000000000E+00 -0.10096061263E+04  0.10096061263E+04  0.00000000000E+00 0. -1.
         25    2    1    2    0    0 -0.13976100264E+03  0.12119220859E+03 -0.48286580720E+03  0.53200274380E+03  0.12508733896E+03 0.  0.
          5    1    3    3  502    0 -0.62739584547E+02 -0.45770961214E+01 -0.23722373689E+03  0.24545830404E+03  0.41800000000E+01 0. -1.
         -5    1    3    3    0  502 -0.77021418095E+02  0.12576930471E+03 -0.24564207031E+03  0.28654443977E+03  0.41800000000E+01 0. -1.
        -11    1    1    2    0    0  0.14170019609E+03 -0.82027567621E+02 -0.35119897679E+03  0.38748959821E+03  0.00000000000E+00 0.  1.
         11    1    1    2    0    0 -0.19391934495E+01 -0.39164640967E+02 -0.12993352995E+03  0.13572159658E+03  0.00000000000E+00 0. -1.
</event>
<event>
 7    1  0.2766180E-009  0.1083441E+03  0.7561462E-02  0.1263667E+00
          2   -1    0    0  501    0  0.00000000000E+00  0.00000000000E+00  0.89714797230E+03  0.89714797230E+03  0.00000000000E+00 0. -1.
         -2   -1    0    0    0  501 -0.00000000000E+00 -0.00000000000E+00 -0.33736487683E+02  0.33736487683E+02  0.00000000000E+00 0.  1.
         25    2    1    2    0    0 -0.96068496758E+02 -0.43989005968E+02  0.69561742377E+03  0.71462952668E+03  0.12509025313E+03 0.  0.
          5    1    3    3  502    0 -0.46343463798E+02 -0.39165747244E+02  0.62540878353E+03  0.62835920564E+03  0.41800000000E+01 0. -1.
         -5    1    3    3    0  502 -0.49725032959E+02 -0.48232587239E+01  0.70208640242E+02  0.86270321039E+02  0.41800000000E+01 0. -1.
        -11    1    1    2    0    0  0.50138549123E+02  0.25127243502E+02  0.18711882101E+02  0.59121798060E+02  0.00000000000E+00 0.  1.
         11    1    1    2    0    0  0.45929947635E+02  0.18861762466E+02  0.14908217874E+03  0.15713313524E+03  0.00000000000E+00 0. -1.
</event>
<event>
 7    1  0.2766180E-009  0.6111836E+02  0.7561462E-02  0.1393198E+00
          2   -1    0    0  501    0  0.00000000000E+00  0.00000000000E+00  0.95945156864E+03  0.95945156864E+03  0.00000000000E+00 0. -1.
         -2   -1    0    0    0  501 -0.00000000000E+00 -0.00000000000E+00 -0.12674816290E+02  0.12674816290E+02  0.00000000000E+00 0.  1.
         25    2    1    2    0    0 -0.15505447675E+02 -0.15609674527E+02  0.57890224875E+03  0.59267084435E+03  0.12508731068E+03 0.  0.
          5    1    3    3  502    0 -0.96120385170E+01  0.63685262439E+01  0.56609355788E+03  0.56622640179E+03  0.41800000000E+01 0.  1.
         -5    1    3    3    0  502 -0.58934091580E+01 -0.21978200771E+02  0.12808690866E+02  0.26444442560E+02  0.41800000000E+01 0.  1.
        -11    1    1    2    0    0  0.44554286256E+02 -0.12644134951E+02  0.12668036268E+03  0.13488095811E+03  0.00000000000E+00 0.  1.
         11    1    1    2    0    0 -0.29048838582E+02  0.28253809478E+02  0.24119414093E+03  0.24457458247E+03  0.00000000000E+00 0. -1.
</event>
<event>
 7    1  0.2766180E-009  0.1733655E+03  0.7561462E-02  0.1174383E+00
         -2   -1    0    0    0  501 -0.00000000000E+00  0.00000000000E+00  0.43585838109E+02  0.43585838109E+02  0.00000000000E+00 0.  1.
          2   -1    0    0  501    0  0.00000000000E+00 -0.00000000000E+00 -0.83053949749E+03  0.83053949749E+03  0.00000000000E+00 0. -1.
         25    2    1    2    0    0  0.22751271240E+02  0.14960594273E+03 -0.50233494061E+03  0.53933977609E+03  0.12508974010E+03 0.  0.
          5    1    3    3  502    0  0.34066018047E+02  0.15802143732E+03 -0.34168186258E+03  0.37801486194E+03  0.41800000000E+01 0. -1.
         -5    1    3    3    0  502 -0.11314746807E+02 -0.84154945871E+01 -0.16065307803E+03  0.16132491415E+03  0.41800000000E+01 0. -1.
        -11    1    1    2    0    0  0.27948013360E+02 -0.75690745451E+02 -0.17843266402E+03  0.19582746484E+03  0.00000000000E+00 0. -1.
         11    1    1    2    0    0 -0.50699284600E+02 -0.73915197278E+02 -0.10618605475E+03  0.13895809466E+03  0.00000000000E+00 0.  1.
</event>
<event>
 7    1  0.2766180E-009  0.1199729E+03  0.7561462E-02  0.1243142E+00
         -1   -1    0    0    0  501 -0.00000000000E+00  0.00000000000E+00  0.12951478067E+03  0.12951478067E+03  0.00000000000E+00 0.  1.
          1   -1    0    0  501    0  0.00000000000E+00 -0.00000000000E+00 -0.12386490640E+03  0.12386490640E+03  0.00000000000E+00 0. -1.
         25    2    1    2    0    0  0.49889557671E+02  0.34095303053E+02  0.28166117913E+02  0.14174628593E+03  0.12508885531E+03 0.  0.
          5    1    3    3  502    0  0.88224838699E+02  0.70977431980E+01  0.32711192010E+02  0.94453663798E+02  0.41800000000E+01 0. -1.
         -5    1    3    3    0  502 -0.38335281028E+02  0.26997559855E+02 -0.45450740974E+01  0.47292622133E+02  0.41800000000E+01 0. -1.
        -11    1    1    2    0    0 -0.44370997845E+02 -0.61763982502E+02 -0.31069673767E+02  0.82151686607E+02  0.00000000000E+00 0. -1.
         11    1    1    2    0    0 -0.55185598261E+01  0.27668679449E+02  0.85534301163E+01  0.29481714532E+02  0.00000000000E+00 0.  1.
</event>
<event>
 6    1  0.2766180E-009  0.1489964E+03  0.7561462E-02  0.1201712E+00
          2   -1    0    0  501    0  0.00000000000E+00  0.00000000000E+00  0.17404362361E+03  0.17404362361E+03  0.00000000000E+00 0. -1.
         -2   -1    0    0    0  501 -0.00000000000E+00 -0.00000000000E+00 -0.16037360012E+03  0.16037360012E+03  0.00000000000E+00 0.  1.
          5    1    1    2  502    0 -0.54486802829E+02 -0.28135306604E+02 -0.47018168476E+02  0.77385965957E+02  0.41800000000E+01 0.  1.
         -5    1    1    2    0  502 -0.43469013884E+02  0.88632152336E+02  0.53538631121E+00  0.98807755942E+02  0.41800000000E+01 0.  1.
        -11    1    1    2    0    0  0.44005447159E+02 -0.70252275576E+02  0.92502599744E+01  0.83411203761E+02  0.00000000000E+00 0.  1.
         11    1    1    2    0    0  0.53950369553E+02  0.97554298437E+01  0.50902545674E+02  0.74812298069E+02  0.00000000000E+00 0. -1.
</event>
<event>
 7    1  0.2766180E-009  0.1081785E+03  0.7561462E-02  0.1263981E+00
         -1   -1    0    0    0  501 -0.00000000000E+00  0.00000000000E+00  0.89954327770E+02  0.89954327770E+02  0.00000000000E+00 0.  1.
          1   -1    0    0  501    0  0.00000000000E+00 -0.00000000000E+00 -0.17280447886E+03  0.17280447886E+03  0.00000000000E+00 0. -1.
         25    2    1    2    0    0 -0.21088048380E+02  0.52480293008E+02 -0.73193841333E+02  0.15557363788E+03  0.12508769506E+03 0.  0.
          5    1    3    3  502    0  0.11906095965E+02  0.71438497688E+02  0.48175325123E+00  0.72545975487E+02  0.41800000000E+01 0.  1.
         -5    1    3    3    0  502 -0.32994144345E+02 -0.18958204680E+02 -0.73675594584E+02  0.83027662397E+02  0.41800000000E+01 0.  1.
        -11    1    1    2    0    0  0.55597265206E+02 -0.23086871144E+02  0.25029236144E+01  0.60252171282E+02  0.00000000000E+00 0.  1.
         11    1    1    2    0    0 -0.34509216825E+02 -0.29393421864E+02 -0.12159233369E+02  0.46932997463E+02  0.00000000000E+00 0. -1.
</event>
<event>
 7    1  0.2766180E-009  0.1195172E+03  0.7561462E-02  0.1243896E+00
         -2   -1    0    0    0  501 -0.00000000000E+00  0.00000000000E+00  0.13492031669E+03  0.13492031669E+03  0.00000000000E+00 0.  1.
          2   -1    0    0  501    0  0.00000000000E+00 -0.00000000000E+00 -0.11080221112E+03  0.11080221112E+03  0.00000000000E+00 0. -1.
         25    2    1    2    0    0  0.50590537585E+02 -0.12334689053E+02  0.12218098166E+02  0.13604665021E+03  0.12509141483E+03 0.  0.
          5    1    3    3  502    0  0.43015829575E+01 -0.64331194218E+02 -0.29420134925E+01  0.64677152139E+02  0.41800000000E+01 0.  1.
         -5    1    3    3    0  502  0.46288954627E+02  0.51996505165E+02  0.15160111659E+02  0.71369498074E+02  0.41800000000E+01 0.  1.
        -11    1    1    2    0    0  0.26565872759E+02  0.62249355972E+01  0.16936085157E+02  0.32114270957E+02  0.00000000000E+00 0. -1.
         11    1    1    2    0    0 -0.77156410344E+02  0.61097534562E+01 -0.50360777551E+01  0.77561606634E+02  0.00000000000E+00 0.  1.
</event>
<event>
 7    1  0.2766180E-009  0.1023242E+03  0.7561462E-02  0.1275483E+00
          2   -1    0    0  501    0  0.00000000000E+00  0.00000000000E+00  0.31688089061E+02  0.31688089061E+02  0.00000000000E+00 0. -1.
         -2   -1    0    0    0  501 -0.00000000000E+00 -0.00000000000E+00 -0.42270604273E+03  0.42270604273E+03  0.00000000000E+00 0.  1.
         25    2    1    2    0    0 -0.30010432879E+02 -0.53383985836E+01 -0.18613651111E+03  0.22631688806E+03  0.12507361223E+03 0.  0.
          5    1    3    3  502    0 -0.22624559433E+01  0.48475134701E+02 -0.14509471359E+03  0.15305197059E+03  0.41800000000E+01 0.  1.
         -5    1    3    3    0  502 -0.27747976936E+02 -0.53813533284E+02 -0.41041797516E+02  0.73264917470E+02  0.41800000000E+01 0.  1.
        -11    1    1    2    0    0  0.16884160243E+02 -0.42453992812E+02 -0.63258800889E+02  0.78032635882E+02  0.00000000000E+00 0. -1.
         11    1    1    2    0    0  0.13126272636E+02  0.47792391395E+02 -0.14162264168E+03  0.15004460785E+03  0.00000000000E+00 0.  1.
</event>
<event>
 7    1  0.2766180E-009  0.3286496E+03  0.7561462E-02  0.1071736E+00
         -4   -1    0    0    0  501 -0.00000000000E+00  0.00000000000E+00  0.28812141180E+03  0.28812141180E+03  0.00000000000E+00 0.  1.
          4   -1    0    0  501    0  0.00000000000E+00 -0.00000000000E+00 -0.81063328354E+03  0.81063328354E+03  0.00000000000E+00 0. -1.
         25    2    1    2    0    0 -0.70993127502E+02 -0.30329041494E+03 -0.66483209054E+03  0.74476318535E+03  0.12508154818E+03 0.  0.
          5    1    3    3  502    0  0.29979499759E+02 -0.12418036985E+03 -0.21448342520E+03  0.24968008881E+03  0.41800000000E+01 0. -1.
         -5    1    3    3    0  502 -0.10097262726E+03 -0.17911004508E+03 -0.45034866534E+03  0.49508309654E+03  0.41800000000E+01 0. -1.
        -11    1    1    2    0    0  0.19733035371E+02  0.24664755241E+03  0.11506221306E+03  0.27288041459E+03  0.00000000000E+00 0. -1.
         11    1    1    2    0    0  0.51260092131E+02  0.56642862530E+02  0.27258005740E+02  0.81111095405E+02  0.00000000000E+00 0.  1.
</event>
<event>
 7    1  0.2766180E-009  0.6709251E+02  0.7561462E-02  0.1370269E+00
         -1   -1    0    0    0  501 -0.00000000000E+00  0.00000000000E+00  0.33805883340E+03  0.33805883340E+03  0.00000000000E+00 0.  1.
          1   -1    0    0  501    0  0.00000000000E+00 -0.00000000000E+00 -0.40990871149E+02  0.40990871149E+02  0.00000000000E+00 0. -1.
         25    2    1    2    0    0 -0.35646678239E+02 -0.14766476421E+02  0.12479806975E+03  0.18086395983E+03  0.12509388178E+03 0.  0.
          5    1    3    3  502    0 -0.40624920453E+02 -0.16694678598E+02  0.14917444938E+03  0.15556215865E+03  0.41800000000E+01 0.  1.
         -5    1    3    3    0  502  0.49782422143E+01  0.19282021773E+01 -0.24376379632E+02  0.25301801184E+02  0.41800000000E+01 0.  1.
        -11    1    1    2    0    0 -0.23088474438E+02  0.19747692624E+01  0.10183508572E+02  0.25311681342E+02  0.00000000000E+00 0. -1.
         11    1    1    2    0    0  0.58735152677E+02  0.12791707159E+02  0.16208638393E+03  0.17287406337E+03  0.00000000000E+00 0.  1.
</event>
<event>
 7    1  0.2766180E-009  0.1566607E+03  0.7561462E-02  0.1192519E+00
         -2   -1    0    0    0  501 -0.00000000000E+00  0.00000000000E+00  0.11675657039E+03  0.11675657039E+03  0.00000000000E+00 0.  1.
          2   -1    0    0  501    0  0.00000000000E+00 -0.00000000000E+00 -0.26342835211E+03  0.26342835211E+03  0.00000000000E+00 0. -1.
         25    2    1    2    0    0  0.46549162776E+02  0.99070210678E+02 -0.11236275338E+02  0.16660082746E+03  0.12509136912E+03 0.  0.
          5    1    3    3  502    0  0.51649086624E+02 -0.13423078106E+02 -0.43224402600E+01  0.53702542442E+02  0.41800000000E+01 0. -1.
         -5    1    3    3    0  502 -0.50999238487E+01  0.11249328878E+03 -0.69138350782E+01  0.11289828502E+03  0.41800000000E+01 0. -1.
        -11    1    1    2    0    0 -0.24794836479E+02 -0.11657595720E+03 -0.14150471724E+03  0.18500898009E+03  0.00000000000E+00 0. -1.
         11    1    1    2    0    0 -0.21754326297E+02  0.17505746526E+02  0.60692108550E+01  0.28575114951E+02  0.00000000000E+00 0.  1.
</event>
<event>
 7    1  0.2766180E-009  0.1243114E+03  0.7561462E-02  0.1236149E+00
          1   -1    0    0  501    0  0.00000000000E+00  0.00000000000E+00  0.47500221491E+03  0.47500221491E+03  0.00000000000E+00 0. -1.
         -1   -1    0    0    0  501 -0.00000000000E+00 -0.00000000000E+00 -0.54953615888E+02  0.54953615888E+02  0.00000000000E+00 0.  1.
         25    2    1    2    0    0 -0.37548584634E+01 -0.67003789759E+02  0.38763229755E+03  0.41280816933E+03  0.12509268469E+03 0.  0.
          5    1    3    3  502    0  0.44086855630E+02 -0.79744160614E+02  0.27412988838E+03  0.28890733825E+03  0.41800000000E+01 0.  1.
         -5    1    3    3    0  502 -0.47841714093E+02  0.12740370854E+02  0.11350240917E+03  0.12390083109E+03  0.41800000000E+01 0.  1.
        -11    1    1    2    0    0 -0.40186049295E+02  0.28123098465E+02  0.31829627219E+02  0.58471808541E+02  0.00000000000E+00 0. -1.
         11    1    1    2    0    0  0.43940907758E+02  0.38880691294E+02  0.58667426142E+00  0.58675852928E+02  0.00000000000E+00 0.  1.
</event>
<event>
 7    1  0.2766180E-009  0.6829275E+02  0.7561462E-02  0.1365997E+00
          1   -1    0    0  501    0  0.00000000000E+00  0.00000000000E+00  0.52104967900E+03  0.52104967900E+03  0.00000000000E+00 0. -1.
         -1   -1    0    0    0  501 -0.00000000000E+00 -0.00000000000E+00 -0.25047472476E+02  0.25047472476E+02  0.00000000000E+00 0.  1.
         25    2    1    2    0    0  0.10037731138E+02 -0.32957133435E+00  0.18607568653E+03  0.22443703463E+03  0.12508779610E+03 0.  0.
          5    1    3    3  502    0  0.13237449656E+02 -0.24214954445E+02 -0.78344735773E+01  0.28990437534E+02  0.41800000000E+01 0. -1.
         -5    1    3    3    0  502 -0.31997185175E+01  0.23885383111E+02  0.19391016011E+03  0.19544659710E+03  0.41800000000E+01 0. -1.
        -11    1    1    2    0    0  0.28959262768E+02 -0.24543776911E+02  0.10716758951E+03  0.11369225183E+03  0.00000000000E+00 0.  1.
         11    1    1    2    0    0 -0.38996993906E+02  0.24873348246E+02  0.20275893049E+03  0.20796786502E+03  0.00000000000E+00 0. -1.
</event>
<event>
 7    1  0.2766180E-009  0.1162406E+03  0.7561462E-02  0.1249431E+00
          2   -1    0    0  501    0  0.00000000000E+00  0.00000000000E+00  0.50632547619E+03  0.50632547619E+03  0.00000000000E+00 0.  1.
         -2   -1    0    0    0  501 -0.00000000000E+00 -0.00000000000E+00 -0.31770095581E+02  0.31770095581E+02  0.00000000000E+00 0. -1.
         25    2    1    2    0    0 -0.23750577782E+00  0.53160572936E+02  0.35014105969E+03  0.37559238322E+03  0.12507906990E+03 0.  0.
          5    1    3    3  502    0  0.59303022778E+02  0.47184504850E+02  0.19898544685E+03  0.21296926179E+03  0.41800000000E+01 0. -1.
         -5    1    3    3    0  502 -0.59540528556E+02  0.59760680863E+01  0.15115561284E+03  0.16262312143E+03  0.41800000000E+01 0. -1.
        -11    1    1    2    0    0  0.73057191410E+01  0.20930526507E+02  0.60377798279E+02  0.64319040703E+02  0.00000000000E+00 0.  1.
         11    1    1    2    0    0 -0.70682133632E+01 -0.74091099443E+02  0.64036522637E+02  0.98184147846E+02  0.00000000000E+00 0. -1.
</event>
<event>
 7    1  0.2766180E-009  0.1326787E+03  0.7561462E-02  0.1223534E+00
          1   -1    0    0  501    0  0.00000000000E+00  0.00000000000E+00  0.21072913065E+03  0.21072913065E+03  0.00000000000E+00 0. -1.
         -1   -1    0    0    0  501 -0.00000000000E+00 -0.00000000000E+00 -0.11025405430E+03  0.11025405430E+03  0.00000000000E+00 0.  1.
         25    2    1    2    0    0 -0.65904109599E+02 -0.56075732268E+02 -0.11759018575E+02  0.15255506886E+03  0.12508770965E+03 0.  0.
          5    1    3    3  502    0 -0.34449906577E+02  0.38214736497E+02 -0.12308311095E+02  0.53067212765E+02  0.41800000000E+01 0.  1.
         -5    1    3    3    0  502 -0.31454203022E+02 -0.94290468765E+02  0.54929251994E+00  0.99487856093E+02  0.41800000000E+01 0.  1.
        -11    1    1    2    0    0 -0.16806766050E+02  0.85136200982E+01  0.52700898163E+02  0.55967256315E+02  0.00000000000E+00 0. -1.
         11    1    1    2    0    0  0.82710875649E+02  0.47562112170E+02  0.59533196770E+02  0.11246085978E+03  0.00000000000E+00 0.  1.
</event>
<event>
 7    1  0.2766180E-009  0.7035759E+02  0.7561462E-02  0.1358881E+00
          2   -1    0    0  501    0  0.00000000000E+00  0.00000000000E+00  0.71905497601E+02  0.71905497601E+02  0.00000000000E+00 0. -1.
         -2   -1    0    0    0  501 -0.00000000000E+00 -0.00000000000E+00 -0.19071643561E+03  0.19071643561E+03  0.00000000000E+00 0.  1.
         25    2    1    2    0    0  0.79763308368E+01 -0.23863718689E+01 -0.15940248703E+02  0.12637978942E+03  0.12509373693E+03 0.  0.
          5    1    3    3  502    0 -0.13151470778E+02 -0.22830603942E+02 -0.64309051417E+02  0.69622727281E+02  0.41800000000E+01 0.  1.
         -5    1    3    3    0  502  0.21127801615E+02  0.20444232073E+02  0.48368802714E+02  0.56757062135E+02  0.41800000000E+01 0.  1.
        -11    1    1    2    0    0 -0.36978730605E+02  0.27415757475E+02 -0.33278585211E+02  0.56802416399E+02  0.00000000000E+00 0.  1.
         11    1    1    2    0    0  0.29002399768E+02 -0.25029385607E+02 -0.69592104093E+02  0.79439727393E+02  0.00000000000E+00 0. -1.
</event>
<event>
 7    1  0.2766180E-009  0.1019318E+03  0.7561462E-02  0.1276285E+00
          3   -1    0    0  501    0  0.00000000000E+00  0.00000000000E+00  0.39865448728E+02  0.39865448728E+02  0.00000000000E+00 0. -1.
         -3   -1    0    0    0  501 -0.00000000000E+00 -0.00000000000E+00 -0.41938820067E+03  0.41938820067E+03  0.00000000000E+00 0.  1.
         25    2    1    2    0    0  0.48244004566E+02 -0.33460540443E+01 -0.29850717558E+03  0.32725014333E+03  0.12508973732E+03 0.  0.
          5    1    3    3  502    0 -0.12918958621E+02 -0.32605403111E+02 -0.22260380082E+03  0.22538841217E+03  0.41800000000E+01 0. -1.
         -5    1    3    3    0  502  0.61162963187E+02  0.29259349067E+02 -0.75903374767E+02  0.10186173116E+03  0.41800000000E+01 0. -1.
        -11    1    1    2    0    0  0.24769848031E+02  0.11189229343E+02 -0.38571432682E+02  0.47185799176E+02  0.00000000000E+00 0.  1.
         11    1    1    2    0    0 -0.73013852597E+02 -0.78431752982E+01 -0.42444143680E+02  0.84817706893E+02  0.00000000000E+00 0. -1.
</event>
<event>
 7    1  0.2766180E-009  0.1212518E+03  0.7561462E-02  0.1241046E+00
         -1   -1    0    0    0  501 -0.00000000000E+00  0.00000000000E+00  0.14356659453E+02  0.14356659453E+02  0.00000000000E+00 0.  1.
          1   -1    0    0  501    0  0.00000000000E+00 -0.00000000000E+00 -0.10868304958E+04  0.10868304958E+04  0.00000000000E+00 0. -1.
         25    2    1    2    0    0 -0.45785293381E+02 -0.39944950835E+02 -0.53731917252E+03  0.55502336719E+03  0.12508857975E+03 0.  0.
          5    1    3    3  502    0 -0.19869430929E+02 -0.81900411250E+02 -0.26081065757E+03  0.27412067261E+03  0.41800000000E+01 0.  1.
         -5    1    3    3    0  502 -0.25915862452E+02  0.41955460415E+02 -0.27650851495E+03  0.28090269458E+03  0.41800000000E+01 0.  1.
        -11    1    1    2    0    0  0.72559081894E+02  0.20055750227E+02 -0.39343797970E+03  0.40057520811E+03  0.00000000000E+00 0.  1.
         11    1    1    2    0    0 -0.26773788513E+02  0.19889200608E+02 -0.14171668413E+03  0.14558857996E+03  0.00000000000E+00 0. -1.
</event>
<event>
 7    1  0.2766180E-009  0.1244326E+03  0.7561462E-02  0.1235959E+00
         -2   -1    0    0    0  501 -0.00000000000E+00  0.00000000000E+00  0.87825423275E+02  0.87825423275E+02  0.00000000000E+00 0.  1.
          2   -1    0    0  501    0  0.00000000000E+00 -0.00000000000E+00 -0.32019887039E+03  0.32019887039E+03  0.00000000000E+00 0. -1.
         25    2    1    2    0    0 -0.76155577564E+01 -0.11391426867E+03 -0.53459962137E+02  0.17759766400E+03  0.12509398618E+03 0.  0.
          5    1    3    3  502    0 -0.24942800068E+01  0.56459023980E+01 -0.57310210102E+02  0.57792994633E+02  0.41800000000E+01 0. -1.
         -5    1    3    3    0  502 -0.51212777497E+01 -0.11956017107E+03  0.38502479649E+01  0.11980466937E+03  0.41800000000E+01 0. -1.
        -11    1    1    2    0    0 -0.14362500838E+02  0.16822668236E+02 -0.10269689031E+03  0.10505205793E+03  0.00000000000E+00 0. -1.
         11    1    1    2    0    0  0.21978058594E+02  0.97091600437E+02 -0.76216594671E+02  0.12537457174E+03  0.00000000000E+00 0.  1.
</event>
<event>
 7    1  0.2766180E-009  0.1015272E+03  0.7561462E-02  0.1277117E+00
          4   -1    0    0  501    0  0.00000000000E+00  0.00000000000E+00  0.22282310658E+04  0.22282310658E+04  0.00000000000E+00 0. -1.
         -4   -1    0    0    0  501 -0.00000000000E+00 -0.00000000000E+00 -0.10783533615E+02  0.10783533615E+02  0.00000000000E+00 0.  1.
         25    2    1    2    0    0 -0.22396839176E+02 -0.26054956419E+02  0.19429943832E+04  0.19473200580E+04  0.12509099068E+03 0.  0.
          5    1    3    3  502    0  0.45612242873E+02 -0.37630967048E+02  0.10373002636E+04  0.10389927216E+04  0.41800000000E+01 0.  1.
         -5    1    3    3    0  502 -0.68009082049E+02  0.11576010629E+02  0.90569411959E+03  0.90832733633E+03  0.41800000000E+01 0.  1.
        -11    1    1    2    0    0  0.25377874938E+02 -0.17613438336E+02  0.29004329175E+02  0.42373586788E+02  0.00000000000E+00 0.  1.
         11    1    1    2    0    0 -0.29810357623E+01  0.43668394755E+02  0.24544881980E+03  0.24932095463E+03  0.00000000000E+00 0. -1.
</event>
<event>
 7    1  0.2766180E-009  0.9266798E+02  0.7561462E-02  0.1296516E+00
         -1   -1    0    0    0  501 -0.00000000000E+00  0.00000000000E+00  0.24430210571E+02  0.24430210571E+02  0.00000000000E+00 0.  1.
          1   -1    0    0  501    0  0.00000000000E+00 -0.00000000000E+00 -0.55634482694E+03  0.55634482694E+03  0.00000000000E+00 0. -1.
         25    2    1    2    0    0 -0.25316062300E+02 -0.35391196552E+02 -0.30107964993E+03  0.32892206530E+03  0.12508928663E+03 0.  0.
          5    1    3    3  502    0 -0.70449912678E+01  0.23984413189E+02 -0.24123085112E+03  0.24255861129E+03  0.41800000000E+01 0. -1.
         -5    1    3    3    0  502 -0.18271071032E+02 -0.59375609741E+02 -0.59848798815E+02  0.86363454009E+02  0.41800000000E+01 0. -1.
        -11    1    1    2    0    0 -0.20011746803E+02 -0.18538334135E+02 -0.94961963615E+02  0.98802400660E+02  0.00000000000E+00 0. -1.
         11    1    1    2    0    0  0.45327809103E+02  0.53929530687E+02 -0.13587300282E+03  0.15305057156E+03  0.00000000000E+00 0.  1.
</event>
<event>
 7    1  0.2766180E-009  0.1421524E+03  0.7561462E-02  0.1210462E+00
          2   -1    0    0  501    0  0.00000000000E+00  0.00000000000E+00  0.11263292267E+04  0.11263292267E+04  0.00000000000E+00 0. -1.
         -2   -1    0    0    0  501 -0.00000000000E+00 -0.00000000000E+00 -0.17967601212E+02  0.17967601212E+02  0.00000000000E+00 0.  1.
         25    2    1    2    0    0 -0.28398871534E+02  0.89883610951E+02  0.60289632464E+03  0.62291027484E+03  0.12509065841E+03 0.  0.
          5    1    3    3  502    0  0.49578236801E+02  0.39319643813E+02  0.22964641889E+03  0.23824144489E+03  0.41800000000E+01 0.  1.
         -5    1    3    3    0  502 -0.77977108335E+02  0.50563967138E+02  0.37324990575E+03  0.38466882995E+03  0.41800000000E+01 0.  1.
        -11    1    1    2    0    0 -0.29878222322E+02 -0.46232658384E+02  0.21941224770E+03  0.22621207155E+03  0.00000000000E+00 0. -1.
         11    1    1    2    0    0  0.58277093856E+02 -0.43650952567E+02  0.28605305316E+03  0.29517448153E+03  0.00000000000E+00 0.  1.
</event>
<event>
 7    1  0.2766180E-009  0.1209962E+03  0.7561462E-02  0.1241463E+00
         -2   -1    0    0    0  501 -0.00000000000E+00  0.00000000000E+00  0.25635513136E+02  0.25635513136E+02  0.00000000000E+00 0.  1.
          2   -1    0    0  501    0  0.00000000000E+00 -0.00000000000E+00 -0.91150966660E+03  0.91150966660E+03  0.00000000000E+00 0. -1.
         25    2    1    2    0    0 -0.73991706010E+01  0.10373712556E+03 -0.38674665672E+03  0.41956778776E+03  0.12509201851E+03 0.  0.
          5    1    3    3  502    0  0.12859657561E+02  0.31663831323E+02 -0.10607023405E+02  0.36027078041E+02  0.41800000000E+01 0.  1.
         -5    1    3    3    0  502 -0.20258828162E+02  0.72073294237E+02 -0.37613963332E+03  0.38354070972E+03  0.41800000000E+01 0.  1.
        -11    1    1    2    0    0  0.32212326290E+02 -0.73377993630E+01 -0.75496095490E+02  0.82408359399E+02  0.00000000000E+00 0. -1.
         11    1    1    2    0    0 -0.24813155689E+02 -0.96399326198E+02 -0.42363140125E+03  0.43516903257E+03  0.00000000000E+00 0.  1.
</event>
<event>
 7    1  0.2766180E-009  0.2598393E+03  0.7561462E-02  0.1107240E+00
         -2   -1    0    0    0  501 -0.00000000000E+00  0.00000000000E+00  0.15041347801E+03  0.15041347801E+03  0.00000000000E+00 0. -1.
          2   -1    0    0  501    0  0.00000000000E+00 -0.00000000000E+00 -0.48408480734E+03  0.48408480734E+03  0.00000000000E+00 0.  1.
         25    2    1    2    0    0  0.13583273632E+03 -0.20435464786E+03 -0.10659301518E+03  0.29533426155E+03  0.12509556667E+03 0.  0.
          5    1    3    3  502    0 -0.19384547862E+02 -0.16272901876E+02 -0.30482087146E+02  0.39839654467E+02  0.41800000000E+01 0. -1.
         -5    1    3    3    0  502  0.15521728418E+03 -0.18808174599E+03 -0.76110928035E+02  0.25549460708E+03  0.41800000000E+01 0. -1.
        -11    1    1    2    0    0 -0.25941345474E+02  0.11961569054E+02 -0.40170931911E+02  0.49292355490E+02  0.00000000000E+00 0.  1.
         11    1    1    2    0    0 -0.10989139084E+03  0.19239307881E+03 -0.18690738224E+03  0.28987166831E+03  0.00000000000E+00 0. -1.
</event>
<event>
 7    1  0.2766180E-009  0.1750353E+03  0.7561462E-02  0.1172696E+00
         -2   -1    0    0    0  501 -0.00000000000E+00  0.00000000000E+00  0.54949397408E+03  0.54949397408E+03  0.00000000000E+00 0.  1.
          2   -1    0    0  501    0  0.00000000000E+00 -0.00000000000E+00 -0.87951902899E+02  0.87951902899E+02  0.00000000000E+00 0. -1.
         25    2    1    2    0    0 -0.38871894309E+02  0.14634000704E+03  0.40751488961E+03  0.45237366944E+03  0.12508848756E+03 0.  0.
          5    1    3    3  502    0  0.27459636568E+02  0.28175446245E+02  0.20423433357E+03  0.20803130250E+03  0.41800000000E+01 0. -1.
         -5    1    3    3    0  502 -0.66331530877E+02  0.11816456080E+03  0.20328055604E+03  0.24434236694E+03  0.41800000000E+01 0. -1.
        -11    1    1    2    0    0 -0.14872560592E+02  0.38944459547E+01 -0.29337577448E+01  0.15651412153E+02  0.00000000000E+00 0.  1.
         11    1    1    2    0    0  0.53744454901E+02 -0.15023445300E+03  0.56960939314E+02  0.16942079538E+03  0.00000000000E+00 0. -1.
</event>
<event>
 7    1  0.2766180E-009  0.1125692E+03  0.7561462E-02  0.1255885E+00
          2   -1    0    0  501    0  0.00000000000E+00  0.00000000000E+00  0.48657870570E+02  0.48657870570E+02  0.00000000000E+00 0. -1.
         -2   -1    0    0    0  501 -0.00000000000E+00 -0.00000000000E+00 -0.30871270542E+03  0.30871270542E+03  0.00000000000E+00 0.  1.
         25    2    1    2    0    0  0.57422385467E+02  0.48701962173E+01 -0.12835239387E+03  0.18826121295E+03  0.12508756183E+03 0.  0.
          5    1    3    3  502    0  0.20663368888E+02 -0.51751606597E+02 -0.17777641994E+02  0.58640604994E+02  0.41800000000E+01 0.  1.
         -5    1    3    3    0  502  0.36759016579E+02  0.56621802814E+02 -0.11057475188E+03  0.12962060796E+03  0.41800000000E+01 0.  1.
        -11    1    1    2    0    0  0.18040199805E+02  0.15138745762E+02 -0.12624996776E+02  0.26721170929E+02  0.00000000000E+00 0. -1.
         11    1    1    2    0    0 -0.75462585272E+02 -0.20008941979E+02 -0.11907744420E+03  0.14238819211E+03  0.00000000000E+00 0.  1.
</event>
<event>
 7    1  0.2766180E-009  0.1592553E+03  0.7561462E-02  0.1189540E+00
         -2   -1    0    0    0  501 -0.00000000000E+00  0.00000000000E+00  0.37356786721E+02  0.37356786721E+02  0.00000000000E+00 0.  1.
          2   -1    0    0  501    0  0.00000000000E+00 -0.00000000000E+00 -0.89639892112E+03  0.89639892112E+03  0.00000000000E+00 0. -1.
         25    2    1    2    0    0  0.11639408217E+03 -0.22887151029E+02 -0.23096864734E+03  0.28821245430E+03  0.12509395955E+03 0.  0.
          5    1    3    3  502    0  0.14201516146E+03 -0.29820577730E+02 -0.20126991697E+03  0.24816249680E+03  0.41800000000E+01 0. -1.
         -5    1    3    3    0  502 -0.25621079297E+02  0.69334267013E+01 -0.29698730370E+02  0.40049957500E+02  0.41800000000E+01 0. -1.
        -11    1    1    2    0    0 -0.67322530880E+02  0.55749880154E+02 -0.43261280028E+03  0.44135496742E+03  0.00000000000E+00 0.  1.
         11    1    1    2    0    0 -0.49071551286E+02 -0.32862729125E+02 -0.19546068678E+03  0.20418828612E+03  0.00000000000E+00 0. -1.
</event>
<event>
 7    1  0.2766180E-009  0.9024843E+02  0.7561462E-02  0.1302251E+00
         -3   -1    0    0    0  501 -0.00000000000E+00  0.00000000000E+00  0.14297452283E+03  0.14297452283E+03  0.00000000000E+00 0.  1.
          3   -1    0    0  501    0  0.00000000000E+00 -0.00000000000E+00 -0.10639982148E+03  0.10639982148E+03  0.00000000000E+00 0. -1.
         25    2    1    2    0    0 -0.27773732999E+02 -0.45242105102E+02 -0.49159162535E-01  0.13589169947E+03  0.12509325821E+03 0.  0.
          5    1    3    3  502    0 -0.40326714847E+02 -0.12984775490E+02  0.55719636615E+02  0.70121313660E+02  0.41800000000E+01 0.  1.
         -5    1    3    3    0  502  0.12552981848E+02 -0.32257329612E+02 -0.55768795778E+02  0.65770385809E+02  0.41800000000E+01 0.  1.
        -11    1    1    2    0    0  0.59807835546E+02  0.35623335930E+02  0.39279297997E+02  0.79930360356E+02  0.00000000000E+00 0. -1.
         11    1    1    2    0    0 -0.32034102547E+02  0.96187691715E+01 -0.26554374840E+01  0.33552284492E+02  0.00000000000E+00 0.  1.
</event>
<event>
 7    1  0.2766180E-009  0.1692267E+03  0.7561462E-02  0.1178657E+00
          1   -1    0    0  501    0  0.00000000000E+00  0.00000000000E+00  0.84917756569E+03  0.84917756569E+03  0.00000000000E+00 0. -1.
         -1   -1    0    0    0  501 -0.00000000000E+00 -0.00000000000E+00 -0.53257164165E+02  0.53257164165E+02  0.00000000000E+00 0.  1.
         25    2    1    2    0    0 -0.32091435491E+02  0.13805140573E+03  0.65928787530E+03  0.68585348546E+03  0.12508577117E+03 0.  0.
          5    1    3    3  502    0  0.28917446596E+02  0.12234892645E+03  0.44990457438E+03  0.46715851375E+03  0.41800000000E+01 0. -1.
         -5    1    3    3    0  502 -0.61008882087E+02  0.15702479280E+02  0.20938330092E+03  0.21869497171E+03  0.41800000000E+01 0. -1.
        -11    1    1    2    0    0  0.15176780418E+02 -0.12984347366E+03  0.71945386421E+02  0.14921729438E+03  0.00000000000E+00 0.  1.
         11    1    1    2    0    0  0.16914655074E+02 -0.82079320700E+01  0.64687139804E+02  0.67363950011E+02  0.00000000000E+00 0. -1.
</event>
<event>
 7    1  0.2766180E-009  0.8885454E+02  0.7561462E-02  0.1305650E+00
          3   -1    0    0  501    0  0.00000000000E+00  0.00000000000E+00  0.36997313767E+03  0.36997313767E+03  0.00000000000E+00 0. -1.
         -3   -1    0    0    0  501 -0.00000000000E+00 -0.00000000000E+00 -0.39410091490E+02  0.39410091490E+02  0.00000000000E+00 0.  1.
         25    2    1    2    0    0 -0.22027443403E+02 -0.47425187312E+02  0.16982448858E+03  0.21730483874E+03  0.12508668740E+03 0.  0.
          5    1    3    3  502    0 -0.31932716319E+02 -0.86685964878E+01 -0.85681508235E+01  0.34434409319E+02  0.41800000000E+01 0. -1.
         -5    1    3    3    0  502  0.99052729159E+01 -0.38756590824E+02  0.17839263940E+03  0.18287042942E+03  0.41800000000E+01 0. -1.
        -11    1    1    2    0    0 -0.34615054918E+02  0.27090222748E+02  0.81244380368E+02  0.92372785694E+02  0.00000000000E+00 0. -1.
         11    1    1    2    0    0  0.56642498322E+02  0.20334964564E+02  0.79494177239E+02  0.99705604731E+02  0.00000000000E+00 0.  1.
</event>
<event>
 7    1  0.2766180E-009  0.1490150E+03  0.7561462E-02  0.1201689E+00
          2   -1    0    0  501    0  0.00000000000E+00  0.00000000000E+00  0.24585241805E+04  0.24585241805E+04  0.00000000000E+00 0.  1.
         -2   -1    0    0    0  501 -0.00000000000E+00 -0.00000000000E+00 -0.14702976394E+02  0.14702976394E+02  0.00000000000E+00 0. -1.
         25    2    1    2    0    0 -0.35654007181E+01  0.13964225078E+03  0.17328741621E+04  0.17429894936E+04  0.12508734091E+03 0.  0.
          5    1    3    3  502    0  0.19653249556E+02  0.75370302613E+02  0.14442974813E+04  0.14464023021E+04  0.41800000000E+01 0. -1.
         -5    1    3    3    0  502 -0.23218650274E+02  0.64271948170E+02  0.28857668083E+03  0.29658719150E+03  0.41800000000E+01 0. -1.
        -11    1    1    2    0    0 -0.25402395807E+02 -0.95059630842E+02  0.58960474708E+03  0.59775862429E+03  0.00000000000E+00 0.  1.
         11    1    1    2    0    0  0.28967796525E+02 -0.44582619941E+02  0.12134229488E+03  0.13247903896E+03  0.00000000000E+00 0. -1.
</event>
<event>
 7    1  0.2766180E-009  0.1238973E+03  0.7561462E-02  0.1236803E+00
         -1   -1    0    0    0  501 -0.00000000000E+00  0.00000000000E+00  0.22013260645E+03  0.22013260645E+03  0.00000000000E+00 0.  1.
          1   -1    0    0  501    0  0.00000000000E+00 -0.00000000000E+00 -0.91222797217E+02  0.91222797217E+02  0.00000000000E+00 0. -1.
         25    2    1    2    0    0  0.74320195870E+02 -0.15695504316E+02  0.63035647347E+01  0.14648041244E+03  0.12508771295E+03 0.  0.
          5    1    3    3  502    0  0.91255157282E+02 -0.46901016388E+02 -0.16603890443E+02  0.10402101060E+03  0.41800000000E+01 0.  1.
         -5    1    3    3    0  502 -0.16934961413E+02  0.31205512073E+02  0.22907455177E+02  0.42459401838E+02  0.41800000000E+01 0.  1.
        -11    1    1    2    0    0 -0.68046912377E+02 -0.21712581059E+02  0.89666266499E+02  0.11463794227E+03  0.00000000000E+00 0.  1.
         11    1    1    2    0    0 -0.62732834930E+01  0.37408085375E+02  0.32939977997E+02  0.50237048954E+02  0.00000000000E+00 0. -1.
</event>
<event>
 7    1  0.2766180E-009  0.9531187E+02  0.7561462E-02  0.1290475E+00
         -2   -1    0    0    0  501 -0.00000000000E+00  0.00000000000E+00  0.75164907839E+02  0.75164907839E+02  0.00000000000E+00 0.  1.
          2   -1    0    0  501    0  0.00000000000E+00 -0.00000000000E+00 -0.17979611384E+03  0.17979611384E+03  0.00000000000E+00 0. -1.
         25    2    1    2    0    0 -0.76067889808E+01 -0.35183605254E+02 -0.39330507157E+02  0.13598073050E+03  0.12509244964E+03 0.  0.
          5    1    3    3  502    0  0.31747500969E+02 -0.40289076697E+02 -0.69126318992E+02  0.86180240753E+02  0.41800000000E+01 0.  1.
         -5    1    3    3    0  502 -0.39354289949E+02  0.51054714431E+01  0.29795811835E+02  0.49800489746E+02  0.41800000000E+01 0.  1.
        -11    1    1    2    0    0  0.42971204042E+02  0.45333869954E+02 -0.37385988304E+02  0.72796952294E+02  0.00000000000E+00 0.  1.
         11    1    1    2    0    0 -0.35364415061E+02 -0.10150264701E+02 -0.27914710540E+02  0.46183338886E+02  0.00000000000E+00 0. -1.
</event>
<event>
 7    1  0.2766180E-009  0.9097930E+02  0.7561462E-02  0.1300497E+00
         -1   -1    0    0    0  501 -0.00000000000E+00  0.00000000000E+00  0.60336086308E+02  0.60336086308E+02  0.00000000000E+00 0.  1.
          1   -1    0    0  501    0  0.00000000000E+00 -0.00000000000E+00 -0.37968950907E+03  0.37968950907E+03  0.00000000000E+00 0. -1.
         25    2    1    2    0    0  0.61201269470E+02 -0.77195728211E+01 -0.29595815748E+03  0.32717440904E+03  0.12508667301E+03 0.  0.
          5    1    3    3  502    0  0.37005747447E+01  0.17720211032E+02  0.53606867477E+01  0.19336739510E+02  0.41800000000E+01 0. -1.
         -5    1    3    3    0  502  0.57500694725E+02 -0.25439783853E+02 -0.30131884423E+03  0.30783766953E+03  0.41800000000E+01 0. -1.
        -11    1    1    2    0    0 -0.79477957260E+02 -0.23192698597E+01 -0.37261248940E+02  0.87809597285E+02  0.00000000000E+00 0. -1.
         11    1    1    2    0    0  0.18276687790E+02  0.10038842681E+02  0.13865983664E+02  0.25041589045E+02  0.00000000000E+00 0.  1.
</event>
<event>
 7    1  0.2766180E-009  0.1161040E+03  0.7561462E-02  0.1249666E+00
         -1   -1    0    0    0  501 -0.00000000000E+00  0.00000000000E+00  0.73819022654E+02  0.73819022654E+02  0.00000000000E+00 0.  1.
          1   -1    0    0  501    0  0.00000000000E+00 -0.00000000000E+00 -0.30853754986E+03  0.30853754986E+03  0.00000000000E+00 0. -1.
         25    2    1    2    0    0 -0.85802362024E+02 -0.50038049113E+02 -0.10320857984E+03  0.19017398462E+03  0.12509309248E+03 0.  0.
          5    1    3    3  502    0 -0.89056857327E+02 -0.15066428627E+02 -0.12062224501E+03  0.15074919402E+03  0.41800000000E+01 0. -1.
         -5    1    3    3    0  502  0.32544953030E+01 -0.34971620487E+02  0.17413665167E+02  0.39424790598E+02  0.41800000000E+01 0. -1.
        -11    1    1    2    0    0  0.55349530091E+02  0.10212089129E+02 -0.13040829878E+03  0.14203584631E+03  0.00000000000E+00 0. -1.
         11    1    1    2    0    0  0.30452831932E+02  0.39825959984E+02 -0.11016485810E+01  0.50146741579E+02  0.00000000000E+00 0.  1.
</event>
<event>
 7    1  0.2766180E-009  0.1193564E+03  0.7561462E-02  0.1244163E+00
          2   -1    0    0  501    0  0.00000000000E+00  0.00000000000E+00  0.29514988773E+03  0.29514988773E+03  0.00000000000E+00 0. -1.
         -2   -1    0    0    0  501 -0.00000000000E+00 -0.00000000000E+00 -0.54862590795E+02  0.54862590795E+02  0.00000000000E+00 0.  1.
         25    2    1    2    0    0 -0.53512115498E+02 -0.39448703864E+02  0.11792747500E+03  0.18432101974E+03  0.12509037619E+03 0.  0.
          5    1    3    3  502    0 -0.25699909997E+02  0.43903179501E+02  0.26762193834E+02  0.57633861253E+02  0.41800000000E+01 0.  1.
         -5    1    3    3    0  502 -0.27812205501E+02 -0.83351883365E+02  0.91165281165E+02  0.12668715849E+03  0.41800000000E+01 0.  1.
        -11    1    1    2    0    0  0.67640368120E+02  0.11815202424E+02  0.44368869671E+02  0.81752155957E+02  0.00000000000E+00 0.  1.
         11    1    1    2    0    0 -0.14128252623E+02  0.27633501440E+02  0.77990952264E+02  0.83939302827E+02  0.00000000000E+00 0. -1.
</event>
<event>
 7    1  0.2766180E-009  0.8139014E+02  0.7561462E-02  0.1325152E+00
         -1   -1    0    0    0  501 -0.00000000000E+00  0.00000000000E+00  0.37653343153E+03  0.37653343153E+03  0.00000000000E+00 0.  1.
          1   -1    0    0  501    0  0.00000000000E+00 -0.00000000000E+00 -0.31262699355E+02  0.31262699355E+02  0.00000000000E+00 0. -1.
         25    2    1    2    0    0  0.25710739433E+01  0.78514390348E+01  0.20247658501E+03  0.23814464414E+03  0.12509136076E+03 0.  0.
          5    1    3    3  502    0  0.28514472736E+02 -0.20624811170E+02  0.19560787669E+03  0.19879228308E+03  0.41800000000E+01 0. -1.
         -5    1    3    3    0  502 -0.25943398792E+02  0.28476250205E+02  0.68687083292E+01  0.39352361057E+02  0.41800000000E+01 0. -1.
        -11    1    1    2    0    0 -0.11701979275E+02  0.39073325942E+02  0.87617632422E+02  0.96646317211E+02  0.00000000000E+00 0.  1.
         11    1    1    2    0    0  0.91309053313E+01 -0.46924764977E+02  0.55176514738E+02  0.73005169536E+02  0.00000000000E+00 0. -1.
</event>
<event>
 7    1  0.2766180E-009  0.1023192E+03  0.7561462E-02  0.1275493E+00
         -2   -1    0    0    0  501 -0.00000000000E+00  0.00000000000E+00  0.15985204766E+02  0.15985204766E+02  0.00000000000E+00 0.  1.
          2   -1    0    0  501    0  0.00000000000E+00 -0.00000000000E+00 -0.97229386098E+03  0.97229386098E+03  0.00000000000E+00 0. -1.
         25    2    1    2    0    0 -0.19456137354E+02  0.23356447868E+02 -0.76151944735E+03  0.77232380452E+03  0.12509246744E+03 0.  0.
          5    1    3    3  502    0 -0.34941781285E+02  0.66647038943E+02 -0.58630654566E+03  0.59113077552E+03  0.41800000000E+01 0. -1.
         -5    1    3    3    0  502  0.15485643931E+02 -0.43290591075E+02 -0.17521290169E+03  0.18119302901E+03  0.41800000000E+01 0. -1.
        -11    1    1    2    0    0 -0.26539206266E+02 -0.25841722805E+02 -0.40265901932E+02  0.54712585071E+02  0.00000000000E+00 0.  1.
         11    1    1    2    0    0  0.45995343620E+02  0.24852749369E+01 -0.15452330693E+03  0.16124267615E+03  0.00000000000E+00 0. -1.
</event>
<event>
 7    1  0.2766180E-009  0.3857836E+03  0.7561462E-02  0.1048817E+00
          1   -1    0    0  501    0  0.00000000000E+00  0.00000000000E+00  0.21545242796E+04  0.21545242796E+04  0.00000000000E+00 0. -1.
         -1   -1    0    0    0  501 -0.00000000000E+00 -0.00000000000E+00 -0.96729972911E+02  0.96729972911E+02  0.00000000000E+00 0.  1.
         25    2    1    2    0    0  0.30164027222E+03 -0.23822995447E+03  0.15820585659E+04  0.16328800139E+04  0.12508984341E+03 0.  0.
          5    1    3    3  502    0  0.17133352143E+03 -0.10927232441E+03  0.10661024000E+04  0.10853052179E+04  0.41800000000E+01 0.  1.
         -5    1    3    3    0  502  0.13030675080E+03 -0.12895763006E+03  0.51595616593E+03  0.54757479600E+03  0.41800000000E+01 0.  1.
        -11    1    1    2    0    0 -0.62009705207E+02  0.60028946594E+02  0.54676130388E+02  0.10216730007E+03  0.00000000000E+00 0.  1.
         11    1    1    2    0    0 -0.23963056702E+03  0.17820100788E+03  0.42105961042E+03  0.51620693853E+03  0.00000000000E+00 0. -1.
</event>
<event>
 7    1  0.3004119E-009  0.8356859E+02  0.7561462E-02  0.1319219E+00
          1   -1    0    0  501    0  0.00000000000E+00  0.00000000000E+00  0.39890238642E+03  0.39890238642E+03  0.00000000000E+00 0. -1.
         -1   -1    0    0    0  501 -0.00000000000E+00 -0.00000000000E+00 -0.31947608947E+02  0.31947608947E+02  0.00000000000E+00 0.  1.
         25    2    1    2    0    0  0.31484363312E+02 -0.44877432529E+01  0.19622732790E+03  0.23486923460E+03  0.12508792179E+03 0.  0.
          5    1    3    3  502    0  0.11840821318E+02  0.29355741260E+02  0.19273389555E+03  0.19536067027E+03  0.41800000000E+01 0.  1.
         -5    1    3    3    0  502  0.19643541994E+02 -0.33843484513E+02  0.34934323445E+01  0.39508564332E+02  0.41800000000E+01 0.  1.
        -11    1    1    2    0    0 -0.47198282994E+02  0.36849519617E+02  0.98088831202E+02  0.11492164209E+03  0.00000000000E+00 0.  1.
         11    1    1    2    0    0  0.15713919682E+02 -0.32361776364E+02  0.72638618374E+02  0.81059118676E+02  0.00000000000E+00 0. -1.
</event>
<event>
 6    1  0.2766180E-009  0.8625358E+02  0.7561462E-02  0.1312186E+00
         -3   -1    0    0    0  501 -0.00000000000E+00  0.00000000000E+00  0.19979952994E+02  0.19979952994E+02  0.00000000000E+00 0.  1.
          3   -1    0    0  501    0  0.00000000000E+00 -0.00000000000E+00 -0.75119008300E+03  0.75119008300E+03  0.00000000000E+00 0. -1.
          5    1    1    2  502    0  0.49200923189E+02  0.36940865889E+02 -0.47637547360E+03  0.48035031244E+03  0.41800000000E+01 0. -1.
         -5    1    1    2    0  502 -0.36310966266E+01 -0.25658613049E+02 -0.18124246583E+02  0.31898432572E+02  0.41800000000E+01 0. -1.
        -11    1    1    2    0    0 -0.99613087416E+01 -0.38502362850E+02 -0.37262027331E+02  0.54498791709E+02  0.00000000000E+00 0.  1.
         11    1    1    2    0    0 -0.35608517820E+02  0.27220110010E+02 -0.19944838250E+03  0.20442249928E+03  0.00000000000E+00 0. -1.
</event>
<event>
 7    1  0.2766180E-009  0.7849508E+02  0.7561462E-02  0.1333377E+00
          2   -1    0    0  501    0  0.00000000000E+00  0.00000000000E+00  0.89599999142E+02  0.89599999142E+02  0.00000000000E+00 0. -1.
         -2   -1    0    0    0  501 -0.00000000000E+00 -0.00000000000E+00 -0.15501602251E+03  0.15501602251E+03  0.00000000000E+00 0.  1.
         25    2    1    2    0    0 -0.21918581266E+02  0.45618214390E+01 -0.29815026276E+02  0.13050124624E+03  0.12506160506E+03 0.  0.
          5    1    3    3  502    0 -0.58357470791E+02  0.21840943052E+02 -0.54623863472E+02  0.82969030676E+02  0.41800000000E+01 0.  1.
         -5    1    3    3    0  502  0.36438889525E+02 -0.17279121613E+02  0.24808837196E+02  0.47532215566E+02  0.41800000000E+01 0.  1.
        -11    1    1    2    0    0  0.80235814126E+01  0.22328898716E+02 -0.66653586143E+02  0.70750675772E+02  0.00000000000E+00 0.  1.
         11    1    1    2    0    0  0.13894999854E+02 -0.26890720155E+02  0.31052589046E+02  0.43364099643E+02  0.00000000000E+00 0. -1.
</event>
<event>
 7    1  0.2766180E-009  0.1118402E+03  0.7561462E-02  0.1257200E+00
         -2   -1    0    0    0  501 -0.00000000000E+00  0.00000000000E+00  0.50353541724E+02  0.50353541724E+02  0.00000000000E+00 0.  1.
          2   -1    0    0  501    0  0.00000000000E+00 -0.00000000000E+00 -0.43686982157E+03  0.43686982157E+03  0.00000000000E+00 0. -1.
         25    2    1    2    0    0 -0.59169140389E+02  0.67975944765E+02 -0.28502499653E+03  0.32405014708E+03  0.12509009927E+03 0.  0.
          5    1    3    3  502    0 -0.39812304948E+01  0.50719028489E+02 -0.23535027413E+02  0.56210674809E+02  0.41800000000E+01 0.  1.
         -5    1    3    3    0  502 -0.55187909895E+02  0.17256916276E+02 -0.26148996912E+03  0.26783947227E+03  0.41800000000E+01 0.  1.
        -11    1    1    2    0    0  0.91136033372E+01  0.15118803366E+02 -0.50676481997E+02  0.53663225850E+02  0.00000000000E+00 0. -1.
         11    1    1    2    0    0  0.50055537052E+02 -0.83094748131E+02 -0.50814801319E+02  0.10950999036E+03  0.00000000000E+00 0.  1.
</event>
<event>
 7    1  0.2766180E-009  0.4354697E+03  0.7561462E-02  0.1032146E+00
          1   -1    0    0  501    0  0.00000000000E+00  0.00000000000E+00  0.12183083843E+04  0.12183083843E+04  0.00000000000E+00 0.  1.
         -1   -1    0    0    0  501 -0.00000000000E+00 -0.00000000000E+00 -0.16067105620E+03  0.16067105620E+03  0.00000000000E+00 0. -1.
         25    2    1    2    0    0  0.32569308856E+03  0.27566589224E+03  0.60701629620E+03  0.75244835655E+03  0.12506827473E+03 0.  0.
          5    1    3    3  502    0  0.14283838044E+03  0.56779634650E+02  0.27193351383E+03  0.31239724420E+03  0.41800000000E+01 0.  1.
         -5    1    3    3    0  502  0.18285470812E+03  0.21888625759E+03  0.33508278236E+03  0.44005111235E+03  0.41800000000E+01 0.  1.
        -11    1    1    2    0    0 -0.21448890309E+03 -0.13838038418E+03  0.22741901102E+03  0.34186843500E+03  0.00000000000E+00 0. -1.
         11    1    1    2    0    0 -0.11120418546E+03 -0.13728550806E+03  0.22320202091E+03  0.28466264899E+03  0.00000000000E+00 0.  1.
</event>
<event>
 7    1  0.3072347E-009  0.3709076E+03  0.7561462E-02  0.1054346E+00
          1   -1    0    0  501    0  0.00000000000E+00  0.00000000000E+00  0.60183948093E+03  0.60183948093E+03  0.00000000000E+00 0. -1.
         -1   -1    0    0    0  501 -0.00000000000E+00 -0.00000000000E+00 -0.23810585716E+03  0.23810585716E+03  0.00000000000E+00 0.  1.
         25    2    1    2    0    0 -0.31027359313E+03  0.18636537554E+03  0.20507564550E+03  0.43440242917E+03  0.12509074425E+03 0.  0.
          5    1    3    3  502    0 -0.63214907913E+02 -0.73034918216E+01  0.93853230442E+01  0.64459462175E+02  0.41800000000E+01 0. -1.
         -5    1    3    3    0  502 -0.24705868521E+03  0.19366886736E+03  0.19569032246E+03  0.36994296700E+03  0.41800000000E+01 0. -1.
        -11    1    1    2    0    0  0.11859127103E+03 -0.93958712343E+02  0.22624662062E+02  0.15298367404E+03  0.00000000000E+00 0. -1.
         11    1    1    2    0    0  0.19168232210E+03 -0.92406663199E+02  0.13603331620E+03  0.25255923488E+03  0.00000000000E+00 0.  1.
</event>
<event>
 7    1  0.2766180E-009  0.1019328E+03  0.7561462E-02  0.1276283E+00
         -2   -1    0    0    0  501 -0.00000000000E+00  0.00000000000E+00  0.11515159423E+02  0.11515159423E+02  0.00000000000E+00 0. -1.
          2   -1    0    0  501    0  0.00000000000E+00 -0.00000000000E+00 -0.20266323339E+04  0.20266323339E+04  0.00000000000E+00 0.  1.
         25    2    1    2    0    0 -0.27322628921E+02  0.13701392597E+02 -0.17582165465E+04  0.17629259388E+04  0.12509271436E+03 0.  0.
          5    1    3    3  502    0 -0.52125810564E+02  0.42146407684E+02 -0.54607118565E+03  0.55018599764E+03  0.41800000000E+01 0. -1.
         -5    1    3    3    0  502  0.24803181643E+02 -0.28445015087E+02 -0.12121453609E+04  0.12127399412E+04  0.41800000000E+01 0. -1.
        -11    1    1    2    0    0 -0.81030909325E+01  0.36444579881E+02 -0.95768618595E+02  0.10278859758E+03  0.00000000000E+00 0.  1.
         11    1    1    2    0    0  0.35425719853E+02 -0.50145972478E+02 -0.16113200936E+03  0.17243295690E+03  0.00000000000E+00 0. -1.
</event>
<event>
 7    1  0.2905947E-009  0.7338418E+02  0.7561462E-02  0.1348949E+00
          1   -1    0    0  501    0  0.00000000000E+00  0.00000000000E+00  0.21200645230E+03  0.21200645230E+03  0.00000000000E+00 0. -1.
         -1   -1    0    0    0  501 -0.00000000000E+00 -0.00000000000E+00 -0.87093779559E+02  0.87093779559E+02  0.00000000000E+00 0.  1.
         25    2    1    2    0    0 -0.22707932981E+02 -0.17243402507E+02  0.15216364443E+03  0.19903337029E+03  0.12509005816E+03 0.  0.
          5    1    3    3  502    0  0.89555252026E+01  0.26732446999E+02 -0.82432514252E+01  0.29668986304E+02  0.41800000000E+01 0.  1.
         -5    1    3    3    0  502 -0.31663458184E+02 -0.43975849507E+02  0.16040689586E+03  0.16936438398E+03  0.41800000000E+01 0.  1.
        -11    1    1    2    0    0  0.41582263955E+02  0.61780190865E+01  0.21070086156E+02  0.47023410404E+02  0.00000000000E+00 0. -1.
         11    1    1    2    0    0 -0.18874330973E+02  0.11065383421E+02 -0.48321057849E+02  0.53043451165E+02  0.00000000000E+00 0.  1.
</event>
<event>
 7    1  0.2881244E-009  0.2082505E+03  0.7561462E-02  0.1142959E+00
         -2   -1    0    0    0  501 -0.00000000000E+00  0.00000000000E+00  0.71567472404E+02  0.71567472404E+02  0.00000000000E+00 0.  1.
          2   -1    0    0  501    0  0.00000000000E+00 -0.00000000000E+00 -0.89724151961E+03  0.89724151961E+03  0.00000000000E+00 0. -1.
         25    2    1    2    0    0 -0.18328762521E+03  0.91994249678E+02 -0.61744248211E+03  0.66252571103E+03  0.12509118087E+03 0.  0.
          5    1    3    3  502    0 -0.68535066379E+02  0.89237576993E+01 -0.75867288056E+02  0.10271322491E+03  0.41800000000E+01 0.  1.
         -5    1    3    3    0  502 -0.11475255883E+03  0.83070491978E+02 -0.54157519405E+03  0.55981248611E+03  0.41800000000E+01 0.  1.
        -11    1    1    2    0    0  0.54566806299E+02 -0.34493038580E+02 -0.12977036605E+03  0.14494017374E+03  0.00000000000E+00 0. -1.
         11    1    1    2    0    0  0.12872081891E+03 -0.57501211098E+02 -0.78461199048E+02  0.16134310724E+03  0.00000000000E+00 0.  1.
</event>
<event>
 7    1  0.3942148E-009  0.1295615E+03  0.7561462E-02  0.1228108E+00
         -2   -1    0    0    0  501 -0.00000000000E+00  0.00000000000E+00  0.80517662994E+02  0.80517662994E+02  0.00000000000E+00 0.  1.
          2   -1    0    0  501    0  0.00000000000E+00 -0.00000000000E+00 -0.25287151221E+03  0.25287151221E+03  0.00000000000E+00 0. -1.
         25    2    1    2    0    0  0.39179146915E+02  0.73273866132E+02 -0.14136209781E+03  0.20624016007E+03  0.12509075072E+03 0.  0.
          5    1    3    3  502    0  0.44437239061E+02  0.10556946842E+03 -0.92503907722E+02  0.14728892090E+03  0.41800000000E+01 0. -1.
         -5    1    3    3    0  502 -0.52580921459E+01 -0.32295602285E+02 -0.48858190089E+02  0.58951239162E+02  0.41800000000E+01 0. -1.
        -11    1    1    2    0    0  0.12352729319E+02 -0.55730520251E+02  0.11329956881E+02  0.58196638494E+02  0.00000000000E+00 0.  1.
         11    1    1    2    0    0 -0.51531876234E+02 -0.17543345881E+02 -0.42321708289E+02  0.68952376647E+02  0.00000000000E+00 0. -1.
</event>
<event>
 7    1  0.2766180E-009  0.7915194E+02  0.7561462E-02  0.1331475E+00
         -1   -1    0    0    0  501 -0.00000000000E+00  0.00000000000E+00  0.57469721447E+02  0.57469721447E+02  0.00000000000E+00 0.  1.
          1   -1    0    0  501    0  0.00000000000E+00 -0.00000000000E+00 -0.26780791544E+03  0.26780791544E+03  0.00000000000E+00 0. -1.
         25    2    1    2    0    0 -0.38505128006E+02 -0.36336836007E+02 -0.83503915738E+02  0.15944096898E+03  0.12508200554E+03 0.  0.
          5    1    3    3  502    0 -0.48914923181E+02 -0.60768978158E+02 -0.10075827056E+03  0.12749603877E+03  0.41800000000E+01 0. -1.
         -5    1    3    3    0  502  0.10409795174E+02  0.24432142151E+02  0.17254354821E+02  0.31944930207E+02  0.41800000000E+01 0. -1.
        -11    1    1    2    0    0  0.19399272479E+02  0.14110121134E+02  0.99335685409E+01  0.25963495048E+02  0.00000000000E+00 0.  1.
         11    1    1    2    0    0  0.19105855527E+02  0.22226714873E+02 -0.13676784679E+03  0.13987317286E+03  0.00000000000E+00 0. -1.
</event>
<event>
 7    1  0.2766180E-009  0.1754129E+03  0.7561462E-02  0.1172318E+00
         -2   -1    0    0    0  501 -0.00000000000E+00  0.00000000000E+00  0.58848136453E+02  0.58848136453E+02  0.00000000000E+00 0. -1.
          2   -1    0    0  501    0  0.00000000000E+00 -0.00000000000E+00 -0.69103769933E+03  0.69103769933E+03  0.00000000000E+00 0.  1.
         25    2    1    2    0    0 -0.16246671996E+03  0.35201061463E+02 -0.40326510082E+03  0.45376788151E+03  0.12509196188E+03 0.  0.
          5    1    3    3  502    0 -0.73923355822E+02  0.78311251121E+01 -0.52913484411E+02  0.91341656920E+02  0.41800000000E+01 0. -1.
         -5    1    3    3    0  502 -0.88543364142E+02  0.27369936351E+02 -0.35035161641E+03  0.36242622459E+03  0.41800000000E+01 0. -1.
        -11    1    1    2    0    0  0.60232080639E+02 -0.52513828735E+02 -0.69310361127E+02  0.10578058379E+03  0.00000000000E+00 0.  1.
         11    1    1    2    0    0  0.10223463932E+03  0.17312767272E+02 -0.15961410093E+03  0.19033737049E+03  0.00000000000E+00 0. -1.
</event>
<event>
 7    1  0.2766180E-009  0.1283949E+03  0.7561462E-02  0.1229857E+00
          1   -1    0    0  501    0  0.00000000000E+00  0.00000000000E+00  0.98680388425E+03  0.98680388425E+03  0.00000000000E+00 0. -1.
         -1   -1    0    0    0  501 -0.00000000000E+00 -0.00000000000E+00 -0.27001905841E+02  0.27001905841E+02  0.00000000000E+00 0.  1.
         25    2    1    2    0    0 -0.32873979079E+01  0.10315499325E+03  0.72310206993E+03  0.74106398704E+03  0.12508984663E+03 0.  0.
          5    1    3    3  502    0 -0.35447591035E+02  0.65423986332E+02  0.16863739066E+03  0.18437155861E+03  0.41800000000E+01 0. -1.
         -5    1    3    3    0  502  0.32160193127E+02  0.37731006922E+02  0.55446467927E+03  0.55669242842E+03  0.41800000000E+01 0. -1.
        -11    1    1    2    0    0  0.43219879974E+02 -0.52132751755E+02  0.14935346730E+03  0.16398853626E+03  0.00000000000E+00 0. -1.
         11    1    1    2    0    0 -0.39932482066E+02 -0.51022241499E+02  0.87346441190E+02  0.10875326680E+03  0.00000000000E+00 0.  1.
</event>
<event>
 7    1  0.2766180E-009  0.1994957E+03  0.7561462E-02  0.1150165E+00
         -1   -1    0    0    0  501 -0.00000000000E+00  0.00000000000E+00  0.15159388553E+03  0.15159388553E+03  0.00000000000E+00 0.  1.
          1   -1    0    0  501    0  0.00000000000E+00 -0.00000000000E+00 -0.31284064404E+03  0.31284064404E+03  0.00000000000E+00 0. -1.
         25    2    1    2    0    0 -0.18113527383E+03 -0.53547417648E+02 -0.76110228758E+02  0.23899014749E+03  0.12508481248E+03 0.  0.
          5    1    3    3  502    0 -0.17357785994E+03 -0.28081720834E+02 -0.10059767448E+03  0.20262088001E+03  0.41800000000E+01 0.  1.
         -5    1    3    3    0  502 -0.75574138851E+01 -0.25465696813E+02  0.24487445717E+02  0.36369267474E+02  0.41800000000E+01 0.  1.
        -11    1    1    2    0    0  0.15623709183E+03  0.24811964285E+02 -0.97059788896E+02  0.18559705024E+03  0.00000000000E+00 0. -1.
         11    1    1    2    0    0  0.24898181996E+02  0.28735453362E+02  0.11923259136E+02  0.39847331843E+02  0.00000000000E+00 0.  1.
</event>
<event>
 7    1  0.2766180E-009  0.1919626E+03  0.7561462E-02  0.1156703E+00
         -2   -1    0    0    0  501 -0.00000000000E+00  0.00000000000E+00  0.26765736988E+03  0.26765736988E+03  0.00000000000E+00 0.  1.
          2   -1    0    0  501    0  0.00000000000E+00 -0.00000000000E+00 -0.18481808567E+03  0.18481808567E+03  0.00000000000E+00 0. -1.
         25    2    1    2    0    0 -0.86398190574E+01 -0.17182952375E+03  0.13300324740E+03  0.25087380016E+03  0.12509103918E+03 0.  0.
          5    1    3    3  502    0 -0.52077356985E+02 -0.10354203026E+03  0.12327039233E+03  0.16925148498E+03  0.41800000000E+01 0.  1.
         -5    1    3    3    0  502  0.43437537928E+02 -0.68287493492E+02  0.97328550632E+01  0.81622315186E+02  0.41800000000E+01 0.  1.
        -11    1    1    2    0    0  0.41093230726E+02  0.96915784329E+02 -0.56938083831E+02  0.11967985734E+03  0.00000000000E+00 0. -1.
         11    1    1    2    0    0 -0.32453411668E+02  0.74913739424E+02  0.67741206469E+01  0.81921798039E+02  0.00000000000E+00 0.  1.
</event>
<event>
 7    1  0.2766180E-009  0.1167445E+03  0.7561462E-02  0.1248566E+00
          2   -1    0    0  501    0  0.00000000000E+00  0.00000000000E+00  0.10685992822E+04  0.10685992822E+04  0.00000000000E+00 0. -1.
         -2   -1    0    0    0  501 -0.00000000000E+00 -0.00000000000E+00 -0.18124155531E+02  0.18124155531E+02  0.00000000000E+00 0.  1.
         25    2    1    2    0    0  0.61564741299E+02  0.58643546913E+02  0.64671602047E+03  0.66416700041E+03  0.12508761065E+03 0.  0.
          5    1    3    3  502    0  0.40036331723E+00  0.57818497799E+02  0.11359713700E+03  0.12753399904E+03  0.41800000000E+01 0. -1.
         -5    1    3    3    0  502  0.61164377982E+02  0.82504911437E+00  0.53311888348E+03  0.53663300137E+03  0.41800000000E+01 0. -1.
        -11    1    1    2    0    0 -0.37145539057E+02 -0.75765923025E+02  0.35891288613E+03  0.36869869269E+03  0.00000000000E+00 0.  1.
         11    1    1    2    0    0 -0.24419202242E+02  0.17122376112E+02  0.44846220078E+02  0.53857744634E+02  0.00000000000E+00 0. -1.
</event>
<event>
 7    1  0.2766180E-009  0.1058467E+03  0.7561462E-02  0.1268460E+00
          3   -1    0    0  501    0  0.00000000000E+00  0.00000000000E+00  0.32156830360E+03  0.32156830360E+03  0.00000000000E+00 0. -1.
         -3   -1    0    0    0  501 -0.00000000000E+00 -0.00000000000E+00 -0.60862667323E+02  0.60862667323E+02  0.00000000000E+00 0.  1.
         25    2    1    2    0    0 -0.75912063704E+01  0.49042000629E+02  0.43882758130E+02  0.14155017042E+03  0.12509200632E+03 0.  0.
          5    1    3    3  502    0  0.36555569887E+02 -0.24303039047E+02 -0.23678098769E+01  0.44159102349E+02  0.41800000000E+01 0.  1.
         -5    1    3    3    0  502 -0.44146776257E+02  0.73345039676E+02  0.46250568006E+02  0.97391068071E+02  0.41800000000E+01 0.  1.
        -11    1    1    2    0    0  0.32422597474E+02 -0.46831771956E+02  0.20595299485E+03  0.21368452396E+03  0.00000000000E+00 0. -1.
         11    1    1    2    0    0 -0.24831391103E+02 -0.22102286736E+01  0.10869883294E+02  0.27196276542E+02  0.00000000000E+00 0.  1.
</event>
<event>
 7    1  0.2766180E-009  0.1306175E+03  0.7561462E-02  0.1226542E+00
         -2   -1    0    0    0  501 -0.00000000000E+00  0.00000000000E+00  0.37021384184E+02  0.37021384184E+02  0.00000000000E+00 0.  1.
          2   -1    0    0  501    0  0.00000000000E+00 -0.00000000000E+00 -0.49485410443E+03  0.49485410443E+03  0.00000000000E+00 0. -1.
         25    2    1    2    0    0 -0.33100691260E+02  0.75488754658E+02 -0.24923549726E+03  0.29079257413E+03  0.12509108774E+03 0.  0.
          5    1    3    3  502    0  0.12252163079E+02  0.92933319717E+02 -0.20278157338E+03  0.22343803686E+03  0.41800000000E+01 0. -1.
         -5    1    3    3    0  502 -0.45352854338E+02 -0.17444565059E+02 -0.46453923881E+02  0.67354537269E+02  0.41800000000E+01 0. -1.
        -11    1    1    2    0    0  0.61189463310E+02 -0.38907687084E+02 -0.14915112079E+03  0.16584334586E+03  0.00000000000E+00 0.  1.
         11    1    1    2    0    0 -0.28088772050E+02 -0.36581067574E+02 -0.59446102196E+02  0.75239568622E+02  0.00000000000E+00 0. -1.
</event>
<event>
 7    1  0.2766180E-009  0.1334332E+03  0.7561462E-02  0.1222449E+00
         -4   -1    0    0    0  501 -0.00000000000E+00  0.00000000000E+00  0.12357488755E+03  0.12357488755E+03  0.00000000000E+00 0.  1.
          4   -1    0    0  501    0  0.00000000000E+00 -0.00000000000E+00 -0.24954359188E+03  0.24954359188E+03  0.00000000000E+00 0. -1.
         25    2    1    2    0    0 -0.10444186555E+03  0.10475048658E+02  0.28327311791E+02  0.16573443248E+03  0.12509050960E+03 0.  0.
          5    1    3    3  502    0 -0.12054903915E+03 -0.24081717382E+02  0.32306602681E+02  0.12717385317E+03  0.41800000000E+01 0. -1.
         -5    1    3    3    0  502  0.16107173604E+02  0.34556766040E+02 -0.39792908901E+01  0.38560579309E+02  0.41800000000E+01 0. -1.
        -11    1    1    2    0    0  0.45796418978E+02  0.73624192469E+00 -0.43748923404E+01  0.46010800106E+02  0.00000000000E+00 0.  1.
         11    1    1    2    0    0  0.58645446572E+02 -0.11211290583E+02 -0.14992112378E+03  0.16137324684E+03  0.00000000000E+00 0. -1.
</event>
<event>
 7    1  0.2766180E-009  0.1494054E+03  0.7561462E-02  0.1201205E+00
         -1   -1    0    0    0  501 -0.00000000000E+00  0.00000000000E+00  0.53080870366E+02  0.53080870366E+02  0.00000000000E+00 0. -1.
          1   -1    0    0  501    0  0.00000000000E+00 -0.00000000000E+00 -0.45523772610E+03  0.45523772610E+03  0.00000000000E+00 0.  1.
         25    2    1    2    0    0 -0.16218271889E+02 -0.10477228202E+03 -0.27723922029E+03  0.32210154904E+03  0.12509020427E+03 0.  0.
          5    1    3    3  502    0  0.38494046114E+02  0.69079826219E+01 -0.73753365680E+02  0.83585543961E+02  0.41800000000E+01 0.  1.
         -5    1    3    3    0  502 -0.54712318003E+02 -0.11168026464E+03 -0.20348585461E+03  0.23851600508E+03  0.41800000000E+01 0.  1.
        -11    1    1    2    0    0 -0.33462435951E+02  0.28151346391E+02 -0.59697936833E+02  0.74000517468E+02  0.00000000000E+00 0.  1.
         11    1    1    2    0    0  0.49680707841E+02  0.76620935632E+02 -0.65219698608E+02  0.11221652996E+03  0.00000000000E+00 0. -1.
</event>
<event>
 7    1  0.2766180E-009  0.1051837E+03  0.7561462E-02  0.1269758E+00
         -2   -1    0    0    0  501 -0.00000000000E+00  0.00000000000E+00  0.21155527122E+03  0.21155527122E+03  0.00000000000E+00 0.  1.
          2   -1    0    0  501    0  0.00000000000E+00 -0.00000000000E+00 -0.74167131178E+02  0.74167131178E+02  0.00000000000E+00 0. -1.
         25    2    1    2    0    0  0.51051047920E+02 -0.14216449539E+02  0.11397232843E+03  0.17732979139E+03  0.12509135197E+03 0.  0.
          5    1    3    3  502    0  0.30606483182E+02  0.41611233981E+02  0.10495347668E+03  0.11705108403E+03  0.41800000000E+01 0.  1.
         -5    1    3    3    0  502  0.20444564738E+02 -0.55827683520E+02  0.90188517552E+01  0.60278707364E+02  0.41800000000E+01 0.  1.
        -11    1    1    2    0    0 -0.59596653246E+01  0.44324928282E+02  0.29883314946E+02  0.53788747802E+02  0.00000000000E+00 0.  1.
         11    1    1    2    0    0 -0.45091382596E+02 -0.30108478743E+02 -0.64675033386E+01  0.54603863197E+02  0.00000000000E+00 0. -1.
</event>
<event>
 7    1  0.2766180E-009  0.1065376E+03  0.7561462E-02  0.1267119E+00
         -1   -1    0    0    0  501 -0.00000000000E+00  0.00000000000E+00  0.28501470850E+03  0.28501470850E+03  0.00000000000E+00 0. -1.
          1   -1    0    0  501    0  0.00000000000E+00 -0.00000000000E+00 -0.72930142741E+02  0.72930142741E+02  0.00000000000E+00 0.  1.
         25    2    1    2    0    0  0.36641136540E+02  0.81905263753E+02  0.81169001428E+02  0.17403165903E+03  0.12509023317E+03 0.  0.
          5    1    3    3  502    0  0.32973937621E+01  0.58656588047E+02 -0.22150288041E+02  0.62925160208E+02  0.41800000000E+01 0. -1.
         -5    1    3    3    0  502  0.33343742778E+02  0.23248675706E+02  0.10331928947E+03  0.11110649882E+03  0.41800000000E+01 0. -1.
        -11    1    1    2    0    0 -0.56927721357E+02 -0.51519369915E+02  0.12529409456E+03  0.14694768139E+03  0.00000000000E+00 0. -1.
         11    1    1    2    0    0  0.20286584816E+02 -0.30385893838E+02  0.56214697781E+01  0.36965510821E+02  0.00000000000E+00 0.  1.
</event>
<event>
 7    1  0.2766180E-009  0.1069828E+03  0.7561462E-02  0.1266261E+00
         -2   -1    0    0    0  501 -0.00000000000E+00  0.00000000000E+00  0.11252467185E+02  0.11252467185E+02  0.00000000000E+00 0.  1.
          2   -1    0    0  501    0  0.00000000000E+00 -0.00000000000E+00 -0.13790334510E+04  0.13790334510E+04  0.00000000000E+00 0. -1.
         25    2    1    2    0    0 -0.27547177228E+02  0.48376041497E+02 -0.92597267945E+03  0.93603988270E+03  0.12508465355E+03 0.  0.
          5    1    3    3  502    0 -0.62116657379E+02  0.60380688287E+02 -0.42752510720E+03  0.43623330493E+03  0.41800000000E+01 0.  1.
         -5    1    3    3    0  502  0.34569480151E+02 -0.12004646790E+02 -0.49844757225E+03  0.49980657777E+03  0.41800000000E+01 0.  1.
        -11    1    1    2    0    0  0.11264176877E+02  0.18453812904E+02 -0.31460681443E+02  0.38173280816E+02  0.00000000000E+00 0.  1.
         11    1    1    2    0    0  0.16283000351E+02 -0.66829854401E+02 -0.41034762290E+03  0.41607275464E+03  0.00000000000E+00 0. -1.
</event>
<event>
 7    1  0.2766180E-009  0.9468346E+02  0.7561462E-02  0.1291891E+00
          2   -1    0    0  501    0  0.00000000000E+00  0.00000000000E+00  0.57194269875E+03  0.57194269875E+03  0.00000000000E+00 0. -1.
         -2   -1    0    0    0  501 -0.00000000000E+00 -0.00000000000E+00 -0.24209887017E+02  0.24209887017E+02  0.00000000000E+00 0.  1.
         25    2    1    2    0    0 -0.85953307216E+01  0.18195949571E+02  0.39735108425E+03  0.41706233082E+03  0.12509249113E+03 0.  0.
          5    1    3    3  502    0  0.47474871255E+02  0.22313120462E+02  0.29987584088E+03  0.30445809414E+03  0.41800000000E+01 0. -1.
         -5    1    3    3    0  502 -0.56070201976E+02 -0.41171708905E+01  0.97475243375E+02  0.11260423667E+03  0.41800000000E+01 0. -1.
        -11    1    1    2    0    0 -0.23608220228E+02 -0.36391782923E+02  0.28954468581E+02  0.52154301620E+02  0.00000000000E+00 0. -1.
         11    1    1    2    0    0  0.32203550949E+02  0.18195833352E+02  0.12142725889E+03  0.12693595333E+03  0.00000000000E+00 0.  1.
</event>
<event>
 7    1  0.2766180E-009  0.1213690E+03  0.7561462E-02  0.1240856E+00
         -3   -1    0    0    0  501 -0.00000000000E+00  0.00000000000E+00  0.14041369512E+03  0.14041369512E+03  0.00000000000E+00 0.  1.
          3   -1    0    0  501    0  0.00000000000E+00 -0.00000000000E+00 -0.12376828662E+03  0.12376828662E+03  0.00000000000E+00 0. -1.
         25    2    1    2    0    0  0.43570226421E+02  0.45842516985E+02 -0.25067756274E+02  0.14239233043E+03  0.12508909772E+03 0.  0.
          5    1    3    3  502    0 -0.13986362773E+02  0.67238608246E+02  0.13002354245E+02  0.70022727728E+02  0.41800000000E+01 0.  1.
         -5    1    3    3    0  502  0.57556589195E+02 -0.21396091261E+02 -0.38070110520E+02  0.72369602707E+02  0.41800000000E+01 0.  1.
        -11    1    1    2    0    0 -0.26202411086E+02  0.26927587239E+02  0.33717994598E+01  0.37723074276E+02  0.00000000000E+00 0. -1.
         11    1    1    2    0    0 -0.17367815336E+02 -0.72770104224E+02  0.38341365318E+02  0.84066577025E+02  0.00000000000E+00 0.  1.
</event>
<event>
 7    1  0.2766180E-009  0.8673900E+02  0.7561462E-02  0.1310946E+00
         -2   -1    0    0    0  501 -0.00000000000E+00  0.00000000000E+00  0.32652514777E+02  0.32652514777E+02  0.00000000000E+00 0.  1.
          2   -1    0    0  501    0  0.00000000000E+00 -0.00000000000E+00 -0.47199804431E+03  0.47199804431E+03  0.00000000000E+00 0. -1.
         25    2    1    2    0    0  0.42759992889E+02 -0.42034947885E+02 -0.23502818775E+03  0.27291199992E+03  0.12508939535E+03 0.  0.
          5    1    3    3  502    0  0.45675727063E+02 -0.35449439128E+02 -0.24953782251E+03  0.25618261463E+03  0.41800000000E+01 0.  1.
         -5    1    3    3    0  502 -0.29157341738E+01 -0.65855087575E+01  0.14509634758E+02  0.16729385290E+02  0.41800000000E+01 0.  1.
        -11    1    1    2    0    0 -0.26084429529E+01 -0.27104218729E+02 -0.73988515943E+02  0.78839984393E+02  0.00000000000E+00 0. -1.
         11    1    1    2    0    0 -0.40151549936E+02  0.69139166615E+02 -0.13032882583E+03  0.15289857477E+03  0.00000000000E+00 0.  1.
</event>
<event>
 7    1  0.2766180E-009  0.1340123E+03  0.7561462E-02  0.1221621E+00
          4   -1    0    0  501    0  0.00000000000E+00  0.00000000000E+00  0.24674944584E+03  0.24674944584E+03  0.00000000000E+00 0. -1.
         -4   -1    0    0    0  501 -0.00000000000E+00 -0.00000000000E+00 -0.10725418055E+03  0.10725418055E+03  0.00000000000E+00 0.  1.
         25    2    1    2    0    0  0.82731607582E+00 -0.11963472961E+03  0.10388993699E+03  0.20187699920E+03  0.12509216929E+03 0.  0.
          5    1    3    3  502    0  0.66535692134E+01  0.29449515496E+01  0.75348442329E+02  0.75814265704E+02  0.41800000000E+01 0. -1.
         -5    1    3    3    0  502 -0.58262531376E+01 -0.12257968116E+03  0.28541494663E+02  0.12606273349E+03  0.41800000000E+01 0. -1.
        -11    1    1    2    0    0 -0.31331395909E+02  0.35492416724E+02 -0.14552458102E+02  0.49529204024E+02  0.00000000000E+00 0.  1.
         11    1    1    2    0    0  0.30504079833E+02  0.84142312885E+02  0.50157786402E+02  0.10259742317E+03  0.00000000000E+00 0. -1.
</event>
<event>
 7    1  0.2766180E-009  0.7675969E+02  0.7561462E-02  0.1338507E+00
          1   -1    0    0  501    0  0.00000000000E+00  0.00000000000E+00  0.48481729028E+03  0.48481729028E+03  0.00000000000E+00 0.  1.
         -1   -1    0    0    0  501 -0.00000000000E+00 -0.00000000000E+00 -0.27184808860E+02  0.27184808860E+02  0.00000000000E+00 0. -1.
         25    2    1    2    0    0 -0.32725024863E+01 -0.17175098167E+02  0.34607487172E+03  0.36839818406E+03  0.12507482528E+03 0.  0.
          5    1    3    3  502    0  0.24002907232E+02  0.18852027975E+02  0.15065542124E+02  0.34292586281E+02  0.41800000000E+01 0. -1.
         -5    1    3    3    0  502 -0.27275409719E+02 -0.36027126141E+02  0.33100932959E+03  0.33410559778E+03  0.41800000000E+01 0. -1.
        -11    1    1    2    0    0 -0.35086840525E+02  0.16965177863E+02  0.18888493588E+02  0.43309107910E+02  0.00000000000E+00 0. -1.
         11    1    1    2    0    0  0.38359343011E+02  0.20992030347E+00  0.92669116121E+02  0.10029480717E+03  0.00000000000E+00 0.  1.
</event>
<event>
 7    1  0.2766180E-009  0.1354101E+03  0.7561462E-02  0.1219642E+00
          3   -1    0    0  501    0  0.00000000000E+00  0.00000000000E+00  0.64784321392E+02  0.64784321392E+02  0.00000000000E+00 0. -1.
         -3   -1    0    0    0  501 -0.00000000000E+00 -0.00000000000E+00 -0.46381963221E+03  0.46381963221E+03  0.00000000000E+00 0.  1.
         25    2    1    2    0    0 -0.99726763091E+02 -0.48132896686E+02 -0.10126281743E+03  0.19536779432E+03  0.12510880802E+03 0.  0.
          5    1    3    3  502    0  0.17179268042E+02 -0.36509317275E+02 -0.56550146046E+02  0.69594891451E+02  0.41800000000E+01 0. -1.
         -5    1    3    3    0  502 -0.11690603113E+03 -0.11623579411E+02 -0.44712671382E+02  0.12577290287E+03  0.41800000000E+01 0. -1.
        -11    1    1    2    0    0  0.63295031992E+02  0.19102700462E+02 -0.54901437267E+02  0.85938012857E+02  0.00000000000E+00 0. -1.
         11    1    1    2    0    0  0.36431731099E+02  0.29030196223E+02 -0.24287105613E+03  0.24729814643E+03  0.00000000000E+00 0.  1.
</event>
<event>
 7    1  0.2766180E-009  0.8381227E+02  0.7561462E-02  0.1318568E+00
          2   -1    0    0  501    0  0.00000000000E+00  0.00000000000E+00  0.14036516103E+03  0.14036516103E+03  0.00000000000E+00 0. -1.
         -2   -1    0    0    0  501 -0.00000000000E+00 -0.00000000000E+00 -0.11109465341E+03  0.11109465341E+03  0.00000000000E+00 0.  1.
         25    2    1    2    0    0 -0.55168150699E+02 -0.40567382771E+01 -0.12576018111E+02  0.13739247765E+03  0.12513414684E+03 0.  0.
          5    1    3    3  502    0 -0.71204668556E+02  0.27406382211E+02 -0.45498607226E+02  0.88931492001E+02  0.41800000000E+01 0. -1.
         -5    1    3    3    0  502  0.16036517857E+02 -0.31463120488E+02  0.32922589115E+02  0.48460985647E+02  0.41800000000E+01 0. -1.
        -11    1    1    2    0    0  0.19398072190E+02  0.43558869030E+01 -0.28732948120E+02  0.34940538963E+02  0.00000000000E+00 0.  1.
         11    1    1    2    0    0  0.35770078509E+02 -0.29914862591E+00  0.70579473852E+02  0.79126797835E+02  0.00000000000E+00 0. -1.
</event>
<event>
 7    1  0.2766180E-009  0.1117849E+03  0.7561462E-02  0.1257300E+00
          2   -1    0    0  501    0  0.00000000000E+00  0.00000000000E+00  0.80645406981E+03  0.80645406981E+03  0.00000000000E+00 0. -1.
         -2   -1    0    0    0  501 -0.00000000000E+00 -0.00000000000E+00 -0.17256367108E+02  0.17256367108E+02  0.00000000000E+00 0.  1.
         25    2    1    2    0    0  0.26656348774E+02  0.24986510375E+02  0.55389235497E+03  0.56901655653E+03  0.12509282186E+03 0.  0.
          5    1    3    3  502    0  0.66506898682E+02  0.49328467463E+02  0.37774778195E+03  0.38673934948E+03  0.41800000000E+01 0.  1.
         -5    1    3    3    0  502 -0.39850549908E+02 -0.24341957088E+02  0.17614457302E+03  0.18227720704E+03  0.41800000000E+01 0.  1.
        -11    1    1    2    0    0  0.10497946897E+02  0.27520110332E+02  0.10958282881E+03  0.11347228618E+03  0.00000000000E+00 0. -1.
         11    1    1    2    0    0 -0.37154295671E+02 -0.52506620708E+02  0.12572251892E+03  0.14122159420E+03  0.00000000000E+00 0.  1.
</event>
<event>
 7    1  0.2766180E-009  0.1307357E+03  0.7561462E-02  0.1226368E+00
         -1   -1    0    0    0  501 -0.00000000000E+00  0.00000000000E+00  0.15523152117E+02  0.15523152117E+02  0.00000000000E+00 0.  1.
          1   -1    0    0  501    0  0.00000000000E+00 -0.00000000000E+00 -0.11802716705E+04  0.11802716705E+04  0.00000000000E+00 0. -1.
         25    2    1    2    0    0  0.25081821008E+02  0.74086651136E+02 -0.58539031571E+03  0.60369461788E+03  0.12508972902E+03 0.  0.
          5    1    3    3  502    0  0.62325462639E+02  0.23770193003E+01 -0.18702341011E+03  0.19719366583E+03  0.41800000000E+01 0. -1.
         -5    1    3    3    0  502 -0.37243641631E+02  0.71709631836E+02 -0.39836690560E+03  0.40650095205E+03  0.41800000000E+01 0. -1.
        -11    1    1    2    0    0 -0.43695028915E+02 -0.21558708590E+01 -0.14581578362E+03  0.15223713767E+03  0.00000000000E+00 0.  1.
         11    1    1    2    0    0  0.18613207906E+02 -0.71930780277E+02 -0.43354241906E+03  0.43986306708E+03  0.00000000000E+00 0. -1.
</event>
<event>
 7    1  0.2766180E-009  0.1076303E+03  0.7561462E-02  0.1265022E+00
         -2   -1    0    0    0  501 -0.00000000000E+00  0.00000000000E+00  0.20887030538E+02  0.20887030538E+02  0.00000000000E+00 0.  1.
          2   -1    0    0  501    0  0.00000000000E+00 -0.00000000000E+00 -0.93916832348E+03  0.93916832348E+03  0.00000000000E+00 0. -1.
         25    2    1    2    0    0  0.83913100235E+02  0.24063877058E+02 -0.56876737335E+03  0.58886752021E+03  0.12509257689E+03 0.  0.
          5    1    3    3  502    0  0.64277387581E+02  0.55256828151E+02 -0.18764556685E+03  0.20594472746E+03  0.41800000000E+01 0.  1.
         -5    1    3    3    0  502  0.19635712654E+02 -0.31192951093E+02 -0.38112180651E+03  0.38292279275E+03  0.41800000000E+01 0.  1.
        -11    1    1    2    0    0 -0.51515735714E+02 -0.31059942849E+02 -0.32352370254E+03  0.32906865117E+03  0.00000000000E+00 0. -1.
         11    1    1    2    0    0 -0.32397364520E+02  0.69960657902E+01 -0.25990217047E+02  0.42119182644E+02  0.00000000000E+00 0.  1.
</event>
<event>
 7    1  0.3989041E-009  0.1007757E+03  0.7561462E-02  0.1278673E+00
         -1   -1    0    0    0  501 -0.00000000000E+00  0.00000000000E+00  0.77549420016E+02  0.77549420016E+02  0.00000000000E+00 0.  1.
          1   -1    0    0  501    0  0.00000000000E+00 -0.00000000000E+00 -0.18492521070E+03  0.18492521070E+03  0.00000000000E+00 0. -1.
         25    2    1    2    0    0 -0.31181589994E+02 -0.35301935568E+02 -0.39019790954E+02  0.13924224308E+03  0.12508932793E+03 0.  0.
          5    1    3    3  502    0  0.31430526422E+02 -0.58678755343E+02 -0.19794348834E+02  0.69572717106E+02  0.41800000000E+01 0. -1.
         -5    1    3    3    0  502 -0.62612116416E+02  0.23376819775E+02 -0.19225442120E+02  0.69669525975E+02  0.41800000000E+01 0. -1.
        -11    1    1    2    0    0 -0.11308255605E+02  0.19528620711E+02  0.15868691541E+02  0.27587298580E+02  0.00000000000E+00 0.  1.
         11    1    1    2    0    0  0.42489845599E+02  0.15773314858E+02 -0.84224691268E+02  0.95645089052E+02  0.00000000000E+00 0. -1.
</event>
<event>
 7    1  0.2766180E-009  0.1102051E+03  0.7561462E-02  0.1260191E+00
         -1   -1    0    0    0  501 -0.00000000000E+00  0.00000000000E+00  0.40295003329E+02  0.40295003329E+02  0.00000000000E+00 0.  1.
          1   -1    0    0  501    0  0.00000000000E+00 -0.00000000000E+00 -0.35901945988E+03  0.35901945988E+03  0.00000000000E+00 0. -1.
         25    2    1    2    0    0  0.44685651457E+02  0.41772482670E+01 -0.21786294346E+03  0.25519689060E+03  0.12508770520E+03 0.  0.
          5    1    3    3  502    0 -0.34086859433E+02 -0.20667453826E+02 -0.30414959568E+02  0.50315005706E+02  0.41800000000E+01 0. -1.
         -5    1    3    3    0  502  0.78772510890E+02  0.24844702093E+02 -0.18744798389E+03  0.20488188490E+03  0.41800000000E+01 0. -1.
        -11    1    1    2    0    0  0.25651978043E+02  0.65484932072E+01 -0.50265495887E+02  0.56811326490E+02  0.00000000000E+00 0.  1.
         11    1    1    2    0    0 -0.70337629500E+02 -0.10725741474E+02 -0.50596017205E+02  0.87306246116E+02  0.00000000000E+00 0. -1.
</event>
<event>
 7    1  0.2766180E-009  0.9879493E+02  0.7561462E-02  0.1282851E+00
         -1   -1    0    0    0  501 -0.00000000000E+00  0.00000000000E+00  0.27769417574E+02  0.27769417574E+02  0.00000000000E+00 0.  1.
          1   -1    0    0  501    0  0.00000000000E+00 -0.00000000000E+00 -0.62658020786E+03  0.62658020786E+03  0.00000000000E+00 0. -1.
         25    2    1    2    0    0 -0.54115305618E+02  0.42713787894E+02 -0.37204850838E+03  0.39852324928E+03  0.12509098148E+03 0.  0.
          5    1    3    3  502    0 -0.51304480687E+02 -0.48053424396E+01 -0.46648525794E+02  0.69633313961E+02  0.41800000000E+01 0. -1.
         -5    1    3    3    0  502 -0.28108249314E+01  0.47519130334E+02 -0.32539998259E+03  0.32888993532E+03  0.41800000000E+01 0. -1.
        -11    1    1    2    0    0 -0.12980889886E+02 -0.25845377811E+02 -0.14066072095E+02  0.32161179092E+02  0.00000000000E+00 0.  1.
         11    1    1    2    0    0  0.67096195504E+02 -0.16868410083E+02 -0.21269620981E+03  0.22366519706E+03  0.00000000000E+00 0. -1.
</event>
<event>
 7    1  0.2766180E-009  0.1119945E+03  0.7561462E-02  0.1256920E+00
         -1   -1    0    0    0  501 -0.00000000000E+00  0.00000000000E+00  0.86959166877E+02  0.86959166877E+02  0.00000000000E+00 0.  1.
          1   -1    0    0  501    0  0.00000000000E+00 -0.00000000000E+00 -0.17721604691E+03  0.17721604691E+03  0.00000000000E+00 0. -1.
         25    2    1    2    0    0  0.51978267655E+02 -0.25750945116E+02 -0.50492522346E+02  0.14683525685E+03  0.12508495657E+03 0.  0.
          5    1    3    3  502    0  0.63323531627E+02 -0.64479557353E+02 -0.55215547088E+02  0.10598920707E+03  0.41800000000E+01 0.  1.
         -5    1    3    3    0  502 -0.11345263972E+02  0.38728612237E+02  0.47230247421E+01  0.40846049786E+02  0.41800000000E+01 0.  1.
        -11    1    1    2    0    0 -0.36448230936E+02  0.51370403698E+02  0.53174952977E+01  0.63211293853E+02  0.00000000000E+00 0.  1.
         11    1    1    2    0    0 -0.15530036720E+02 -0.25619458582E+02 -0.45081852986E+02  0.54128663084E+02  0.00000000000E+00 0. -1.
</event>
<event>
 7    1  0.2766180E-009  0.1063726E+03  0.7561462E-02  0.1267439E+00
          2   -1    0    0  501    0  0.00000000000E+00  0.00000000000E+00  0.48772812351E+02  0.48772812351E+02  0.00000000000E+00 0. -1.
         -2   -1    0    0    0  501 -0.00000000000E+00 -0.00000000000E+00 -0.26414399968E+03  0.26414399968E+03  0.00000000000E+00 0.  1.
         25    2    1    2    0    0 -0.18265922883E+02  0.14590795712E+02 -0.15931377782E+03  0.20389812155E+03  0.12508808460E+03 0.  0.
          5    1    3    3  502    0  0.46938629797E+02  0.26479854776E+02 -0.10503181428E+03  0.11812523900E+03  0.41800000000E+01 0. -1.
         -5    1    3    3    0  502 -0.65204552681E+02 -0.11889059065E+02 -0.54281963537E+02  0.85772882552E+02  0.41800000000E+01 0. -1.
        -11    1    1    2    0    0  0.24873510124E+02 -0.50220196828E+02 -0.42475090609E+02  0.70319933145E+02  0.00000000000E+00 0. -1.
         11    1    1    2    0    0 -0.66075872403E+01  0.35629401116E+02 -0.13582318902E+02  0.38698757342E+02  0.00000000000E+00 0.  1.
</event>
<event>
 7    1  0.2766180E-009  0.1253514E+03  0.7561462E-02  0.1234521E+00
         -1   -1    0    0    0  501 -0.00000000000E+00  0.00000000000E+00  0.34244401693E+02  0.34244401693E+02  0.00000000000E+00 0.  1.
          1   -1    0    0  501    0  0.00000000000E+00 -0.00000000000E+00 -0.50135169334E+03  0.50135169334E+03  0.00000000000E+00 0. -1.
         25    2    1    2    0    0 -0.54726049857E+02 -0.42543570984E+02 -0.27566112896E+03  0.31055022407E+03  0.12508991839E+03 0.  0.
          5    1    3    3  502    0  0.25422359249E+02  0.23775384251E+02 -0.10436922596E+03  0.11009983185E+03  0.41800000000E+01 0.  1.
         -5    1    3    3    0  502 -0.80148409106E+02 -0.66318955235E+02 -0.17129190300E+03  0.20045039222E+03  0.41800000000E+01 0.  1.
        -11    1    1    2    0    0  0.77855499246E+02  0.41854515813E+02 -0.11422400553E+03  0.14443130788E+03  0.00000000000E+00 0.  1.
         11    1    1    2    0    0 -0.23129449388E+02  0.68905517195E+00 -0.77222157151E+02  0.80614563084E+02  0.00000000000E+00 0. -1.
</event>
<event>
 7    1  0.2766180E-009  0.1001129E+03  0.7561462E-02  0.1280059E+00
          1   -1    0    0  501    0  0.00000000000E+00  0.00000000000E+00  0.17935584636E+03  0.17935584636E+03  0.00000000000E+00 0. -1.
         -1   -1    0    0    0  501 -0.00000000000E+00 -0.00000000000E+00 -0.14405151949E+03  0.14405151949E+03  0.00000000000E+00 0.  1.
         25    2    1    2    0    0  0.56119836792E+02  0.15592460665E+02  0.12121864754E+03  0.18367296875E+03  0.12509691453E+03 0.  0.
          5    1    3    3  502    0  0.93877955086E+02 -0.38188349848E+01  0.71376273402E+02  0.11806650142E+03  0.41800000000E+01 0. -1.
         -5    1    3    3    0  502 -0.37758118294E+02  0.19411295650E+02  0.49842374138E+02  0.65606467331E+02  0.41800000000E+01 0. -1.
        -11    1    1    2    0    0 -0.15037714234E+02 -0.16630581895E+02  0.17507595918E+02  0.28446880644E+02  0.00000000000E+00 0. -1.
         11    1    1    2    0    0 -0.41082122558E+02  0.10381212299E+01 -0.10342191658E+03  0.11128751646E+03  0.00000000000E+00 0.  1.
</event>
<event>
 7    1  0.2766180E-009  0.9230381E+02  0.7561462E-02  0.1297367E+00
         -1   -1    0    0    0  501 -0.00000000000E+00  0.00000000000E+00  0.73072047836E+02  0.73072047836E+02  0.00000000000E+00 0.  1.
          1   -1    0    0  501    0  0.00000000000E+00 -0.00000000000E+00 -0.21296840169E+03  0.21296840169E+03  0.00000000000E+00 0. -1.
         25    2    1    2    0    0 -0.51017218802E+02  0.40559287007E+02 -0.58996144894E+02  0.15289520868E+03  0.12509431381E+03 0.  0.
          5    1    3    3  502    0 -0.54085197190E+01  0.49975051095E+02  0.25352726792E+02  0.56453440757E+02  0.41800000000E+01 0.  1.
         -5    1    3    3    0  502 -0.45608699083E+02 -0.94157640881E+01 -0.84348871686E+02  0.96441767924E+02  0.41800000000E+01 0.  1.
        -11    1    1    2    0    0  0.55178851179E+02 -0.51639594919E+02 -0.30704235038E+02  0.81572688016E+02  0.00000000000E+00 0.  1.
         11    1    1    2    0    0 -0.41616323763E+01  0.11080307912E+02 -0.50195973920E+02  0.51572552828E+02  0.00000000000E+00 0. -1.
</event>
<event>
 7    1  0.2766180E-009  0.9204103E+02  0.7561462E-02  0.1297983E+00
          1   -1    0    0  501    0  0.00000000000E+00  0.00000000000E+00  0.38643491510E+03  0.38643491510E+03  0.00000000000E+00 0. -1.
         -1   -1    0    0    0  501 -0.00000000000E+00 -0.00000000000E+00 -0.31065962285E+02  0.31065962285E+02  0.00000000000E+00 0.  1.
         25    2    1    2    0    0 -0.15345043598E+02  0.35284648353E+01  0.21482166788E+03  0.24908757244E+03  0.12509336243E+03 0.  0.
          5    1    3    3  502    0 -0.41774928310E+02  0.35047776394E+02  0.35827498204E+02  0.65380220962E+02  0.41800000000E+01 0.  1.
         -5    1    3    3    0  502  0.26429884712E+02 -0.31519311559E+02  0.17899416968E+03  0.18370735147E+03  0.41800000000E+01 0.  1.
        -11    1    1    2    0    0  0.48857797603E+02 -0.17277906973E+02  0.55290293299E+02  0.75780122651E+02  0.00000000000E+00 0.  1.
         11    1    1    2    0    0 -0.33512754005E+02  0.13749442138E+02  0.85256991634E+02  0.92633182297E+02  0.00000000000E+00 0. -1.
</event>
<event>
 7    1  0.2766180E-009  0.1732380E+03  0.7561462E-02  0.1174513E+00
         -3   -1    0    0    0  501 -0.00000000000E+00  0.00000000000E+00  0.46114185257E+03  0.46114185257E+03  0.00000000000E+00 0.  1.
          3   -1    0    0  501    0  0.00000000000E+00 -0.00000000000E+00 -0.97945979775E+02  0.97945979775E+02  0.00000000000E+00 0. -1.
         25    2    1    2    0    0 -0.91572141853E+02 -0.10189387486E+03  0.30921504940E+02  0.18807381720E+03  0.12509117615E+03 0.  0.
          5    1    3    3  502    0 -0.11748137448E+03 -0.59615360261E+02  0.48529057280E+01  0.13189726162E+03  0.41800000000E+01 0.  1.
         -5    1    3    3    0  502  0.25909232624E+02 -0.42278514601E+02  0.26068599212E+02  0.56176555581E+02  0.41800000000E+01 0.  1.
        -11    1    1    2    0    0  0.38222769142E+02  0.10472446235E+03  0.21699899613E+03  0.24396056529E+03  0.00000000000E+00 0. -1.
         11    1    1    2    0    0  0.53349372711E+02 -0.28305874903E+01  0.11527537172E+03  0.12705344985E+03  0.00000000000E+00 0.  1.
</event>
<event>
 7    1  0.2818958E-009  0.4492781E+02  0.7561462E-02  0.1474793E+00
         -1   -1    0    0    0  501 -0.00000000000E+00  0.00000000000E+00  0.10269300718E+03  0.10269300718E+03  0.00000000000E+00 0.  1.
          1   -1    0    0  501    0  0.00000000000E+00 -0.00000000000E+00 -0.13951637340E+03  0.13951637340E+03  0.00000000000E+00 0. -1.
         25    2    1    2    0    0  0.34634616223E+01 -0.26481900869E+02  0.22328510496E+02  0.12984693460E+03  0.12509347467E+03 0.  0.
          5    1    3    3  502    0  0.45351831143E+01  0.13950927066E+01 -0.50942419948E+02  0.51333387962E+02  0.41800000000E+01 0. -1.
         -5    1    3    3    0  502 -0.10717214920E+01 -0.27876993576E+02  0.73270930444E+02  0.78513546639E+02  0.41800000000E+01 0. -1.
        -11    1    1    2    0    0 -0.74448591121E+01 -0.13353836526E+02  0.19099246726E+02  0.24464915750E+02  0.00000000000E+00 0.  1.
         11    1    1    2    0    0  0.39813974899E+01  0.39835737395E+02 -0.78251123441E+02  0.87897530225E+02  0.00000000000E+00 0. -1.
</event>
<event>
 7    1  0.2766180E-009  0.1028246E+03  0.7561462E-02  0.1274466E+00
         -2   -1    0    0    0  501 -0.00000000000E+00  0.00000000000E+00  0.10959123406E+03  0.10959123406E+03  0.00000000000E+00 0.  1.
          2   -1    0    0  501    0  0.00000000000E+00 -0.00000000000E+00 -0.15816531722E+03  0.15816531722E+03  0.00000000000E+00 0. -1.
         25    2    1    2    0    0 -0.72585386808E+02 -0.12905615256E+02 -0.39447299806E+02  0.15045728280E+03  0.12508441631E+03 0.  0.
          5    1    3    3  502    0 -0.94216056565E+02 -0.34790165338E+02 -0.34139531151E+00  0.10052168855E+03  0.41800000000E+01 0.  1.
         -5    1    3    3    0  502  0.21630669757E+02  0.21884550083E+02 -0.39105904494E+02  0.49935594247E+02  0.41800000000E+01 0.  1.
        -11    1    1    2    0    0  0.46284184605E+02  0.11730574956E+02  0.39522687813E+02  0.61982860415E+02  0.00000000000E+00 0.  1.
         11    1    1    2    0    0  0.26301202203E+02  0.11750403002E+01 -0.48649471159E+02  0.55316408064E+02  0.00000000000E+00 0. -1.
</event>
<event>
 7    1  0.2766180E-009  0.1578908E+03  0.7561462E-02  0.1191099E+00
         -4   -1    0    0    0  501 -0.00000000000E+00  0.00000000000E+00  0.84435397894E+02  0.84435397894E+02  0.00000000000E+00 0.  1.
          4   -1    0    0  501    0  0.00000000000E+00 -0.00000000000E+00 -0.33524561477E+03  0.33524561477E+03  0.00000000000E+00 0. -1.
         25    2    1    2    0    0 -0.53538537840E+02  0.10505390212E+03 -0.88606186177E+02  0.19339688911E+03  0.12509437679E+03 0.  0.
          5    1    3    3  502    0  0.55174181303E+00  0.11080506095E+03 -0.33456879556E+02  0.11582271427E+03  0.41800000000E+01 0. -1.
         -5    1    3    3    0  502 -0.54090279653E+02 -0.57511588342E+01 -0.55149306622E+02  0.77574174838E+02  0.41800000000E+01 0. -1.
        -11    1    1    2    0    0  0.65757313993E+01 -0.10312925462E+03 -0.76627582038E+02  0.12864940626E+03  0.00000000000E+00 0.  1.
         11    1    1    2    0    0  0.46962806441E+02 -0.19246475024E+01 -0.85576448657E+02  0.97634717296E+02  0.00000000000E+00 0. -1.
</event>
<event>
 7    1  0.2766180E-009  0.2262793E+03  0.7561462E-02  0.1129286E+00
          1   -1    0    0  501    0  0.00000000000E+00  0.00000000000E+00  0.31644929936E+04  0.31644929936E+04  0.00000000000E+00 0. -1.
         -1   -1    0    0    0  501 -0.00000000000E+00 -0.00000000000E+00 -0.18817005930E+02  0.18817005930E+02  0.00000000000E+00 0.  1.
         25    2    1    2    0    0  0.43980153942E+02  0.19564606772E+03  0.21800875368E+04  0.21928612539E+04  0.12508865988E+03 0.  0.
          5    1    3    3  502    0  0.64609687234E+02  0.35665412138E+02  0.59189295712E+03  0.59649071946E+03  0.41800000000E+01 0.  1.
         -5    1    3    3    0  502 -0.20629533293E+02  0.15998065558E+03  0.15881945797E+04  0.15963705344E+04  0.41800000000E+01 0.  1.
        -11    1    1    2    0    0 -0.68089494538E+02 -0.12105230096E+03  0.69457867236E+03  0.70832857554E+03  0.00000000000E+00 0. -1.
         11    1    1    2    0    0  0.24109340597E+02 -0.74593766758E+02  0.27100977857E+03  0.28212017018E+03  0.00000000000E+00 0.  1.
</event>
<event>
 7    1  0.2766180E-009  0.1266316E+03  0.7561462E-02  0.1232541E+00
          1   -1    0    0  501    0  0.00000000000E+00  0.00000000000E+00  0.15773567976E+03  0.15773567976E+03  0.00000000000E+00 0. -1.
         -1   -1    0    0    0  501 -0.00000000000E+00 -0.00000000000E+00 -0.15455471072E+03  0.15455471072E+03  0.00000000000E+00 0.  1.
         25    2    1    2    0    0 -0.10094586015E+03  0.43562410755E+02  0.98805002840E+01  0.16682904016E+03  0.12508618646E+03 0.  0.
          5    1    3    3  502    0 -0.18269972765E+01 -0.14681396819E+02  0.44184465565E+02  0.46782696896E+02  0.41800000000E+01 0.  1.
         -5    1    3    3    0  502 -0.99118862869E+02  0.58243807573E+02 -0.34303965281E+02  0.12004634326E+03  0.41800000000E+01 0.  1.
        -11    1    1    2    0    0  0.15854467077E+02  0.13143128892E+02  0.30370562680E+02  0.36694373422E+02  0.00000000000E+00 0. -1.
         11    1    1    2    0    0  0.85091393068E+02 -0.56705539647E+02 -0.37070093918E+02  0.10876697690E+03  0.00000000000E+00 0.  1.
</event>
<event>
 7    1  0.2766180E-009  0.1959177E+03  0.7561462E-02  0.1153230E+00
          3   -1    0    0  501    0  0.00000000000E+00  0.00000000000E+00  0.27733177139E+03  0.27733177139E+03  0.00000000000E+00 0. -1.
         -3   -1    0    0    0  501 -0.00000000000E+00 -0.00000000000E+00 -0.14108762040E+03  0.14108762040E+03  0.00000000000E+00 0.  1.
         25    2    1    2    0    0  0.14580546870E+03  0.76966625982E+02  0.80117986607E+02  0.22192307261E+03  0.12509141521E+03 0.  0.
          5    1    3    3  502    0  0.16574409673E+03  0.52651119514E+02  0.76366177591E+02  0.18998029231E+03  0.41800000000E+01 0. -1.
         -5    1    3    3    0  502 -0.19938628027E+02  0.24315506467E+02  0.37518090153E+01  0.31942780299E+02  0.41800000000E+01 0. -1.
        -11    1    1    2    0    0 -0.24634969523E+02  0.19385744059E+02  0.21058639351E+02  0.37764468584E+02  0.00000000000E+00 0. -1.
         11    1    1    2    0    0 -0.12117049918E+03 -0.96352370041E+02  0.35067525039E+02  0.15873185060E+03  0.00000000000E+00 0.  1.
</event>
<event>
 7    1  0.2766180E-009  0.9942894E+02  0.7561462E-02  0.1281501E+00
         -1   -1    0    0    0  501 -0.00000000000E+00  0.00000000000E+00  0.26940560132E+02  0.26940560132E+02  0.00000000000E+00 0.  1.
          1   -1    0    0  501    0  0.00000000000E+00 -0.00000000000E+00 -0.88170231798E+03  0.88170231798E+03  0.00000000000E+00 0. -1.
         25    2    1    2    0    0  0.96916816524E+02  0.78223794488E+01 -0.61007109912E+03  0.63030818482E+03  0.12509037904E+03 0.  0.
          5    1    3    3  502    0  0.82212535587E+02 -0.32457212558E+01 -0.60524750916E+03  0.61082849922E+03  0.41800000000E+01 0. -1.
         -5    1    3    3    0  502  0.14704280937E+02  0.11068100705E+02 -0.48235899568E+01  0.19479685602E+02  0.41800000000E+01 0. -1.
        -11    1    1    2    0    0 -0.56806109735E+02 -0.38309021753E+00 -0.22677041214E+03  0.23377745975E+03  0.00000000000E+00 0.  1.
         11    1    1    2    0    0 -0.40110706789E+02 -0.74392892312E+01 -0.17920246585E+02  0.44557233543E+02  0.00000000000E+00 0. -1.
</event>
<event>
 7    1  0.2766180E-009  0.1098814E+03  0.7561462E-02  0.1260790E+00
         -1   -1    0    0    0  501 -0.00000000000E+00  0.00000000000E+00  0.35537080289E+03  0.35537080289E+03  0.00000000000E+00 0.  1.
          1   -1    0    0  501    0  0.00000000000E+00 -0.00000000000E+00 -0.47654462743E+02  0.47654462743E+02  0.00000000000E+00 0. -1.
         25    2    1    2    0    0  0.19830712199E+02  0.37578667987E+02  0.26333309332E+03  0.29461427883E+03  0.12509133389E+03 0.  0.
          5    1    3    3  502    0  0.61989148341E+02 -0.14735454697E+02  0.11070055568E+03  0.12779621890E+03  0.41800000000E+01 0.  1.
         -5    1    3    3    0  502 -0.42158436143E+02  0.52314122684E+02  0.15263253764E+03  0.16681805993E+03  0.41800000000E+01 0.  1.
        -11    1    1    2    0    0 -0.49898406640E+02 -0.19956356142E+02  0.23276074364E+01  0.53791494607E+02  0.00000000000E+00 0. -1.
         11    1    1    2    0    0  0.30067694441E+02 -0.17622311845E+02  0.42055639383E+02  0.54619492195E+02  0.00000000000E+00 0.  1.
</event>
<event>
 7    1  0.2766180E-009  0.2413585E+03  0.7561462E-02  0.1118891E+00
          1   -1    0    0  501    0  0.00000000000E+00  0.00000000000E+00  0.10602413668E+03  0.10602413668E+03  0.00000000000E+00 0. -1.
         -1   -1    0    0    0  501 -0.00000000000E+00 -0.00000000000E+00 -0.64943845922E+03  0.64943845922E+03  0.00000000000E+00 0.  1.
         25    2    1    2    0    0  0.79499859864E+01 -0.22697032461E+03 -0.16643474048E+03  0.30809757065E+03  0.12507941346E+03 0.  0.
          5    1    3    3  502    0  0.31016417495E+02 -0.26432240134E+02  0.74503847546E+01  0.41637268231E+02  0.41800000000E+01 0.  1.
         -5    1    3    3    0  502 -0.23066431508E+02 -0.20053808448E+03 -0.17388512523E+03  0.26646030242E+03  0.41800000000E+01 0.  1.
        -11    1    1    2    0    0  0.29064268346E+02  0.16597447003E+03 -0.28308831974E+03  0.32944081892E+03  0.00000000000E+00 0. -1.
         11    1    1    2    0    0 -0.37014254332E+02  0.60995854577E+02 -0.93891262309E+02  0.11792420632E+03  0.00000000000E+00 0.  1.
</event>
<event>
 7    1  0.2766180E-009  0.8579594E+02  0.7561462E-02  0.1313364E+00
          4   -1    0    0  501    0  0.00000000000E+00  0.00000000000E+00  0.10966134226E+04  0.10966134226E+04  0.00000000000E+00 0. -1.
         -4   -1    0    0    0  501 -0.00000000000E+00 -0.00000000000E+00 -0.17340998056E+02  0.17340998056E+02  0.00000000000E+00 0.  1.
         25    2    1    2    0    0  0.15576092163E+02  0.60807947304E+02  0.82594960407E+03  0.83772493581E+03  0.12510035375E+03 0.  0.
          5    1    3    3  502    0 -0.15346895460E+02  0.29867992876E+02  0.49088167770E+02  0.59621680735E+02  0.41800000000E+01 0. -1.
         -5    1    3    3    0  502  0.30922987623E+02  0.30939954428E+02  0.77686143630E+03  0.77810325507E+03  0.41800000000E+01 0. -1.
        -11    1    1    2    0    0 -0.34229996299E+02 -0.45394429925E+01  0.31903455079E+02  0.47012015860E+02  0.00000000000E+00 0.  1.
         11    1    1    2    0    0  0.18653904136E+02 -0.56268504312E+02  0.22141936535E+03  0.22921746894E+03  0.00000000000E+00 0. -1.
</event>
<event>
 7    1  0.2766180E-009  0.1138685E+03  0.7561462E-02  0.1253569E+00
         -1   -1    0    0    0  501 -0.00000000000E+00  0.00000000000E+00  0.44186240823E+02  0.44186240823E+02  0.00000000000E+00 0.  1.
          1   -1    0    0  501    0  0.00000000000E+00 -0.00000000000E+00 -0.36342791688E+03  0.36342791688E+03  0.00000000000E+00 0. -1.
         25    2    1    2    0    0 -0.22632688193E+01 -0.63872412616E+02 -0.15745532819E+03  0.21100825992E+03  0.12508995922E+03 0.  0.
          5    1    3    3  502    0 -0.21996420040E+02  0.26441478518E+02 -0.90157547767E+02  0.96585972584E+02  0.41800000000E+01 0.  1.
         -5    1    3    3    0  502  0.19733151221E+02 -0.90313891133E+02 -0.67297780427E+02  0.11442228734E+03  0.41800000000E+01 0.  1.
        -11    1    1    2    0    0  0.37128477771E+02  0.13959308475E+02 -0.10911169569E+03  0.11609801157E+03  0.00000000000E+00 0. -1.
         11    1    1    2    0    0 -0.34865208952E+02  0.49913104141E+02 -0.52674652169E+02  0.80507886206E+02  0.00000000000E+00 0.  1.
</event>
<event>
 7    1  0.2900724E-009  0.7459147E+02  0.7561462E-02  0.1345141E+00
          1   -1    0    0  501    0  0.00000000000E+00  0.00000000000E+00  0.93191793592E+02  0.93191793592E+02  0.00000000000E+00 0. -1.
         -1   -1    0    0    0  501 -0.00000000000E+00 -0.00000000000E+00 -0.15898158175E+03  0.15898158175E+03  0.00000000000E+00 0.  1.
         25    2    1    2    0    0 -0.33531788334E+02 -0.42262867076E+02 -0.48617754447E+02  0.14464271945E+03  0.12508916612E+03 0.  0.
          5    1    3    3  502    0  0.78632590560E+01 -0.29656350484E+02  0.37224604356E+02  0.48419763904E+02  0.41800000000E+01 0. -1.
         -5    1    3    3    0  502 -0.41395047390E+02 -0.12606516592E+02 -0.85842358803E+02  0.96222955546E+02  0.41800000000E+01 0. -1.
        -11    1    1    2    0    0  0.64511945608E+01  0.46838308961E+02 -0.47220211911E+02  0.66822103458E+02  0.00000000000E+00 0.  1.
         11    1    1    2    0    0  0.27080593773E+02 -0.45754418855E+01  0.30048178205E+02  0.40708552430E+02  0.00000000000E+00 0. -1.
</event>
<event>
 7    1  0.2766180E-009  0.7433613E+02  0.7561462E-02  0.1345939E+00
          1   -1    0    0  501    0  0.00000000000E+00  0.00000000000E+00  0.37675785239E+02  0.37675785239E+02  0.00000000000E+00 0. -1.
         -1   -1    0    0    0  501 -0.00000000000E+00 -0.00000000000E+00 -0.30004690663E+03  0.30004690663E+03  0.00000000000E+00 0.  1.
         25    2    1    2    0    0 -0.93398522761E+01 -0.73459834837E+01 -0.10524774884E+03  0.16391255813E+03  0.12509613009E+03 0.  0.
          5    1    3    3  502    0  0.44959542814E+02  0.64479667515E+01 -0.11539595902E+01  0.45626097664E+02  0.41800000000E+01 0. -1.
         -5    1    3    3    0  502 -0.54299395090E+02 -0.13793950235E+02 -0.10409378925E+03  0.11828646047E+03  0.41800000000E+01 0. -1.
        -11    1    1    2    0    0  0.27765752902E+02  0.59951788085E+01 -0.15200856705E+03  0.15463985146E+03  0.00000000000E+00 0.  1.
         11    1    1    2    0    0 -0.18425900626E+02  0.13508046752E+01 -0.51148055006E+01  0.19170282274E+02  0.00000000000E+00 0. -1.
</event>
<event>
 7    1  0.2766180E-009  0.1497360E+03  0.7561462E-02  0.1200798E+00
         -2   -1    0    0    0  501 -0.00000000000E+00  0.00000000000E+00  0.14525482397E+02  0.14525482397E+02  0.00000000000E+00 0.  1.
          2   -1    0    0  501    0  0.00000000000E+00 -0.00000000000E+00 -0.19151922386E+04  0.19151922386E+04  0.00000000000E+00 0. -1.
         25    2    1    2    0    0 -0.10241992593E+03 -0.56998881734E+02 -0.12780010072E+04  0.12894466027E+04  0.12508898012E+03 0.  0.
          5    1    3    3  502    0 -0.99905568629E+02 -0.79840532729E+02 -0.12232164919E+04  0.12298909268E+04  0.41800000000E+01 0. -1.
         -5    1    3    3    0  502 -0.25143573055E+01  0.22841650995E+02 -0.54784515306E+02  0.59555675885E+02  0.41800000000E+01 0. -1.
        -11    1    1    2    0    0 -0.17164139098E+02  0.76381493856E+01 -0.57662167110E+02  0.60645482213E+02  0.00000000000E+00 0. -1.
         11    1    1    2    0    0  0.11958406503E+03  0.49360732348E+02 -0.56500358194E+03  0.57962563618E+03  0.00000000000E+00 0.  1.
</event>
<event>
 7    1  0.2766180E-009  0.1138455E+03  0.7561462E-02  0.1253610E+00
         -1   -1    0    0    0  501 -0.00000000000E+00  0.00000000000E+00  0.49641501656E+02  0.49641501656E+02  0.00000000000E+00 0.  1.
          1   -1    0    0  501    0  0.00000000000E+00 -0.00000000000E+00 -0.29250951232E+03  0.29250951232E+03  0.00000000000E+00 0. -1.
         25    2    1    2    0    0  0.30886871538E+02  0.18823321993E+02 -0.10124936996E+03  0.16495147127E+03  0.12509690912E+03 0.  0.
          5    1    3    3  502    0  0.34547893795E+01 -0.51819469661E+02 -0.56445696137E+02  0.76816547814E+02  0.41800000000E+01 0. -1.
         -5    1    3    3    0  502  0.27432082158E+02  0.70642791654E+02 -0.44803673824E+02  0.88134923454E+02  0.41800000000E+01 0. -1.
        -11    1    1    2    0    0 -0.63423616599E+02 -0.21686739996E+02 -0.12171311489E+03  0.13894945905E+03  0.00000000000E+00 0. -1.
         11    1    1    2    0    0  0.32536745061E+02  0.28634180027E+01 -0.19905525808E+02  0.38250083653E+02  0.00000000000E+00 0.  1.
</event>
<event>
 7    1  0.2766180E-009  0.1395945E+03  0.7561462E-02  0.1213876E+00
         -1   -1    0    0    0  501 -0.00000000000E+00  0.00000000000E+00  0.42423742317E+03  0.42423742317E+03  0.00000000000E+00 0.  1.
          1   -1    0    0  501    0  0.00000000000E+00 -0.00000000000E+00 -0.51310699053E+02  0.51310699053E+02  0.00000000000E+00 0. -1.
         25    2    1    2    0    0 -0.28394581899E+02 -0.86673747531E+02  0.27062270986E+03  0.31176973646E+03  0.12508048086E+03 0.  0.
          5    1    3    3  502    0 -0.67858961447E+02 -0.11671524918E+02  0.13881846563E+03  0.15501323151E+03  0.41800000000E+01 0.  1.
         -5    1    3    3    0  502  0.39464379548E+02 -0.75002222613E+02  0.13180424422E+03  0.15675650495E+03  0.41800000000E+01 0.  1.
        -11    1    1    2    0    0  0.50564958281E+02  0.89706108717E+02  0.95362670276E+02  0.14034970548E+03  0.00000000000E+00 0.  1.
         11    1    1    2    0    0 -0.22170376382E+02 -0.30323611863E+01  0.69413439907E+01  0.23428680280E+02  0.00000000000E+00 0. -1.
</event>
<event>
 7    1  0.2766180E-009  0.9673275E+02  0.7561462E-02  0.1287321E+00
          1   -1    0    0  501    0  0.00000000000E+00  0.00000000000E+00  0.26682662243E+03  0.26682662243E+03  0.00000000000E+00 0. -1.
         -1   -1    0    0    0  501 -0.00000000000E+00 -0.00000000000E+00 -0.57072382899E+02  0.57072382899E+02  0.00000000000E+00 0.  1.
         25    2    1    2    0    0 -0.14761600153E+02  0.20909838756E+02  0.18428103824E+03  0.22418423995E+03  0.12507576180E+03 0.  0.
          5    1    3    3  502    0 -0.26018158286E+02 -0.47699713528E+02  0.55545012835E+02  0.77813418393E+02  0.41800000000E+01 0.  1.
         -5    1    3    3    0  502  0.11256558133E+02  0.68609552284E+02  0.12873602540E+03  0.14637082155E+03  0.41800000000E+01 0.  1.
        -11    1    1    2    0    0 -0.36185755398E+01 -0.41534680454E+02 -0.20206622117E+02  0.46330673929E+02  0.00000000000E+00 0.  1.
         11    1    1    2    0    0  0.18380175692E+02  0.20624841699E+02  0.45679823413E+02  0.53384091457E+02  0.00000000000E+00 0. -1.
</event>
<event>
 7    1  0.2766180E-009  0.9798428E+02  0.7561462E-02  0.1284593E+00
          4   -1    0    0  501    0  0.00000000000E+00  0.00000000000E+00  0.53468058108E+02  0.53468058108E+02  0.00000000000E+00 0. -1.
         -4   -1    0    0    0  501 -0.00000000000E+00 -0.00000000000E+00 -0.23341952773E+03  0.23341952773E+03  0.00000000000E+00 0.  1.
         25    2    1    2    0    0 -0.32138053530E+02 -0.28866784690E+02 -0.15838651378E+03  0.20639737813E+03  0.12508974461E+03 0.  0.
          5    1    3    3  502    0 -0.38797683625E+02  0.39209436768E+02 -0.35605014277E+02  0.65786241936E+02  0.41800000000E+01 0. -1.
         -5    1    3    3    0  502  0.66596300949E+01 -0.68076221458E+02 -0.12278149950E+03  0.14061113619E+03  0.41800000000E+01 0. -1.
        -11    1    1    2    0    0  0.29152217274E+02 -0.11723730964E+02  0.51006979853E+01  0.31832605291E+02  0.00000000000E+00 0.  1.
         11    1    1    2    0    0  0.29858362566E+01  0.40590515654E+02 -0.26665653830E+02  0.48657602421E+02  0.00000000000E+00 0. -1.
</event>
<event>
 7    1  0.2789300E-009  0.8603424E+02  0.7561462E-02  0.1312750E+00
          1   -1    0    0  501    0  0.00000000000E+00  0.00000000000E+00  0.43302096761E+03  0.43302096761E+03  0.00000000000E+00 0. -1.
         -1   -1    0    0    0  501 -0.00000000000E+00 -0.00000000000E+00 -0.34631507274E+02  0.34631507274E+02  0.00000000000E+00 0.  1.
         25    2    1    2    0    0  0.46414706791E+02  0.22368801589E+02  0.17714519897E+03  0.22288942738E+03  0.12507832357E+03 0.  0.
          5    1    3    3  502    0  0.57903461878E+02  0.30972874082E+02  0.25593100296E+02  0.70601763499E+02  0.41800000000E+01 0.  1.
         -5    1    3    3    0  502 -0.11488755086E+02 -0.86040724936E+01  0.15155209867E+03  0.15228766388E+03  0.41800000000E+01 0.  1.
        -11    1    1    2    0    0  0.50016289634E+01 -0.37413887800E+02  0.15519240805E+03  0.15971693338E+03  0.00000000000E+00 0. -1.
         11    1    1    2    0    0 -0.51416335755E+02  0.15045086211E+02  0.66051853320E+02  0.85046114129E+02  0.00000000000E+00 0.  1.
</event>
<event>
 7    1  0.2766180E-009  0.9648667E+02  0.7561462E-02  0.1287862E+00
          2   -1    0    0  501    0  0.00000000000E+00  0.00000000000E+00  0.46702881000E+03  0.46702881000E+03  0.00000000000E+00 0. -1.
         -2   -1    0    0    0  501 -0.00000000000E+00 -0.00000000000E+00 -0.30080953309E+02  0.30080953309E+02  0.00000000000E+00 0.  1.
         25    2    1    2    0    0 -0.28545741387E+02  0.40757303269E+02  0.30577591130E+03  0.33409869665E+03  0.12508802520E+03 0.  0.
          5    1    3    3  502    0 -0.13018562343E+02 -0.40511735537E+02  0.53019726333E+02  0.68112021421E+02  0.41800000000E+01 0. -1.
         -5    1    3    3    0  502 -0.15527179044E+02  0.81269038806E+02  0.25275618497E+03  0.26598667523E+03  0.41800000000E+01 0. -1.
        -11    1    1    2    0    0  0.36548288272E+02 -0.13496434450E+02  0.12397044605E+02  0.40885423239E+02  0.00000000000E+00 0.  1.
         11    1    1    2    0    0 -0.80025468852E+01 -0.27260868818E+02  0.11877490078E+03  0.12212564342E+03  0.00000000000E+00 0. -1.
</event>
<event>
 7    1  0.2766180E-009  0.1088193E+03  0.7561462E-02  0.1262772E+00
         -1   -1    0    0    0  501 -0.00000000000E+00  0.00000000000E+00  0.62016250586E+03  0.62016250586E+03  0.00000000000E+00 0.  1.
          1   -1    0    0  501    0  0.00000000000E+00 -0.00000000000E+00 -0.36431314769E+02  0.36431314769E+02  0.00000000000E+00 0. -1.
         25    2    1    2    0    0 -0.19697728553E+02  0.46381837900E+02  0.51499720205E+03  0.53236435788E+03  0.12510162278E+03 0.  0.
          5    1    3    3  502    0  0.51738582140E+02  0.14502086218E+02  0.26324008232E+03  0.26870058564E+03  0.41800000000E+01 0.  1.
         -5    1    3    3    0  502 -0.71436310693E+02  0.31879751682E+02  0.25175711973E+03  0.26366377224E+03  0.41800000000E+01 0.  1.
        -11    1    1    2    0    0  0.79600189263E+01  0.18147696355E+02  0.53278750269E+02  0.56844753624E+02  0.00000000000E+00 0.  1.
         11    1    1    2    0    0  0.11737709627E+02 -0.64529534255E+02  0.15455238769E+02  0.67384709125E+02  0.00000000000E+00 0. -1.
</event>
<event>
 7    1  0.2766180E-009  0.1133200E+03  0.7561462E-02  0.1254542E+00
          1   -1    0    0  501    0  0.00000000000E+00  0.00000000000E+00  0.75310105981E+03  0.75310105981E+03  0.00000000000E+00 0. -1.
         -1   -1    0    0    0  501 -0.00000000000E+00 -0.00000000000E+00 -0.25228072528E+02  0.25228072528E+02  0.00000000000E+00 0.  1.
         25    2    1    2    0    0 -0.68247557026E+02 -0.19270411772E+02  0.52388539222E+03  0.54326009901E+03  0.12508618306E+03 0.  0.
          5    1    3    3  502    0  0.68502877577E+01  0.26421042017E+02  0.26923401601E+02  0.38566045394E+02  0.41800000000E+01 0. -1.
         -5    1    3    3    0  502 -0.75097844784E+02 -0.45691453788E+02  0.49696199062E+03  0.50469405362E+03  0.41800000000E+01 0. -1.
        -11    1    1    2    0    0  0.53977886605E+02  0.52227313526E+02  0.10007365255E+03  0.12512410022E+03  0.00000000000E+00 0.  1.
         11    1    1    2    0    0  0.14269670421E+02 -0.32956901754E+02  0.10391394251E+03  0.10994493311E+03  0.00000000000E+00 0. -1.
</event>
<event>
 7    1  0.2766180E-009  0.1060602E+03  0.7561462E-02  0.1268045E+00
          1   -1    0    0  501    0  0.00000000000E+00  0.00000000000E+00  0.32415531934E+03  0.32415531934E+03  0.00000000000E+00 0. -1.
         -1   -1    0    0    0  501 -0.00000000000E+00 -0.00000000000E+00 -0.62050632559E+02  0.62050632559E+02  0.00000000000E+00 0.  1.
         25    2    1    2    0    0 -0.48255279873E+02 -0.46969428070E+02  0.58445135284E+02  0.15361991211E+03  0.12509414195E+03 0.  0.
          5    1    3    3  502    0 -0.20771246044E+02 -0.89001088765E+02  0.41424971619E+02  0.10042977217E+03  0.41800000000E+01 0. -1.
         -5    1    3    3    0  502 -0.27484033829E+02  0.42031660696E+02  0.17020163664E+02  0.53190139946E+02  0.41800000000E+01 0. -1.
        -11    1    1    2    0    0  0.26411295403E+02  0.12005287629E+02  0.46877867451E+01  0.29388072419E+02  0.00000000000E+00 0.  1.
         11    1    1    2    0    0  0.21843984470E+02  0.34964140441E+02  0.19897176475E+03  0.20319796737E+03  0.00000000000E+00 0. -1.
</event>
<event>
 7    1  0.2766180E-009  0.6257728E+02  0.7561462E-02  0.1387324E+00
          2   -1    0    0  501    0  0.00000000000E+00  0.00000000000E+00  0.55979947917E+03  0.55979947917E+03  0.00000000000E+00 0. -1.
         -2   -1    0    0    0  501 -0.00000000000E+00 -0.00000000000E+00 -0.26697660119E+02  0.26697660119E+02  0.00000000000E+00 0.  1.
         25    2    1    2    0    0  0.24256186556E+02 -0.30815203988E+01  0.17667527221E+03  0.21785003246E+03  0.12508647601E+03 0.  0.
          5    1    3    3  502    0  0.10613920784E+02 -0.10732341042E+02  0.19371394488E+03  0.19434609155E+03  0.41800000000E+01 0.  1.
         -5    1    3    3    0  502  0.13642265772E+02  0.76508206427E+01 -0.17038672674E+02  0.23503940912E+02  0.41800000000E+01 0.  1.
        -11    1    1    2    0    0 -0.14124110309E+02  0.46561801296E+02  0.16134335132E+03  0.16852052945E+03  0.00000000000E+00 0.  1.
         11    1    1    2    0    0 -0.10132076247E+02 -0.43480280898E+02  0.19508319552E+03  0.20012657737E+03  0.00000000000E+00 0. -1.
</event>
<event>
 7    1  0.2824240E-009  0.2084652E+03  0.7561462E-02  0.1142787E+00
         -1   -1    0    0    0  501 -0.00000000000E+00  0.00000000000E+00  0.19101510414E+03  0.19101510414E+03  0.00000000000E+00 0.  1.
          1   -1    0    0  501    0  0.00000000000E+00 -0.00000000000E+00 -0.28476100177E+03  0.28476100177E+03  0.00000000000E+00 0. -1.
         25    2    1    2    0    0 -0.43372359587E+02 -0.18634301412E+03 -0.12634139997E+03  0.26115697225E+03  0.12504372964E+03 0.  0.
          5    1    3    3  502    0 -0.78628293421E+02 -0.16782889581E+03 -0.86140366500E+02  0.20441766542E+03  0.41800000000E+01 0. -1.
         -5    1    3    3    0  502  0.35255933835E+02 -0.18514118304E+02 -0.40201033466E+02  0.56739306824E+02  0.41800000000E+01 0. -1.
        -11    1    1    2    0    0  0.77845300031E+01  0.49747019485E+02 -0.31710418311E+02  0.59505592044E+02  0.00000000000E+00 0.  1.
         11    1    1    2    0    0  0.35587829583E+02  0.13659599463E+03  0.64305920652E+02  0.15511354162E+03  0.00000000000E+00 0. -1.
</event>
<event>
 7    1  0.2766180E-009  0.1106323E+03  0.7561462E-02  0.1259403E+00
          2   -1    0    0  501    0  0.00000000000E+00  0.00000000000E+00  0.51897049666E+03  0.51897049666E+03  0.00000000000E+00 0. -1.
         -2   -1    0    0    0  501 -0.00000000000E+00 -0.00000000000E+00 -0.10666237679E+03  0.10666237679E+03  0.00000000000E+00 0.  1.
         25    2    1    2    0    0  0.95555231829E+01 -0.46654355090E+02  0.48205837758E+03  0.50029650191E+03  0.12509345929E+03 0.  0.
          5    1    3    3  502    0  0.23015029693E+02  0.30914362731E+02  0.63658468059E+02  0.74533632478E+02  0.41800000000E+01 0.  1.
         -5    1    3    3    0  502 -0.13459506510E+02 -0.77568717821E+02  0.41839990952E+03  0.42576286943E+03  0.41800000000E+01 0.  1.
        -11    1    1    2    0    0 -0.37424370372E+02 -0.11517142031E+02 -0.32229936221E+02  0.50714858247E+02  0.00000000000E+00 0.  1.
         11    1    1    2    0    0  0.27868847189E+02  0.58171497121E+02 -0.37520321497E+02  0.74621513293E+02  0.00000000000E+00 0. -1.
</event>
<event>
 7    1  0.2766180E-009  0.1853863E+03  0.7561462E-02  0.1162690E+00
          2   -1    0    0  501    0  0.00000000000E+00  0.00000000000E+00  0.57368514162E+03  0.57368514162E+03  0.00000000000E+00 0. -1.
         -2   -1    0    0    0  501 -0.00000000000E+00 -0.00000000000E+00 -0.14145182915E+03  0.14145182915E+03  0.00000000000E+00 0.  1.
         25    2    1    2    0    0 -0.15761197275E+03 -0.85792193772E+02  0.46219070594E+03  0.51134045584E+03  0.12508788372E+03 0.  0.
          5    1    3    3  502    0 -0.15997201014E+03 -0.74007229338E+02  0.29504338643E+03  0.34370945041E+03  0.41800000000E+01 0. -1.
         -5    1    3    3    0  502  0.23600373895E+01 -0.11784964434E+02  0.16714731951E+03  0.16763100543E+03  0.41800000000E+01 0. -1.
        -11    1    1    2    0    0  0.58853961069E+02  0.48174998776E+02 -0.56604927185E+02  0.94808950116E+02  0.00000000000E+00 0.  1.
         11    1    1    2    0    0  0.98758011677E+02  0.37617194996E+02  0.26647533711E+02  0.10898756481E+03  0.00000000000E+00 0. -1.
</event>
<event>
 7    1  0.2766180E-009  0.1776871E+03  0.7561462E-02  0.1170060E+00
         -1   -1    0    0    0  501 -0.00000000000E+00  0.00000000000E+00  0.51230200902E+02  0.51230200902E+02  0.00000000000E+00 0.  1.
          1   -1    0    0  501    0  0.00000000000E+00 -0.00000000000E+00 -0.10886086067E+04  0.10886086067E+04  0.00000000000E+00 0. -1.
         25    2    1    2    0    0 -0.12946377532E+02  0.17291898413E+03 -0.81749234123E+03  0.84498992915E+03  0.12508264719E+03 0.  0.
          5    1    3    3  502    0 -0.27053012883E+02  0.12168012457E+03 -0.74295540832E+03  0.75335126559E+03  0.41800000000E+01 0.  1.
         -5    1    3    3    0  502  0.14106635351E+02  0.51238859564E+02 -0.74536932909E+02  0.91638663553E+02  0.41800000000E+01 0.  1.
        -11    1    1    2    0    0 -0.11318962923E+02 -0.24941175756E+02  0.15308507723E+01  0.27432183176E+02  0.00000000000E+00 0.  1.
         11    1    1    2    0    0  0.24265340455E+02 -0.14797780837E+03 -0.22141691538E+03  0.26741669532E+03  0.00000000000E+00 0. -1.
</event>
<event>
 7    1  0.2766180E-009  0.1707237E+03  0.7561462E-02  0.1177095E+00
          1   -1    0    0  501    0  0.00000000000E+00  0.00000000000E+00  0.40640284945E+03  0.40640284945E+03  0.00000000000E+00 0. -1.
         -1   -1    0    0    0  501 -0.00000000000E+00 -0.00000000000E+00 -0.86307138429E+02  0.86307138429E+02  0.00000000000E+00 0.  1.
         25    2    1    2    0    0 -0.58346355427E+02 -0.12468076438E+03  0.76696244629E+02  0.20118468241E+03  0.12507346759E+03 0.  0.
          5    1    3    3  502    0  0.14106770610E+02 -0.11036784779E+03  0.37631295911E+02  0.11753148359E+03  0.41800000000E+01 0.  1.
         -5    1    3    3    0  502 -0.72453126037E+02 -0.14312916596E+02  0.39064948718E+02  0.83653198817E+02  0.41800000000E+01 0.  1.
        -11    1    1    2    0    0 -0.79105755073E+01  0.69378388850E+02  0.76132547596E+02  0.10330587035E+03  0.00000000000E+00 0. -1.
         11    1    1    2    0    0  0.66256930934E+02  0.55302375534E+02  0.16726691880E+03  0.18821943513E+03  0.00000000000E+00 0.  1.
</event>
<event>
 7    1  0.2766180E-009  0.8439496E+02  0.7561462E-02  0.1317022E+00
          2   -1    0    0  501    0  0.00000000000E+00  0.00000000000E+00  0.36133421703E+03  0.36133421703E+03  0.00000000000E+00 0. -1.
         -2   -1    0    0    0  501 -0.00000000000E+00 -0.00000000000E+00 -0.34569449988E+02  0.34569449988E+02  0.00000000000E+00 0.  1.
         25    2    1    2    0    0  0.79104879494E+01 -0.36666936072E+01  0.21934918658E+03  0.25266038796E+03  0.12508871064E+03 0.  0.
          5    1    3    3  502    0  0.36006365669E+01 -0.54072471582E+02  0.43457936922E+02  0.69590670698E+02  0.41800000000E+01 0. -1.
         -5    1    3    3    0  502  0.43098513825E+01  0.50405777975E+02  0.17589124966E+03  0.18306971726E+03  0.41800000000E+01 0. -1.
        -11    1    1    2    0    0 -0.35509334565E+02  0.58565303287E+01  0.40289074796E+01  0.36213863150E+02  0.00000000000E+00 0.  1.
         11    1    1    2    0    0  0.27598846616E+02 -0.21898367215E+01  0.10338667298E+03  0.10702941591E+03  0.00000000000E+00 0. -1.
</event>
<event>
 7    1  0.2766180E-009  0.9352282E+02  0.7561462E-02  0.1294538E+00
          1   -1    0    0  501    0  0.00000000000E+00  0.00000000000E+00  0.20975597520E+03  0.20975597520E+03  0.00000000000E+00 0. -1.
         -1   -1    0    0    0  501 -0.00000000000E+00 -0.00000000000E+00 -0.97428524952E+02  0.97428524952E+02  0.00000000000E+00 0.  1.
         25    2    1    2    0    0 -0.20016944004E+02 -0.74232690058E+02  0.11170710775E+03  0.18449479622E+03  0.12509469049E+03 0.  0.
          5    1    3    3  502    0  0.46076787050E+01 -0.29172218615E+02  0.12723596021E+03  0.13068554247E+03  0.41800000000E+01 0. -1.
         -5    1    3    3    0  502 -0.24624622709E+02 -0.45060471442E+02 -0.15528852455E+02  0.53809253746E+02  0.41800000000E+01 0. -1.
        -11    1    1    2    0    0 -0.27612786988E+02  0.27411983775E+02  0.30581343201E+02  0.49488396738E+02  0.00000000000E+00 0. -1.
         11    1    1    2    0    0  0.47629730991E+02  0.46820706283E+02 -0.29961000708E+02  0.73201307191E+02  0.00000000000E+00 0.  1.
</event>
<event>
 7    1  0.2766180E-009  0.1084001E+03  0.7561462E-02  0.1263562E+00
         -2   -1    0    0    0  501 -0.00000000000E+00  0.00000000000E+00  0.90238747419E+03  0.90238747419E+03  0.00000000000E+00 0.  1.
          2   -1    0    0  501    0  0.00000000000E+00 -0.00000000000E+00 -0.18574730519E+02  0.18574730519E+02  0.00000000000E+00 0. -1.
         25    2    1    2    0    0 -0.45333100102E+02  0.14520417437E+02  0.67264072300E+03  0.68582745186E+03  0.12509124269E+03 0.  0.
          5    1    3    3  502    0 -0.62506186425E+02 -0.40572419126E+02  0.32990774505E+03  0.33824508448E+03  0.41800000000E+01 0. -1.
         -5    1    3    3    0  502  0.17173086323E+02  0.55092836562E+02  0.34273297795E+03  0.34758236738E+03  0.41800000000E+01 0. -1.
        -11    1    1    2    0    0 -0.10314869224E+02 -0.25568708095E+02  0.14664058765E+03  0.14920997724E+03  0.00000000000E+00 0.  1.
         11    1    1    2    0    0  0.55647969326E+02  0.11048290658E+02  0.64531433026E+02  0.85924775618E+02  0.00000000000E+00 0. -1.
</event>
<event>
 7    1  0.2766180E-009  0.1043336E+03  0.7561462E-02  0.1271438E+00
         -1   -1    0    0    0  501 -0.00000000000E+00  0.00000000000E+00  0.81876684919E+02  0.81876684919E+02  0.00000000000E+00 0.  1.
          1   -1    0    0  501    0  0.00000000000E+00 -0.00000000000E+00 -0.22708950352E+03  0.22708950352E+03  0.00000000000E+00 0. -1.
         25    2    1    2    0    0 -0.77576195834E+02 -0.32287100550E+02 -0.38451281064E+02  0.15552048576E+03  0.12509035716E+03 0.  0.
          5    1    3    3  502    0 -0.20905676786E+02 -0.53399681517E+02  0.29362711060E+02  0.64561710858E+02  0.41800000000E+01 0.  1.
         -5    1    3    3    0  502 -0.56670519048E+02  0.21112580967E+02 -0.67813992125E+02  0.90958774904E+02  0.41800000000E+01 0.  1.
        -11    1    1    2    0    0  0.12498741811E+02  0.21090028391E+02 -0.77379506336E+02  0.81170165980E+02  0.00000000000E+00 0. -1.
         11    1    1    2    0    0  0.65077454023E+02  0.11197072159E+02 -0.29382031198E+02  0.72275536694E+02  0.00000000000E+00 0.  1.
</event>
<event>
 7    1  0.2766180E-009  0.2224078E+03  0.7561462E-02  0.1132101E+00
         -1   -1    0    0    0  501 -0.00000000000E+00  0.00000000000E+00  0.27303932909E+03  0.27303932909E+03  0.00000000000E+00 0.  1.
          1   -1    0    0  501    0  0.00000000000E+00 -0.00000000000E+00 -0.18682300893E+03  0.18682300893E+03  0.00000000000E+00 0. -1.
         25    2    1    2    0    0  0.73053565939E+02  0.17856123912E+03  0.11891694016E+02  0.23023891257E+03  0.12509038678E+03 0.  0.
          5    1    3    3  502    0  0.86093874176E+02  0.19081256381E+03  0.19641565821E+02  0.21029705938E+03  0.41800000000E+01 0.  1.
         -5    1    3    3    0  502 -0.13040308237E+02 -0.12251324690E+02 -0.77498718046E+01  0.19941853188E+02  0.41800000000E+01 0.  1.
        -11    1    1    2    0    0  0.94602811543E+01 -0.10823073266E+03  0.42107089101E+02  0.11651778991E+03  0.00000000000E+00 0.  1.
         11    1    1    2    0    0 -0.82513847093E+02 -0.70330506455E+02  0.32217537044E+02  0.11310563555E+03  0.00000000000E+00 0. -1.
</event>
<event>
 7    1  0.2766180E-009  0.1013019E+03  0.7561462E-02  0.1277582E+00
          2   -1    0    0  501    0  0.00000000000E+00  0.00000000000E+00  0.30369667850E+02  0.30369667850E+02  0.00000000000E+00 0. -1.
         -2   -1    0    0    0  501 -0.00000000000E+00 -0.00000000000E+00 -0.41398655648E+03  0.41398655648E+03  0.00000000000E+00 0.  1.
         25    2    1    2    0    0 -0.11535493879E+02  0.79581090252E+01 -0.27229227007E+03  0.29997950256E+03  0.12509285551E+03 0.  0.
          5    1    3    3  502    0 -0.37328492578E+02  0.49170577503E+02 -0.21965065636E+03  0.22819957338E+03  0.41800000000E+01 0.  1.
         -5    1    3    3    0  502  0.25792998699E+02 -0.41212468477E+02 -0.52641613712E+02  0.71779929187E+02  0.41800000000E+01 0.  1.
        -11    1    1    2    0    0 -0.35899867130E+01  0.40760144749E+02 -0.49115746616E+02  0.63926786015E+02  0.00000000000E+00 0.  1.
         11    1    1    2    0    0  0.15125480592E+02 -0.48718253774E+02 -0.62208871943E+02  0.80449935751E+02  0.00000000000E+00 0. -1.
</event>
<event>
 7    1  0.2766180E-009  0.1157709E+03  0.7561462E-02  0.1250241E+00
          2   -1    0    0  501    0  0.00000000000E+00  0.00000000000E+00  0.55181153214E+03  0.55181153214E+03  0.00000000000E+00 0. -1.
         -2   -1    0    0    0  501 -0.00000000000E+00 -0.00000000000E+00 -0.82923116270E+02  0.82923116270E+02  0.00000000000E+00 0.  1.
         25    2    1    2    0    0  0.40555396557E+02  0.45635954763E+02  0.50148972560E+03  0.52044915742E+03  0.12509196624E+03 0.  0.
          5    1    3    3  502    0  0.23051520908E+02  0.89047773458E+02  0.32152064288E+03  0.33444562305E+03  0.41800000000E+01 0.  1.
         -5    1    3    3    0  502  0.17503875649E+02 -0.43411818694E+02  0.17996908272E+03  0.18600353437E+03  0.41800000000E+01 0.  1.
        -11    1    1    2    0    0 -0.45942059074E+02  0.57524032632E+00  0.14402771195E+02  0.48150218187E+02  0.00000000000E+00 0. -1.
         11    1    1    2    0    0  0.53866625168E+01 -0.46211195090E+02 -0.47004080929E+02  0.66135272802E+02  0.00000000000E+00 0.  1.
</event>
<event>
 7    1  0.2766180E-009  0.1333428E+03  0.7561462E-02  0.1222578E+00
         -1   -1    0    0    0  501 -0.00000000000E+00  0.00000000000E+00  0.20891032006E+02  0.20891032006E+02  0.00000000000E+00 0.  1.
          1   -1    0    0  501    0  0.00000000000E+00 -0.00000000000E+00 -0.92720937172E+03  0.92720937172E+03  0.00000000000E+00 0. -1.
         25    2    1    2    0    0  0.45393909300E+02  0.70422285722E+02 -0.50400938296E+03  0.52601626860E+03  0.12509097247E+03 0.  0.
          5    1    3    3  502    0  0.25194949132E+02 -0.28340479802E+02 -0.24671184503E+03  0.24964409694E+03  0.41800000000E+01 0.  1.
         -5    1    3    3    0  502  0.20198960168E+02  0.98762765524E+02 -0.25729753792E+03  0.27637217166E+03  0.41800000000E+01 0.  1.
        -11    1    1    2    0    0  0.29432725788E+02 -0.88377365989E+01 -0.10142422558E+03  0.10597766024E+03  0.00000000000E+00 0.  1.
         11    1    1    2    0    0 -0.74826635088E+02 -0.61584549123E+02 -0.30088473117E+03  0.31610647488E+03  0.00000000000E+00 0. -1.
</event>
<event>
 7    1  0.2766180E-009  0.1203258E+03  0.7561462E-02  0.1242561E+00
          1   -1    0    0  501    0  0.00000000000E+00  0.00000000000E+00  0.15319089785E+04  0.15319089785E+04  0.00000000000E+00 0. -1.
         -1   -1    0    0    0  501 -0.00000000000E+00 -0.00000000000E+00 -0.15284401858E+02  0.15284401858E+02  0.00000000000E+00 0.  1.
         25    2    1    2    0    0  0.51200616684E+02 -0.47519569886E+01  0.12920120488E+04  0.12990712456E+04  0.12508750044E+03 0.  0.
          5    1    3    3  502    0  0.66406601677E+02 -0.52626941325E+02  0.80556914063E+03  0.81002379251E+03  0.41800000000E+01 0.  1.
         -5    1    3    3    0  502 -0.15205984993E+02  0.47874984336E+02  0.48644290816E+03  0.48904745312E+03  0.41800000000E+01 0.  1.
        -11    1    1    2    0    0  0.78806168682E+00 -0.38057452571E+02  0.79431665072E+02  0.88081667522E+02  0.00000000000E+00 0.  1.
         11    1    1    2    0    0 -0.51988678371E+02  0.42809409559E+02  0.14518086279E+03  0.16004046721E+03  0.00000000000E+00 0. -1.
</event>
<event>
 7    1  0.2766180E-009  0.1270923E+03  0.7561462E-02  0.1231835E+00
         -3   -1    0    0    0  501 -0.00000000000E+00  0.00000000000E+00  0.24507655122E+03  0.24507655122E+03  0.00000000000E+00 0.  1.
          3   -1    0    0  501    0  0.00000000000E+00 -0.00000000000E+00 -0.17672535976E+03  0.17672535976E+03  0.00000000000E+00 0. -1.
         25    2    1    2    0    0 -0.61213209603E+02 -0.62623829112E+02 -0.12048481826E+03  0.19450703230E+03  0.12509034008E+03 0.  0.
          5    1    3    3  502    0  0.77103532183E+01  0.30215162445E+02 -0.65753316022E+01  0.32142074824E+02  0.41800000000E+01 0.  1.
         -5    1    3    3    0  502 -0.68923562822E+02 -0.92838991557E+02 -0.11390948666E+03  0.16236495748E+03  0.41800000000E+01 0.  1.
        -11    1    1    2    0    0  0.71146146573E+02  0.38419424399E+02  0.18359555281E+03  0.20061194719E+03  0.00000000000E+00 0.  1.
         11    1    1    2    0    0 -0.99329369691E+01  0.24204404713E+02  0.52404569079E+01  0.26682931491E+02  0.00000000000E+00 0. -1.
</event>
<event>
 7    1  0.2766180E-009  0.1648478E+03  0.7561462E-02  0.1183330E+00
          1   -1    0    0  501    0  0.00000000000E+00  0.00000000000E+00  0.99634093511E+03  0.99634093511E+03  0.00000000000E+00 0. -1.
         -1   -1    0    0    0  501 -0.00000000000E+00 -0.00000000000E+00 -0.28324557782E+02  0.28324557782E+02  0.00000000000E+00 0.  1.
         25    2    1    2    0    0 -0.11373997744E+03 -0.56643380695E+02  0.56970186937E+03  0.59695411654E+03  0.12509493296E+03 0.  0.
          5    1    3    3  502    0 -0.11738084889E+03  0.31292315763E+01  0.40269842976E+03  0.41948963456E+03  0.41800000000E+01 0. -1.
         -5    1    3    3    0  502  0.36408714542E+01 -0.59772612271E+02  0.16700343961E+03  0.17746448198E+03  0.41800000000E+01 0. -1.
        -11    1    1    2    0    0  0.36390444987E+02 -0.21459750838E+02  0.15619403774E+03  0.16180655987E+03  0.00000000000E+00 0.  1.
         11    1    1    2    0    0  0.77349532449E+02  0.78103131533E+02  0.24212047022E+03  0.26590481648E+03  0.00000000000E+00 0. -1.
</event>
<event>
 7    1  0.2766180E-009  0.9581754E+02  0.7561462E-02  0.1289345E+00
          1   -1    0    0  501    0  0.00000000000E+00  0.00000000000E+00  0.81159719508E+02  0.81159719508E+02  0.00000000000E+00 0. -1.
         -1   -1    0    0    0  501 -0.00000000000E+00 -0.00000000000E+00 -0.28469705266E+03  0.28469705266E+03  0.00000000000E+00 0.  1.
         25    2    1    2    0    0  0.24094696406E+02  0.69543411542E+02 -0.19687065453E+02  0.14646621127E+03  0.12509168643E+03 0.  0.
          5    1    3    3  502    0  0.14035414516E+02  0.24220679965E+02  0.53018931138E+02  0.60100862370E+02  0.41800000000E+01 0.  1.
         -5    1    3    3    0  502  0.10059281890E+02  0.45322731577E+02 -0.72705996591E+02  0.86365348897E+02  0.41800000000E+01 0.  1.
        -11    1    1    2    0    0 -0.46314711702E+02 -0.79783193366E+02 -0.16277377392E+03  0.18709813452E+03  0.00000000000E+00 0. -1.
         11    1    1    2    0    0  0.22220015296E+02  0.10239781824E+02 -0.21076493771E+02  0.32292426376E+02  0.00000000000E+00 0.  1.
</event>
<event>
 7    1  0.2766180E-009  0.8981447E+02  0.7561462E-02  0.1303302E+00
         -2   -1    0    0    0  501 -0.00000000000E+00  0.00000000000E+00  0.24673807141E+02  0.24673807141E+02  0.00000000000E+00 0.  1.
          2   -1    0    0  501    0  0.00000000000E+00 -0.00000000000E+00 -0.51507010296E+03  0.51507010296E+03  0.00000000000E+00 0. -1.
         25    2    1    2    0    0  0.43520144016E+01 -0.24104838620E+01 -0.33797612385E+03  0.36041636263E+03  0.12508934285E+03 0.  0.
          5    1    3    3  502    0  0.56180255908E+02 -0.17760784335E+02 -0.25155694756E+03  0.25839898777E+03  0.41800000000E+01 0. -1.
         -5    1    3    3    0  502 -0.51828241506E+02  0.15350300473E+02 -0.86419176288E+02  0.10201737486E+03  0.41800000000E+01 0. -1.
        -11    1    1    2    0    0 -0.33414302657E+02  0.12359576003E+02 -0.15239049675E+02  0.38749237102E+02  0.00000000000E+00 0.  1.
         11    1    1    2    0    0  0.29062288255E+02 -0.99490921409E+01 -0.13718112229E+03  0.14057831037E+03  0.00000000000E+00 0. -1.
</event>
<event>
 7    1  0.2766180E-009  0.1059840E+03  0.7561462E-02  0.1268193E+00
          1   -1    0    0  501    0  0.00000000000E+00  0.00000000000E+00  0.54183254291E+03  0.54183254291E+03  0.00000000000E+00 0. -1.
         -1   -1    0    0    0  501 -0.00000000000E+00 -0.00000000000E+00 -0.28861501892E+02  0.28861501892E+02  0.00000000000E+00 0.  1.
         25    2    1    2    0    0 -0.46729643459E+01  0.40175891557E+02  0.39509788566E+03  0.41639804236E+03  0.12509616928E+03 0.  0.
          5    1    3    3  502    0 -0.14827623030E+02 -0.43707925161E+02  0.12243954687E+03  0.13091660003E+03  0.41800000000E+01 0.  1.
         -5    1    3    3    0  502  0.10154658684E+02  0.83883816717E+02  0.27265833880E+03  0.28548144233E+03  0.41800000000E+01 0.  1.
        -11    1    1    2    0    0  0.37131223587E+02 -0.27384859364E+02  0.19807718236E+02  0.50209600567E+02  0.00000000000E+00 0.  1.
         11    1    1    2    0    0 -0.32458259241E+02 -0.12791032193E+02  0.98065437118E+02  0.10408640187E+03  0.00000000000E+00 0. -1.
</event>
<event>
 7    1  0.2766180E-009  0.9127440E+02  0.7561462E-02  0.1299795E+00
          1   -1    0    0  501    0  0.00000000000E+00  0.00000000000E+00  0.72429507516E+02  0.72429507516E+02  0.00000000000E+00 0. -1.
         -1   -1    0    0    0  501 -0.00000000000E+00 -0.00000000000E+00 -0.16996770059E+03  0.16996770059E+03  0.00000000000E+00 0.  1.
         25    2    1    2    0    0  0.79678504409E+00 -0.36589149422E+02 -0.68610344489E+02  0.14729006815E+03  0.12509030371E+03 0.  0.
          5    1    3    3  502    0  0.13901406476E+02 -0.81693251018E+02 -0.39735414024E+02  0.91996803703E+02  0.41800000000E+01 0. -1.
         -5    1    3    3    0  502 -0.13104621432E+02  0.45104101596E+02 -0.28874930465E+02  0.55293264445E+02  0.41800000000E+01 0. -1.
        -11    1    1    2    0    0 -0.18522080837E+02  0.25484822301E+02 -0.53961705855E+02  0.62485273025E+02  0.00000000000E+00 0.  1.
         11    1    1    2    0    0  0.17725295793E+02  0.11104327121E+02  0.25033857276E+02  0.32621866928E+02  0.00000000000E+00 0. -1.
</event>
<event>
 7    1  0.2766180E-009  0.1303595E+03  0.7561462E-02  0.1226923E+00
         -1   -1    0    0    0  501 -0.00000000000E+00  0.00000000000E+00  0.61756157707E+02  0.61756157707E+02  0.00000000000E+00 0.  1.
          1   -1    0    0  501    0  0.00000000000E+00 -0.00000000000E+00 -0.29445031720E+03  0.29445031720E+03  0.00000000000E+00 0. -1.
         25    2    1    2    0    0 -0.55501910266E+02  0.25162959456E+02 -0.14728723195E+03  0.20259286918E+03  0.12504681275E+03 0.  0.
          5    1    3    3  502    0  0.31745032823E+02 -0.22773320275E+02 -0.37128923197E+02  0.54059231987E+02  0.41800000000E+01 0.  1.
         -5    1    3    3    0  502 -0.87246943089E+02  0.47936279730E+02 -0.11015830875E+03  0.14853363720E+03  0.41800000000E+01 0.  1.
        -11    1    1    2    0    0  0.86883281376E+02 -0.11792592922E+02 -0.38858939340E+02  0.95905093697E+02  0.00000000000E+00 0.  1.
         11    1    1    2    0    0 -0.31381371109E+02 -0.13370366534E+02 -0.46547988202E+02  0.57708512020E+02  0.00000000000E+00 0. -1.
</event>
<event>
 7    1  0.3611449E-009  0.1006245E+03  0.7561462E-02  0.1278988E+00
          1   -1    0    0  501    0  0.00000000000E+00  0.00000000000E+00  0.13332093838E+04  0.13332093838E+04  0.00000000000E+00 0. -1.
         -1   -1    0    0    0  501 -0.00000000000E+00 -0.00000000000E+00 -0.14779033382E+02  0.14779033382E+02  0.00000000000E+00 0.  1.
         25    2    1    2    0    0  0.66441925670E+02  0.34592970436E+02  0.95028212430E+03  0.96140316237E+03  0.12509485104E+03 0.  0.
          5    1    3    3  502    0  0.63573435870E+02  0.16856327600E+02  0.19385139016E+03  0.20474753086E+03  0.41800000000E+01 0. -1.
         -5    1    3    3    0  502  0.28684897992E+01  0.17736642836E+02  0.75643073414E+03  0.75665563151E+03  0.41800000000E+01 0. -1.
        -11    1    1    2    0    0  0.21469890627E+02  0.22332266705E+01  0.49852780411E+02  0.54325346014E+02  0.00000000000E+00 0.  1.
         11    1    1    2    0    0 -0.87911816296E+02 -0.36826197107E+02  0.31829544571E+03  0.33225990881E+03  0.00000000000E+00 0. -1.
</event>
<event>
 7    1  0.2766180E-009  0.1558264E+03  0.7561462E-02  0.1193491E+00
          1   -1    0    0  501    0  0.00000000000E+00  0.00000000000E+00  0.15413331075E+04  0.15413331075E+04  0.00000000000E+00 0. -1.
         -1   -1    0    0    0  501 -0.00000000000E+00 -0.00000000000E+00 -0.18017143326E+02  0.18017143326E+02  0.00000000000E+00 0.  1.
         25    2    1    2    0    0 -0.12298499946E+03  0.17992883500E+02  0.87740800076E+03  0.89495321126E+03  0.12508955427E+03 0.  0.
          5    1    3    3  502    0 -0.13787592809E+03 -0.60017942002E+01  0.81100304134E+03  0.82267198721E+03  0.41800000000E+01 0. -1.
         -5    1    3    3    0  502  0.14890928631E+02  0.23994677700E+02  0.66404959423E+02  0.72281224044E+02  0.41800000000E+01 0. -1.
        -11    1    1    2    0    0  0.43561379690E+02  0.29392977117E+02  0.12921493498E+03  0.13949207979E+03  0.00000000000E+00 0.  1.
         11    1    1    2    0    0  0.79423619771E+02 -0.47385860617E+02  0.51669302844E+03  0.52490495978E+03  0.00000000000E+00 0. -1.
</event>
<event>
 7    1  0.2766180E-009  0.1117781E+03  0.7561462E-02  0.1257312E+00
          2   -1    0    0  501    0  0.00000000000E+00  0.00000000000E+00  0.31435977768E+03  0.31435977768E+03  0.00000000000E+00 0. -1.
         -2   -1    0    0    0  501 -0.00000000000E+00 -0.00000000000E+00 -0.60231933222E+02  0.60231933222E+02  0.00000000000E+00 0.  1.
         25    2    1    2    0    0 -0.65974934097E+02  0.24903689268E+02  0.19899864427E+03  0.24540156519E+03  0.12509429286E+03 0.  0.
          5    1    3    3  502    0  0.16259901755E+02  0.34228820755E+02  0.10579912531E+02  0.39565180709E+02  0.41800000000E+01 0. -1.
         -5    1    3    3    0  502 -0.82234835853E+02 -0.93251314871E+01  0.18841873174E+03  0.20583638448E+03  0.41800000000E+01 0. -1.
        -11    1    1    2    0    0 -0.14803081402E+02 -0.15180545865E+02  0.41627360828E+02  0.46716350042E+02  0.00000000000E+00 0.  1.
         11    1    1    2    0    0  0.80778015499E+02 -0.97231434028E+01  0.13501839353E+02  0.82473795666E+02  0.00000000000E+00 0. -1.
</event>
<event>
 7    1  0.2766180E-009  0.1191349E+03  0.7561462E-02  0.1244531E+00
          2   -1    0    0  501    0  0.00000000000E+00  0.00000000000E+00  0.69786549334E+03  0.69786549334E+03  0.00000000000E+00 0. -1.
         -2   -1    0    0    0  501 -0.00000000000E+00 -0.00000000000E+00 -0.22712855045E+02  0.22712855045E+02  0.00000000000E+00 0.  1.
         25    2    1    2    0    0 -0.50357117141E+02  0.40274940443E+02  0.37964350489E+03  0.40488904503E+03  0.12509211769E+03 0.  0.
          5    1    3    3  502    0  0.26580848168E+02  0.46807975462E+02  0.88656212694E+02  0.10380233381E+03  0.41800000000E+01 0. -1.
         -5    1    3    3    0  502 -0.76937965309E+02 -0.65330350183E+01  0.29098729220E+03  0.30108671122E+03  0.41800000000E+01 0. -1.
        -11    1    1    2    0    0 -0.23107389880E+02  0.13141548539E+00  0.10554847080E+03  0.10804836151E+03  0.00000000000E+00 0. -1.
         11    1    1    2    0    0  0.73464507021E+02 -0.40406355929E+02  0.18996066261E+03  0.20764094184E+03  0.00000000000E+00 0.  1.
</event>
<event>
 7    1  0.2766180E-009  0.2618241E+03  0.7561462E-02  0.1106052E+00
         -2   -1    0    0    0  501 -0.00000000000E+00  0.00000000000E+00  0.38827982727E+03  0.38827982727E+03  0.00000000000E+00 0.  1.
          2   -1    0    0  501    0  0.00000000000E+00 -0.00000000000E+00 -0.20408016139E+03  0.20408016139E+03  0.00000000000E+00 0. -1.
         25    2    1    2    0    0 -0.25379720355E+03 -0.56314733944E+02  0.90877479298E+02  0.30247447166E+03  0.12509084688E+03 0.  0.
          5    1    3    3  502    0 -0.55506862008E+02  0.54561876653E+01 -0.28616942082E+02  0.62826614487E+02  0.41800000000E+01 0. -1.
         -5    1    3    3    0  502 -0.19829034155E+03 -0.61770921610E+02  0.11949442138E+03  0.23964785717E+03  0.41800000000E+01 0. -1.
        -11    1    1    2    0    0  0.16001717062E+03  0.36952612638E+02  0.10265711998E+03  0.19367362948E+03  0.00000000000E+00 0.  1.
         11    1    1    2    0    0  0.93780032938E+02  0.19362121307E+02 -0.93349333978E+01  0.96211887524E+02  0.00000000000E+00 0. -1.
</event>
<event>
 7    1  0.2766180E-009  0.9478819E+02  0.7561462E-02  0.1291654E+00
         -1   -1    0    0    0  501 -0.00000000000E+00  0.00000000000E+00  0.65893728702E+02  0.65893728702E+02  0.00000000000E+00 0.  1.
          1   -1    0    0  501    0  0.00000000000E+00 -0.00000000000E+00 -0.31697099707E+03  0.31697099707E+03  0.00000000000E+00 0. -1.
         25    2    1    2    0    0 -0.76522735253E+02  0.19804532442E+02 -0.68251520210E+02  0.16295195854E+03  0.12508845776E+03 0.  0.
          5    1    3    3  502    0  0.13039589740E+01 -0.20756850434E+02  0.26359796125E+02  0.33835756245E+02  0.41800000000E+01 0.  1.
         -5    1    3    3    0  502 -0.77826694227E+02  0.40561382876E+02 -0.94611316335E+02  0.12911620229E+03  0.41800000000E+01 0.  1.
        -11    1    1    2    0    0  0.40087445493E+02 -0.25005512488E+01 -0.17406210444E+03  0.17863614484E+03  0.00000000000E+00 0. -1.
         11    1    1    2    0    0  0.36435289760E+02 -0.17303981193E+02 -0.87636437209E+01  0.41276622395E+02  0.00000000000E+00 0.  1.
</event>
<event>
 7    1  0.2766180E-009  0.1088341E+03  0.7561462E-02  0.1262744E+00
         -2   -1    0    0    0  501 -0.00000000000E+00  0.00000000000E+00  0.40269420591E+02  0.40269420591E+02  0.00000000000E+00 0.  1.
          2   -1    0    0  501    0  0.00000000000E+00 -0.00000000000E+00 -0.56389915791E+03  0.56389915791E+03  0.00000000000E+00 0. -1.
         25    2    1    2    0    0 -0.30772672659E+02  0.95166912446E+02 -0.34498069649E+03  0.38034708198E+03  0.12509405746E+03 0.  0.
          5    1    3    3  502    0  0.79321465148E+01  0.71016586728E+02 -0.32051576210E+03  0.32841148075E+03  0.41800000000E+01 0.  1.
         -5    1    3    3    0  502 -0.38704819174E+02  0.24150325718E+02 -0.24464934391E+02  0.51935601222E+02  0.41800000000E+01 0.  1.
        -11    1    1    2    0    0  0.45248617933E+01 -0.23990982108E+02  0.51774113168E+01  0.24956906553E+02  0.00000000000E+00 0.  1.
         11    1    1    2    0    0  0.26247810866E+02 -0.71175930338E+02 -0.18382645214E+03  0.19886458997E+03  0.00000000000E+00 0. -1.
</event>
<event>
 7    1  0.3788742E-009  0.1035864E+03  0.7561462E-02  0.1272930E+00
          1   -1    0    0  501    0  0.00000000000E+00  0.00000000000E+00  0.91179241997E+03  0.91179241997E+03  0.00000000000E+00 0. -1.
         -1   -1    0    0    0  501 -0.00000000000E+00 -0.00000000000E+00 -0.19952208210E+02  0.19952208210E+02  0.00000000000E+00 0.  1.
         25    2    1    2    0    0 -0.52996376520E+02  0.16428184447E+01  0.69827666405E+03  0.71137163515E+03  0.12509192204E+03 0.  0.
          5    1    3    3  502    0 -0.36191492609E+02  0.62016860784E+02  0.41805533339E+03  0.42419765362E+03  0.41800000000E+01 0.  1.
         -5    1    3    3    0  502 -0.16804883911E+02 -0.60374042340E+02  0.28022133067E+03  0.28717398154E+03  0.41800000000E+01 0.  1.
        -11    1    1    2    0    0  0.26642511117E+02 -0.25507643394E+02  0.17626951090E+02  0.40879978900E+02  0.00000000000E+00 0.  1.
         11    1    1    2    0    0  0.26353865403E+02  0.23864824949E+02  0.17593659662E+03  0.17949301413E+03  0.00000000000E+00 0. -1.
</event>
<event>
 7    1  0.2766180E-009  0.1284681E+03  0.7561462E-02  0.1229747E+00
         -4   -1    0    0    0  501 -0.00000000000E+00  0.00000000000E+00  0.15802725526E+02  0.15802725526E+02  0.00000000000E+00 0.  1.
          4   -1    0    0  501    0  0.00000000000E+00 -0.00000000000E+00 -0.12063860242E+04  0.12063860242E+04  0.00000000000E+00 0. -1.
         25    2    1    2    0    0  0.70588177901E+02  0.14476590060E+02 -0.85145888965E+03  0.86361021422E+03  0.12509236114E+03 0.  0.
          5    1    3    3  502    0 -0.26037015018E+02  0.33019784829E+02 -0.35269419985E+03  0.35521669914E+03  0.41800000000E+01 0.  1.
         -5    1    3    3    0  502  0.96625192920E+02 -0.18543194769E+02 -0.49876468980E+03  0.50839351507E+03  0.41800000000E+01 0.  1.
        -11    1    1    2    0    0 -0.23121758842E+02 -0.51205703955E+02 -0.15108868359E+03  0.16119686770E+03  0.00000000000E+00 0.  1.
         11    1    1    2    0    0 -0.47466419060E+02  0.36729113895E+02 -0.18803572547E+03  0.19738166784E+03  0.00000000000E+00 0. -1.
</event>
<event>
 7    1  0.3008957E-009  0.7869659E+02  0.7561462E-02  0.1332792E+00
         -2   -1    0    0    0  501 -0.00000000000E+00  0.00000000000E+00  0.73268010140E+02  0.73268010140E+02  0.00000000000E+00 0. -1.
          2   -1    0    0  501    0  0.00000000000E+00 -0.00000000000E+00 -0.19892371607E+03  0.19892371607E+03  0.00000000000E+00 0.  1.
         25    2    1    2    0    0 -0.91292796547E+00 -0.34291241597E+02 -0.11617049987E+03  0.17412667798E+03  0.12509113580E+03 0.  0.
          5    1    3    3  502    0 -0.31688135170E+01  0.14571148985E+02  0.22334663969E+02  0.27178472666E+02  0.41800000000E+01 0. -1.
         -5    1    3    3    0  502  0.22558855515E+01 -0.48862390582E+02 -0.13850516384E+03  0.14694820531E+03  0.41800000000E+01 0. -1.
        -11    1    1    2    0    0  0.32235820935E+02 -0.14088131370E+02  0.11061643731E+02  0.36877954917E+02  0.00000000000E+00 0. -1.
         11    1    1    2    0    0 -0.31322892969E+02  0.48379372967E+02 -0.20546849792E+02  0.61187093320E+02  0.00000000000E+00 0.  1.
</event>
<event>
 7    1  0.2879936E-009  0.2342703E+03  0.7561462E-02  0.1123670E+00
         -2   -1    0    0    0  501 -0.00000000000E+00  0.00000000000E+00  0.10987097407E+03  0.10987097407E+03  0.00000000000E+00 0.  1.
          2   -1    0    0  501    0  0.00000000000E+00 -0.00000000000E+00 -0.75965992930E+03  0.75965992930E+03  0.00000000000E+00 0. -1.
         25    2    1    2    0    0  0.17882191261E+03 -0.12529332693E+03 -0.56387779671E+03  0.61747999686E+03  0.12509069786E+03 0.  0.
          5    1    3    3  502    0  0.16872582257E+03 -0.54537705805E+02 -0.35843913596E+03  0.39992355662E+03  0.41800000000E+01 0. -1.
         -5    1    3    3    0  502  0.10096090041E+02 -0.70755621127E+02 -0.20543866076E+03  0.21755644024E+03  0.41800000000E+01 0. -1.
        -11    1    1    2    0    0 -0.11283816184E+03  0.92425117436E+02 -0.99458888883E+01  0.14619772162E+03  0.00000000000E+00 0.  1.
         11    1    1    2    0    0 -0.65983750770E+02  0.32868209497E+02 -0.75965269628E+02  0.10585318489E+03  0.00000000000E+00 0. -1.
</event>
<event>
 7    1  0.2766180E-009  0.1583407E+03  0.7561462E-02  0.1190583E+00
          1   -1    0    0  501    0  0.00000000000E+00  0.00000000000E+00  0.77357723452E+02  0.77357723452E+02  0.00000000000E+00 0. -1.
         -1   -1    0    0    0  501 -0.00000000000E+00 -0.00000000000E+00 -0.36514880818E+03  0.36514880818E+03  0.00000000000E+00 0.  1.
         25    2    1    2    0    0 -0.10354135544E+03  0.52813667107E+02 -0.83223264693E+02  0.18991827321E+03  0.12503096813E+03 0.  0.
          5    1    3    3  502    0 -0.12120027962E+03  0.81696916543E+01 -0.50242455406E+02  0.13152196914E+03  0.41800000000E+01 0. -1.
         -5    1    3    3    0  502  0.17658924180E+02  0.44643975452E+02 -0.32980809286E+02  0.58396304066E+02  0.41800000000E+01 0. -1.
        -11    1    1    2    0    0  0.34973537849E+02 -0.68222990475E+02 -0.90485526826E+02  0.11859660764E+03  0.00000000000E+00 0. -1.
         11    1    1    2    0    0  0.68567817591E+02  0.15409323369E+02 -0.11408229321E+03  0.13399165079E+03  0.00000000000E+00 0.  1.
</event>
<event>
 7    1  0.2766180E-009  0.1055181E+03  0.7561462E-02  0.1269102E+00
         -1   -1    0    0    0  501 -0.00000000000E+00  0.00000000000E+00  0.75694931952E+02  0.75694931952E+02  0.00000000000E+00 0.  1.
          1   -1    0    0  501    0  0.00000000000E+00 -0.00000000000E+00 -0.23286103928E+03  0.23286103928E+03  0.00000000000E+00 0. -1.
         25    2    1    2    0    0  0.51865433488E+02 -0.30916211839E+01 -0.17819412138E+02  0.13661887208E+03  0.12509038111E+03 0.  0.
          5    1    3    3  502    0  0.68592973007E+02  0.34106153586E+02  0.21643645606E+02  0.79712893897E+02  0.41800000000E+01 0. -1.
         -5    1    3    3    0  502 -0.16727539519E+02 -0.37197774770E+02 -0.39463057744E+02  0.56905978181E+02  0.41800000000E+01 0. -1.
        -11    1    1    2    0    0  0.20518772383E+02 -0.27344472182E+01 -0.64120291069E+02  0.67378846447E+02  0.00000000000E+00 0. -1.
         11    1    1    2    0    0 -0.72384205870E+02  0.58260684021E+01 -0.75226404124E+02  0.10455825271E+03  0.00000000000E+00 0.  1.
</event>
<event>
 7    1  0.2766180E-009  0.1315029E+03  0.7561462E-02  0.1225243E+00
         -1   -1    0    0    0  501 -0.00000000000E+00  0.00000000000E+00  0.14801488376E+02  0.14801488376E+02  0.00000000000E+00 0.  1.
          1   -1    0    0  501    0  0.00000000000E+00 -0.00000000000E+00 -0.21458589989E+04  0.21458589989E+04  0.00000000000E+00 0. -1.
         25    2    1    2    0    0 -0.10277856727E+03 -0.12714397843E+01 -0.16976751697E+04  0.17053779462E+04  0.12509159461E+03 0.  0.
          5    1    3    3  502    0 -0.50384330176E+01  0.49373933615E+02 -0.65820030494E+03  0.66008202896E+03  0.41800000000E+01 0.  1.
         -5    1    3    3    0  502 -0.97740134251E+02 -0.50645373399E+02 -0.10394748648E+04  0.10452959172E+04  0.41800000000E+01 0.  1.
        -11    1    1    2    0    0  0.83900764747E+02 -0.17564921936E+01 -0.42693671189E+03  0.43510617044E+03  0.00000000000E+00 0. -1.
         11    1    1    2    0    0  0.18877802521E+02  0.30279319778E+01 -0.64456289044E+01  0.20176370637E+02  0.00000000000E+00 0.  1.
</event>
<event>
 7    1  0.2766180E-009  0.1315179E+03  0.7561462E-02  0.1225221E+00
         -2   -1    0    0    0  501 -0.00000000000E+00  0.00000000000E+00  0.43515469157E+03  0.43515469157E+03  0.00000000000E+00 0.  1.
          2   -1    0    0  501    0  0.00000000000E+00 -0.00000000000E+00 -0.48781214041E+02  0.48781214041E+02  0.00000000000E+00 0. -1.
         25    2    1    2    0    0 -0.95879163072E+02 -0.88468035234E+01  0.21439696070E+03  0.26624376743E+03  0.12509439273E+03 0.  0.
          5    1    3    3  502    0 -0.45288351356E+02 -0.56532291076E+02  0.51188335569E+02  0.88795567464E+02  0.41800000000E+01 0.  1.
         -5    1    3    3    0  502 -0.50590811716E+02  0.47685487553E+02  0.16320862513E+03  0.17744819997E+03  0.41800000000E+01 0.  1.
        -11    1    1    2    0    0  0.32350090652E+02  0.38865717936E+02  0.12022429667E+03  0.13042604765E+03  0.00000000000E+00 0.  1.
         11    1    1    2    0    0  0.63529072420E+02 -0.30018914412E+02  0.51752220151E+02  0.87266090526E+02  0.00000000000E+00 0. -1.
</event>
<event>
 7    1  0.2766180E-009  0.1269501E+03  0.7561462E-02  0.1232053E+00
         -2   -1    0    0    0  501 -0.00000000000E+00  0.00000000000E+00  0.64900693608E+02  0.64900693608E+02  0.00000000000E+00 0.  1.
          2   -1    0    0  501    0  0.00000000000E+00 -0.00000000000E+00 -0.63448675767E+03  0.63448675767E+03  0.00000000000E+00 0. -1.
         25    2    1    2    0    0  0.11126136821E+03 -0.55419158338E+02 -0.49919852218E+03  0.52943120361E+03  0.12509140516E+03 0.  0.
          5    1    3    3  502    0  0.99800331867E+02 -0.36819404696E+02 -0.49559199708E+03  0.50689710472E+03  0.41800000000E+01 0.  1.
         -5    1    3    3    0  502  0.11461036341E+02 -0.18599753642E+02 -0.36065250986E+01  0.22534098891E+02  0.41800000000E+01 0.  1.
        -11    1    1    2    0    0 -0.64674886511E+02  0.23890725580E+02 -0.87275616228E+02  0.11122338289E+03  0.00000000000E+00 0. -1.
         11    1    1    2    0    0 -0.46586481698E+02  0.31528432758E+02  0.16888074348E+02  0.58732864772E+02  0.00000000000E+00 0.  1.
</event>
<event>
 7    1  0.2766180E-009  0.1446633E+03  0.7561462E-02  0.1207188E+00
         -4   -1    0    0    0  501 -0.00000000000E+00  0.00000000000E+00  0.41953190077E+02  0.41953190077E+02  0.00000000000E+00 0. -1.
          4   -1    0    0  501    0  0.00000000000E+00 -0.00000000000E+00 -0.56883821219E+03  0.56883821219E+03  0.00000000000E+00 0.  1.
         25    2    1    2    0    0  0.88115409808E+01  0.10423879813E+03 -0.31830386044E+03  0.35764290547E+03  0.12509088683E+03 0.  0.
          5    1    3    3  502    0 -0.57668124418E+02  0.56631172863E+02 -0.16832221089E+03  0.18676868419E+03  0.41800000000E+01 0.  1.
         -5    1    3    3    0  502  0.66479665399E+02  0.47607625265E+02 -0.14998164956E+03  0.17087422128E+03  0.41800000000E+01 0.  1.
        -11    1    1    2    0    0 -0.40203526657E+02 -0.61938258070E+02 -0.17686534995E+03  0.19166122034E+03  0.00000000000E+00 0.  1.
         11    1    1    2    0    0  0.31391985676E+02 -0.42300540058E+02 -0.31715811719E+02  0.61487276463E+02  0.00000000000E+00 0. -1.
</event>
<event>
 7    1  0.2766180E-009  0.1112736E+03  0.7561462E-02  0.1258229E+00
          2   -1    0    0  501    0  0.00000000000E+00  0.00000000000E+00  0.77644861843E+03  0.77644861843E+03  0.00000000000E+00 0. -1.
         -2   -1    0    0    0  501 -0.00000000000E+00 -0.00000000000E+00 -0.18677538187E+02  0.18677538187E+02  0.00000000000E+00 0.  1.
         25    2    1    2    0    0 -0.33143507549E+02 -0.36622939745E+02  0.46606169446E+03  0.48507839111E+03  0.12509120943E+03 0.  0.
          5    1    3    3  502    0  0.38961351623E+02  0.13899870699E+02  0.21526998458E+03  0.21924833406E+03  0.41800000000E+01 0. -1.
         -5    1    3    3    0  502 -0.72104859172E+02 -0.50522810444E+02  0.25079170987E+03  0.26583005705E+03  0.41800000000E+01 0. -1.
        -11    1    1    2    0    0  0.59049343309E+02  0.29225984577E+02  0.26103684806E+03  0.26922336296E+03  0.00000000000E+00 0. -1.
         11    1    1    2    0    0 -0.25905835760E+02  0.73969551686E+01  0.30672537725E+02  0.40824402539E+02  0.00000000000E+00 0.  1.
</event>
<event>
 7    1  0.2766180E-009  0.6050101E+02  0.7561462E-02  0.1395741E+00
          3   -1    0    0  501    0  0.00000000000E+00  0.00000000000E+00  0.14280001339E+03  0.14280001339E+03  0.00000000000E+00 0. -1.
         -3   -1    0    0    0  501 -0.00000000000E+00 -0.00000000000E+00 -0.92258149698E+02  0.92258149698E+02  0.00000000000E+00 0.  1.
         25    2    1    2    0    0  0.56463832145E+01 -0.16357570505E+02  0.32203114020E+01  0.12632237125E+03  0.12509004483E+03 0.  0.
          5    1    3    3  502    0  0.28377983590E+02 -0.27081089034E+01 -0.55068358246E+02  0.62150143092E+02  0.41800000000E+01 0. -1.
         -5    1    3    3    0  502 -0.22731600376E+02 -0.13649461601E+02  0.58288669648E+02  0.64172228159E+02  0.41800000000E+01 0. -1.
        -11    1    1    2    0    0 -0.33142750382E+02 -0.40461934098E+00  0.64293458961E+02  0.72334324389E+02  0.00000000000E+00 0. -1.
         11    1    1    2    0    0  0.27496367167E+02  0.16762189846E+02 -0.16971906676E+02  0.36401467443E+02  0.00000000000E+00 0.  1.
</event>
<event>
 7    1  0.2766180E-009  0.1109134E+03  0.7561462E-02  0.1258888E+00
         -2   -1    0    0    0  501 -0.00000000000E+00  0.00000000000E+00  0.63947719212E+02  0.63947719212E+02  0.00000000000E+00 0.  1.
          2   -1    0    0  501    0  0.00000000000E+00 -0.00000000000E+00 -0.30422613883E+03  0.30422613883E+03  0.00000000000E+00 0. -1.
         25    2    1    2    0    0 -0.17727891982E+02 -0.68930237214E+02 -0.19840329876E+03  0.24510485867E+03  0.12508743754E+03 0.  0.
          5    1    3    3  502    0  0.61919104234E+01 -0.10229311393E+03 -0.14532867327E+03  0.17787668927E+03  0.41800000000E+01 0.  1.
         -5    1    3    3    0  502 -0.23919802405E+02  0.33362876720E+02 -0.53074625492E+02  0.67228169403E+02  0.41800000000E+01 0.  1.
        -11    1    1    2    0    0  0.25934618172E+02  0.62177715691E+02 -0.67475705080E+02  0.95350110248E+02  0.00000000000E+00 0. -1.
         11    1    1    2    0    0 -0.82067261900E+01  0.67525215225E+01  0.25600584220E+02  0.27718889120E+02  0.00000000000E+00 0.  1.
</event>
<event>
 7    1  0.2766180E-009  0.9311920E+02  0.7561462E-02  0.1295469E+00
         -2   -1    0    0    0  501 -0.00000000000E+00  0.00000000000E+00  0.33534190678E+02  0.33534190678E+02  0.00000000000E+00 0.  1.
          2   -1    0    0  501    0  0.00000000000E+00 -0.00000000000E+00 -0.45871456509E+03  0.45871456509E+03  0.00000000000E+00 0. -1.
         25    2    1    2    0    0 -0.56621529512E+02  0.51885472924E+02 -0.31367473119E+03  0.34631776602E+03  0.12508420431E+03 0.  0.
          5    1    3    3  502    0 -0.65753576999E+02  0.50456212310E+02 -0.90028882426E+02  0.12244196307E+03  0.41800000000E+01 0. -1.
         -5    1    3    3    0  502  0.91320474871E+01  0.14292606145E+01 -0.22364584877E+03  0.22387580295E+03  0.41800000000E+01 0. -1.
        -11    1    1    2    0    0  0.43687413462E+02 -0.62582384435E+02 -0.82276434835E+02  0.11222547245E+03  0.00000000000E+00 0. -1.
         11    1    1    2    0    0  0.12934116050E+02  0.10696911511E+02 -0.29229208383E+02  0.33705517302E+02  0.00000000000E+00 0.  1.
</event>
<event>
 7    1  0.2766180E-009  0.1171541E+03  0.7561462E-02  0.1247867E+00
         -3   -1    0    0    0  501 -0.00000000000E+00  0.00000000000E+00  0.24705865711E+03  0.24705865711E+03  0.00000000000E+00 0.  1.
          3   -1    0    0  501    0  0.00000000000E+00 -0.00000000000E+00 -0.89479053573E+02  0.89479053573E+02  0.00000000000E+00 0. -1.
         25    2    1    2    0    0 -0.31428010234E+02  0.61358840410E+02  0.24623826206E+01  0.14285111726E+03  0.12509097190E+03 0.  0.
          5    1    3    3  502    0 -0.23164706447E+02  0.88266011629E+02 -0.33226980858E+02  0.97205951930E+02  0.41800000000E+01 0.  1.
         -5    1    3    3    0  502 -0.82633037874E+01 -0.26907171219E+02  0.35689363479E+02  0.45645165330E+02  0.41800000000E+01 0.  1.
        -11    1    1    2    0    0 -0.31214714775E+02 -0.33967205171E+02  0.78046490689E+02  0.90660819291E+02  0.00000000000E+00 0. -1.
         11    1    1    2    0    0  0.62642725009E+02 -0.27391635239E+02  0.77070730229E+02  0.10302577413E+03  0.00000000000E+00 0.  1.
</event>
<event>
 7    1  0.2766180E-009  0.5487722E+02  0.7561462E-02  0.1420680E+00
         -1   -1    0    0    0  501 -0.00000000000E+00  0.00000000000E+00  0.26818072093E+02  0.26818072093E+02  0.00000000000E+00 0.  1.
          1   -1    0    0  501    0  0.00000000000E+00 -0.00000000000E+00 -0.50727847365E+03  0.50727847365E+03  0.00000000000E+00 0. -1.
         25    2    1    2    0    0 -0.37488099175E+02  0.38600280541E+01 -0.33817230840E+03  0.36253021387E+03  0.12508952155E+03 0.  0.
          5    1    3    3  502    0 -0.34807661984E+01 -0.25091010604E+02 -0.30660787690E+03  0.30768090146E+03  0.41800000000E+01 0.  1.
         -5    1    3    3    0  502 -0.34007332977E+02  0.28951038658E+02 -0.31564431497E+02  0.54849312405E+02  0.41800000000E+01 0.  1.
        -11    1    1    2    0    0  0.24865123913E+02 -0.76992673633E+01 -0.15261038411E+03  0.15481434831E+03  0.00000000000E+00 0. -1.
         11    1    1    2    0    0  0.12622975262E+02  0.38392393092E+01  0.10322290950E+02  0.16751983566E+02  0.00000000000E+00 0.  1.
</event>
<event>
 7    1  0.2766180E-009  0.7830228E+02  0.7561462E-02  0.1333940E+00
          2   -1    0    0  501    0  0.00000000000E+00  0.00000000000E+00  0.16968447561E+02  0.16968447561E+02  0.00000000000E+00 0. -1.
         -2   -1    0    0    0  501 -0.00000000000E+00 -0.00000000000E+00 -0.70780790646E+03  0.70780790646E+03  0.00000000000E+00 0.  1.
         25    2    1    2    0    0 -0.20292505238E+01  0.27606388358E+01 -0.45040637176E+03  0.46746725086E+03  0.12509193390E+03 0.  0.
          5    1    3    3  502    0  0.24161531878E+02 -0.19169011975E+02 -0.42114814554E+03  0.42229665347E+03  0.41800000000E+01 0. -1.
         -5    1    3    3    0  502 -0.26190782401E+02  0.21929650811E+02 -0.29258226221E+02  0.45170597396E+02  0.41800000000E+01 0. -1.
        -11    1    1    2    0    0  0.76250323987E+01  0.43654337829E+02 -0.13154556926E+03  0.13880950660E+03  0.00000000000E+00 0. -1.
         11    1    1    2    0    0 -0.55957818749E+01 -0.46414976665E+02 -0.10888751788E+03  0.11849959656E+03  0.00000000000E+00 0.  1.
</event>
<event>
 7    1  0.2766180E-009  0.1840286E+03  0.7561462E-02  0.1163960E+00
          2   -1    0    0  501    0  0.00000000000E+00  0.00000000000E+00  0.92466053606E+02  0.92466053606E+02  0.00000000000E+00 0. -1.
         -2   -1    0    0    0  501 -0.00000000000E+00 -0.00000000000E+00 -0.47463151808E+03  0.47463151808E+03  0.00000000000E+00 0.  1.
         25    2    1    2    0    0 -0.39804425146E+02 -0.14691995383E+03 -0.32512444050E+03  0.38016298411E+03  0.12509247612E+03 0.  0.
          5    1    3    3  502    0  0.41710187900E+02 -0.47768147536E+02 -0.70054929515E+02  0.94587003563E+02  0.41800000000E+01 0.  1.
         -5    1    3    3    0  502 -0.81514613046E+02 -0.99151806297E+02 -0.25506951099E+03  0.28557598055E+03  0.41800000000E+01 0.  1.
        -11    1    1    2    0    0  0.65438626153E+02  0.74000023722E+02 -0.18261174577E+02  0.10045739296E+03  0.00000000000E+00 0. -1.
         11    1    1    2    0    0 -0.25634201007E+02  0.72919930111E+02 -0.38779849393E+02  0.86477194610E+02  0.00000000000E+00 0.  1.
</event>
<event>
 7    1  0.2766180E-009  0.1028557E+03  0.7561462E-02  0.1274403E+00
         -1   -1    0    0    0  501 -0.00000000000E+00  0.00000000000E+00  0.36717027748E+02  0.36717027748E+02  0.00000000000E+00 0.  1.
          1   -1    0    0  501    0  0.00000000000E+00 -0.00000000000E+00 -0.44433758339E+03  0.44433758339E+03  0.00000000000E+00 0. -1.
         25    2    1    2    0    0 -0.12825612390E+02  0.45146413619E+02 -0.21126958689E+03  0.24997046536E+03  0.12509076790E+03 0.  0.
          5    1    3    3  502    0  0.18002272706E+02  0.78495107384E+02 -0.92337571773E+02  0.12259389572E+03  0.41800000000E+01 0.  1.
         -5    1    3    3    0  502 -0.30827885097E+02 -0.33348693765E+02 -0.11893201512E+03  0.12737656965E+03  0.41800000000E+01 0.  1.
        -11    1    1    2    0    0 -0.25990568265E+02 -0.12981127998E+02 -0.17318481944E+03  0.17560467251E+03  0.00000000000E+00 0.  1.
         11    1    1    2    0    0  0.38816180655E+02 -0.32165285622E+02 -0.23166149312E+02  0.55479473265E+02  0.00000000000E+00 0. -1.
</event>
<event>
 7    1  0.2766180E-009  0.1131194E+03  0.7561462E-02  0.1254900E+00
         -1   -1    0    0    0  501 -0.00000000000E+00  0.00000000000E+00  0.11067984358E+03  0.11067984358E+03  0.00000000000E+00 0. -1.
          1   -1    0    0  501    0  0.00000000000E+00 -0.00000000000E+00 -0.15240669447E+03  0.15240669447E+03  0.00000000000E+00 0.  1.
         25    2    1    2    0    0 -0.24242237718E+02 -0.58639797114E+02  0.24997417239E+01  0.14028565198E+03  0.12508998180E+03 0.  0.
          5    1    3    3  502    0 -0.55424173447E+01  0.24963178758E+02 -0.37552710675E+02  0.45624085336E+02  0.41800000000E+01 0.  1.
         -5    1    3    3    0  502 -0.18699820373E+02 -0.83602975871E+02  0.40052452399E+02  0.94661566645E+02  0.41800000000E+01 0.  1.
        -11    1    1    2    0    0  0.45792863311E+02  0.74742779994E+02 -0.33490582307E+02  0.93835433578E+02  0.00000000000E+00 0. -1.
         11    1    1    2    0    0 -0.21550625593E+02 -0.16102982881E+02 -0.10736010306E+02  0.28965452497E+02  0.00000000000E+00 0.  1.
</event>
<event>
 7    1  0.2766180E-009  0.1313431E+03  0.7561462E-02  0.1225476E+00
          1   -1    0    0  501    0  0.00000000000E+00  0.00000000000E+00  0.49885438426E+03  0.49885438426E+03  0.00000000000E+00 0. -1.
         -1   -1    0    0    0  501 -0.00000000000E+00 -0.00000000000E+00 -0.81504094963E+02  0.81504094963E+02  0.00000000000E+00 0.  1.
         25    2    1    2    0    0 -0.13269734926E+02 -0.12120901663E+03  0.47922448126E+02  0.18114064024E+03  0.12509060290E+03 0.  0.
          5    1    3    3  502    0 -0.38362731843E+02 -0.10059653968E+03 -0.16380115796E+02  0.10898230858E+03  0.41800000000E+01 0. -1.
         -5    1    3    3    0  502  0.25092996917E+02 -0.20612476947E+02  0.64302563923E+02  0.72158331655E+02  0.41800000000E+01 0. -1.
        -11    1    1    2    0    0  0.94556225331E+01  0.10900076567E+03  0.37056295774E+03  0.38637738206E+03  0.00000000000E+00 0. -1.
         11    1    1    2    0    0  0.38141123927E+01  0.12208250955E+02 -0.11351165662E+01  0.12840456936E+02  0.00000000000E+00 0.  1.
</event>
<event>
 7    1  0.2766180E-009  0.1700682E+03  0.7561462E-02  0.1177777E+00
         -2   -1    0    0    0  501 -0.00000000000E+00  0.00000000000E+00  0.64394623234E+02  0.64394623234E+02  0.00000000000E+00 0.  1.
          2   -1    0    0  501    0  0.00000000000E+00 -0.00000000000E+00 -0.80726935096E+03  0.80726935096E+03  0.00000000000E+00 0. -1.
         25    2    1    2    0    0  0.11221362271E+03  0.73068467173E+02 -0.10066261102E+03  0.20907170504E+03  0.12508844300E+03 0.  0.
          5    1    3    3  502    0  0.10220096512E+02  0.80123028980E+02 -0.42270276639E+02  0.91260061543E+02  0.41800000000E+01 0.  1.
         -5    1    3    3    0  502  0.10199352620E+03 -0.70545618070E+01 -0.58392334386E+02  0.11781164350E+03  0.41800000000E+01 0.  1.
        -11    1    1    2    0    0 -0.45969587665E+02  0.13515210190E+02 -0.12184009341E+03  0.13092315402E+03  0.00000000000E+00 0.  1.
         11    1    1    2    0    0 -0.66244035043E+02 -0.86583677363E+02 -0.52037202329E+03  0.53166911514E+03  0.00000000000E+00 0. -1.
</event>
<event>
 7    1  0.2766180E-009  0.1033764E+03  0.7561462E-02  0.1273352E+00
         -1   -1    0    0    0  501 -0.00000000000E+00  0.00000000000E+00  0.63094839345E+03  0.63094839345E+03  0.00000000000E+00 0.  1.
          1   -1    0    0  501    0  0.00000000000E+00 -0.00000000000E+00 -0.22991530715E+02  0.22991530715E+02  0.00000000000E+00 0. -1.
         25    2    1    2    0    0  0.23291523605E+02  0.56004731201E+01  0.46331823464E+03  0.48050556729E+03  0.12509177940E+03 0.  0.
          5    1    3    3  502    0 -0.37073583656E+02  0.29616026821E+02  0.92798466616E+02  0.10431005443E+03  0.41800000000E+01 0. -1.
         -5    1    3    3    0  502  0.60365107261E+02 -0.24015553701E+02  0.37051976802E+03  0.37619551285E+03  0.41800000000E+01 0. -1.
        -11    1    1    2    0    0  0.34994917740E+02  0.28972435961E+01  0.38962774113E+02  0.52451273147E+02  0.00000000000E+00 0. -1.
         11    1    1    2    0    0 -0.58286441346E+02 -0.84977167162E+01  0.10567585398E+03  0.12098308373E+03  0.00000000000E+00 0.  1.
</event>
<event>
 7    1  0.2766180E-009  0.1292039E+03  0.7561462E-02  0.1228642E+00
          2   -1    0    0  501    0  0.00000000000E+00  0.00000000000E+00  0.91754787478E+03  0.91754787478E+03  0.00000000000E+00 0. -1.
         -2   -1    0    0    0  501 -0.00000000000E+00 -0.00000000000E+00 -0.28758746289E+02  0.28758746289E+02  0.00000000000E+00 0.  1.
         25    2    1    2    0    0 -0.32567237973E+02  0.10312322555E+03  0.62007039954E+03  0.64174032824E+03  0.12509326067E+03 0.  0.
          5    1    3    3  502    0 -0.64575804862E+02  0.69152801698E+02  0.22812297278E+03  0.24700143252E+03  0.41800000000E+01 0.  1.
         -5    1    3    3    0  502  0.32008566888E+02  0.33970423850E+02  0.39194742676E+03  0.39473889572E+03  0.41800000000E+01 0.  1.
        -11    1    1    2    0    0  0.39737127632E+02 -0.53198772045E+02  0.58865883443E+02  0.88737483021E+02  0.00000000000E+00 0.  1.
         11    1    1    2    0    0 -0.71698896588E+01 -0.49924453503E+02  0.20985284551E+03  0.21582880981E+03  0.00000000000E+00 0. -1.
</event>
<event>
 7    1  0.2766180E-009  0.1005342E+03  0.7561462E-02  0.1279177E+00
          3   -1    0    0  501    0  0.00000000000E+00  0.00000000000E+00  0.23701029871E+03  0.23701029871E+03  0.00000000000E+00 0. -1.
         -3   -1    0    0    0  501 -0.00000000000E+00 -0.00000000000E+00 -0.77839788744E+02  0.77839788744E+02  0.00000000000E+00 0.  1.
         25    2    1    2    0    0 -0.71543838547E+02 -0.67484326691E+01  0.13416354073E+03  0.19700221463E+03  0.12508379084E+03 0.  0.
          5    1    3    3  502    0 -0.92932563449E+02 -0.49737331579E+01  0.41838221807E+02  0.10212300708E+03  0.41800000000E+01 0.  1.
         -5    1    3    3    0  502  0.21388724903E+02 -0.17746995112E+01  0.92325318922E+02  0.94879207550E+02  0.41800000000E+01 0.  1.
        -11    1    1    2    0    0  0.19061984398E+02  0.24136700593E+02  0.48779604342E+02  0.57666189092E+02  0.00000000000E+00 0.  1.
         11    1    1    2    0    0  0.52481854148E+02 -0.17388267924E+02 -0.23772635110E+02  0.60181683728E+02  0.00000000000E+00 0. -1.
</event>
<event>
 7    1  0.2766180E-009  0.1223941E+03  0.7561462E-02  0.1239199E+00
         -3   -1    0    0    0  501 -0.00000000000E+00  0.00000000000E+00  0.31225506867E+02  0.31225506867E+02  0.00000000000E+00 0.  1.
          3   -1    0    0  501    0  0.00000000000E+00 -0.00000000000E+00 -0.77753953914E+03  0.77753953914E+03  0.00000000000E+00 0. -1.
         25    2    1    2    0    0 -0.35713424070E+02 -0.10434157364E+03 -0.35124474551E+03  0.38882255264E+03  0.12508994183E+03 0.  0.
          5    1    3    3  502    0 -0.68344022518E+01 -0.85926520024E+02 -0.34253009066E+03  0.35323421593E+03  0.41800000000E+01 0. -1.
         -5    1    3    3    0  502 -0.28879021818E+02 -0.18415053612E+02 -0.87146548504E+01  0.35588336711E+02  0.41800000000E+01 0. -1.
        -11    1    1    2    0    0  0.49905468407E+02  0.63606939625E+02 -0.34263847430E+03  0.35204761413E+03  0.00000000000E+00 0. -1.
         11    1    1    2    0    0 -0.14192044338E+02  0.40734634011E+02 -0.52430812470E+02  0.67894879238E+02  0.00000000000E+00 0.  1.
</event>
<event>
 7    1  0.3569358E-009  0.1115077E+03  0.7561462E-02  0.1257803E+00
         -3   -1    0    0    0  501 -0.00000000000E+00  0.00000000000E+00  0.88318352155E+02  0.88318352155E+02  0.00000000000E+00 0.  1.
          3   -1    0    0  501    0  0.00000000000E+00 -0.00000000000E+00 -0.16757661120E+03  0.16757661120E+03  0.00000000000E+00 0. -1.
         25    2    1    2    0    0 -0.40593616767E+02  0.33287443333E+02 -0.23900847932E+02  0.13774882332E+03  0.12509033611E+03 0.  0.
          5    1    3    3  502    0 -0.31017277834E+02 -0.42978011301E+02 -0.29075209951E+02  0.60597204666E+02  0.41800000000E+01 0.  1.
         -5    1    3    3    0  502 -0.95763389326E+01  0.76265454634E+02  0.51743620189E+01  0.77151618649E+02  0.41800000000E+01 0.  1.
        -11    1    1    2    0    0  0.19551553626E+02  0.24515607751E+02  0.52467983597E+01  0.31793193700E+02  0.00000000000E+00 0.  1.
         11    1    1    2    0    0  0.21042063141E+02 -0.57803051084E+02 -0.60604209470E+02  0.86352946338E+02  0.00000000000E+00 0. -1.
</event>
<event>
 7    1  0.2766180E-009  0.7814748E+02  0.7561462E-02  0.1334392E+00
          1   -1    0    0  501    0  0.00000000000E+00  0.00000000000E+00  0.78129170439E+02  0.78129170439E+02  0.00000000000E+00 0. -1.
         -1   -1    0    0    0  501 -0.00000000000E+00 -0.00000000000E+00 -0.18520037108E+03  0.18520037108E+03  0.00000000000E+00 0.  1.
         25    2    1    2    0    0  0.24772275306E+02  0.96611624973E+01 -0.10869428481E+03  0.16784106742E+03  0.12509665335E+03 0.  0.
          5    1    3    3  502    0  0.47691420768E+02 -0.21607549957E-01  0.79234113215E+01  0.48525508021E+02  0.41800000000E+01 0.  1.
         -5    1    3    3    0  502 -0.22919145461E+02  0.96827700472E+01 -0.11661769613E+03  0.11931555940E+03  0.41800000000E+01 0.  1.
        -11    1    1    2    0    0 -0.19491041414E+02  0.34011539248E+02 -0.22621082080E+02  0.45259240514E+02  0.00000000000E+00 0.  1.
         11    1    1    2    0    0 -0.52812338919E+01 -0.43672701745E+02  0.24244166249E+02  0.50229233582E+02  0.00000000000E+00 0. -1.
</event>
<event>
 7    1  0.2766180E-009  0.8311946E+02  0.7561462E-02  0.1320425E+00
         -1   -1    0    0    0  501 -0.00000000000E+00  0.00000000000E+00  0.12173975648E+03  0.12173975648E+03  0.00000000000E+00 0.  1.
          1   -1    0    0  501    0  0.00000000000E+00 -0.00000000000E+00 -0.14379582465E+03  0.14379582465E+03  0.00000000000E+00 0. -1.
         25    2    1    2    0    0  0.31704045015E+02 -0.97237812519E+01  0.56538548965E+02  0.14122318911E+03  0.12509070002E+03 0.  0.
          5    1    3    3  502    0  0.50877748028E+02 -0.48243608329E+01 -0.25118471352E+02  0.57098421212E+02  0.41800000000E+01 0. -1.
         -5    1    3    3    0  502 -0.19173703013E+02 -0.48994204190E+01  0.81657020317E+02  0.84124767903E+02  0.41800000000E+01 0. -1.
        -11    1    1    2    0    0  0.26297132070E+02 -0.16539196039E+02 -0.36757657614E+02  0.48127014805E+02  0.00000000000E+00 0.  1.
         11    1    1    2    0    0 -0.58001177084E+02  0.26262977291E+02 -0.41836959515E+02  0.76185377212E+02  0.00000000000E+00 0. -1.
</event>
<event>
 7    1  0.2766180E-009  0.1460602E+03  0.7561462E-02  0.1205400E+00
          1   -1    0    0  501    0  0.00000000000E+00  0.00000000000E+00  0.38163338882E+03  0.38163338882E+03  0.00000000000E+00 0. -1.
         -1   -1    0    0    0  501 -0.00000000000E+00 -0.00000000000E+00 -0.58403063409E+02  0.58403063409E+02  0.00000000000E+00 0.  1.
         25    2    1    2    0    0  0.71416807140E+02 -0.70098408009E+02  0.21037763335E+03  0.26442521438E+03  0.12509115972E+03 0.  0.
          5    1    3    3  502    0  0.10017171557E+03 -0.20313960220E+02  0.14160321855E+03  0.17468821793E+03  0.41800000000E+01 0.  1.
         -5    1    3    3    0  502 -0.28754908435E+02 -0.49784447789E+02  0.68774414797E+02  0.89736996447E+02  0.41800000000E+01 0.  1.
        -11    1    1    2    0    0 -0.48631003774E+02  0.89758015397E+02  0.72226532109E+02  0.12505258013E+03  0.00000000000E+00 0.  1.
         11    1    1    2    0    0 -0.22785803365E+02 -0.19659607388E+02  0.40626159952E+02  0.50558657717E+02  0.00000000000E+00 0. -1.
</event>
<event>
 7    1  0.2766180E-009  0.1886936E+03  0.7561462E-02  0.1159645E+00
         -1   -1    0    0    0  501 -0.00000000000E+00  0.00000000000E+00  0.18724960753E+03  0.18724960753E+03  0.00000000000E+00 0.  1.
          1   -1    0    0  501    0  0.00000000000E+00 -0.00000000000E+00 -0.19772967718E+03  0.19772967718E+03  0.00000000000E+00 0. -1.
         25    2    1    2    0    0 -0.11894617325E+03  0.10419207196E+03  0.85636027887E+01  0.20179192082E+03  0.12506983659E+03 0.  0.
          5    1    3    3  502    0  0.36338883971E+01  0.75351246653E+02  0.84734575300E+00  0.75559287396E+02  0.41800000000E+01 0. -1.
         -5    1    3    3    0  502 -0.12258006165E+03  0.28840825308E+02  0.77162570357E+01  0.12623263342E+03  0.41800000000E+01 0. -1.
        -11    1    1    2    0    0  0.30741724795E+02 -0.77977450220E+02  0.14854442858E+02  0.85124560843E+02  0.00000000000E+00 0.  1.
         11    1    1    2    0    0  0.88204448456E+02 -0.26214621741E+02 -0.33898115304E+02  0.98062803048E+02  0.00000000000E+00 0. -1.
</event>
<event>
 7    1  0.2766180E-009  0.9657643E+02  0.7561462E-02  0.1287665E+00
         -1   -1    0    0    0  501 -0.00000000000E+00  0.00000000000E+00  0.39518968016E+02  0.39518968016E+02  0.00000000000E+00 0.  1.
          1   -1    0    0  501    0  0.00000000000E+00 -0.00000000000E+00 -0.30759581868E+03  0.30759581868E+03  0.00000000000E+00 0. -1.
         25    2    1    2    0    0  0.24724746630E+01 -0.20088878320E+02 -0.18013486716E+03  0.22023993431E+03  0.12508949650E+03 0.  0.
          5    1    3    3  502    0  0.33529170679E+02 -0.56648126640E+02 -0.54060469581E+02  0.85283188903E+02  0.41800000000E+01 0.  1.
         -5    1    3    3    0  502 -0.31056696016E+02  0.36559248320E+02 -0.12607439758E+03  0.13495674540E+03  0.41800000000E+01 0.  1.
        -11    1    1    2    0    0  0.22805191450E+02 -0.20868234182E+02 -0.68153317523E+02  0.74836051768E+02  0.00000000000E+00 0. -1.
         11    1    1    2    0    0 -0.25277666113E+02  0.40957112501E+02 -0.19788665979E+02  0.52038800618E+02  0.00000000000E+00 0.  1.
</event>
<event>
 7    1  0.2766180E-009  0.1200318E+03  0.7561462E-02  0.1243045E+00
          2   -1    0    0  501    0  0.00000000000E+00  0.00000000000E+00  0.15395722585E+04  0.15395722585E+04  0.00000000000E+00 0. -1.
         -2   -1    0    0    0  501 -0.00000000000E+00 -0.00000000000E+00 -0.15788401478E+02  0.15788401478E+02  0.00000000000E+00 0.  1.
         25    2    1    2    0    0 -0.18426849052E+02  0.76197821426E+02  0.12137396537E+04  0.12226845638E+04  0.12509172158E+03 0.  0.
          5    1    3    3  502    0 -0.54797054422E+02  0.13887421470E+02  0.25496093935E+03  0.26118600775E+03  0.41800000000E+01 0.  1.
         -5    1    3    3    0  502  0.36370205370E+02  0.62310399956E+02  0.95877871435E+03  0.96149855604E+03  0.41800000000E+01 0.  1.
        -11    1    1    2    0    0  0.49256101934E+02 -0.39194144642E+02  0.10832082979E+03  0.12528266727E+03  0.00000000000E+00 0.  1.
         11    1    1    2    0    0 -0.30829252882E+02 -0.37003676784E+02  0.20172337348E+03  0.20739342887E+03  0.00000000000E+00 0. -1.
</event>
<event>
 7    1  0.2766180E-009  0.1006808E+03  0.7561462E-02  0.1278871E+00
         -2   -1    0    0    0  501 -0.00000000000E+00  0.00000000000E+00  0.28454537373E+02  0.28454537373E+02  0.00000000000E+00 0.  1.
          2   -1    0    0  501    0  0.00000000000E+00 -0.00000000000E+00 -0.42454183223E+03  0.42454183223E+03  0.00000000000E+00 0. -1.
         25    2    1    2    0    0 -0.14783074225E+02  0.63751156407E+01 -0.22899626333E+03  0.26143205658E+03  0.12509296624E+03 0.  0.
          5    1    3    3  502    0  0.36845449385E+02 -0.32341611685E+02 -0.15760039652E+03  0.16510276912E+03  0.41800000000E+01 0.  1.
         -5    1    3    3    0  502 -0.51628523610E+02  0.38716727325E+02 -0.71395866814E+02  0.96329287462E+02  0.41800000000E+01 0.  1.
        -11    1    1    2    0    0 -0.71410798358E+00  0.39274490033E+02 -0.42005765323E+02  0.57510693249E+02  0.00000000000E+00 0.  1.
         11    1    1    2    0    0  0.15497182208E+02 -0.45649605674E+02 -0.12508526620E+03  0.13405361978E+03  0.00000000000E+00 0. -1.
</event>
<event>
 7    1  0.2766180E-009  0.1550221E+03  0.7561462E-02  0.1194434E+00
         -1   -1    0    0    0  501 -0.00000000000E+00  0.00000000000E+00  0.30616408349E+02  0.30616408349E+02  0.00000000000E+00 0.  1.
          1   -1    0    0  501    0  0.00000000000E+00 -0.00000000000E+00 -0.95182563209E+03  0.95182563209E+03  0.00000000000E+00 0. -1.
         25    2    1    2    0    0  0.16043931070E+02 -0.12991421034E+03 -0.54763970964E+03  0.57679417878E+03  0.12508862194E+03 0.  0.
          5    1    3    3  502    0  0.32434575794E+02 -0.22992733938E+00 -0.35707769246E+02  0.48420778165E+02  0.41800000000E+01 0.  1.
         -5    1    3    3    0  502 -0.16390644724E+02 -0.12968428300E+03 -0.51193194039E+03  0.52837340062E+03  0.41800000000E+01 0.  1.
        -11    1    1    2    0    0  0.21440102123E+02  0.86885792232E+02 -0.14783603875E+03  0.17281294287E+03  0.00000000000E+00 0.  1.
         11    1    1    2    0    0 -0.37484033194E+02  0.43028418105E+02 -0.22573347535E+03  0.23283491878E+03  0.00000000000E+00 0. -1.
</event>
<event>
 7    1  0.2766180E-009  0.1064885E+03  0.7561462E-02  0.1267214E+00
         -1   -1    0    0    0  501 -0.00000000000E+00  0.00000000000E+00  0.43975295594E+02  0.43975295594E+02  0.00000000000E+00 0.  1.
          1   -1    0    0  501    0  0.00000000000E+00 -0.00000000000E+00 -0.47387676365E+03  0.47387676365E+03  0.00000000000E+00 0. -1.
         25    2    1    2    0    0 -0.27719429722E+02  0.85170782998E+02 -0.18959397327E+03  0.24416423836E+03  0.12509145267E+03 0.  0.
          5    1    3    3  502    0 -0.12822729348E+02  0.92392735700E+02 -0.20234807030E+03  0.22285208985E+03  0.41800000000E+01 0.  1.
         -5    1    3    3    0  502 -0.14896700374E+02 -0.72219527022E+01  0.12754097026E+02  0.21312148503E+02  0.41800000000E+01 0.  1.
        -11    1    1    2    0    0 -0.80932106153E+01 -0.55319006509E+02 -0.41873775728E+02  0.69850595080E+02  0.00000000000E+00 0.  1.
         11    1    1    2    0    0  0.35812640338E+02 -0.29851776489E+02 -0.19843371906E+03  0.20383722581E+03  0.00000000000E+00 0. -1.
</event>
<event>
 7    1  0.2766180E-009  0.1147470E+03  0.7561462E-02  0.1252023E+00
          1   -1    0    0  501    0  0.00000000000E+00  0.00000000000E+00  0.22118630752E+03  0.22118630752E+03  0.00000000000E+00 0. -1.
         -1   -1    0    0    0  501 -0.00000000000E+00 -0.00000000000E+00 -0.18841533560E+03  0.18841533560E+03  0.00000000000E+00 0.  1.
         25    2    1    2    0    0 -0.33258854011E+02  0.55089471852E+02  0.17813900251E+03  0.22698249776E+03  0.12508616548E+03 0.  0.
          5    1    3    3  502    0 -0.20949464013E+02  0.95443100895E+02  0.11553686007E+03  0.15137537443E+03  0.41800000000E+01 0.  1.
         -5    1    3    3    0  502 -0.12309389998E+02 -0.40353629042E+02  0.62602142444E+02  0.75607123325E+02  0.41800000000E+01 0.  1.
        -11    1    1    2    0    0  0.51668391438E+02 -0.43483821536E+02 -0.14598497664E+03  0.16084799910E+03  0.00000000000E+00 0.  1.
         11    1    1    2    0    0 -0.18409537427E+02 -0.11605650316E+02  0.61694605221E+00  0.21771146271E+02  0.00000000000E+00 0. -1.
</event>
<event>
 7    1  0.2766180E-009  0.7806531E+02  0.7561462E-02  0.1334633E+00
          2   -1    0    0  501    0  0.00000000000E+00  0.00000000000E+00  0.10481069906E+03  0.10481069906E+03  0.00000000000E+00 0. -1.
         -2   -1    0    0    0  501 -0.00000000000E+00 -0.00000000000E+00 -0.14313875732E+03  0.14313875732E+03  0.00000000000E+00 0.  1.
         25    2    1    2    0    0  0.30758164126E+02  0.36693123806E+02 -0.38737892834E+02  0.13942926363E+03  0.12508974866E+03 0.  0.
          5    1    3    3  502    0  0.72574676148E+01 -0.90314818081E+01  0.41918316562E+02  0.43690458491E+02  0.41800000000E+01 0. -1.
         -5    1    3    3    0  502  0.23500696511E+02  0.45724605614E+02 -0.80656209396E+02  0.95738805138E+02  0.41800000000E+01 0. -1.
        -11    1    1    2    0    0  0.15719821068E+02 -0.42575426293E+02  0.28789673548E+02  0.53745930092E+02  0.00000000000E+00 0. -1.
         11    1    1    2    0    0 -0.46477985194E+02  0.58823024877E+01 -0.28379838968E+02  0.54774262662E+02  0.00000000000E+00 0.  1.
</event>
<event>
 7    1  0.2766180E-009  0.2576629E+03  0.7561462E-02  0.1108556E+00
          1   -1    0    0  501    0  0.00000000000E+00  0.00000000000E+00  0.12015771557E+04  0.12015771557E+04  0.00000000000E+00 0. -1.
         -1   -1    0    0    0  501 -0.00000000000E+00 -0.00000000000E+00 -0.66959285561E+02  0.66959285561E+02  0.00000000000E+00 0.  1.
         25    2    1    2    0    0 -0.24544193274E+03 -0.35433871282E+02  0.76499040381E+03  0.81385205627E+03  0.12509016742E+03 0.  0.
          5    1    3    3  502    0 -0.96134045429E+02  0.22262807671E+02  0.15998595922E+03  0.18801693233E+03  0.41800000000E+01 0. -1.
         -5    1    3    3    0  502 -0.14930788731E+03 -0.57696678953E+02  0.60500444459E+03  0.62583512394E+03  0.41800000000E+01 0. -1.
        -11    1    1    2    0    0  0.17959013613E+03  0.54854500796E+02  0.21474173655E+03  0.28526416997E+03  0.00000000000E+00 0.  1.
         11    1    1    2    0    0  0.65851796614E+02 -0.19420629514E+02  0.15488572975E+03  0.16942021499E+03  0.00000000000E+00 0. -1.
</event>
<event>
 7    1  0.2766180E-009  0.8235273E+02  0.7561462E-02  0.1322504E+00
         -1   -1    0    0    0  501 -0.00000000000E+00  0.00000000000E+00  0.10255601559E+03  0.10255601559E+03  0.00000000000E+00 0.  1.
          1   -1    0    0  501    0  0.00000000000E+00 -0.00000000000E+00 -0.15531393128E+03  0.15531393128E+03  0.00000000000E+00 0. -1.
         25    2    1    2    0    0  0.45687289413E+02 -0.10739191785E+02 -0.75706522227E+02  0.15356099473E+03  0.12508734124E+03 0.  0.
          5    1    3    3  502    0  0.16670545462E+02  0.19299329641E+02 -0.10120314572E+03  0.10445056397E+03  0.41800000000E+01 0. -1.
         -5    1    3    3    0  502  0.29016743951E+02 -0.30038521426E+02  0.25496623495E+02  0.49110430752E+02  0.41800000000E+01 0. -1.
        -11    1    1    2    0    0 -0.23582006215E+02 -0.37231024009E+02 -0.53377537727E+01  0.44393150161E+02  0.00000000000E+00 0. -1.
         11    1    1    2    0    0 -0.22105283197E+02  0.47970215794E+02  0.28286360309E+02  0.59915801990E+02  0.00000000000E+00 0.  1.
</event>
<event>
 7    1  0.2766180E-009  0.9151356E+02  0.7561462E-02  0.1299227E+00
          2   -1    0    0  501    0  0.00000000000E+00  0.00000000000E+00  0.28308595905E+03  0.28308595905E+03  0.00000000000E+00 0. -1.
         -2   -1    0    0    0  501 -0.00000000000E+00 -0.00000000000E+00 -0.95271489860E+02  0.95271489860E+02  0.00000000000E+00 0.  1.
         25    2    1    2    0    0  0.34454583254E+02  0.72170598353E+02 -0.62244689101E+01  0.14860020082E+03  0.12509021584E+03 0.  0.
          5    1    3    3  502    0  0.43264317051E+02  0.50049386096E+02  0.52845082215E+02  0.84775098306E+02  0.41800000000E+01 0.  1.
         -5    1    3    3    0  502 -0.88097337977E+01  0.22121212257E+02 -0.59069551125E+02  0.63825102518E+02  0.41800000000E+01 0.  1.
        -11    1    1    2    0    0 -0.30536368756E+02 -0.12877189755E+02  0.15535932401E+03  0.15885468640E+03  0.00000000000E+00 0. -1.
         11    1    1    2    0    0 -0.39182144974E+01 -0.59293408598E+02  0.38679614089E+02  0.70902561689E+02  0.00000000000E+00 0.  1.
</event>
<event>
 6    1  0.2766180E-009  0.2049512E+03  0.7561462E-02  0.1145628E+00
         -3   -1    0    0    0  501 -0.00000000000E+00  0.00000000000E+00  0.47365344954E+03  0.47365344954E+03  0.00000000000E+00 0.  1.
          3   -1    0    0  501    0  0.00000000000E+00 -0.00000000000E+00 -0.12964040053E+03  0.12964040053E+03  0.00000000000E+00 0. -1.
          5    1    1    2  502    0 -0.39903196419E+02  0.11227658039E+03  0.98927706400E+02  0.15492727030E+03  0.41800000000E+01 0. -1.
         -5    1    1    2    0  502 -0.73711879545E+01  0.83709829978E+02 -0.35375595236E+02  0.91271984667E+02  0.41800000000E+01 0. -1.
        -11    1    1    2    0    0  0.39729725086E+02 -0.71312805742E+02  0.17696235523E+03  0.19488366398E+03  0.00000000000E+00 0.  1.
         11    1    1    2    0    0  0.75446592872E+01 -0.12467360462E+03  0.10349858262E+03  0.16221093113E+03  0.00000000000E+00 0. -1.
</event>
<event>
 7    1  0.2766180E-009  0.1333774E+03  0.7561462E-02  0.1222529E+00
          2   -1    0    0  501    0  0.00000000000E+00  0.00000000000E+00  0.18391500689E+03  0.18391500689E+03  0.00000000000E+00 0.  1.
         -2   -1    0    0    0  501 -0.00000000000E+00 -0.00000000000E+00 -0.13143652231E+03  0.13143652231E+03  0.00000000000E+00 0. -1.
         25    2    1    2    0    0 -0.81003323165E+02 -0.38272935882E+02 -0.38399745333E+02  0.15858092488E+03  0.12508802224E+03 0.  0.
          5    1    3    3  502    0  0.25522957499E+02  0.18253899137E+02  0.91898242619E+00  0.31669277255E+02  0.41800000000E+01 0.  1.
         -5    1    3    3    0  502 -0.10652628066E+03 -0.56526835019E+02 -0.39318727759E+02  0.12691164762E+03  0.41800000000E+01 0.  1.
        -11    1    1    2    0    0  0.68558128429E+02 -0.56394569939E+01  0.18552522924E+02  0.71247572279E+02  0.00000000000E+00 0. -1.
         11    1    1    2    0    0  0.12445194736E+02  0.43912392876E+02  0.72325706988E+02  0.85523032052E+02  0.00000000000E+00 0.  1.
</event>
<event>
 7    1  0.2766180E-009  0.1324461E+03  0.7561462E-02  0.1223871E+00
         -2   -1    0    0    0  501 -0.00000000000E+00  0.00000000000E+00  0.46523753562E+02  0.46523753562E+02  0.00000000000E+00 0.  1.
          2   -1    0    0  501    0  0.00000000000E+00 -0.00000000000E+00 -0.42383791481E+03  0.42383791481E+03  0.00000000000E+00 0. -1.
         25    2    1    2    0    0  0.49799519730E+02  0.73508789889E+02 -0.21408796850E+03  0.26337135090E+03  0.12508907171E+03 0.  0.
          5    1    3    3  502    0  0.46731054805E+02  0.10401930337E+03 -0.19790848410E+03  0.22844922288E+03  0.41800000000E+01 0.  1.
         -5    1    3    3    0  502  0.30684649254E+01 -0.30510513478E+02 -0.16179484393E+02  0.34922128012E+02  0.41800000000E+01 0.  1.
        -11    1    1    2    0    0  0.21428644560E+02 -0.74462851911E+01 -0.64969532822E+02  0.68816234756E+02  0.00000000000E+00 0. -1.
         11    1    1    2    0    0 -0.71228164290E+02 -0.66062504698E+02 -0.98256659931E+02  0.13817408272E+03  0.00000000000E+00 0.  1.
</event>
<event>
 7    1  0.2766180E-009  0.1549216E+03  0.7561462E-02  0.1194553E+00
          2   -1    0    0  501    0  0.00000000000E+00  0.00000000000E+00  0.17445267818E+03  0.17445267818E+03  0.00000000000E+00 0. -1.
         -2   -1    0    0    0  501 -0.00000000000E+00 -0.00000000000E+00 -0.20694828202E+03  0.20694828202E+03  0.00000000000E+00 0.  1.
         25    2    1    2    0    0  0.10517894776E+03  0.56119523897E+02 -0.11763090685E+03  0.20903750138E+03  0.12509050613E+03 0.  0.
          5    1    3    3  502    0  0.13289511354E+03  0.43850114828E+02 -0.82721188986E+02  0.16261676199E+03  0.41800000000E+01 0.  1.
         -5    1    3    3    0  502 -0.27716165781E+02  0.12269409070E+02 -0.34909717860E+02  0.46420739391E+02  0.41800000000E+01 0.  1.
        -11    1    1    2    0    0 -0.11013125826E+02  0.16837461994E+02  0.40374888754E+02  0.45110095420E+02  0.00000000000E+00 0. -1.
         11    1    1    2    0    0 -0.94165821935E+02 -0.72956985891E+02  0.44760414261E+02  0.12725336340E+03  0.00000000000E+00 0.  1.
</event>
<event>
 7    1  0.2766180E-009  0.1408506E+03  0.7561462E-02  0.1212189E+00
         -2   -1    0    0    0  501 -0.00000000000E+00  0.00000000000E+00  0.13785239262E+02  0.13785239262E+02  0.00000000000E+00 0.  1.
          2   -1    0    0  501    0  0.00000000000E+00 -0.00000000000E+00 -0.16483080629E+04  0.16483080629E+04  0.00000000000E+00 0. -1.
         25    2    1    2    0    0 -0.29741852250E+02 -0.98451696518E+02 -0.10002313994E+04  0.10132558109E+04  0.12508865509E+03 0.  0.
          5    1    3    3  502    0 -0.74009541206E+02 -0.88778112265E+02 -0.67100286296E+03  0.68089740777E+03  0.41800000000E+01 0. -1.
         -5    1    3    3    0  502  0.44267688956E+02 -0.96735842536E+01 -0.32922853648E+03  0.33235840316E+03  0.41800000000E+01 0. -1.
        -11    1    1    2    0    0  0.43935129112E+02  0.96733106660E+02 -0.61840519317E+03  0.62746519619E+03  0.00000000000E+00 0. -1.
         11    1    1    2    0    0 -0.14193276862E+02  0.17185898585E+01 -0.15886231045E+02  0.21372295057E+02  0.00000000000E+00 0.  1.
</event>
<event>
 7    1  0.2766180E-009  0.1349529E+03  0.7561462E-02  0.1220286E+00
          1   -1    0    0  501    0  0.00000000000E+00  0.00000000000E+00  0.10700511004E+04  0.10700511004E+04  0.00000000000E+00 0. -1.
         -1   -1    0    0    0  501 -0.00000000000E+00 -0.00000000000E+00 -0.28735981420E+02  0.28735981420E+02  0.00000000000E+00 0.  1.
         25    2    1    2    0    0 -0.86929620670E+02  0.60985491600E+01  0.89059198277E+03  0.90354604881E+03  0.12508969296E+03 0.  0.
          5    1    3    3  502    0 -0.11314282218E+03 -0.11756708024E+02  0.78513570119E+03  0.79334422547E+03  0.41800000000E+01 0. -1.
         -5    1    3    3    0  502  0.26213201514E+02  0.17855257184E+02  0.10545628158E+03  0.11020182334E+03  0.41800000000E+01 0. -1.
        -11    1    1    2    0    0  0.40261718481E+02 -0.47101570063E+02  0.76880273218E+02  0.98742798661E+02  0.00000000000E+00 0. -1.
         11    1    1    2    0    0  0.46667902190E+02  0.41003020903E+02  0.73842862976E+02  0.96498234338E+02  0.00000000000E+00 0.  1.
</event>
<event>
 7    1  0.2766180E-009  0.1063595E+03  0.7561462E-02  0.1267464E+00
         -2   -1    0    0    0  501 -0.00000000000E+00  0.00000000000E+00  0.63245822450E+02  0.63245822450E+02  0.00000000000E+00 0.  1.
          2   -1    0    0  501    0  0.00000000000E+00 -0.00000000000E+00 -0.23324401729E+03  0.23324401729E+03  0.00000000000E+00 0. -1.
         25    2    1    2    0    0 -0.29743164536E+02  0.95462306708E+01 -0.40100350981E+02  0.13502292375E+03  0.12508942974E+03 0.  0.
          5    1    3    3  502    0 -0.79552795451E+01  0.60540158562E+02  0.77076303500E+01  0.61686929223E+02  0.41800000000E+01 0. -1.
         -5    1    3    3    0  502 -0.21787884991E+02 -0.50993927892E+02 -0.47807981331E+02  0.73335994526E+02  0.41800000000E+01 0. -1.
        -11    1    1    2    0    0 -0.18367182519E+02  0.28952380143E+02 -0.45927229984E+02  0.57314083467E+02  0.00000000000E+00 0.  1.
         11    1    1    2    0    0  0.48110347055E+02 -0.38498610814E+02 -0.83970613878E+02  0.10415283253E+03  0.00000000000E+00 0. -1.
</event>
<event>
 7    1  0.2766180E-009  0.3794161E+03  0.7561462E-02  0.1051150E+00
         -1   -1    0    0    0  501 -0.00000000000E+00  0.00000000000E+00  0.14016561494E+03  0.14016561494E+03  0.00000000000E+00 0.  1.
          1   -1    0    0  501    0  0.00000000000E+00 -0.00000000000E+00 -0.12242168585E+04  0.12242168585E+04  0.00000000000E+00 0. -1.
         25    2    1    2    0    0  0.15796874331E+03  0.33829247515E+03 -0.78234872919E+03  0.87584992141E+03  0.12509047997E+03 0.  0.
          5    1    3    3  502    0  0.14736876165E+03  0.27228045324E+03 -0.52109745447E+03  0.60614703380E+03  0.41800000000E+01 0.  1.
         -5    1    3    3    0  502  0.10599981653E+02  0.66012021907E+02 -0.26125127472E+03  0.26970288762E+03  0.41800000000E+01 0.  1.
        -11    1    1    2    0    0 -0.87222847088E+02 -0.95564244569E+02 -0.12636969000E+03  0.18085808924E+03  0.00000000000E+00 0.  1.
         11    1    1    2    0    0 -0.70745896217E+02 -0.24272823058E+03 -0.17533282442E+03  0.30767446282E+03  0.00000000000E+00 0. -1.
</event>
<event>
 7    1  0.2766180E-009  0.1658894E+03  0.7561462E-02  0.1182204E+00
         -1   -1    0    0    0  501 -0.00000000000E+00  0.00000000000E+00  0.48835049882E+02  0.48835049882E+02  0.00000000000E+00 0.  1.
          1   -1    0    0  501    0  0.00000000000E+00 -0.00000000000E+00 -0.75456474586E+03  0.75456474586E+03  0.00000000000E+00 0. -1.
         25    2    1    2    0    0 -0.13909076520E+03 -0.25197818619E+01 -0.51235477189E+03  0.54544244300E+03  0.12508979209E+03 0.  0.
          5    1    3    3  502    0 -0.15890697291E+03 -0.44509939639E+00 -0.49031232506E+03  0.51543697254E+03  0.41800000000E+01 0.  1.
         -5    1    3    3    0  502  0.19816207713E+02 -0.20746824655E+01 -0.22042446830E+02  0.30005470463E+02  0.41800000000E+01 0.  1.
        -11    1    1    2    0    0  0.11104858494E+03 -0.24276745710E+02 -0.82388954083E+02  0.14038906066E+03  0.00000000000E+00 0.  1.
         11    1    1    2    0    0  0.28042180260E+02  0.26796527572E+02 -0.11098597001E+03  0.11756829208E+03  0.00000000000E+00 0. -1.
</event>
<event>
 7    1  0.2766180E-009  0.2515536E+03  0.7561462E-02  0.1112327E+00
         -1   -1    0    0    0  501 -0.00000000000E+00  0.00000000000E+00  0.22141452873E+03  0.22141452873E+03  0.00000000000E+00 0.  1.
          1   -1    0    0  501    0  0.00000000000E+00 -0.00000000000E+00 -0.31384755735E+03  0.31384755735E+03  0.00000000000E+00 0. -1.
         25    2    1    2    0    0 -0.15593125509E+03 -0.16817908437E+03  0.23123372512E+02  0.26226162904E+03  0.12509081091E+03 0.  0.
          5    1    3    3  502    0  0.64030348079E+01 -0.71507618208E+02  0.12367260204E+02  0.72970952039E+02  0.41800000000E+01 0. -1.
         -5    1    3    3    0  502 -0.16233428990E+03 -0.96671466165E+02  0.10756112309E+02  0.18929067700E+03  0.41800000000E+01 0. -1.
        -11    1    1    2    0    0  0.21948055544E+02 -0.57182540820E+01  0.39979686252E+01  0.23030400019E+02  0.00000000000E+00 0.  1.
         11    1    1    2    0    0  0.13398319955E+03  0.17389733845E+03 -0.11955436976E+03  0.24997005703E+03  0.00000000000E+00 0. -1.
</event>
<event>
 7    1  0.2766180E-009  0.1346411E+03  0.7561462E-02  0.1220727E+00
          1   -1    0    0  501    0  0.00000000000E+00  0.00000000000E+00  0.52305156145E+03  0.52305156145E+03  0.00000000000E+00 0. -1.
         -1   -1    0    0    0  501 -0.00000000000E+00 -0.00000000000E+00 -0.43283383386E+02  0.43283383386E+02  0.00000000000E+00 0.  1.
         25    2    1    2    0    0  0.64132624615E+02  0.61250820343E+02  0.15700837721E+03  0.21943857088E+03  0.12504798816E+03 0.  0.
          5    1    3    3  502    0  0.79376301618E+02  0.89861541875E+02  0.13127498816E+03  0.17783781623E+03  0.41800000000E+01 0. -1.
         -5    1    3    3    0  502 -0.15243677003E+02 -0.28610721532E+02  0.25733389056E+02  0.41600754650E+02  0.41800000000E+01 0. -1.
        -11    1    1    2    0    0  0.17461518150E+02 -0.81277282554E+01  0.15946902689E+02  0.25005365186E+02  0.00000000000E+00 0.  1.
         11    1    1    2    0    0 -0.81594142766E+02 -0.53123092088E+02  0.30681289816E+03  0.32189100877E+03  0.00000000000E+00 0. -1.
</event>
<event>
 7    1  0.2766180E-009  0.3754426E+03  0.7561462E-02  0.1052631E+00
         -2   -1    0    0    0  501 -0.00000000000E+00  0.00000000000E+00  0.23279038470E+03  0.23279038470E+03  0.00000000000E+00 0.  1.
          2   -1    0    0  501    0  0.00000000000E+00 -0.00000000000E+00 -0.63277099692E+03  0.63277099692E+03  0.00000000000E+00 0. -1.
         25    2    1    2    0    0  0.19303509901E+03  0.31219023085E+03 -0.20772000314E+03  0.43990981646E+03  0.12509099578E+03 0.  0.
          5    1    3    3  502    0 -0.34165435690E+01  0.11684908158E+02 -0.42994360430E+02  0.44879809240E+02  0.41800000000E+01 0. -1.
         -5    1    3    3    0  502  0.19645164258E+03  0.30050532269E+03 -0.16472564271E+03  0.39503000722E+03  0.41800000000E+01 0. -1.
        -11    1    1    2    0    0 -0.97080897476E+02 -0.23999495166E+03 -0.14396028892E+03  0.29622093488E+03  0.00000000000E+00 0. -1.
         11    1    1    2    0    0 -0.95954201535E+02 -0.72195279187E+02 -0.48300320161E+02  0.12943063029E+03  0.00000000000E+00 0.  1.
</event>
<event>
 7    1  0.2766180E-009  0.1134521E+03  0.7561462E-02  0.1254308E+00
         -1   -1    0    0    0  501 -0.00000000000E+00  0.00000000000E+00  0.73960589365E+02  0.73960589365E+02  0.00000000000E+00 0.  1.
          1   -1    0    0  501    0  0.00000000000E+00 -0.00000000000E+00 -0.45602383926E+03  0.45602383926E+03  0.00000000000E+00 0. -1.
         25    2    1    2    0    0 -0.55000556884E+02 -0.41115002363E+02 -0.38770695255E+03  0.41313406022E+03  0.12509023135E+03 0.  0.
          5    1    3    3  502    0 -0.77857139425E+01 -0.80111472398E+02 -0.24039797784E+03  0.25354905935E+03  0.41800000000E+01 0. -1.
         -5    1    3    3    0  502 -0.47214842942E+02  0.38996470035E+02 -0.14730897472E+03  0.15958500087E+03  0.41800000000E+01 0. -1.
        -11    1    1    2    0    0  0.20347384172E+02 -0.10392523513E+02  0.39876228446E+02  0.45957961037E+02  0.00000000000E+00 0.  1.
         11    1    1    2    0    0  0.34653172712E+02  0.51507525876E+02 -0.34232525788E+02  0.70892407370E+02  0.00000000000E+00 0. -1.
</event>
<event>
 7    1  0.2766180E-009  0.1514125E+03  0.7561462E-02  0.1198748E+00
          3   -1    0    0  501    0  0.00000000000E+00  0.00000000000E+00  0.24945951968E+02  0.24945951968E+02  0.00000000000E+00 0. -1.
         -3   -1    0    0    0  501 -0.00000000000E+00 -0.00000000000E+00 -0.93755419604E+03  0.93755419604E+03  0.00000000000E+00 0.  1.
         25    2    1    2    0    0 -0.22467812464E+02  0.98149199066E+02 -0.54211507452E+03  0.56539709687E+03  0.12508818990E+03 0.  0.
          5    1    3    3  502    0 -0.64920633877E+02  0.15466539879E+02 -0.25253389012E+03  0.26123694344E+03  0.41800000000E+01 0. -1.
         -5    1    3    3    0  502  0.42452821412E+02  0.82682659188E+02 -0.28958118440E+03  0.30416015343E+03  0.41800000000E+01 0. -1.
        -11    1    1    2    0    0 -0.62478157631E+01 -0.11120051019E+03 -0.28866651439E+03  0.30940740973E+03  0.00000000000E+00 0.  1.
         11    1    1    2    0    0  0.28715628227E+02  0.13051311121E+02 -0.81826655158E+02  0.87695641402E+02  0.00000000000E+00 0. -1.
</event>
<event>
 7    1  0.2766180E-009  0.1857547E+03  0.7561462E-02  0.1162347E+00
         -2   -1    0    0    0  501 -0.00000000000E+00  0.00000000000E+00  0.44417090366E+02  0.44417090366E+02  0.00000000000E+00 0.  1.
          2   -1    0    0  501    0  0.00000000000E+00 -0.00000000000E+00 -0.12049322639E+04  0.12049322639E+04  0.00000000000E+00 0. -1.
         25    2    1    2    0    0  0.74033616802E+02 -0.14206591634E+03 -0.25646801411E+03  0.32724182374E+03  0.12509063891E+03 0.  0.
          5    1    3    3  502    0 -0.17829590463E+02  0.33717197795E+01 -0.74536171966E+02  0.76826923156E+02  0.41800000000E+01 0. -1.
         -5    1    3    3    0  502  0.91863207265E+02 -0.14543763612E+03 -0.18193184214E+03  0.25041490059E+03  0.41800000000E+01 0. -1.
        -11    1    1    2    0    0 -0.24856747185E+02 -0.53409144083E+01 -0.99943299429E+02  0.10312636107E+03  0.00000000000E+00 0. -1.
         11    1    1    2    0    0 -0.49176869617E+02  0.14740683075E+03 -0.80410386004E+03  0.81898116950E+03  0.00000000000E+00 0.  1.
</event>
<event>
 7    1  0.2766180E-009  0.1375798E+03  0.7561462E-02  0.1216623E+00
          2   -1    0    0  501    0  0.00000000000E+00  0.00000000000E+00  0.13450840952E+04  0.13450840952E+04  0.00000000000E+00 0. -1.
         -2   -1    0    0    0  501 -0.00000000000E+00 -0.00000000000E+00 -0.25663050903E+02  0.25663050903E+02  0.00000000000E+00 0.  1.
         25    2    1    2    0    0 -0.68692978411E+02  0.96310943192E+02  0.10374002709E+04  0.10515900426E+04  0.12509105701E+03 0.  0.
          5    1    3    3  502    0 -0.88213373454E+02  0.94433352154E+02  0.10063945629E+04  0.10146658297E+04  0.41800000000E+01 0.  1.
         -5    1    3    3    0  502  0.19520395043E+02  0.18775910372E+01  0.31005707943E+02  0.36924212866E+02  0.41800000000E+01 0.  1.
        -11    1    1    2    0    0  0.33812081940E+02 -0.14331796724E+02  0.18001536718E+03  0.18372313328E+03  0.00000000000E+00 0. -1.
         11    1    1    2    0    0  0.34880896470E+02 -0.81979146467E+02  0.10200540620E+03  0.13543397021E+03  0.00000000000E+00 0.  1.
</event>
<event>
 7    1  0.2766180E-009  0.1593505E+03  0.7561462E-02  0.1189432E+00
         -1   -1    0    0    0  501 -0.00000000000E+00  0.00000000000E+00  0.51746161431E+02  0.51746161431E+02  0.00000000000E+00 0.  1.
          1   -1    0    0  501    0  0.00000000000E+00 -0.00000000000E+00 -0.65946708269E+03  0.65946708269E+03  0.00000000000E+00 0. -1.
         25    2    1    2    0    0 -0.54222759250E+00  0.12654670106E+03 -0.46897761643E+03  0.50159807550E+03  0.12508502338E+03 0.  0.
          5    1    3    3  502    0  0.57113178133E+02  0.92988569153E+02 -0.32509624484E+03  0.34294872783E+03  0.41800000000E+01 0.  1.
         -5    1    3    3    0  502 -0.57655405726E+02  0.33558131907E+02 -0.14388137159E+03  0.15864934768E+03  0.41800000000E+01 0.  1.
        -11    1    1    2    0    0 -0.30178612883E+02 -0.35671876103E+02 -0.79211301730E+01  0.47391726319E+02  0.00000000000E+00 0.  1.
         11    1    1    2    0    0  0.30720840476E+02 -0.90874824957E+02 -0.13082217466E+03  0.16222344230E+03  0.00000000000E+00 0. -1.
</event>
<event>
 7    1  0.2766180E-009  0.1196135E+03  0.7561462E-02  0.1243736E+00
          2   -1    0    0  501    0  0.00000000000E+00  0.00000000000E+00  0.19304483526E+02  0.19304483526E+02  0.00000000000E+00 0. -1.
         -2   -1    0    0    0  501 -0.00000000000E+00 -0.00000000000E+00 -0.81705531205E+03  0.81705531205E+03  0.00000000000E+00 0.  1.
         25    2    1    2    0    0 -0.33511283225E+02 -0.96245177232E+01 -0.49240911388E+03  0.50924365346E+03  0.12508687265E+03 0.  0.
          5    1    3    3  502    0 -0.10440599636E+01  0.52103260198E+02 -0.30043099881E+03  0.30494605626E+03  0.41800000000E+01 0. -1.
         -5    1    3    3    0  502 -0.32467223262E+02 -0.61727777921E+02 -0.19197811507E+03  0.20429759720E+03  0.41800000000E+01 0. -1.
        -11    1    1    2    0    0 -0.31450483463E+02 -0.27910573243E+02 -0.99103418055E+02  0.10765509964E+03  0.00000000000E+00 0.  1.
         11    1    1    2    0    0  0.64961766688E+02  0.37535090966E+02 -0.20623829659E+03  0.21946104247E+03  0.00000000000E+00 0. -1.
</event>
<event>
 7    1  0.2766180E-009  0.2772527E+03  0.7561462E-02  0.1097199E+00
         -1   -1    0    0    0  501 -0.00000000000E+00  0.00000000000E+00  0.89941035961E+02  0.89941035961E+02  0.00000000000E+00 0. -1.
          1   -1    0    0  501    0  0.00000000000E+00 -0.00000000000E+00 -0.18142551335E+04  0.18142551335E+04  0.00000000000E+00 0.  1.
         25    2    1    2    0    0  0.21972231296E+03 -0.14748575828E+03 -0.15439365010E+04  0.15714377498E+04  0.12508692439E+03 0.  0.
          5    1    3    3  502    0  0.17442225767E+03 -0.48840573559E+02 -0.10682352973E+04  0.10834909544E+04  0.41800000000E+01 0. -1.
         -5    1    3    3    0  502  0.45300055289E+02 -0.98645184719E+02 -0.47570120373E+03  0.48794679537E+03  0.41800000000E+01 0. -1.
        -11    1    1    2    0    0 -0.94837314986E+02  0.60183007197E+02 -0.13104987517E+03  0.17259832111E+03  0.00000000000E+00 0.  1.
         11    1    1    2    0    0 -0.12488499797E+03  0.87302751081E+02 -0.49327721327E+02  0.16016009851E+03  0.00000000000E+00 0. -1.
</event>
<event>
 7    1  0.2766180E-009  0.1036076E+03  0.7561462E-02  0.1272888E+00
          2   -1    0    0  501    0  0.00000000000E+00  0.00000000000E+00  0.46205038586E+02  0.46205038586E+02  0.00000000000E+00 0. -1.
         -2   -1    0    0    0  501 -0.00000000000E+00 -0.00000000000E+00 -0.29098197582E+03  0.29098197582E+03  0.00000000000E+00 0.  1.
         25    2    1    2    0    0 -0.36550482747E+02  0.17276097590E+02 -0.14358198692E+03  0.19467036041E+03  0.12508541449E+03 0.  0.
          5    1    3    3  502    0  0.41830087878E+02  0.24700046235E+02 -0.78625011333E+02  0.92516016684E+02  0.41800000000E+01 0.  1.
         -5    1    3    3    0  502 -0.78380570624E+02 -0.74239486448E+01 -0.64956975592E+02  0.10215434373E+03  0.41800000000E+01 0.  1.
        -11    1    1    2    0    0 -0.13078193406E+02 -0.26113854610E+02  0.28386352746E+00  0.29207073181E+02  0.00000000000E+00 0. -1.
         11    1    1    2    0    0  0.49628676152E+02  0.88377570191E+01 -0.10147881383E+03  0.11330958081E+03  0.00000000000E+00 0.  1.
</event>
<event>
 7    1  0.2766180E-009  0.8033721E+02  0.7561462E-02  0.1328097E+00
         -1   -1    0    0    0  501 -0.00000000000E+00  0.00000000000E+00  0.37596942227E+02  0.37596942227E+02  0.00000000000E+00 0.  1.
          1   -1    0    0  501    0  0.00000000000E+00 -0.00000000000E+00 -0.39528214560E+03  0.39528214560E+03  0.00000000000E+00 0. -1.
         25    2    1    2    0    0 -0.26467765802E+02  0.17627020165E+00 -0.28471673163E+03  0.31210922632E+03  0.12509187898E+03 0.  0.
          5    1    3    3  502    0 -0.59907890640E+01 -0.28263808455E+02 -0.43323055673E+01  0.29512263443E+02  0.41800000000E+01 0.  1.
         -5    1    3    3    0  502 -0.20476976738E+02  0.28440078657E+02 -0.28038442606E+03  0.28259696288E+03  0.41800000000E+01 0.  1.
        -11    1    1    2    0    0 -0.30955854668E+02  0.18183485519E+02 -0.25450729404E+02  0.44007314291E+02  0.00000000000E+00 0.  1.
         11    1    1    2    0    0  0.57423620470E+02 -0.18359755721E+02 -0.47517742346E+02  0.76762547220E+02  0.00000000000E+00 0. -1.
</event>
<event>
 7    1  0.2766180E-009  0.4220665E+03  0.7561462E-02  0.1036396E+00
          1   -1    0    0  501    0  0.00000000000E+00  0.00000000000E+00  0.43700315724E+03  0.43700315724E+03  0.00000000000E+00 0. -1.
         -1   -1    0    0    0  501 -0.00000000000E+00 -0.00000000000E+00 -0.44128616510E+03  0.44128616510E+03  0.00000000000E+00 0.  1.
         25    2    1    2    0    0 -0.37085094846E+03 -0.17903578334E+03 -0.10729644923E+03  0.44356160937E+03  0.12510050200E+03 0.  0.
          5    1    3    3  502    0 -0.14293214402E+02 -0.37828972154E+02 -0.34217173137E+02  0.53137693304E+02  0.41800000000E+01 0. -1.
         -5    1    3    3    0  502 -0.35655773406E+03 -0.14120681119E+03 -0.73079276090E+02  0.39042391607E+03  0.41800000000E+01 0. -1.
        -11    1    1    2    0    0  0.20746426298E+03  0.54458895209E+02  0.75695293024E+02  0.22745762037E+03  0.00000000000E+00 0.  1.
         11    1    1    2    0    0  0.16338668549E+03  0.12457688814E+03  0.27318148347E+02  0.20727009259E+03  0.00000000000E+00 0. -1.
</event>
<event>
 6    1  0.2766180E-009  0.9826724E+02  0.7561462E-02  0.1283982E+00
          1   -1    0    0  501    0  0.00000000000E+00  0.00000000000E+00  0.58850573995E+03  0.58850573995E+03  0.00000000000E+00 0. -1.
         -1   -1    0    0    0  501 -0.00000000000E+00 -0.00000000000E+00 -0.20716915778E+02  0.20716915778E+02  0.00000000000E+00 0.  1.
          5    1    1    2  502    0 -0.29509935629E+02 -0.45591318172E+02  0.20263013279E+03  0.20982337265E+03  0.41800000000E+01 0.  1.
         -5    1    1    2    0  502  0.64871926255E+02  0.34713721263E+02  0.18461183079E+03  0.19877728675E+03  0.41800000000E+01 0.  1.
        -11    1    1    2    0    0 -0.21654305176E+02 -0.23142156473E+02  0.23782601161E+02  0.39624240773E+02  0.00000000000E+00 0.  1.
         11    1    1    2    0    0 -0.13707685451E+02  0.34019753382E+02  0.15676425943E+03  0.16099775556E+03  0.00000000000E+00 0. -1.
</event>
<event>
 7    1  0.2766180E-009  0.1130074E+03  0.7561462E-02  0.1255100E+00
          2   -1    0    0  501    0  0.00000000000E+00  0.00000000000E+00  0.58071042764E+03  0.58071042764E+03  0.00000000000E+00 0. -1.
         -2   -1    0    0    0  501 -0.00000000000E+00 -0.00000000000E+00 -0.22710211332E+02  0.22710211332E+02  0.00000000000E+00 0.  1.
         25    2    1    2    0    0  0.21781163032E+02  0.29222601131E+02  0.32170445132E+03  0.34708934521E+03  0.12509548385E+03 0.  0.
          5    1    3    3  502    0  0.82546676726E+00  0.76999328493E+02  0.17190634600E+03  0.18841136425E+03  0.41800000000E+01 0.  1.
         -5    1    3    3    0  502  0.20955696265E+02 -0.47776727363E+02  0.14979810532E+03  0.15867798096E+03  0.41800000000E+01 0.  1.
        -11    1    1    2    0    0 -0.47293344567E+02  0.11346897388E+02  0.14911935720E+03  0.15685023178E+03  0.00000000000E+00 0.  1.
         11    1    1    2    0    0  0.25512181535E+02 -0.40569498518E+02  0.87176407793E+02  0.99481061979E+02  0.00000000000E+00 0. -1.
</event>
<event>
 7    1  0.2766180E-009  0.8939149E+02  0.7561462E-02  0.1304332E+00
          1   -1    0    0  501    0  0.00000000000E+00  0.00000000000E+00  0.82147945456E+03  0.82147945456E+03  0.00000000000E+00 0. -1.
         -1   -1    0    0    0  501 -0.00000000000E+00 -0.00000000000E+00 -0.21609260237E+02  0.21609260237E+02  0.00000000000E+00 0.  1.
         25    2    1    2    0    0  0.19642812953E+02 -0.19835816218E+02  0.66717049454E+03  0.67936975281E+03  0.12508993782E+03 0.  0.
          5    1    3    3  502    0 -0.33783840040E+02  0.18618270841E+02  0.46706294720E+03  0.46867180084E+03  0.41800000000E+01 0. -1.
         -5    1    3    3    0  502  0.53426652993E+02 -0.38454087059E+02  0.20010754734E+03  0.21069795197E+03  0.41800000000E+01 0. -1.
        -11    1    1    2    0    0  0.23308201941E+02 -0.57798598143E+01  0.10254989456E+03  0.10532407099E+03  0.00000000000E+00 0. -1.
         11    1    1    2    0    0 -0.42951014894E+02  0.25615676032E+02  0.30149805229E+02  0.58394890996E+02  0.00000000000E+00 0.  1.
</event>
<event>
 7    1  0.2766180E-009  0.1279103E+03  0.7561462E-02  0.1230590E+00
         -1   -1    0    0    0  501 -0.00000000000E+00  0.00000000000E+00  0.22946192388E+03  0.22946192388E+03  0.00000000000E+00 0.  1.
          1   -1    0    0  501    0  0.00000000000E+00 -0.00000000000E+00 -0.87487615146E+02  0.87487615146E+02  0.00000000000E+00 0. -1.
         25    2    1    2    0    0  0.79741487738E+02 -0.40937583276E+02  0.95975286814E+02  0.18136211283E+03  0.12508544959E+03 0.  0.
          5    1    3    3  502    0  0.66795987806E+02  0.18578433316E+02  0.22341262726E+01  0.69493351420E+02  0.41800000000E+01 0.  1.
         -5    1    3    3    0  502  0.12945499933E+02 -0.59516016592E+02  0.93741160541E+02  0.11186876141E+03  0.41800000000E+01 0.  1.
        -11    1    1    2    0    0 -0.34409765914E-01  0.45475972620E+02  0.29078115502E+02  0.53977792386E+02  0.00000000000E+00 0. -1.
         11    1    1    2    0    0 -0.79707077972E+02 -0.45383893439E+01  0.16920906418E+02  0.81609633811E+02  0.00000000000E+00 0.  1.
</event>
<event>
 7    1  0.2766180E-009  0.7199961E+02  0.7561462E-02  0.1353422E+00
          2   -1    0    0  501    0  0.00000000000E+00  0.00000000000E+00  0.36628577847E+03  0.36628577847E+03  0.00000000000E+00 0. -1.
         -2   -1    0    0    0  501 -0.00000000000E+00 -0.00000000000E+00 -0.46261557185E+02  0.46261557185E+02  0.00000000000E+00 0.  1.
         25    2    1    2    0    0  0.28597265481E+02  0.24644540940E+02  0.79089179953E+02  0.15273275768E+03  0.12508812850E+03 0.  0.
          5    1    3    3  502    0  0.24223145216E+02  0.12218161547E+01 -0.31247025034E+02  0.39775653010E+02  0.41800000000E+01 0.  1.
         -5    1    3    3    0  502  0.43741202652E+01  0.23422724786E+02  0.11033620499E+03  0.11295710467E+03  0.41800000000E+01 0.  1.
        -11    1    1    2    0    0 -0.59047611500E+02 -0.56731496499E+01  0.12324544106E+03  0.13677808228E+03  0.00000000000E+00 0.  1.
         11    1    1    2    0    0  0.30450346019E+02 -0.18971391290E+02  0.11768960027E+03  0.12303649569E+03  0.00000000000E+00 0. -1.
</event>
<event>
 7    1  0.2766180E-009  0.9763334E+02  0.7561462E-02  0.1285353E+00
          2   -1    0    0  501    0  0.00000000000E+00  0.00000000000E+00  0.91413406451E+03  0.91413406451E+03  0.00000000000E+00 0. -1.
         -2   -1    0    0    0  501 -0.00000000000E+00 -0.00000000000E+00 -0.21828812682E+02  0.21828812682E+02  0.00000000000E+00 0.  1.
         25    2    1    2    0    0 -0.28137481694E+02  0.68574594303E+02  0.31150288885E+03  0.34376523682E+03  0.12508515269E+03 0.  0.
          5    1    3    3  502    0 -0.31229563876E+02  0.40928111598E+02  0.27774093011E+02  0.58645277912E+02  0.41800000000E+01 0.  1.
         -5    1    3    3    0  502  0.30920821816E+01  0.27646482705E+02  0.28372879584E+03  0.28511995891E+03  0.41800000000E+01 0.  1.
        -11    1    1    2    0    0 -0.29646552791E+02 -0.43152418336E+02  0.27735421630E+03  0.28225238812E+03  0.00000000000E+00 0.  1.
         11    1    1    2    0    0  0.57784034485E+02 -0.25422175967E+02  0.30344814668E+03  0.30994525226E+03  0.00000000000E+00 0. -1.
</event>
<event>
 6    1  0.2766180E-009  0.1007632E+03  0.7561462E-02  0.1278699E+00
         -1   -1    0    0    0  501 -0.00000000000E+00  0.00000000000E+00  0.12815408032E+03  0.12815408032E+03  0.00000000000E+00 0.  1.
          1   -1    0    0  501    0  0.00000000000E+00 -0.00000000000E+00 -0.13964687591E+03  0.13964687591E+03  0.00000000000E+00 0. -1.
          5    1    1    2  502    0 -0.26785192942E+02  0.57394698116E+02  0.77189358644E+02  0.99936316826E+02  0.41800000000E+01 0. -1.
         -5    1    1    2    0  502  0.75712269389E+01 -0.41464143539E+02 -0.11096737443E+02  0.43785941335E+02  0.41800000000E+01 0. -1.
        -11    1    1    2    0    0  0.49462027100E+02  0.15734377909E+02 -0.51442823232E+02  0.73078224083E+02  0.00000000000E+00 0.  1.
         11    1    1    2    0    0 -0.30248061097E+02 -0.31664932486E+02 -0.26142593555E+02  0.51000473990E+02  0.00000000000E+00 0. -1.
</event>
<event>
 7    1  0.2766180E-009  0.2066336E+03  0.7561462E-02  0.1144260E+00
         -1   -1    0    0    0  501 -0.00000000000E+00  0.00000000000E+00  0.54494586787E+02  0.54494586787E+02  0.00000000000E+00 0.  1.
          1   -1    0    0  501    0  0.00000000000E+00 -0.00000000000E+00 -0.11651060937E+04  0.11651060937E+04  0.00000000000E+00 0. -1.
         25    2    1    2    0    0  0.10354586611E+03 -0.14437458534E+03 -0.25210057969E+03  0.33281818423E+03  0.12508986447E+03 0.  0.
          5    1    3    3  502    0  0.50095318605E+02 -0.12477220981E+03 -0.23899035178E+03  0.27424716212E+03  0.41800000000E+01 0.  1.
         -5    1    3    3    0  502  0.53450547507E+02 -0.19602375523E+02 -0.13110227915E+02  0.58571022109E+02  0.41800000000E+01 0.  1.
        -11    1    1    2    0    0 -0.20396832145E+02 -0.25427128049E+02 -0.14791356249E+03  0.15146283891E+03  0.00000000000E+00 0.  1.
         11    1    1    2    0    0 -0.83149033967E+02  0.16980171339E+03 -0.71059736470E+03  0.73531965732E+03  0.00000000000E+00 0. -1.
</event>
<event>
 7    1  0.2766180E-009  0.9787693E+02  0.7561462E-02  0.1284825E+00
         -1   -1    0    0    0  501 -0.00000000000E+00  0.00000000000E+00  0.21731432023E+02  0.21731432023E+02  0.00000000000E+00 0.  1.
          1   -1    0    0  501    0  0.00000000000E+00 -0.00000000000E+00 -0.53692962877E+03  0.53692962877E+03  0.00000000000E+00 0. -1.
         25    2    1    2    0    0  0.75983633697E+01 -0.34972915267E+01 -0.28452886699E+03  0.31092503386E+03  0.12509090438E+03 0.  0.
          5    1    3    3  502    0  0.44903830840E+02 -0.45013053627E+02 -0.19683811647E+03  0.20689428585E+03  0.41800000000E+01 0. -1.
         -5    1    3    3    0  502 -0.37305467471E+02  0.41515762100E+02 -0.87690750523E+02  0.10403074802E+03  0.41800000000E+01 0. -1.
        -11    1    1    2    0    0 -0.17333986004E+02  0.37169967048E+02 -0.55023961977E+02  0.68627326283E+02  0.00000000000E+00 0.  1.
         11    1    1    2    0    0  0.97356226340E+01 -0.33672675521E+02 -0.17564536778E+03  0.17910870065E+03  0.00000000000E+00 0. -1.
</event>
<event>
 7    1  0.2766180E-009  0.1613102E+03  0.7561462E-02  0.1187225E+00
         -2   -1    0    0    0  501 -0.00000000000E+00  0.00000000000E+00  0.10016112096E+03  0.10016112096E+03  0.00000000000E+00 0.  1.
          2   -1    0    0  501    0  0.00000000000E+00 -0.00000000000E+00 -0.34120713584E+03  0.34120713584E+03  0.00000000000E+00 0. -1.
         25    2    1    2    0    0  0.13349630866E+03  0.57049486643E+02 -0.13836908810E+03  0.23636545426E+03  0.12508683014E+03 0.  0.
          5    1    3    3  502    0  0.48054596537E+02  0.24061835036E+02  0.16516452748E+02  0.56378025551E+02  0.41800000000E+01 0.  1.
         -5    1    3    3    0  502  0.85441712121E+02  0.32987651608E+02 -0.15488554085E+03  0.17998742871E+03  0.41800000000E+01 0.  1.
        -11    1    1    2    0    0 -0.21997303601E+02  0.28851348907E+02 -0.26768620618E+02  0.45087035268E+02  0.00000000000E+00 0.  1.
         11    1    1    2    0    0 -0.11149900506E+03 -0.85900835550E+02 -0.75908306159E+02  0.15991576727E+03  0.00000000000E+00 0. -1.
</event>
<event>
 7    1  0.2766180E-009  0.2276744E+03  0.7561462E-02  0.1128287E+00
          2   -1    0    0  501    0  0.00000000000E+00  0.00000000000E+00  0.22121782360E+03  0.22121782360E+03  0.00000000000E+00 0. -1.
         -2   -1    0    0    0  501 -0.00000000000E+00 -0.00000000000E+00 -0.31957706106E+03  0.31957706106E+03  0.00000000000E+00 0.  1.
         25    2    1    2    0    0  0.11534347215E+03 -0.18908085236E+03  0.49986304910E+02  0.25923281158E+03  0.12508930660E+03 0.  0.
          5    1    3    3  502    0  0.62168038037E+02 -0.15666090371E+03  0.83765700988E+02  0.18825957816E+03  0.41800000000E+01 0.  1.
         -5    1    3    3    0  502  0.53175434114E+02 -0.32419948645E+02 -0.33779396077E+02  0.70973233424E+02  0.41800000000E+01 0.  1.
        -11    1    1    2    0    0 -0.21223695439E+02  0.66383021752E+02 -0.36580867666E+01  0.69789199908E+02  0.00000000000E+00 0. -1.
         11    1    1    2    0    0 -0.94119776712E+02  0.12269783061E+03 -0.14468745560E+03  0.21177287317E+03  0.00000000000E+00 0.  1.
</event>
<event>
 7    1  0.2766180E-009  0.1070129E+03  0.7561462E-02  0.1266204E+00
         -2   -1    0    0    0  501 -0.00000000000E+00  0.00000000000E+00  0.88604127412E+03  0.88604127412E+03  0.00000000000E+00 0.  1.
          2   -1    0    0  501    0  0.00000000000E+00 -0.00000000000E+00 -0.14520878095E+02  0.14520878095E+02  0.00000000000E+00 0. -1.
         25    2    1    2    0    0 -0.32130063208E+01 -0.24367374119E+02  0.56985648555E+03  0.58394728423E+03  0.12511564373E+03 0.  0.
          5    1    3    3  502    0 -0.37166691131E+02 -0.58591173137E+02  0.21892540134E+03  0.22969565136E+03  0.41800000000E+01 0.  1.
         -5    1    3    3    0  502  0.33953684811E+02  0.34223799017E+02  0.35093108421E+03  0.35425163288E+03  0.41800000000E+01 0.  1.
        -11    1    1    2    0    0  0.12216997935E+02 -0.34486408624E+02  0.11796772040E+03  0.12351093261E+03  0.00000000000E+00 0.  1.
         11    1    1    2    0    0 -0.90039916147E+01  0.58853782743E+02  0.18369619008E+03  0.19310393538E+03  0.00000000000E+00 0. -1.
</event>
<event>
 7    1  0.2766180E-009  0.1088673E+03  0.7561462E-02  0.1262682E+00
         -2   -1    0    0    0  501 -0.00000000000E+00  0.00000000000E+00  0.27029577772E+02  0.27029577772E+02  0.00000000000E+00 0.  1.
          2   -1    0    0  501    0  0.00000000000E+00 -0.00000000000E+00 -0.53049036300E+03  0.53049036300E+03  0.00000000000E+00 0. -1.
         25    2    1    2    0    0 -0.46609554317E+02 -0.13939024002E+02 -0.30613215287E+03  0.33426252017E+03  0.12509112848E+03 0.  0.
          5    1    3    3  502    0 -0.51170968235E+02 -0.64965749094E+02 -0.19121283570E+03  0.20837187306E+03  0.41800000000E+01 0.  1.
         -5    1    3    3    0  502  0.45614139184E+01  0.51026725092E+02 -0.11491931717E+03  0.12589064711E+03  0.41800000000E+01 0.  1.
        -11    1    1    2    0    0 -0.82060575388E+01  0.26119067770E+02 -0.14131975371E+03  0.14394727462E+03  0.00000000000E+00 0. -1.
         11    1    1    2    0    0  0.54815611855E+02 -0.12180043768E+02 -0.56008878655E+02  0.79310145993E+02  0.00000000000E+00 0.  1.
</event>
<event>
 7    1  0.2766180E-009  0.1984122E+03  0.7561462E-02  0.1151086E+00
          1   -1    0    0  501    0  0.00000000000E+00  0.00000000000E+00  0.33405388015E+02  0.33405388015E+02  0.00000000000E+00 0. -1.
         -1   -1    0    0    0  501 -0.00000000000E+00 -0.00000000000E+00 -0.13291736616E+04  0.13291736616E+04  0.00000000000E+00 0.  1.
         25    2    1    2    0    0 -0.19685516541E+02  0.16931042425E+03 -0.86122708652E+03  0.88680354910E+03  0.12511954615E+03 0.  0.
          5    1    3    3  502    0 -0.35068927029E+02  0.16818113617E+01 -0.26173718176E+03  0.26411452601E+03  0.41800000000E+01 0. -1.
         -5    1    3    3    0  502  0.15383410488E+02  0.16762861288E+03 -0.59948990476E+03  0.62268902309E+03  0.41800000000E+01 0. -1.
        -11    1    1    2    0    0  0.51979511862E+02 -0.61422450107E+02 -0.20068953218E+03  0.21621950735E+03  0.00000000000E+00 0.  1.
         11    1    1    2    0    0 -0.32293995321E+02 -0.10788797414E+03 -0.23385165492E+03  0.25955599320E+03  0.00000000000E+00 0. -1.
</event>
<event>
 7    1  0.3016110E-009  0.1230434E+03  0.7561462E-02  0.1238159E+00
         -1   -1    0    0    0  501 -0.00000000000E+00  0.00000000000E+00  0.67959858777E+02  0.67959858777E+02  0.00000000000E+00 0.  1.
          1   -1    0    0  501    0  0.00000000000E+00 -0.00000000000E+00 -0.30863910610E+03  0.30863910610E+03  0.00000000000E+00 0. -1.
         25    2    1    2    0    0  0.90039964229E+02  0.11121864121E+02 -0.94484643504E+02  0.18112082200E+03  0.12508602353E+03 0.  0.
          5    1    3    3  502    0  0.11284524817E+03  0.37630225318E+02 -0.77385098062E+02  0.14197186233E+03  0.41800000000E+01 0.  1.
         -5    1    3    3    0  502 -0.22805283936E+02 -0.26508361197E+02 -0.17099545442E+02  0.39148959668E+02  0.41800000000E+01 0.  1.
        -11    1    1    2    0    0 -0.60206058914E+02 -0.60598669792E+00 -0.17137126421E+02  0.62600462073E+02  0.00000000000E+00 0.  1.
         11    1    1    2    0    0 -0.29833905315E+02 -0.10515877423E+02 -0.12905747739E+03  0.13287768080E+03  0.00000000000E+00 0. -1.
</event>
<event>
 7    1  0.2766180E-009  0.1282048E+03  0.7561462E-02  0.1230144E+00
         -1   -1    0    0    0  501 -0.00000000000E+00  0.00000000000E+00  0.93477777435E+03  0.93477777435E+03  0.00000000000E+00 0. -1.
          1   -1    0    0  501    0  0.00000000000E+00 -0.00000000000E+00 -0.19516020728E+02  0.19516020728E+02  0.00000000000E+00 0.  1.
         25    2    1    2    0    0 -0.49855318972E+02  0.59572704476E+02  0.44969950015E+03  0.47319407334E+03  0.12509408723E+03 0.  0.
          5    1    3    3  502    0 -0.61033562277E+02  0.88698121330E+02  0.26906416942E+03  0.28983694057E+03  0.41800000000E+01 0. -1.
         -5    1    3    3    0  502  0.11178243305E+02 -0.29125416854E+02  0.18063533073E+03  0.18335713277E+03  0.41800000000E+01 0. -1.
        -11    1    1    2    0    0  0.60831416779E+02 -0.44657749701E+01  0.17976142087E+03  0.18982774519E+03  0.00000000000E+00 0. -1.
         11    1    1    2    0    0 -0.10976097808E+02 -0.55106929506E+02  0.28580083260E+03  0.29127197654E+03  0.00000000000E+00 0.  1.
</event>
<event>
 7    1  0.2766180E-009  0.1732132E+03  0.7561462E-02  0.1174538E+00
          2   -1    0    0  501    0  0.00000000000E+00  0.00000000000E+00  0.25693920164E+03  0.25693920164E+03  0.00000000000E+00 0. -1.
         -2   -1    0    0    0  501 -0.00000000000E+00 -0.00000000000E+00 -0.14969325727E+03  0.14969325727E+03  0.00000000000E+00 0.  1.
         25    2    1    2    0    0  0.15655026490E+03 -0.19136577664E+02  0.99523767064E+02  0.22455698009E+03  0.12508662219E+03 0.  0.
          5    1    3    3  502    0  0.63857518367E+02 -0.56897873100E+02  0.89522264051E+02  0.12388243934E+03  0.41800000000E+01 0. -1.
         -5    1    3    3    0  502  0.92692746532E+02  0.37761295436E+02  0.10001503013E+02  0.10067454075E+03  0.41800000000E+01 0. -1.
        -11    1    1    2    0    0 -0.64331354653E+02  0.22999969677E+02  0.45777745758E+02  0.82238213765E+02  0.00000000000E+00 0. -1.
         11    1    1    2    0    0 -0.92218910246E+02 -0.38633920125E+01 -0.38055568450E+02  0.99837265061E+02  0.00000000000E+00 0.  1.
</event>
<event>
 7    1  0.2766180E-009  0.1124416E+03  0.7561462E-02  0.1256114E+00
          2   -1    0    0  501    0  0.00000000000E+00  0.00000000000E+00  0.37276547074E+03  0.37276547074E+03  0.00000000000E+00 0. -1.
         -2   -1    0    0    0  501 -0.00000000000E+00 -0.00000000000E+00 -0.43772681936E+02  0.43772681936E+02  0.00000000000E+00 0.  1.
         25    2    1    2    0    0 -0.63688115747E+02  0.10075594781E+02  0.15671802758E+03  0.21063185342E+03  0.12509014274E+03 0.  0.
          5    1    3    3  502    0  0.26062616501E+02 -0.27645120362E+02  0.71966566531E+02  0.81487249045E+02  0.41800000000E+01 0.  1.
         -5    1    3    3    0  502 -0.89750732248E+02  0.37720715143E+02  0.84751461049E+02  0.12914460438E+03  0.41800000000E+01 0.  1.
        -11    1    1    2    0    0 -0.91736920576E+01 -0.13444202612E+02 -0.25513676791E+01  0.16474607336E+02  0.00000000000E+00 0.  1.
         11    1    1    2    0    0  0.72861807805E+02  0.33686078308E+01  0.17482612890E+03  0.18943169192E+03  0.00000000000E+00 0. -1.
</event>
<event>
 7    1  0.2766180E-009  0.1261371E+03  0.7561462E-02  0.1233303E+00
          2   -1    0    0  501    0  0.00000000000E+00  0.00000000000E+00  0.25996889930E+03  0.25996889930E+03  0.00000000000E+00 0. -1.
         -2   -1    0    0    0  501 -0.00000000000E+00 -0.00000000000E+00 -0.87678234847E+02  0.87678234847E+02  0.00000000000E+00 0.  1.
         25    2    1    2    0    0  0.28030975635E+02 -0.10023702540E+03  0.93462440503E+02  0.18766006464E+03  0.12509146742E+03 0.  0.
          5    1    3    3  502    0  0.20528035163E+02  0.24377013712E+01  0.81206230183E+02  0.83900338713E+02  0.41800000000E+01 0. -1.
         -5    1    3    3    0  502  0.75029404724E+01 -0.10267472677E+03  0.12256210320E+02  0.10375972593E+03  0.41800000000E+01 0. -1.
        -11    1    1    2    0    0 -0.53375153155E+02  0.77499584895E+02  0.83264409260E+02  0.12565052520E+03  0.00000000000E+00 0. -1.
         11    1    1    2    0    0  0.25344177520E+02  0.22737440505E+02 -0.44361853087E+01  0.34336544308E+02  0.00000000000E+00 0.  1.
</event>
<event>
 7    1  0.2766180E-009  0.1129280E+03  0.7561462E-02  0.1255242E+00
          2   -1    0    0  501    0  0.00000000000E+00  0.00000000000E+00  0.87496873613E+03  0.87496873613E+03  0.00000000000E+00 0. -1.
         -2   -1    0    0    0  501 -0.00000000000E+00 -0.00000000000E+00 -0.25636299394E+02  0.25636299394E+02  0.00000000000E+00 0.  1.
         25    2    1    2    0    0 -0.60591151442E+02 -0.28488621455E+02  0.68535249138E+03  0.69988610922E+03  0.12509851819E+03 0.  0.
          5    1    3    3  502    0  0.37829698279E+02 -0.19769081617E+02  0.19506169306E+03  0.19972090316E+03  0.41800000000E+01 0.  1.
         -5    1    3    3    0  502 -0.98420849720E+02 -0.87195398382E+01  0.49029079831E+03  0.50016520605E+03  0.41800000000E+01 0.  1.
        -11    1    1    2    0    0  0.67975757642E+02  0.16429839988E+02  0.17113428146E+03  0.18487180845E+03  0.00000000000E+00 0. -1.
         11    1    1    2    0    0 -0.73846062000E+01  0.12058781467E+02 -0.71543361034E+01  0.15847117854E+02  0.00000000000E+00 0.  1.
</event>
<event>
 7    1  0.2766180E-009  0.1130546E+03  0.7561462E-02  0.1255016E+00
         -1   -1    0    0    0  501 -0.00000000000E+00  0.00000000000E+00  0.37408286069E+02  0.37408286069E+02  0.00000000000E+00 0.  1.
          1   -1    0    0  501    0  0.00000000000E+00 -0.00000000000E+00 -0.47299290314E+03  0.47299290314E+03  0.00000000000E+00 0. -1.
         25    2    1    2    0    0 -0.75271956286E+02  0.78542769778E+01 -0.21894474363E+03  0.26327198212E+03  0.12509108176E+03 0.  0.
          5    1    3    3  502    0  0.17864369854E+02  0.11854391112E+02  0.34304010601E+01  0.22111136342E+02  0.41800000000E+01 0.  1.
         -5    1    3    3    0  502 -0.93136326140E+02 -0.40001141340E+01 -0.22237514469E+03  0.24116084578E+03  0.41800000000E+01 0.  1.
        -11    1    1    2    0    0  0.17063579779E+02 -0.40686965886E+02 -0.13265424114E+03  0.13979893648E+03  0.00000000000E+00 0. -1.
         11    1    1    2    0    0  0.58208376507E+02  0.32832688908E+02 -0.83985632298E+02  0.10733027061E+03  0.00000000000E+00 0.  1.
</event>
<event>
 7    1  0.2766180E-009  0.2000214E+03  0.7561462E-02  0.1149721E+00
         -2   -1    0    0    0  501 -0.00000000000E+00  0.00000000000E+00  0.38665877406E+02  0.38665877406E+02  0.00000000000E+00 0.  1.
          2   -1    0    0  501    0  0.00000000000E+00 -0.00000000000E+00 -0.10999141542E+04  0.10999141542E+04  0.00000000000E+00 0. -1.
         25    2    1    2    0    0  0.16598488368E+03 -0.23553218011E+02 -0.57927490668E+03  0.61588322946E+03  0.12508796555E+03 0.  0.
          5    1    3    3  502    0  0.17974485025E+03  0.20508554173E+01 -0.49818982166E+03  0.52964420889E+03  0.41800000000E+01 0.  1.
         -5    1    3    3    0  502 -0.13759966571E+02 -0.25604073429E+02 -0.81085085020E+02  0.86239020570E+02  0.41800000000E+01 0.  1.
        -11    1    1    2    0    0 -0.92390724219E+02 -0.32947525229E+02 -0.33342325239E+03  0.34755237098E+03  0.00000000000E+00 0.  1.
         11    1    1    2    0    0 -0.73594159460E+02  0.56500743240E+02 -0.14855011771E+03  0.17514443115E+03  0.00000000000E+00 0. -1.
</event>
<event>
 7    1  0.2766180E-009  0.1238146E+03  0.7561462E-02  0.1236934E+00
          2   -1    0    0  501    0  0.00000000000E+00  0.00000000000E+00  0.50428157769E+03  0.50428157769E+03  0.00000000000E+00 0.  1.
         -2   -1    0    0    0  501 -0.00000000000E+00 -0.00000000000E+00 -0.55499717283E+02  0.55499717283E+02  0.00000000000E+00 0. -1.
         25    2    1    2    0    0  0.71418286930E+01 -0.10447262495E+03  0.36289756763E+03  0.39787833256E+03  0.12508792049E+03 0.  0.
          5    1    3    3  502    0 -0.39523499298E+02 -0.77190899852E+02  0.11484611291E+03  0.14397098342E+03  0.41800000000E+01 0.  1.
         -5    1    3    3    0  502  0.46665327991E+02 -0.27281725100E+02  0.24805145472E+03  0.25390734915E+03  0.41800000000E+01 0.  1.
        -11    1    1    2    0    0  0.38626961573E+01  0.75502316846E+02  0.55569728889E+01  0.75805014468E+02  0.00000000000E+00 0.  1.
         11    1    1    2    0    0 -0.11004524850E+02  0.28970308105E+02  0.80327319892E+02  0.86097947943E+02  0.00000000000E+00 0. -1.
</event>
<event>
 7    1  0.2766180E-009  0.1097034E+03  0.7561462E-02  0.1261120E+00
         -2   -1    0    0    0  501 -0.00000000000E+00  0.00000000000E+00  0.37672035634E+02  0.37672035634E+02  0.00000000000E+00 0.  1.
          2   -1    0    0  501    0  0.00000000000E+00 -0.00000000000E+00 -0.70297482596E+03  0.70297482596E+03  0.00000000000E+00 0. -1.
         25    2    1    2    0    0 -0.53807978410E+02 -0.26990884074E+02 -0.59603731624E+03  0.61198810020E+03  0.12508055833E+03 0.  0.
          5    1    3    3  502    0  0.21822593789E+02 -0.34797768001E+02 -0.76774754941E+02  0.87171931571E+02  0.41800000000E+01 0. -1.
         -5    1    3    3    0  502 -0.75630572199E+02  0.78068839270E+01 -0.51926256130E+03  0.52481616863E+03  0.41800000000E+01 0. -1.
        -11    1    1    2    0    0  0.68109347068E+02 -0.35998138218E+01 -0.65701955988E+02  0.94702633745E+02  0.00000000000E+00 0. -1.
         11    1    1    2    0    0 -0.14301368658E+02  0.30590697896E+02 -0.35635180911E+01  0.33956127642E+02  0.00000000000E+00 0.  1.
</event>
<event>
 7    1  0.2766180E-009  0.9079480E+02  0.7561462E-02  0.1300938E+00
         -1   -1    0    0    0  501 -0.00000000000E+00  0.00000000000E+00  0.86475920139E+02  0.86475920139E+02  0.00000000000E+00 0.  1.
          1   -1    0    0  501    0  0.00000000000E+00 -0.00000000000E+00 -0.20198803385E+03  0.20198803385E+03  0.00000000000E+00 0. -1.
         25    2    1    2    0    0  0.39911351482E+02  0.38352527323E+02 -0.16669168317E+01  0.13680007326E+03  0.12509056361E+03 0.  0.
          5    1    3    3  502    0  0.23557461550E+02  0.57833484403E+02  0.49309034890E+02  0.79677595563E+02  0.41800000000E+01 0. -1.
         -5    1    3    3    0  502  0.16353889932E+02 -0.19480957080E+02 -0.50975951722E+02  0.57122477700E+02  0.41800000000E+01 0. -1.
        -11    1    1    2    0    0  0.28284815611E+01 -0.49079230228E+02 -0.87385815176E+02  0.10026490833E+03  0.00000000000E+00 0.  1.
         11    1    1    2    0    0 -0.42739833043E+02  0.10726702905E+02 -0.26459381705E+02  0.51398972402E+02  0.00000000000E+00 0. -1.
</event>
<event>
 7    1  0.2766180E-009  0.1739350E+03  0.7561462E-02  0.1173805E+00
          2   -1    0    0  501    0  0.00000000000E+00  0.00000000000E+00  0.62253751765E+03  0.62253751765E+03  0.00000000000E+00 0.  1.
         -2   -1    0    0    0  501 -0.00000000000E+00 -0.00000000000E+00 -0.64558477442E+02  0.64558477442E+02  0.00000000000E+00 0. -1.
         25    2    1    2    0    0  0.13522883516E+03 -0.92942087089E+01  0.46052588140E+03  0.49608856806E+03  0.12508620923E+03 0.  0.
          5    1    3    3  502    0  0.15736303732E+03 -0.20025574048E+02  0.41244531317E+03  0.44191940202E+03  0.41800000000E+01 0. -1.
         -5    1    3    3    0  502 -0.22134202155E+02  0.10731365339E+02  0.48080568234E+02  0.54169166033E+02  0.41800000000E+01 0. -1.
        -11    1    1    2    0    0 -0.10109340371E+03  0.48603009935E+02  0.68623247719E+02  0.13149630784E+03  0.00000000000E+00 0. -1.
         11    1    1    2    0    0 -0.34135431451E+02 -0.39308801226E+02  0.28829911089E+02  0.59511119193E+02  0.00000000000E+00 0.  1.
</event>
<event>
 7    1  0.2766180E-009  0.2013133E+03  0.7561462E-02  0.1148636E+00
         -2   -1    0    0    0  501 -0.00000000000E+00  0.00000000000E+00  0.35797465528E+02  0.35797465528E+02  0.00000000000E+00 0.  1.
          2   -1    0    0  501    0  0.00000000000E+00 -0.00000000000E+00 -0.14725072629E+04  0.14725072629E+04  0.00000000000E+00 0. -1.
         25    2    1    2    0    0 -0.18798990439E+03 -0.37099782060E+02 -0.96149604474E+03  0.98835166396E+03  0.12509104533E+03 0.  0.
          5    1    3    3  502    0 -0.92329846104E+02 -0.50750487382E+02 -0.72830687624E+03  0.73589998698E+03  0.41800000000E+01 0. -1.
         -5    1    3    3    0  502 -0.95660058286E+02  0.13650705322E+02 -0.23318916850E+03  0.25245167698E+03  0.41800000000E+01 0. -1.
        -11    1    1    2    0    0  0.54530961867E+02  0.38918145340E+02 -0.89483562383E+02  0.11178352193E+03  0.00000000000E+00 0.  1.
         11    1    1    2    0    0  0.13345894252E+03 -0.18183632805E+01 -0.38573019025E+03  0.40816954253E+03  0.00000000000E+00 0. -1.
</event>
<event>
 7    1  0.2766180E-009  0.7712142E+02  0.7561462E-02  0.1337425E+00
          2   -1    0    0  501    0  0.00000000000E+00  0.00000000000E+00  0.33776624418E+03  0.33776624418E+03  0.00000000000E+00 0. -1.
         -2   -1    0    0    0  501 -0.00000000000E+00 -0.00000000000E+00 -0.43697491580E+02  0.43697491580E+02  0.00000000000E+00 0.  1.
         25    2    1    2    0    0  0.48682573354E+02 -0.23264015328E+02  0.17001528763E+03  0.21786143353E+03  0.12508876383E+03 0.  0.
          5    1    3    3  502    0  0.14088896119E+01  0.27489029744E+02  0.13901403651E+03  0.14177449162E+03  0.41800000000E+01 0. -1.
         -5    1    3    3    0  502  0.47273683742E+02 -0.50753045072E+02  0.31001251110E+02  0.76086941908E+02  0.41800000000E+01 0. -1.
        -11    1    1    2    0    0 -0.20589398510E+02  0.23376105022E+00 -0.11280135445E+02  0.23478062758E+02  0.00000000000E+00 0.  1.
         11    1    1    2    0    0 -0.28093174844E+02  0.23030254278E+02  0.13533360042E+03  0.14012423947E+03  0.00000000000E+00 0. -1.
</event>
<event>
 7    1  0.2766180E-009  0.1512505E+03  0.7561462E-02  0.1198945E+00
         -1   -1    0    0    0  501 -0.00000000000E+00  0.00000000000E+00  0.17326910006E+03  0.17326910006E+03  0.00000000000E+00 0.  1.
          1   -1    0    0  501    0  0.00000000000E+00 -0.00000000000E+00 -0.15504024183E+03  0.15504024183E+03  0.00000000000E+00 0. -1.
         25    2    1    2    0    0 -0.65315947172E+02 -0.87141986773E+02 -0.47496473943E+02  0.17252198147E+03  0.12509204706E+03 0.  0.
          5    1    3    3  502    0 -0.21788960936E+02  0.29372145983E+02  0.55740677819E+01  0.37229348771E+02  0.41800000000E+01 0. -1.
         -5    1    3    3    0  502 -0.43526986237E+02 -0.11651413276E+03 -0.53070541725E+02  0.13529263270E+03  0.41800000000E+01 0. -1.
        -11    1    1    2    0    0  0.27341549612E+02 -0.15758703115E+02  0.15038869680E+02  0.34958041425E+02  0.00000000000E+00 0.  1.
         11    1    1    2    0    0  0.37974397560E+02  0.10290068989E+03  0.50686462499E+02  0.12082931900E+03  0.00000000000E+00 0. -1.
</event>
<event>
 7    1  0.2766180E-009  0.1097455E+03  0.7561462E-02  0.1261042E+00
          2   -1    0    0  501    0  0.00000000000E+00  0.00000000000E+00  0.31874189574E+03  0.31874189574E+03  0.00000000000E+00 0.  1.
         -2   -1    0    0    0  501 -0.00000000000E+00 -0.00000000000E+00 -0.60497128299E+02  0.60497128299E+02  0.00000000000E+00 0. -1.
         25    2    1    2    0    0  0.42890558642E+02 -0.51395607432E+02  0.66794744782E+02  0.15681122693E+03  0.12508842663E+03 0.  0.
          5    1    3    3  502    0 -0.28743939898E+02 -0.65628778291E+01  0.65766833769E+02  0.72194419938E+02  0.41800000000E+01 0. -1.
         -5    1    3    3    0  502  0.71634498539E+02 -0.44832729603E+02  0.10279110127E+01  0.84616806993E+02  0.41800000000E+01 0. -1.
        -11    1    1    2    0    0 -0.40287045578E+02 -0.11700900918E+02  0.38446156175E+02  0.56903989741E+02  0.00000000000E+00 0. -1.
         11    1    1    2    0    0 -0.26035130633E+01  0.63096508350E+02  0.15300386648E+03  0.16552380737E+03  0.00000000000E+00 0.  1.
</event>
<event>
 7    1  0.2766180E-009  0.1068252E+03  0.7561462E-02  0.1266565E+00
         -2   -1    0    0    0  501 -0.00000000000E+00  0.00000000000E+00  0.17566271227E+03  0.17566271227E+03  0.00000000000E+00 0.  1.
          2   -1    0    0  501    0  0.00000000000E+00 -0.00000000000E+00 -0.79284812395E+02  0.79284812395E+02  0.00000000000E+00 0. -1.
         25    2    1    2    0    0  0.40133668888E+02  0.23552297393E+02  0.46684356031E+02  0.14139371421E+03  0.12508929302E+03 0.  0.
          5    1    3    3  502    0 -0.42241670227E+02  0.22712983558E+02  0.31472414105E+02  0.57517158964E+02  0.41800000000E+01 0.  1.
         -5    1    3    3    0  502  0.82375339115E+02  0.83931383562E+00  0.15211941926E+02  0.83876555242E+02  0.41800000000E+01 0.  1.
        -11    1    1    2    0    0 -0.59744305829E+02 -0.14818131764E+02  0.63174580417E+02  0.88204232999E+02  0.00000000000E+00 0.  1.
         11    1    1    2    0    0  0.19610636941E+02 -0.87341656299E+01 -0.13481036571E+02  0.25349577462E+02  0.00000000000E+00 0. -1.
</event>
<event>
 7    1  0.2766180E-009  0.1824988E+03  0.7561462E-02  0.1165406E+00
         -2   -1    0    0    0  501 -0.00000000000E+00  0.00000000000E+00  0.29272169035E+02  0.29272169035E+02  0.00000000000E+00 0.  1.
          2   -1    0    0  501    0  0.00000000000E+00 -0.00000000000E+00 -0.14922031953E+04  0.14922031953E+04  0.00000000000E+00 0. -1.
         25    2    1    2    0    0 -0.17154822562E+03 -0.46878194053E+02 -0.69900864327E+03  0.73204296654E+03  0.12508981850E+03 0.  0.
          5    1    3    3  502    0 -0.68932316317E+02 -0.47643434052E+02 -0.13640407235E+03  0.16014088920E+03  0.41800000000E+01 0. -1.
         -5    1    3    3    0  502 -0.10261590931E+03  0.76523999859E+00 -0.56260457093E+03  0.57190207734E+03  0.41800000000E+01 0. -1.
        -11    1    1    2    0    0  0.10299457318E+03  0.35263920236E+02 -0.62128337359E+03  0.63074912325E+03  0.00000000000E+00 0.  1.
         11    1    1    2    0    0  0.68553652445E+02  0.11614273817E+02 -0.14263900940E+03  0.15868327456E+03  0.00000000000E+00 0. -1.
</event>
<event>
 7    1  0.2766180E-009  0.1059408E+03  0.7561462E-02  0.1268277E+00
         -3   -1    0    0    0  501 -0.00000000000E+00  0.00000000000E+00  0.31531751159E+03  0.31531751159E+03  0.00000000000E+00 0.  1.
          3   -1    0    0  501    0  0.00000000000E+00 -0.00000000000E+00 -0.60122025437E+02  0.60122025437E+02  0.00000000000E+00 0. -1.
         25    2    1    2    0    0 -0.79346778420E+02 -0.26354791302E+02  0.13755141318E+03  0.20386253271E+03  0.12509618181E+03 0.  0.
          5    1    3    3  502    0 -0.85574589893E+02 -0.44616151945E+02  0.15151030175E+03  0.17968432148E+03  0.41800000000E+01 0. -1.
         -5    1    3    3    0  502  0.62278114730E+01  0.18261360643E+02 -0.13958888567E+02  0.24178211230E+02  0.41800000000E+01 0. -1.
        -11    1    1    2    0    0  0.50237262881E+02  0.39203190488E+02  0.12373546929E+03  0.13918023957E+03  0.00000000000E+00 0.  1.
         11    1    1    2    0    0  0.29109515540E+02 -0.12848399185E+02 -0.60913963235E+01  0.32396764742E+02  0.00000000000E+00 0. -1.
</event>
<event>
 7    1  0.2766180E-009  0.8262247E+02  0.7561462E-02  0.1321770E+00
         -2   -1    0    0    0  501 -0.00000000000E+00  0.00000000000E+00  0.25068991892E+02  0.25068991892E+02  0.00000000000E+00 0.  1.
          2   -1    0    0  501    0  0.00000000000E+00 -0.00000000000E+00 -0.55908516030E+03  0.55908516030E+03  0.00000000000E+00 0. -1.
         25    2    1    2    0    0 -0.27130620300E+01 -0.36999315321E+02 -0.38691926459E+03  0.40832583730E+03  0.12508861681E+03 0.  0.
          5    1    3    3  502    0 -0.91013894098E+01 -0.78548866328E+02 -0.31606769633E+03  0.32583588009E+03  0.41800000000E+01 0.  1.
         -5    1    3    3    0  502  0.63883273798E+01  0.41549551006E+02 -0.70851568251E+02  0.82489957202E+02  0.41800000000E+01 0.  1.
        -11    1    1    2    0    0 -0.88032133439E+01  0.57589004428E+01  0.10434402147E+02  0.14816823129E+02  0.00000000000E+00 0.  1.
         11    1    1    2    0    0  0.11516275374E+02  0.31240414878E+02 -0.15753130597E+03  0.16101149177E+03  0.00000000000E+00 0. -1.
</event>
<event>
 7    1  0.2766180E-009  0.1281336E+03  0.7561462E-02  0.1230252E+00
          4   -1    0    0  501    0  0.00000000000E+00  0.00000000000E+00  0.46110854995E+02  0.46110854995E+02  0.00000000000E+00 0. -1.
         -4   -1    0    0    0  501 -0.00000000000E+00 -0.00000000000E+00 -0.37994386193E+03  0.37994386193E+03  0.00000000000E+00 0.  1.
         25    2    1    2    0    0 -0.53425098930E+02 -0.66458997586E+02 -0.19057662351E+03  0.24338701370E+03  0.12508696757E+03 0.  0.
          5    1    3    3  502    0 -0.16396173810E+02 -0.99228529061E+02 -0.11337937479E+03  0.15161626075E+03  0.41800000000E+01 0.  1.
         -5    1    3    3    0  502 -0.37028925120E+02  0.32769531475E+02 -0.77197248719E+02  0.91770752958E+02  0.41800000000E+01 0.  1.
        -11    1    1    2    0    0  0.35570320020E+01  0.54611384271E+02 -0.10602622165E+03  0.11931728896E+03  0.00000000000E+00 0.  1.
         11    1    1    2    0    0  0.49868066928E+02  0.11847613315E+02 -0.37230161779E+02  0.63350414257E+02  0.00000000000E+00 0. -1.
</event>
<event>
 7    1  0.2766180E-009  0.1065192E+03  0.7561462E-02  0.1267155E+00
          2   -1    0    0  501    0  0.00000000000E+00  0.00000000000E+00  0.55656738966E+03  0.55656738966E+03  0.00000000000E+00 0. -1.
         -2   -1    0    0    0  501 -0.00000000000E+00 -0.00000000000E+00 -0.24994440285E+02  0.24994440285E+02  0.00000000000E+00 0.  1.
         25    2    1    2    0    0  0.22681297797E+02 -0.19637705646E+02  0.38064913529E+03  0.40179820905E+03  0.12509178970E+03 0.  0.
          5    1    3    3  502    0 -0.49179090138E+02 -0.20977972731E+01  0.10003145340E+03  0.11156499330E+03  0.41800000000E+01 0. -1.
         -5    1    3    3    0  502  0.71860387935E+02 -0.17539908372E+02  0.28061768188E+03  0.29023321575E+03  0.41800000000E+01 0. -1.
        -11    1    1    2    0    0  0.16708240549E+02  0.41331557245E+02  0.39329840205E+02  0.59449972726E+02  0.00000000000E+00 0.  1.
         11    1    1    2    0    0 -0.39389538346E+02 -0.21693851600E+02  0.11159397388E+03  0.12031364817E+03  0.00000000000E+00 0. -1.
</event>
<event>
 7    1  0.2766180E-009  0.1050020E+03  0.7561462E-02  0.1270116E+00
         -1   -1    0    0    0  501 -0.00000000000E+00  0.00000000000E+00  0.90810334857E+01  0.90810334857E+01  0.00000000000E+00 0.  1.
          1   -1    0    0  501    0  0.00000000000E+00 -0.00000000000E+00 -0.17297796162E+04  0.17297796162E+04  0.00000000000E+00 0. -1.
         25    2    1    2    0    0  0.38525402648E+02  0.35257769662E+02 -0.12350769048E+04  0.12424934010E+04  0.12509026206E+03 0.  0.
          5    1    3    3  502    0  0.26234226786E+02 -0.30402382929E+02 -0.89401198537E+03  0.89492314862E+03  0.41800000000E+01 0. -1.
         -5    1    3    3    0  502  0.12291175861E+02  0.65660152591E+02 -0.34106491948E+03  0.34757025238E+03  0.41800000000E+01 0. -1.
        -11    1    1    2    0    0 -0.49974133736E+02  0.14185040269E+02 -0.25097531019E+03  0.25629521208E+03  0.00000000000E+00 0.  1.
         11    1    1    2    0    0  0.11448731089E+02 -0.49442809931E+02 -0.23464636767E+03  0.24007203660E+03  0.00000000000E+00 0. -1.
</event>
<event>
 7    1  0.2766180E-009  0.1411240E+03  0.7561462E-02  0.1211824E+00
          3   -1    0    0  501    0  0.00000000000E+00  0.00000000000E+00  0.46008681486E+03  0.46008681486E+03  0.00000000000E+00 0. -1.
         -3   -1    0    0    0  501 -0.00000000000E+00 -0.00000000000E+00 -0.49185267659E+02  0.49185267659E+02  0.00000000000E+00 0.  1.
         25    2    1    2    0    0 -0.91020277693E+02 -0.51329622003E+02  0.22771588336E+03  0.28003769444E+03  0.12508863149E+03 0.  0.
          5    1    3    3  502    0 -0.11648384532E+02  0.40015916703E+02  0.60575087460E+02  0.73646263127E+02  0.41800000000E+01 0. -1.
         -5    1    3    3    0  502 -0.79371893161E+02 -0.91345538706E+02  0.16714079590E+03  0.20639143131E+03  0.41800000000E+01 0. -1.
        -11    1    1    2    0    0  0.21577534254E+02 -0.12516845089E+02  0.10127630646E+03  0.10430317179E+03  0.00000000000E+00 0. -1.
         11    1    1    2    0    0  0.69442743438E+02  0.63846467092E+02  0.81909357381E+02  0.12493121629E+03  0.00000000000E+00 0.  1.
</event>
<event>
 7    1  0.2766180E-009  0.8654654E+02  0.7561462E-02  0.1311437E+00
         -4   -1    0    0    0  501 -0.00000000000E+00  0.00000000000E+00  0.10522318978E+03  0.10522318978E+03  0.00000000000E+00 0.  1.
          4   -1    0    0  501    0  0.00000000000E+00 -0.00000000000E+00 -0.11765694126E+03  0.11765694126E+03  0.00000000000E+00 0. -1.
         25    2    1    2    0    0  0.25035181716E+02  0.41100021252E+01  0.10983652425E+01  0.12764054720E+03  0.12508897011E+03 0.  0.
          5    1    3    3  502    0 -0.24033549063E+02  0.14655235728E+02  0.49943135586E+02  0.57481967668E+02  0.41800000000E+01 0. -1.
         -5    1    3    3    0  502  0.49068730779E+02 -0.10545233603E+02 -0.48844770344E+02  0.70158579532E+02  0.41800000000E+01 0. -1.
        -11    1    1    2    0    0  0.42019932610E+01  0.40618787667E+02 -0.60903491751E+01  0.41287225773E+02  0.00000000000E+00 0.  1.
         11    1    1    2    0    0 -0.29237174977E+02 -0.44728789793E+02 -0.74417675393E+01  0.53952358068E+02  0.00000000000E+00 0. -1.
</event>
<event>
 7    1  0.2766180E-009  0.1289596E+03  0.7561462E-02  0.1229008E+00
         -3   -1    0    0    0  501 -0.00000000000E+00  0.00000000000E+00  0.19100222885E+03  0.19100222885E+03  0.00000000000E+00 0.  1.
          3   -1    0    0  501    0  0.00000000000E+00 -0.00000000000E+00 -0.10193967186E+03  0.10193967186E+03  0.00000000000E+00 0. -1.
         25    2    1    2    0    0 -0.67354006175E+02 -0.56811951078E+02  0.12340883453E+02  0.15350736893E+03  0.12509218593E+03 0.  0.
          5    1    3    3  502    0 -0.10419461462E+03 -0.35151156035E+02  0.75963690268E+01  0.11030547905E+03  0.41800000000E+01 0.  1.
         -5    1    3    3    0  502  0.36840608444E+02 -0.21660795043E+02  0.47445144263E+01  0.43201889884E+02  0.41800000000E+01 0.  1.
        -11    1    1    2    0    0  0.73309246124E+02  0.33008408593E+02  0.81449835567E+02  0.11444595370E+03  0.00000000000E+00 0.  1.
         11    1    1    2    0    0 -0.59552399489E+01  0.23803542485E+02 -0.47281620279E+01  0.24988578068E+02  0.00000000000E+00 0. -1.
</event>
<event>
 7    1  0.2766180E-009  0.6842575E+02  0.7561462E-02  0.1365530E+00
         -1   -1    0    0    0  501 -0.00000000000E+00  0.00000000000E+00  0.48462462621E+02  0.48462462621E+02  0.00000000000E+00 0.  1.
          1   -1    0    0  501    0  0.00000000000E+00 -0.00000000000E+00 -0.26501144554E+03  0.26501144554E+03  0.00000000000E+00 0. -1.
         25    2    1    2    0    0 -0.18713479460E+02  0.35128985372E+02 -0.15192442008E+03  0.20079155101E+03  0.12510786391E+03 0.  0.
          5    1    3    3  502    0 -0.15983135352E+02  0.76187321530E+01 -0.16770303193E+03  0.16868694381E+03  0.41800000000E+01 0. -1.
         -5    1    3    3    0  502 -0.27303441076E+01  0.27510253219E+02  0.15778611849E+02  0.32104607193E+02  0.41800000000E+01 0. -1.
        -11    1    1    2    0    0  0.45004119939E+02 -0.44012468182E+02 -0.34732385787E+02  0.71894414174E+02  0.00000000000E+00 0.  1.
         11    1    1    2    0    0 -0.26290640479E+02  0.88834828102E+01 -0.29892177056E+02  0.40787942983E+02  0.00000000000E+00 0. -1.
</event>
<event>
 7    1  0.2766180E-009  0.1057274E+03  0.7561462E-02  0.1268693E+00
         -1   -1    0    0    0  501 -0.00000000000E+00  0.00000000000E+00  0.20964719038E+02  0.20964719038E+02  0.00000000000E+00 0.  1.
          1   -1    0    0  501    0  0.00000000000E+00 -0.00000000000E+00 -0.10596681616E+04  0.10596681616E+04  0.00000000000E+00 0. -1.
         25    2    1    2    0    0  0.63992094977E+02  0.74829786295E+02 -0.66457505178E+03  0.68337535538E+03  0.12508953498E+03 0.  0.
          5    1    3    3  502    0  0.17994461689E+00  0.23409389653E+02 -0.13896536720E+02  0.27543021563E+02  0.41800000000E+01 0. -1.
         -5    1    3    3    0  502  0.63812150360E+02  0.51420396642E+02 -0.65067851506E+03  0.65583233382E+03  0.41800000000E+01 0. -1.
        -11    1    1    2    0    0 -0.27055656167E+02 -0.59992707864E+02 -0.33513510198E+03  0.34153575231E+03  0.00000000000E+00 0. -1.
         11    1    1    2    0    0 -0.36936438810E+02 -0.14837078431E+02 -0.38993288799E+02  0.55721772941E+02  0.00000000000E+00 0.  1.
</event>
<event>
 7    1  0.2766180E-009  0.1312377E+03  0.7561462E-02  0.1225631E+00
          2   -1    0    0  501    0  0.00000000000E+00  0.00000000000E+00  0.10612635970E+03  0.10612635970E+03  0.00000000000E+00 0. -1.
         -2   -1    0    0    0  501 -0.00000000000E+00 -0.00000000000E+00 -0.20022275578E+03  0.20022275578E+03  0.00000000000E+00 0.  1.
         25    2    1    2    0    0 -0.72252460455E+02  0.24286234052E+02 -0.11174226045E+03  0.18423799051E+03  0.12508822954E+03 0.  0.
          5    1    3    3  502    0 -0.94568265293E+02  0.52172211381E+02 -0.97489536542E+02  0.14555678815E+03  0.41800000000E+01 0.  1.
         -5    1    3    3    0  502  0.22315804838E+02 -0.27885977329E+02 -0.14252723913E+02  0.38681202361E+02  0.41800000000E+01 0.  1.
        -11    1    1    2    0    0  0.92490194840E+02 -0.87245489949E+01  0.23695504981E+02  0.95875079416E+02  0.00000000000E+00 0. -1.
         11    1    1    2    0    0 -0.20237734385E+02 -0.15561685057E+02 -0.60496406117E+01  0.26236045555E+02  0.00000000000E+00 0.  1.
</event>
<event>
 7    1  0.2766180E-009  0.2391671E+03  0.7561462E-02  0.1120349E+00
         -2   -1    0    0    0  501 -0.00000000000E+00  0.00000000000E+00  0.49491209821E+02  0.49491209821E+02  0.00000000000E+00 0.  1.
          2   -1    0    0  501    0  0.00000000000E+00 -0.00000000000E+00 -0.12209748846E+04  0.12209748846E+04  0.00000000000E+00 0. -1.
         25    2    1    2    0    0 -0.10044108421E+03 -0.19299158071E+03 -0.51758810655E+03  0.57522109915E+03  0.12509078000E+03 0.  0.
          5    1    3    3  502    0 -0.83512024637E+02 -0.40491588111E+02 -0.14446739314E+03  0.17176183233E+03  0.41800000000E+01 0.  1.
         -5    1    3    3    0  502 -0.16929059571E+02 -0.15249999260E+03 -0.37312071341E+03  0.40345926681E+03  0.41800000000E+01 0.  1.
        -11    1    1    2    0    0  0.53986750870E+02  0.17323953427E+03 -0.45032442901E+03  0.48550859608E+03  0.00000000000E+00 0.  1.
         11    1    1    2    0    0  0.46454333338E+02  0.19752046442E+02 -0.20357113925E+03  0.20973639923E+03  0.00000000000E+00 0. -1.
</event>
<event>
 7    1  0.2766180E-009  0.9528958E+02  0.7561462E-02  0.1290525E+00
         -1   -1    0    0    0  501 -0.00000000000E+00  0.00000000000E+00  0.38926881041E+03  0.38926881041E+03  0.00000000000E+00 0.  1.
          1   -1    0    0  501    0  0.00000000000E+00 -0.00000000000E+00 -0.50229119029E+02  0.50229119029E+02  0.00000000000E+00 0. -1.
         25    2    1    2    0    0 -0.41165183358E+02 -0.80204374250E+01  0.62803483298E+02  0.14611890722E+03  0.12509019864E+03 0.  0.
          5    1    3    3  502    0 -0.41240682735E+02 -0.47500366749E+02  0.80837146635E+02  0.10251436694E+03  0.41800000000E+01 0.  1.
         -5    1    3    3    0  502  0.75499376528E-01  0.39479929324E+02 -0.18033663337E+02  0.43604540279E+02  0.41800000000E+01 0.  1.
        -11    1    1    2    0    0  0.54934046351E+02 -0.18489437763E+02  0.23745373711E+03  0.24442562473E+03  0.00000000000E+00 0.  1.
         11    1    1    2    0    0 -0.13768862992E+02  0.26509875188E+02  0.38782470974E+02  0.48953397486E+02  0.00000000000E+00 0. -1.
</event>
<event>
 7    1  0.2766180E-009  0.2295277E+03  0.7561462E-02  0.1126973E+00
          2   -1    0    0  501    0  0.00000000000E+00  0.00000000000E+00  0.15210118278E+03  0.15210118278E+03  0.00000000000E+00 0. -1.
         -2   -1    0    0    0  501 -0.00000000000E+00 -0.00000000000E+00 -0.69997503513E+03  0.69997503513E+03  0.00000000000E+00 0.  1.
         25    2    1    2    0    0  0.88479428471E+02  0.20956575474E+03 -0.87115614978E+01  0.25974348655E+03  0.12507746672E+03 0.  0.
          5    1    3    3  502    0  0.58222016326E+02  0.13974100945E+03  0.54271333162E+02  0.16087325107E+03  0.41800000000E+01 0. -1.
         -5    1    3    3    0  502  0.30257412145E+02  0.69824745297E+02 -0.62982894660E+02  0.98870235487E+02  0.41800000000E+01 0.  1.
        -11    1    1    2    0    0 -0.34344398843E+01 -0.53966380869E+02 -0.22670344771E+03  0.23306355109E+03  0.00000000000E+00 0. -1.
         11    1    1    2    0    0 -0.85044988587E+02 -0.15559937387E+03 -0.31245884314E+03  0.35926918027E+03  0.00000000000E+00 0.  1.
</event>
<event>
 7    1  0.2766180E-009  0.1142217E+03  0.7561462E-02  0.1252946E+00
          3   -1    0    0  501    0  0.00000000000E+00  0.00000000000E+00  0.55416077349E+03  0.55416077349E+03  0.00000000000E+00 0. -1.
         -3   -1    0    0    0  501 -0.00000000000E+00 -0.00000000000E+00 -0.40966696335E+02  0.40966696335E+02  0.00000000000E+00 0.  1.
         25    2    1    2    0    0  0.50437442949E+01  0.50847660929E+02  0.45225959111E+03  0.47201354056E+03  0.12508845168E+03 0.  0.
          5    1    3    3  502    0  0.54501425763E+02  0.38070940732E+01  0.30192170992E+03  0.30685353297E+03  0.41800000000E+01 0.  1.
         -5    1    3    3    0  502 -0.49457681469E+02  0.47040566856E+02  0.15033788119E+03  0.16516000759E+03  0.41800000000E+01 0.  1.
        -11    1    1    2    0    0 -0.35907394826E+02 -0.62659690717E+02  0.31241114162E+02  0.78686625662E+02  0.00000000000E+00 0.  1.
         11    1    1    2    0    0  0.30863650531E+02  0.11812029787E+02  0.29693371887E+02  0.44427303607E+02  0.00000000000E+00 0. -1.
</event>
<event>
 7    1  0.2766180E-009  0.8347488E+02  0.7561462E-02  0.1319470E+00
         -2   -1    0    0    0  501 -0.00000000000E+00  0.00000000000E+00  0.14595018361E+03  0.14595018361E+03  0.00000000000E+00 0.  1.
          2   -1    0    0  501    0  0.00000000000E+00 -0.00000000000E+00 -0.93084328287E+02  0.93084328287E+02  0.00000000000E+00 0. -1.
         25    2    1    2    0    0 -0.28338028331E+02  0.75538296614E+01  0.50839615480E+00  0.12848246165E+03  0.12508948914E+03 0.  0.
          5    1    3    3  502    0  0.38889114830E+02  0.67223139092E+01 -0.34482604961E+02  0.52574472907E+02  0.41800000000E+01 0.  1.
         -5    1    3    3    0  502 -0.67227143161E+02  0.83151575222E+00  0.34991001116E+02  0.75907988744E+02  0.41800000000E+01 0.  1.
        -11    1    1    2    0    0 -0.15146067428E+02  0.22858690695E+01  0.62900677580E+02  0.64738889363E+02  0.00000000000E+00 0.  1.
         11    1    1    2    0    0  0.43484095759E+02 -0.98396987309E+01 -0.10543218416E+02  0.45813160879E+02  0.00000000000E+00 0. -1.
</event>
<event>
 7    1  0.2789086E-009  0.1249037E+03  0.7561462E-02  0.1235220E+00
         -2   -1    0    0    0  501 -0.00000000000E+00  0.00000000000E+00  0.32101721020E+02  0.32101721020E+02  0.00000000000E+00 0.  1.
          2   -1    0    0  501    0  0.00000000000E+00 -0.00000000000E+00 -0.58074375836E+03  0.58074375836E+03  0.00000000000E+00 0. -1.
         25    2    1    2    0    0  0.10180718863E+02  0.80958644272E+02 -0.33590051907E+03  0.36759140383E+03  0.12504532116E+03 0.  0.
          5    1    3    3  502    0  0.55343909833E+02  0.75369024068E+02 -0.15553937129E+03  0.18153073174E+03  0.41800000000E+01 0. -1.
         -5    1    3    3    0  502 -0.45163190970E+02  0.55896202045E+01 -0.18036114777E+03  0.18606067209E+03  0.41800000000E+01 0. -1.
        -11    1    1    2    0    0 -0.35299803723E+02 -0.12271265767E+02 -0.12786292307E+03  0.13321256398E+03  0.00000000000E+00 0.  1.
         11    1    1    2    0    0  0.25119084860E+02 -0.68687378505E+02 -0.84878595201E+02  0.11204151156E+03  0.00000000000E+00 0. -1.
</event>
<event>
 7    1  0.2766180E-009  0.1470019E+03  0.7561462E-02  0.1204206E+00
          1   -1    0    0  501    0  0.00000000000E+00  0.00000000000E+00  0.23381484728E+03  0.23381484728E+03  0.00000000000E+00 0. -1.
         -1   -1    0    0    0  501 -0.00000000000E+00 -0.00000000000E+00 -0.11203879855E+03  0.11203879855E+03  0.00000000000E+00 0.  1.
         25    2    1    2    0    0  0.12621743985E+02 -0.11893048976E+03  0.66496845240E+02  0.18540407643E+03  0.12509624821E+03 0.  0.
          5    1    3    3  502    0 -0.30927082512E+02 -0.12499756282E+03  0.51751373113E+02  0.13884002363E+03  0.41800000000E+01 0. -1.
         -5    1    3    3    0  502  0.43548826496E+02  0.60670730652E+01  0.14745472127E+02  0.46564052799E+02  0.41800000000E+01 0. -1.
        -11    1    1    2    0    0 -0.17345434992E+02  0.99822455232E+02  0.79825258213E+02  0.12898627265E+03  0.00000000000E+00 0. -1.
         11    1    1    2    0    0  0.47236910076E+01  0.19108034524E+02 -0.24546054717E+02  0.31463296748E+02  0.00000000000E+00 0.  1.
</event>
<event>
 7    1  0.2766180E-009  0.6584162E+02  0.7561462E-02  0.1374833E+00
         -2   -1    0    0    0  501 -0.00000000000E+00  0.00000000000E+00  0.14174947904E+03  0.14174947904E+03  0.00000000000E+00 0.  1.
          2   -1    0    0  501    0  0.00000000000E+00 -0.00000000000E+00 -0.13008762756E+03  0.13008762756E+03  0.00000000000E+00 0. -1.
         25    2    1    2    0    0 -0.41535453828E+02 -0.29142155502E+02 -0.58114013035E+02  0.14696877238E+03  0.12509245537E+03 0.  0.
          5    1    3    3  502    0 -0.36589990371E+01  0.78210528488E+01  0.36901430841E+02  0.38128009911E+02  0.41800000000E+01 0. -1.
         -5    1    3    3    0  502 -0.37876454791E+02 -0.36963208351E+02 -0.95015443876E+02  0.10884076247E+03  0.41800000000E+01 0. -1.
        -11    1    1    2    0    0  0.41923818764E+02  0.40113592382E+02  0.86921814392E+02  0.10450889288E+03  0.00000000000E+00 0.  1.
         11    1    1    2    0    0 -0.38836493552E+00 -0.10971436880E+02 -0.17145949876E+02  0.20359441340E+02  0.00000000000E+00 0. -1.
</event>
<event>
 7    1  0.2766180E-009  0.1278474E+03  0.7561462E-02  0.1230685E+00
          2   -1    0    0  501    0  0.00000000000E+00  0.00000000000E+00  0.15184180073E+03  0.15184180073E+03  0.00000000000E+00 0. -1.
         -2   -1    0    0    0  501 -0.00000000000E+00 -0.00000000000E+00 -0.11763424914E+03  0.11763424914E+03  0.00000000000E+00 0.  1.
         25    2    1    2    0    0  0.75450996968E+02  0.78112916198E+01  0.33712434932E+02  0.15012570320E+03  0.12508928520E+03 0.  0.
          5    1    3    3  502    0 -0.21663077180E+02 -0.28953492760E+02  0.28215194102E+02  0.46056087916E+02  0.41800000000E+01 0.  1.
         -5    1    3    3    0  502  0.97114074148E+02  0.36764784380E+02  0.54972408295E+01  0.10406961528E+03  0.41800000000E+01 0.  1.
        -11    1    1    2    0    0 -0.92426525147E+02 -0.19880417520E+02  0.12414972162E+02  0.95352111069E+02  0.00000000000E+00 0.  1.
         11    1    1    2    0    0  0.16975528179E+02  0.12069125900E+02 -0.11919855496E+02  0.23998235602E+02  0.00000000000E+00 0. -1.
</event>
<event>
 7    1  0.2766180E-009  0.8409134E+02  0.7561462E-02  0.1317826E+00
         -1   -1    0    0    0  501 -0.00000000000E+00  0.00000000000E+00  0.57592385050E+02  0.57592385050E+02  0.00000000000E+00 0.  1.
          1   -1    0    0  501    0  0.00000000000E+00 -0.00000000000E+00 -0.31080600273E+03  0.31080600273E+03  0.00000000000E+00 0. -1.
         25    2    1    2    0    0 -0.90457952839E+00  0.64758851416E+02 -0.20612262414E+03  0.24965694144E+03  0.12509006806E+03 0.  0.
          5    1    3    3  502    0 -0.63866005790E+01  0.56603217247E+02 -0.16109434521E+02  0.59343905755E+02  0.41800000000E+01 0.  1.
         -5    1    3    3    0  502  0.54820210506E+01  0.81556341691E+01 -0.19001318962E+03  0.19031303569E+03  0.41800000000E+01 0.  1.
        -11    1    1    2    0    0  0.32937463818E+02 -0.60206641030E+01 -0.38917482027E+02  0.51339023426E+02  0.00000000000E+00 0. -1.
         11    1    1    2    0    0 -0.32032884289E+02 -0.58738187313E+02 -0.81735115193E+01  0.67402422919E+02  0.00000000000E+00 0.  1.
</event>
<event>
 7    1  0.2766180E-009  0.9019183E+02  0.7561462E-02  0.1302388E+00
          1   -1    0    0  501    0  0.00000000000E+00  0.00000000000E+00  0.23149567651E+03  0.23149567651E+03  0.00000000000E+00 0. -1.
         -1   -1    0    0    0  501 -0.00000000000E+00 -0.00000000000E+00 -0.55353909503E+02  0.55353909503E+02  0.00000000000E+00 0.  1.
         25    2    1    2    0    0 -0.26002084776E+02  0.17256173632E+02  0.92181519554E+02  0.15849581682E+03  0.12509839112E+03 0.  0.
          5    1    3    3  502    0 -0.51890985765E+02 -0.24577148523E+02  0.92698032388E+02  0.10911969686E+03  0.41800000000E+01 0.  1.
         -5    1    3    3    0  502  0.25888900989E+02  0.41833322155E+02 -0.51651283381E+00  0.49376119961E+02  0.41800000000E+01 0.  1.
        -11    1    1    2    0    0  0.15146897632E+02  0.25319088064E+02 -0.42482030074E+01  0.29808253170E+02  0.00000000000E+00 0.  1.
         11    1    1    2    0    0  0.10855187145E+02 -0.42575261696E+02  0.88208450462E+02  0.98545516028E+02  0.00000000000E+00 0. -1.
</event>
<event>
 7    1  0.2766180E-009  0.1245835E+03  0.7561462E-02  0.1235722E+00
         -1   -1    0    0    0  501 -0.00000000000E+00  0.00000000000E+00  0.28537623683E+02  0.28537623683E+02  0.00000000000E+00 0.  1.
          1   -1    0    0  501    0  0.00000000000E+00 -0.00000000000E+00 -0.84764725483E+03  0.84764725483E+03  0.00000000000E+00 0. -1.
         25    2    1    2    0    0  0.24619700356E+02 -0.94627567004E+02 -0.58932589150E+03  0.61033803649E+03  0.12508799429E+03 0.  0.
          5    1    3    3  502    0  0.14150155994E+02  0.23606411433E+02 -0.42809413723E+02  0.51064742031E+02  0.41800000000E+01 0.  1.
         -5    1    3    3    0  502  0.10469544362E+02 -0.11823397844E+03 -0.54651647777E+03  0.55927329446E+03  0.41800000000E+01 0.  1.
        -11    1    1    2    0    0  0.53578272353E+01  0.39013582604E+02 -0.18311209225E+03  0.18729870333E+03  0.00000000000E+00 0. -1.
         11    1    1    2    0    0 -0.29977527591E+02  0.55613984400E+02 -0.46671647398E+02  0.78548138694E+02  0.00000000000E+00 0.  1.
</event>
<event>
 7    1  0.2766180E-009  0.1315045E+03  0.7561462E-02  0.1225240E+00
         -1   -1    0    0    0  501 -0.00000000000E+00  0.00000000000E+00  0.49484513556E+02  0.49484513556E+02  0.00000000000E+00 0.  1.
          1   -1    0    0  501    0  0.00000000000E+00 -0.00000000000E+00 -0.65635224411E+03  0.65635224411E+03  0.00000000000E+00 0. -1.
         25    2    1    2    0    0  0.77500508007E+02  0.44501845676E+02 -0.99758056347E+02  0.18324717547E+03  0.12506444140E+03 0.  0.
          5    1    3    3  502    0  0.50602888455E+02  0.88193104908E+02 -0.72922762467E+02  0.12519535838E+03  0.41800000000E+01 0. -1.
         -5    1    3    3    0  502  0.26897619551E+02 -0.43691259232E+02 -0.26835293880E+02  0.58051817098E+02  0.41800000000E+01 0. -1.
        -11    1    1    2    0    0 -0.83053170421E+02 -0.21067274397E+02 -0.47380112044E+03  0.48148640780E+03  0.00000000000E+00 0. -1.
         11    1    1    2    0    0  0.55526624144E+01 -0.23434571279E+02 -0.33308553769E+02  0.41103174392E+02  0.00000000000E+00 0.  1.
</event>
<event>
 7    1  0.2766180E-009  0.1579392E+03  0.7561462E-02  0.1191043E+00
          2   -1    0    0  501    0  0.00000000000E+00  0.00000000000E+00  0.12098667792E+04  0.12098667792E+04  0.00000000000E+00 0. -1.
         -2   -1    0    0    0  501 -0.00000000000E+00 -0.00000000000E+00 -0.21758943929E+02  0.21758943929E+02  0.00000000000E+00 0.  1.
         25    2    1    2    0    0 -0.79190530434E+02 -0.93926719607E+02  0.68255971322E+03  0.70471810754E+03  0.12508589136E+03 0.  0.
          5    1    3    3  502    0 -0.27979802958E+02 -0.11048846924E+03  0.35887441153E+03  0.37656192965E+03  0.41800000000E+01 0. -1.
         -5    1    3    3    0  502 -0.51210727476E+02  0.16561749631E+02  0.32368530169E+03  0.32815617789E+03  0.41800000000E+01 0. -1.
        -11    1    1    2    0    0  0.40679002106E+02  0.10082034029E+03  0.39263107812E+03  0.40740481801E+03  0.00000000000E+00 0.  1.
         11    1    1    2    0    0  0.38511528328E+02 -0.68936206817E+01  0.11291704394E+03  0.11950279759E+03  0.00000000000E+00 0. -1.
</event>
<event>
 7    1  0.2766180E-009  0.1295012E+03  0.7561462E-02  0.1228198E+00
         -2   -1    0    0    0  501 -0.00000000000E+00  0.00000000000E+00  0.40246345584E+02  0.40246345584E+02  0.00000000000E+00 0.  1.
          2   -1    0    0  501    0  0.00000000000E+00 -0.00000000000E+00 -0.68653064199E+03  0.68653064199E+03  0.00000000000E+00 0. -1.
         25    2    1    2    0    0 -0.97907057153E+02 -0.70099091399E+02 -0.42811547398E+03  0.46198434630E+03  0.12508797987E+03 0.  0.
          5    1    3    3  502    0 -0.41201837946E+02 -0.68575300002E+01 -0.22653916602E+02  0.47699994814E+02  0.41800000000E+01 0.  1.
         -5    1    3    3    0  502 -0.56705219207E+02 -0.63241561399E+02 -0.40546155738E+03  0.41428435149E+03  0.41800000000E+01 0.  1.
        -11    1    1    2    0    0  0.80273960151E+02  0.25826191658E+02 -0.71441928679E+02  0.11052081264E+03  0.00000000000E+00 0.  1.
         11    1    1    2    0    0  0.17633097002E+02  0.44272899741E+02 -0.14672689374E+03  0.15427182863E+03  0.00000000000E+00 0. -1.
</event>
<event>
 7    1  0.2766180E-009  0.1239626E+03  0.7561462E-02  0.1236700E+00
          1   -1    0    0  501    0  0.00000000000E+00  0.00000000000E+00  0.25104427121E+03  0.25104427121E+03  0.00000000000E+00 0. -1.
         -1   -1    0    0    0  501 -0.00000000000E+00 -0.00000000000E+00 -0.81899733941E+02  0.81899733941E+02  0.00000000000E+00 0.  1.
         25    2    1    2    0    0 -0.31614577844E+02 -0.82747851112E+02  0.64074005569E+02  0.16612982406E+03  0.12508777660E+03 0.  0.
          5    1    3    3  502    0 -0.78103519115E+02 -0.33279308296E+02  0.30756389068E+02  0.90394136576E+02  0.41800000000E+01 0. -1.
         -5    1    3    3    0  502  0.46488941271E+02 -0.49468542815E+02  0.33317616501E+02  0.75735687480E+02  0.41800000000E+01 0. -1.
        -11    1    1    2    0    0  0.38427283202E+02  0.60760374299E+02  0.11963526362E+03  0.13957462334E+03  0.00000000000E+00 0. -1.
         11    1    1    2    0    0 -0.68127053579E+01  0.21987476813E+02 -0.14564731918E+02  0.27239557755E+02  0.00000000000E+00 0.  1.
</event>
<event>
 7    1  0.2766180E-009  0.1162237E+03  0.7561462E-02  0.1249460E+00
         -2   -1    0    0    0  501 -0.00000000000E+00  0.00000000000E+00  0.21950214509E+02  0.21950214509E+02  0.00000000000E+00 0.  1.
          2   -1    0    0  501    0  0.00000000000E+00 -0.00000000000E+00 -0.86227104656E+03  0.86227104656E+03  0.00000000000E+00 0. -1.
         25    2    1    2    0    0 -0.49259893877E+01  0.63159048133E+02 -0.64090108112E+03  0.65606020412E+03  0.12508982742E+03 0.  0.
          5    1    3    3  502    0 -0.89569778405E+01 -0.36566700902E+02 -0.23587187240E+03  0.23889404274E+03  0.41800000000E+01 0.  1.
         -5    1    3    3    0  502  0.40309884528E+01  0.99725749036E+02 -0.40502920871E+03  0.41716616138E+03  0.41800000000E+01 0.  1.
        -11    1    1    2    0    0  0.27981511821E+02 -0.65765968417E+02 -0.19021566223E+03  0.20319971890E+03  0.00000000000E+00 0. -1.
         11    1    1    2    0    0 -0.23055522433E+02  0.26069202839E+01 -0.92040887058E+01  0.24961338044E+02  0.00000000000E+00 0.  1.
</event>
<event>
 7    1  0.2766180E-009  0.1562976E+03  0.7561462E-02  0.1192941E+00
          1   -1    0    0  501    0  0.00000000000E+00  0.00000000000E+00  0.25427890635E+03  0.25427890635E+03  0.00000000000E+00 0. -1.
         -1   -1    0    0    0  501 -0.00000000000E+00 -0.00000000000E+00 -0.10512901829E+03  0.10512901829E+03  0.00000000000E+00 0.  1.
         25    2    1    2    0    0 -0.11836692553E+03 -0.29523256148E+02  0.89513197663E+02  0.19631844335E+03  0.12508383960E+03 0.  0.
          5    1    3    3  502    0 -0.54434573238E+02 -0.77415399271E+02  0.47934986960E+02  0.10616733105E+03  0.41800000000E+01 0. -1.
         -5    1    3    3    0  502 -0.63932352294E+02  0.47892143124E+02  0.41578210704E+02  0.90151112296E+02  0.41800000000E+01 0. -1.
        -11    1    1    2    0    0  0.10228697549E+03 -0.21981710989E+01  0.72364956671E+02  0.12531617719E+03  0.00000000000E+00 0. -1.
         11    1    1    2    0    0  0.16079950040E+02  0.31721427247E+02 -0.12728266277E+02  0.37773304095E+02  0.00000000000E+00 0.  1.
</event>
<event>
 7    1  0.2766180E-009  0.1288192E+03  0.7561462E-02  0.1229218E+00
         -2   -1    0    0    0  501 -0.00000000000E+00  0.00000000000E+00  0.68284283013E+02  0.68284283013E+02  0.00000000000E+00 0.  1.
          2   -1    0    0  501    0  0.00000000000E+00 -0.00000000000E+00 -0.25321409840E+03  0.25321409840E+03  0.00000000000E+00 0. -1.
         25    2    1    2    0    0  0.44388999331E+02  0.57820259902E+02 -0.96206357068E+02  0.17382890285E+03  0.12508900275E+03 0.  0.
          5    1    3    3  502    0 -0.43479361887E+02  0.15916050272E+02 -0.40080837351E+02  0.61381768377E+02  0.41800000000E+01 0. -1.
         -5    1    3    3    0  502  0.87868361218E+02  0.41904209630E+02 -0.56125519717E+02  0.11244713447E+03  0.41800000000E+01 0. -1.
        -11    1    1    2    0    0  0.12639150991E+02 -0.55193186150E+02 -0.64015079430E+02  0.85463245490E+02  0.00000000000E+00 0.  1.
         11    1    1    2    0    0 -0.57028150322E+02 -0.26270737517E+01 -0.24708378888E+02  0.62206233071E+02  0.00000000000E+00 0. -1.
</event>
<event>
 7    1  0.2766180E-009  0.1276057E+03  0.7561462E-02  0.1231052E+00
         -4   -1    0    0    0  501 -0.00000000000E+00  0.00000000000E+00  0.57053844071E+03  0.57053844071E+03  0.00000000000E+00 0.  1.
          4   -1    0    0  501    0  0.00000000000E+00 -0.00000000000E+00 -0.38243598559E+02  0.38243598559E+02  0.00000000000E+00 0. -1.
         25    2    1    2    0    0 -0.62606761252E+02 -0.75519493205E+02  0.31406012408E+03  0.35198866912E+03  0.12505783159E+03 0.  0.
          5    1    3    3  502    0 -0.90518412691E+02 -0.80236493426E+02  0.29124258876E+03  0.31539054491E+03  0.41800000000E+01 0. -1.
         -5    1    3    3    0  502  0.27911651440E+02  0.47170002210E+01  0.22817535322E+02  0.36598124206E+02  0.41800000000E+01 0. -1.
        -11    1    1    2    0    0  0.49405370855E+02  0.77805759495E+02  0.22399051516E+03  0.24221143194E+03  0.00000000000E+00 0. -1.
         11    1    1    2    0    0  0.13201390397E+02 -0.22862662903E+01 -0.57557970888E+01  0.14581938214E+02  0.00000000000E+00 0.  1.
</event>
<event>
 7    1  0.2766180E-009  0.1385711E+03  0.7561462E-02  0.1215265E+00
         -3   -1    0    0    0  501 -0.00000000000E+00  0.00000000000E+00  0.57981859429E+03  0.57981859429E+03  0.00000000000E+00 0.  1.
          3   -1    0    0  501    0  0.00000000000E+00 -0.00000000000E+00 -0.39780087337E+02  0.39780087337E+02  0.00000000000E+00 0. -1.
         25    2    1    2    0    0 -0.10357847069E+03 -0.92408318434E+01  0.27756596044E+03  0.32172101479E+03  0.12509059276E+03 0.  0.
          5    1    3    3  502    0 -0.12123820335E+03  0.34039179567E+01  0.27352213337E+03  0.29923589098E+03  0.41800000000E+01 0.  1.
         -5    1    3    3    0  502  0.17659732659E+02 -0.12644749800E+02  0.40438270699E+01  0.22485123804E+02  0.41800000000E+01 0.  1.
        -11    1    1    2    0    0  0.32665806404E+02  0.43913128033E+02  0.15610162612E+03  0.16541806249E+03  0.00000000000E+00 0.  1.
         11    1    1    2    0    0  0.70912664284E+02 -0.34672296190E+02  0.10637092039E+03  0.13245960435E+03  0.00000000000E+00 0. -1.
</event>
<event>
 7    1  0.2766180E-009  0.7653421E+02  0.7561462E-02  0.1339185E+00
          1   -1    0    0  501    0  0.00000000000E+00  0.00000000000E+00  0.77792054938E+02  0.77792054938E+02  0.00000000000E+00 0. -1.
         -1   -1    0    0    0  501 -0.00000000000E+00 -0.00000000000E+00 -0.18630108458E+03  0.18630108458E+03  0.00000000000E+00 0.  1.
         25    2    1    2    0    0 -0.45003352576E+02 -0.13129921827E+02 -0.33309410742E+02  0.13767883823E+03  0.12509296168E+03 0.  0.
          5    1    3    3  502    0 -0.67188078835E+00 -0.46344475736E+02  0.28502689907E+02  0.54572315206E+02  0.41800000000E+01 0. -1.
         -5    1    3    3    0  502 -0.44331471788E+02  0.33214553909E+02 -0.61812100649E+02  0.83106523022E+02  0.41800000000E+01 0. -1.
        -11    1    1    2    0    0  0.21194259150E+02 -0.41037075254E+01  0.18364441667E+02  0.28342366770E+02  0.00000000000E+00 0. -1.
         11    1    1    2    0    0  0.23809093426E+02  0.17233629353E+02 -0.93564060568E+02  0.98071934520E+02  0.00000000000E+00 0.  1.
</event>
<event>
 7    1  0.2766180E-009  0.1415134E+03  0.7561462E-02  0.1211307E+00
          1   -1    0    0  501    0  0.00000000000E+00  0.00000000000E+00  0.36835285700E+03  0.36835285700E+03  0.00000000000E+00 0. -1.
         -1   -1    0    0    0  501 -0.00000000000E+00 -0.00000000000E+00 -0.86499070875E+02  0.86499070875E+02  0.00000000000E+00 0.  1.
         25    2    1    2    0    0  0.12057671247E+03  0.11286941416E+02  0.23877825897E+03  0.29551352843E+03  0.12508816848E+03 0.  0.
          5    1    3    3  502    0  0.85997158691E+02 -0.30863189784E+02  0.62062933888E+02  0.11053202228E+03  0.41800000000E+01 0.  1.
         -5    1    3    3    0  502  0.34579553776E+02  0.42150131200E+02  0.17671532508E+03  0.18498150615E+03  0.41800000000E+01 0.  1.
        -11    1    1    2    0    0 -0.76752674325E+02 -0.37912481102E+02 -0.92155660567E+01  0.86100266533E+02  0.00000000000E+00 0.  1.
         11    1    1    2    0    0 -0.43824038142E+02  0.26625539686E+02  0.52291093214E+02  0.73238132910E+02  0.00000000000E+00 0. -1.
</event>
<event>
 7    1  0.2766180E-009  0.7244819E+02  0.7561462E-02  0.1351960E+00
          2   -1    0    0  501    0  0.00000000000E+00  0.00000000000E+00  0.89523180921E+03  0.89523180921E+03  0.00000000000E+00 0. -1.
         -2   -1    0    0    0  501 -0.00000000000E+00 -0.00000000000E+00 -0.14354376566E+02  0.14354376566E+02  0.00000000000E+00 0.  1.
         25    2    1    2    0    0 -0.12164622570E+02 -0.26735929888E+02  0.50489380564E+03  0.52098838903E+03  0.12509339927E+03 0.  0.
          5    1    3    3  502    0 -0.23479216017E+02 -0.25461001409E+02  0.30205697850E+02  0.46145343861E+02  0.41800000000E+01 0. -1.
         -5    1    3    3    0  502  0.11314593446E+02 -0.12749284798E+01  0.47468810779E+03  0.47484304517E+03  0.41800000000E+01 0. -1.
        -11    1    1    2    0    0 -0.17097250303E+02 -0.29723323107E+02  0.14716585560E+03  0.15110784546E+03  0.00000000000E+00 0. -1.
         11    1    1    2    0    0  0.29261872873E+02  0.56459252995E+02  0.22881777141E+03  0.23748995129E+03  0.00000000000E+00 0.  1.
</event>
<event>
 7    1  0.2766180E-009  0.1309502E+03  0.7561462E-02  0.1226053E+00
          1   -1    0    0  501    0  0.00000000000E+00  0.00000000000E+00  0.11251635016E+03  0.11251635016E+03  0.00000000000E+00 0. -1.
         -1   -1    0    0    0  501 -0.00000000000E+00 -0.00000000000E+00 -0.19398508736E+03  0.19398508736E+03  0.00000000000E+00 0.  1.
         25    2    1    2    0    0  0.58763561705E+02  0.68977112498E+02 -0.81738793418E+02  0.17474376280E+03  0.12507259514E+03 0.  0.
          5    1    3    3  502    0  0.28503788243E+02  0.10060410252E+03 -0.78186361972E+02  0.13063013047E+03  0.41800000000E+01 0. -1.
         -5    1    3    3    0  502  0.30259773462E+02 -0.31626990027E+02 -0.35524314458E+01  0.44113632329E+02  0.41800000000E+01 0. -1.
        -11    1    1    2    0    0 -0.25374931239E+02 -0.75158393169E+02 -0.31409539879E+02  0.85318405954E+02  0.00000000000E+00 0.  1.
         11    1    1    2    0    0 -0.33388630465E+02  0.61812806711E+01  0.31679596096E+02  0.46439268770E+02  0.00000000000E+00 0. -1.
</event>
<event>
 7    1  0.2766180E-009  0.9506403E+02  0.7561462E-02  0.1291032E+00
         -2   -1    0    0    0  501 -0.00000000000E+00  0.00000000000E+00  0.23719047568E+02  0.23719047568E+02  0.00000000000E+00 0.  1.
          2   -1    0    0  501    0  0.00000000000E+00 -0.00000000000E+00 -0.53752565650E+03  0.53752565650E+03  0.00000000000E+00 0. -1.
         25    2    1    2    0    0  0.14620450515E+02 -0.23310463991E+02 -0.33128066097E+03  0.35517743529E+03  0.12508796466E+03 0.  0.
          5    1    3    3  502    0  0.99910370792E+01  0.36344878928E+02 -0.25662174398E+03  0.25940887211E+03  0.41800000000E+01 0.  1.
         -5    1    3    3    0  502  0.46294134363E+01 -0.59655342919E+02 -0.74658916988E+02  0.95768563179E+02  0.41800000000E+01 0.  1.
        -11    1    1    2    0    0  0.33959842468E+02  0.27168338945E+02 -0.59166981523E+02  0.73431064571E+02  0.00000000000E+00 0.  1.
         11    1    1    2    0    0 -0.48580292983E+02 -0.38578749539E+01 -0.12335896644E+03  0.13263620421E+03  0.00000000000E+00 0. -1.
</event>
<event>
 7    1  0.2766180E-009  0.1280462E+03  0.7561462E-02  0.1230384E+00
          1   -1    0    0  501    0  0.00000000000E+00  0.00000000000E+00  0.32017743201E+03  0.32017743201E+03  0.00000000000E+00 0. -1.
         -1   -1    0    0    0  501 -0.00000000000E+00 -0.00000000000E+00 -0.69780534311E+02  0.69780534311E+02  0.00000000000E+00 0.  1.
         25    2    1    2    0    0  0.89173044839E+01 -0.89565407403E+02  0.19593950271E+03  0.24927364886E+03  0.12507430899E+03 0.  0.
          5    1    3    3  502    0  0.57864652150E+01  0.27900864369E+02  0.76173421427E+02  0.81435888552E+02  0.41800000000E+01 0. -1.
         -5    1    3    3    0  502  0.31308392690E+01 -0.11746627177E+03  0.11976608129E+03  0.16783776031E+03  0.41800000000E+01 0. -1.
        -11    1    1    2    0    0  0.15548114321E+02  0.82911155596E+02  0.71127387880E+02  0.11034087587E+03  0.00000000000E+00 0. -1.
         11    1    1    2    0    0 -0.24465418805E+02  0.66542518067E+01 -0.16669992895E+02  0.30343441590E+02  0.00000000000E+00 0.  1.
</event>
<event>
 7    1  0.2766180E-009  0.7598836E+02  0.7561462E-02  0.1340837E+00
          2   -1    0    0  501    0  0.00000000000E+00  0.00000000000E+00  0.17675204044E+03  0.17675204044E+03  0.00000000000E+00 0. -1.
         -2   -1    0    0    0  501 -0.00000000000E+00 -0.00000000000E+00 -0.77639119602E+02  0.77639119602E+02  0.00000000000E+00 0.  1.
         25    2    1    2    0    0  0.22422399319E+02 -0.27648014026E+02  0.24482469426E+02  0.13234177698E+03  0.12509107864E+03 0.  0.
          5    1    3    3  502    0  0.41935400809E+02 -0.12550004534E+02  0.68680837113E+02  0.81551273696E+02  0.41800000000E+01 0. -1.
         -5    1    3    3    0  502 -0.19513001489E+02 -0.15098009492E+02 -0.44198367687E+02  0.50790503285E+02  0.41800000000E+01 0. -1.
        -11    1    1    2    0    0 -0.80990919346E+01 -0.26115321323E+02 -0.19262774260E+01  0.27410141238E+02  0.00000000000E+00 0.  1.
         11    1    1    2    0    0 -0.14323307385E+02  0.53763335350E+02  0.76556728835E+02  0.94639241820E+02  0.00000000000E+00 0. -1.
</event>
<event>
 7    1  0.2766180E-009  0.6399407E+02  0.7561462E-02  0.1381796E+00
         -1   -1    0    0    0  501 -0.00000000000E+00  0.00000000000E+00  0.10330805486E+03  0.10330805486E+03  0.00000000000E+00 0.  1.
          1   -1    0    0  501    0  0.00000000000E+00 -0.00000000000E+00 -0.13331089305E+03  0.13331089305E+03  0.00000000000E+00 0. -1.
         25    2    1    2    0    0 -0.37657107482E+02  0.14025715215E+02 -0.48297691725E+02  0.13998256134E+03  0.12509065522E+03 0.  0.
          5    1    3    3  502    0 -0.14728137247E+02  0.12091834550E+02  0.42210920026E+02  0.46501232876E+02  0.41800000000E+01 0.  1.
         -5    1    3    3    0  502 -0.22928970234E+02  0.19338806651E+01 -0.90508611751E+02  0.93481328465E+02  0.41800000000E+01 0.  1.
        -11    1    1    2    0    0  0.30209450105E+02 -0.44464219312E+02  0.31862195282E+02  0.62489016338E+02  0.00000000000E+00 0.  1.
         11    1    1    2    0    0  0.74476573772E+01  0.30438504097E+02 -0.13567341745E+02  0.34147370237E+02  0.00000000000E+00 0. -1.
</event>
<event>
 7    1  0.2766180E-009  0.1314695E+03  0.7561462E-02  0.1225291E+00
         -1   -1    0    0    0  501 -0.00000000000E+00  0.00000000000E+00  0.82795942656E+03  0.82795942656E+03  0.00000000000E+00 0.  1.
          1   -1    0    0  501    0  0.00000000000E+00 -0.00000000000E+00 -0.28701606795E+02  0.28701606795E+02  0.00000000000E+00 0. -1.
         25    2    1    2    0    0  0.97439296060E+02  0.20256918793E+01  0.56550758988E+03  0.58731930257E+03  0.12508640658E+03 0.  0.
          5    1    3    3  502    0  0.12256807986E+03 -0.19310483183E+02  0.47311426626E+03  0.48913230347E+03  0.41800000000E+01 0.  1.
         -5    1    3    3    0  502 -0.25128783799E+02  0.21336175062E+02  0.92393323624E+02  0.98186999098E+02  0.41800000000E+01 0.  1.
        -11    1    1    2    0    0 -0.49418995750E+02 -0.21302418896E+02  0.35546556441E+02  0.64494866978E+02  0.00000000000E+00 0. -1.
         11    1    1    2    0    0 -0.48020300310E+02  0.19276727017E+02  0.19820367344E+03  0.20484686380E+03  0.00000000000E+00 0.  1.
</event>
<event>
 7    1  0.2840577E-009  0.1199431E+03  0.7561462E-02  0.1243191E+00
          2   -1    0    0  501    0  0.00000000000E+00  0.00000000000E+00  0.20519026761E+03  0.20519026761E+03  0.00000000000E+00 0. -1.
         -2   -1    0    0    0  501 -0.00000000000E+00 -0.00000000000E+00 -0.78093925850E+02  0.78093925850E+02  0.00000000000E+00 0.  1.
         25    2    1    2    0    0  0.39166373487E+02 -0.49241312039E+02  0.87748238334E+02  0.16524389424E+03  0.12508828733E+03 0.  0.
          5    1    3    3  502    0  0.59220182816E+02  0.22312334615E+02  0.54925498847E+02  0.83899661217E+02  0.41800000000E+01 0.  1.
         -5    1    3    3    0  502 -0.20053809328E+02 -0.71553646654E+02  0.32822739487E+02  0.81344233019E+02  0.41800000000E+01 0.  1.
        -11    1    1    2    0    0 -0.63516904488E+02  0.26861336015E+02  0.31884488945E+01  0.69036908495E+02  0.00000000000E+00 0.  1.
         11    1    1    2    0    0  0.24350531001E+02  0.22379976024E+02  0.36159654527E+02  0.49003390724E+02  0.00000000000E+00 0. -1.
</event>
<event>
 7    1  0.2766180E-009  0.9992052E+02  0.7561462E-02  0.1280463E+00
          2   -1    0    0  501    0  0.00000000000E+00  0.00000000000E+00  0.86752686641E+03  0.86752686641E+03  0.00000000000E+00 0. -1.
         -2   -1    0    0    0  501 -0.00000000000E+00 -0.00000000000E+00 -0.20660473197E+02  0.20660473197E+02  0.00000000000E+00 0.  1.
         25    2    1    2    0    0  0.42464517060E+02  0.32857163790E+02  0.65749559368E+03  0.67144042891E+03  0.12509582500E+03 0.  0.
          5    1    3    3  502    0 -0.15416773853E+02  0.56515981480E+02  0.16842422658E+03  0.17837019251E+03  0.41800000000E+01 0. -1.
         -5    1    3    3    0  502  0.57881290913E+02 -0.23658817690E+02  0.48907136711E+03  0.49307023639E+03  0.41800000000E+01 0. -1.
        -11    1    1    2    0    0 -0.47880003768E+02 -0.44647738626E+02  0.19256116611E+03  0.20338563868E+03  0.00000000000E+00 0. -1.
         11    1    1    2    0    0  0.54154867075E+01  0.11790574836E+02 -0.31903665833E+01  0.13361272027E+02  0.00000000000E+00 0.  1.
</event>
<event>
 7    1  0.2766180E-009  0.1908675E+03  0.7561462E-02  0.1157681E+00
          1   -1    0    0  501    0  0.00000000000E+00  0.00000000000E+00  0.93811814130E+02  0.93811814130E+02  0.00000000000E+00 0. -1.
         -1   -1    0    0    0  501 -0.00000000000E+00 -0.00000000000E+00 -0.49820698884E+03  0.49820698884E+03  0.00000000000E+00 0.  1.
         25    2    1    2    0    0 -0.12108257663E+03 -0.13150627855E+03 -0.13794375921E+03  0.25813173926E+03  0.12509445410E+03 0.  0.
          5    1    3    3  502    0  0.42099740761E+01  0.97956817365E+01  0.12273965424E+02  0.16786955937E+02  0.41800000000E+01 0.  1.
         -5    1    3    3    0  502 -0.12529255070E+03 -0.14130196028E+03 -0.15021772463E+03  0.24134478332E+03  0.41800000000E+01 0.  1.
        -11    1    1    2    0    0  0.10916068538E+03  0.12937577573E+03 -0.27215261218E+03  0.32050146785E+03  0.00000000000E+00 0.  1.
         11    1    1    2    0    0  0.11921891251E+02  0.21305028173E+01  0.57011966739E+01  0.13385595869E+02  0.00000000000E+00 0. -1.
</event>
<event>
 7    1  0.2766180E-009  0.2320959E+03  0.7561462E-02  0.1125173E+00
          2   -1    0    0  501    0  0.00000000000E+00  0.00000000000E+00  0.10801136030E+03  0.10801136030E+03  0.00000000000E+00 0.  1.
         -2   -1    0    0    0  501 -0.00000000000E+00 -0.00000000000E+00 -0.58888772976E+03  0.58888772976E+03  0.00000000000E+00 0. -1.
         25    2    1    2    0    0  0.18781869746E+03 -0.84906505573E+02 -0.11346397634E+03  0.26647360559E+03  0.12509648575E+03 0.  0.
          5    1    3    3  502    0  0.19618699070E+03 -0.10188350356E+03 -0.98832266566E+02  0.24218768121E+03  0.41800000000E+01 0. -1.
         -5    1    3    3    0  502 -0.83682932363E+01  0.16976997983E+02 -0.14631709778E+02  0.24285924385E+02  0.41800000000E+01 0. -1.
        -11    1    1    2    0    0 -0.10093607211E+03  0.91946683861E+02 -0.23828290997E+03  0.27462889234E+03  0.00000000000E+00 0. -1.
         11    1    1    2    0    0 -0.86882625348E+02 -0.70401782878E+01 -0.12912948315E+03  0.15579659212E+03  0.00000000000E+00 0.  1.
</event>
<event>
 7    1  0.2766180E-009  0.8534138E+02  0.7561462E-02  0.1314542E+00
         -2   -1    0    0    0  501 -0.00000000000E+00  0.00000000000E+00  0.55730202370E+02  0.55730202370E+02  0.00000000000E+00 0.  1.
          2   -1    0    0  501    0  0.00000000000E+00 -0.00000000000E+00 -0.40913817319E+03  0.40913817319E+03  0.00000000000E+00 0. -1.
         25    2    1    2    0    0  0.52623167296E+02 -0.32703804924E+02 -0.50958327272E+02  0.14860140794E+03  0.12508753228E+03 0.  0.
          5    1    3    3  502    0  0.65989168925E+02 -0.48728145400E+02  0.11203574224E+02  0.82897497217E+02  0.41800000000E+01 0.  1.
         -5    1    3    3    0  502 -0.13366001629E+02  0.16024340476E+02 -0.62161901496E+02  0.65703910726E+02  0.41800000000E+01 0.  1.
        -11    1    1    2    0    0 -0.16750237382E+02 -0.25793365155E+01 -0.10334672986E+02  0.19850161081E+02  0.00000000000E+00 0.  1.
         11    1    1    2    0    0 -0.35872929915E+02  0.35283141440E+02 -0.29211497056E+03  0.29641680653E+03  0.00000000000E+00 0. -1.
</event>
<event>
 7    1  0.2766180E-009  0.1253129E+03  0.7561462E-02  0.1234581E+00
         -1   -1    0    0    0  501 -0.00000000000E+00  0.00000000000E+00  0.34318443033E+02  0.34318443033E+02  0.00000000000E+00 0.  1.
          1   -1    0    0  501    0  0.00000000000E+00 -0.00000000000E+00 -0.63181042206E+03  0.63181042206E+03  0.00000000000E+00 0. -1.
         25    2    1    2    0    0 -0.49712618967E+02  0.66443820838E+02 -0.44869652231E+03  0.47314077151E+03  0.12508994652E+03 0.  0.
          5    1    3    3  502    0 -0.79553643055E+02  0.24176795150E+02 -0.16586663718E+03  0.18558694264E+03  0.41800000000E+01 0.  1.
         -5    1    3    3    0  502  0.29841024088E+02  0.42267025688E+02 -0.28282988512E+03  0.28755382887E+03  0.41800000000E+01 0.  1.
        -11    1    1    2    0    0  0.48133493080E+02  0.86279311405E+00 -0.30842916767E+02  0.57173972074E+02  0.00000000000E+00 0.  1.
         11    1    1    2    0    0  0.15791258876E+01 -0.67306613952E+02 -0.11795253995E+03  0.13581412151E+03  0.00000000000E+00 0. -1.
</event>
<event>
 7    1  0.2766180E-009  0.1022846E+03  0.7561462E-02  0.1275564E+00
         -4   -1    0    0    0  501 -0.00000000000E+00  0.00000000000E+00  0.10166044771E+03  0.10166044771E+03  0.00000000000E+00 0.  1.
          4   -1    0    0  501    0  0.00000000000E+00 -0.00000000000E+00 -0.15985073809E+03  0.15985073809E+03  0.00000000000E+00 0. -1.
         25    2    1    2    0    0  0.24429688539E+02  0.52911181808E+02  0.70719007791E+00  0.13801719586E+03  0.12510732750E+03 0.  0.
          5    1    3    3  502    0  0.33097558542E+02 -0.30186617494E+02  0.24255996743E+02  0.51112679788E+02  0.41800000000E+01 0. -1.
         -5    1    3    3    0  502 -0.86678700026E+01  0.83097799302E+02 -0.23548806665E+02  0.86904516077E+02  0.41800000000E+01 0. -1.
        -11    1    1    2    0    0 -0.23467378351E+02 -0.46664732457E+00 -0.66473967637E+02  0.70496269262E+02  0.00000000000E+00 0. -1.
         11    1    1    2    0    0 -0.96231018745E+00 -0.52444534483E+02  0.75764871802E+01  0.52997720669E+02  0.00000000000E+00 0.  1.
</event>
<event>
 7    1  0.2766180E-009  0.1569915E+03  0.7561462E-02  0.1192136E+00
          2   -1    0    0  501    0  0.00000000000E+00  0.00000000000E+00  0.67378238189E+02  0.67378238189E+02  0.00000000000E+00 0. -1.
         -2   -1    0    0    0  501 -0.00000000000E+00 -0.00000000000E+00 -0.48048638311E+03  0.48048638311E+03  0.00000000000E+00 0.  1.
         25    2    1    2    0    0  0.71087688750E+02 -0.10565225635E+03 -0.11741765733E+03  0.21365869559E+03  0.12508906099E+03 0.  0.
          5    1    3    3  502    0  0.71378562870E+02 -0.13049260539E+03 -0.81111974267E+02  0.16946930126E+03  0.41800000000E+01 0. -1.
         -5    1    3    3    0  502 -0.29087412076E+00  0.24840349037E+02 -0.36305683068E+02  0.44189394328E+02  0.41800000000E+01 0. -1.
        -11    1    1    2    0    0 -0.80619593718E+02  0.10143604454E+03 -0.29667600868E+03  0.32373668953E+03  0.00000000000E+00 0.  1.
         11    1    1    2    0    0  0.95319049681E+01  0.42162118102E+01  0.98552109503E+00  0.10469236179E+02  0.00000000000E+00 0. -1.
</event>
<event>
 7    1  0.2766180E-009  0.1122212E+03  0.7561462E-02  0.1256511E+00
          1   -1    0    0  501    0  0.00000000000E+00  0.00000000000E+00  0.41457640291E+03  0.41457640291E+03  0.00000000000E+00 0. -1.
         -1   -1    0    0    0  501 -0.00000000000E+00 -0.00000000000E+00 -0.40171960198E+02  0.40171960198E+02  0.00000000000E+00 0.  1.
         25    2    1    2    0    0  0.67393741238E+02  0.33396838840E+01  0.16184833122E+03  0.21539646182E+03  0.12509070150E+03 0.  0.
          5    1    3    3  502    0  0.97356406553E+02  0.15532199847E+02  0.79149031659E+02  0.12649727563E+03  0.41800000000E+01 0. -1.
         -5    1    3    3    0  502 -0.29962665315E+02 -0.12192515963E+02  0.82699299561E+02  0.88899186196E+02  0.41800000000E+01 0. -1.
        -11    1    1    2    0    0 -0.58323804226E+01  0.24788733229E+02  0.12922496888E+02  0.28556765963E+02  0.00000000000E+00 0.  1.
         11    1    1    2    0    0 -0.61561360815E+02 -0.28128417113E+02  0.19963361460E+03  0.21079513532E+03  0.00000000000E+00 0. -1.
</event>
<event>
 7    1  0.2766180E-009  0.7745607E+02  0.7561462E-02  0.1336430E+00
          2   -1    0    0  501    0  0.00000000000E+00  0.00000000000E+00  0.35655537989E+03  0.35655537989E+03  0.00000000000E+00 0.  1.
         -2   -1    0    0    0  501 -0.00000000000E+00 -0.00000000000E+00 -0.36468683841E+02  0.36468683841E+02  0.00000000000E+00 0. -1.
         25    2    1    2    0    0  0.26368101688E+02 -0.63464975912E+01  0.14343366049E+03  0.19223975811E+03  0.12508938731E+03 0.  0.
          5    1    3    3  502    0 -0.34486728362E+01 -0.45267296154E+02  0.56577007211E+01  0.45940215747E+02  0.41800000000E+01 0.  1.
         -5    1    3    3    0  502  0.29816774524E+02  0.38920798563E+02  0.13777595977E+03  0.14629954236E+03  0.41800000000E+01 0.  1.
        -11    1    1    2    0    0 -0.21557460964E+02 -0.22329643383E+02  0.16742591318E+03  0.17027851744E+03  0.00000000000E+00 0.  1.
         11    1    1    2    0    0 -0.48106407242E+01  0.28676140974E+02  0.92271223725E+01  0.30505788182E+02  0.00000000000E+00 0. -1.
</event>
<event>
 7    1  0.2766180E-009  0.1269161E+03  0.7561462E-02  0.1232105E+00
         -1   -1    0    0    0  501 -0.00000000000E+00  0.00000000000E+00  0.40481436009E+02  0.40481436009E+02  0.00000000000E+00 0.  1.
          1   -1    0    0  501    0  0.00000000000E+00 -0.00000000000E+00 -0.52559902810E+03  0.52559902810E+03  0.00000000000E+00 0. -1.
         25    2    1    2    0    0 -0.69724434333E+02 -0.45640248611E+02 -0.36227247398E+03  0.39221606623E+03  0.12509024009E+03 0.  0.
          5    1    3    3  502    0  0.11996313341E+02  0.27091691851E+02 -0.29996819887E+02  0.42369244794E+02  0.41800000000E+01 0.  1.
         -5    1    3    3    0  502 -0.81720747674E+02 -0.72731940462E+02 -0.33227565409E+03  0.34984682143E+03  0.41800000000E+01 0.  1.
        -11    1    1    2    0    0  0.33186406087E+02 -0.20401122871E+02 -0.13965683195E+02  0.41383374325E+02  0.00000000000E+00 0.  1.
         11    1    1    2    0    0  0.36538028245E+02  0.66041371482E+02 -0.10887943492E+03  0.13248102356E+03  0.00000000000E+00 0. -1.
</event>
<event>
 7    1  0.2766180E-009  0.1010133E+03  0.7561462E-02  0.1278179E+00
          1   -1    0    0  501    0  0.00000000000E+00  0.00000000000E+00  0.49363129675E+03  0.49363129675E+03  0.00000000000E+00 0. -1.
         -1   -1    0    0    0  501 -0.00000000000E+00 -0.00000000000E+00 -0.31413622576E+02  0.31413622576E+02  0.00000000000E+00 0.  1.
         25    2    1    2    0    0  0.40074059094E+02  0.50896678761E+01  0.15836127540E+03  0.20580684187E+03  0.12508528164E+03 0.  0.
          5    1    3    3  502    0  0.26266931590E+01  0.54081442426E+02  0.27034889336E+02  0.60663494568E+02  0.41800000000E+01 0. -1.
         -5    1    3    3    0  502  0.37447365935E+02 -0.48991774550E+02  0.13132638606E+03  0.14514334730E+03  0.41800000000E+01 0. -1.
        -11    1    1    2    0    0 -0.40697711153E+02 -0.36398148972E+02  0.25797000890E+03  0.26368476337E+03  0.00000000000E+00 0. -1.
         11    1    1    2    0    0  0.62365205906E+00  0.31308481096E+02  0.45886389876E+02  0.55553314089E+02  0.00000000000E+00 0.  1.
</event>
<event>
 7    1  0.2766180E-009  0.1823218E+03  0.7561462E-02  0.1165575E+00
         -2   -1    0    0    0  501 -0.00000000000E+00  0.00000000000E+00  0.21189437310E+02  0.21189437310E+02  0.00000000000E+00 0.  1.
          2   -1    0    0  501    0  0.00000000000E+00 -0.00000000000E+00 -0.17565465198E+04  0.17565465198E+04  0.00000000000E+00 0. -1.
         25    2    1    2    0    0  0.12342113334E+03  0.87246130729E+02 -0.11463961834E+04  0.11630600804E+04  0.12505949667E+03 0.  0.
          5    1    3    3  502    0 -0.25305877934E+02  0.98123415623E+01 -0.20606903953E+03  0.20789081499E+03  0.41800000000E+01 0. -1.
         -5    1    3    3    0  502  0.14872701128E+03  0.77433789166E+02 -0.94032714389E+03  0.95516926538E+03  0.41800000000E+01 0. -1.
        -11    1    1    2    0    0 -0.12811373424E+03 -0.59401283600E+02 -0.53996625884E+03  0.55812651082E+03  0.00000000000E+00 0.  1.
         11    1    1    2    0    0  0.46926009011E+01 -0.27844847129E+02 -0.48994640242E+02  0.56549365932E+02  0.00000000000E+00 0. -1.
</event>
<event>
 7    1  0.2766180E-009  0.5926664E+02  0.7561462E-02  0.1400935E+00
         -1   -1    0    0    0  501 -0.00000000000E+00  0.00000000000E+00  0.21959849405E+03  0.21959849405E+03  0.00000000000E+00 0.  1.
          1   -1    0    0  501    0  0.00000000000E+00 -0.00000000000E+00 -0.52024394679E+02  0.52024394679E+02  0.00000000000E+00 0. -1.
         25    2    1    2    0    0  0.22462186143E+02  0.10367363977E+01  0.11373529907E+03  0.17056285221E+03  0.12510133360E+03 0.  0.
          5    1    3    3  502    0 -0.10743976238E+02 -0.88491114033E+01  0.13087767034E+03  0.13168210505E+03  0.41800000000E+01 0.  1.
         -5    1    3    3    0  502  0.33206162380E+02  0.98858478010E+01 -0.17142371265E+02  0.38880747155E+02  0.41800000000E+01 0.  1.
        -11    1    1    2    0    0  0.23000583178E+02 -0.47581011363E+01  0.50051198823E+02  0.55288234341E+02  0.00000000000E+00 0.  1.
         11    1    1    2    0    0 -0.45462769321E+02  0.37213647387E+01  0.37876014743E+01  0.45771802180E+02  0.00000000000E+00 0. -1.
</event>
<event>
 7    1  0.2766180E-009  0.1038243E+03  0.7561462E-02  0.1272454E+00
         -2   -1    0    0    0  501 -0.00000000000E+00  0.00000000000E+00  0.24386907241E+02  0.24386907241E+02  0.00000000000E+00 0.  1.
          2   -1    0    0  501    0  0.00000000000E+00 -0.00000000000E+00 -0.46379217104E+03  0.46379217104E+03  0.00000000000E+00 0. -1.
         25    2    1    2    0    0  0.31730384510E+01 -0.32774705866E+02 -0.22316602158E+03  0.25794427638E+03  0.12509167444E+03 0.  0.
          5    1    3    3  502    0  0.58225321921E+02  0.10332050790E+02 -0.10480683973E+03  0.12041131774E+03  0.41800000000E+01 0. -1.
         -5    1    3    3    0  502 -0.55052283470E+02 -0.43106756656E+02 -0.11835918185E+03  0.13753295864E+03  0.41800000000E+01 0. -1.
        -11    1    1    2    0    0  0.28447318028E+02 -0.51849028985E+01 -0.95411658075E+02  0.99697129436E+02  0.00000000000E+00 0. -1.
         11    1    1    2    0    0 -0.31620356479E+02  0.37959608765E+02 -0.12082758415E+03  0.13053767246E+03  0.00000000000E+00 0.  1.
</event>
<event>
 7    1  0.2766180E-009  0.1227136E+03  0.7561462E-02  0.1238686E+00
          2   -1    0    0  501    0  0.00000000000E+00  0.00000000000E+00  0.18697977640E+03  0.18697977640E+03  0.00000000000E+00 0.  1.
         -2   -1    0    0    0  501 -0.00000000000E+00 -0.00000000000E+00 -0.98158496666E+02  0.98158496666E+02  0.00000000000E+00 0. -1.
         25    2    1    2    0    0 -0.71872357622E+02 -0.38051592293E+02  0.47622973457E+02  0.15661491487E+03  0.12508686778E+03 0.  0.
          5    1    3    3  502    0 -0.56961443896E+02  0.22974247477E+02  0.66758938448E+02  0.90811069813E+02  0.41800000000E+01 0.  1.
         -5    1    3    3    0  502 -0.14910913726E+02 -0.61025839770E+02 -0.19135964992E+02  0.65803845054E+02  0.41800000000E+01 0.  1.
        -11    1    1    2    0    0  0.37933665044E+02 -0.27659655766E+02  0.23391825460E+02  0.52451854106E+02  0.00000000000E+00 0.  1.
         11    1    1    2    0    0  0.33938692577E+02  0.65711248059E+02  0.17806480814E+02  0.76071504089E+02  0.00000000000E+00 0. -1.
</event>
<event>
 7    1  0.2766180E-009  0.7509687E+02  0.7561462E-02  0.1343571E+00
         -1   -1    0    0    0  501 -0.00000000000E+00  0.00000000000E+00  0.51863575875E+02  0.51863575875E+02  0.00000000000E+00 0.  1.
          1   -1    0    0  501    0  0.00000000000E+00 -0.00000000000E+00 -0.26899893452E+03  0.26899893452E+03  0.00000000000E+00 0. -1.
         25    2    1    2    0    0  0.36520795428E+02 -0.29123870237E+02 -0.13082429873E+03  0.18695214574E+03  0.12511650308E+03 0.  0.
          5    1    3    3  502    0  0.37815662254E+02 -0.14777097060E+02 -0.15401620941E+03  0.15933252044E+03  0.41800000000E+01 0. -1.
         -5    1    3    3    0  502 -0.12948668261E+01 -0.14346773177E+02  0.23191910681E+02  0.27619625300E+02  0.41800000000E+01 0. -1.
        -11    1    1    2    0    0  0.18129583764E+02  0.34997336223E+02 -0.62764665924E+02  0.74114092039E+02  0.00000000000E+00 0.  1.
         11    1    1    2    0    0 -0.54650379192E+02 -0.58734659869E+01 -0.23546393994E+02  0.59796272615E+02  0.00000000000E+00 0. -1.
</event>
<event>
 7    1  0.2766180E-009  0.1150557E+03  0.7561462E-02  0.1251484E+00
         -2   -1    0    0    0  501 -0.00000000000E+00  0.00000000000E+00  0.23208330210E+03  0.23208330210E+03  0.00000000000E+00 0.  1.
          2   -1    0    0  501    0  0.00000000000E+00 -0.00000000000E+00 -0.64006279993E+02  0.64006279993E+02  0.00000000000E+00 0. -1.
         25    2    1    2    0    0  0.54094847841E+02  0.18434229441E+02  0.12410419694E+03  0.18524630820E+03  0.12509304387E+03 0.  0.
          5    1    3    3  502    0  0.52375232286E+02 -0.45122826759E+02  0.40851617157E+02  0.80408715175E+02  0.41800000000E+01 0.  1.
         -5    1    3    3    0  502  0.17196155549E+01  0.63557056200E+02  0.83252579783E+02  0.10483759302E+03  0.41800000000E+01 0.  1.
        -11    1    1    2    0    0 -0.74253252581E+02 -0.87351584971E+01  0.46936703103E+02  0.88277418466E+02  0.00000000000E+00 0.  1.
         11    1    1    2    0    0  0.20158404740E+02 -0.96990709438E+01 -0.29638779355E+01  0.22565855429E+02  0.00000000000E+00 0. -1.
</event>
<event>
 7    1  0.2766180E-009  0.9351040E+02  0.7561462E-02  0.1294567E+00
         -2   -1    0    0    0  501 -0.00000000000E+00  0.00000000000E+00  0.11027608689E+03  0.11027608689E+03  0.00000000000E+00 0.  1.
          2   -1    0    0  501    0  0.00000000000E+00 -0.00000000000E+00 -0.13428363238E+03  0.13428363238E+03  0.00000000000E+00 0. -1.
         25    2    1    2    0    0 -0.24697196755E+02  0.50811397923E+02 -0.22283639481E+02  0.13905513719E+03  0.12509204972E+03 0.  0.
          5    1    3    3  502    0 -0.49350562700E+02  0.24967292676E+02  0.39136434976E+02  0.67882079262E+02  0.41800000000E+01 0.  1.
         -5    1    3    3    0  502  0.24653365945E+02  0.25844105248E+02 -0.61420074457E+02  0.71173057928E+02  0.41800000000E+01 0.  1.
        -11    1    1    2    0    0  0.39710380671E+02 -0.64193911959E+02 -0.20258298596E+02  0.78154790817E+02  0.00000000000E+00 0. -1.
         11    1    1    2    0    0 -0.15013183917E+02  0.13382514036E+02  0.18534392587E+02  0.27349791257E+02  0.00000000000E+00 0.  1.
</event>
<event>
 7    1  0.2766180E-009  0.1448812E+03  0.7561462E-02  0.1206908E+00
         -3   -1    0    0    0  501 -0.00000000000E+00  0.00000000000E+00  0.64162549667E+02  0.64162549667E+02  0.00000000000E+00 0. -1.
          3   -1    0    0  501    0  0.00000000000E+00 -0.00000000000E+00 -0.34748040556E+03  0.34748040556E+03  0.00000000000E+00 0.  1.
         25    2    1    2    0    0 -0.80028255411E+02  0.61676139137E+02 -0.13386073086E+03  0.20922134657E+03  0.12508560585E+03 0.  0.
          5    1    3    3  502    0 -0.21870952767E+02  0.90362180279E+02 -0.97380129604E+02  0.13469975591E+03  0.41800000000E+01 0. -1.
         -5    1    3    3    0  502 -0.58157302643E+02 -0.28686041143E+02 -0.36480601260E+02  0.74521590667E+02  0.41800000000E+01 0. -1.
        -11    1    1    2    0    0 -0.20090603564E+01  0.17551700201E+02 -0.42669779533E+02  0.46182340660E+02  0.00000000000E+00 0.  1.
         11    1    1    2    0    0  0.82037315767E+02 -0.79227839338E+02 -0.10678734549E+03  0.15623926799E+03  0.00000000000E+00 0. -1.
</event>
<event>
 7    1  0.2766180E-009  0.1285303E+03  0.7561462E-02  0.1229653E+00
          2   -1    0    0  501    0  0.00000000000E+00  0.00000000000E+00  0.13820391415E+04  0.13820391415E+04  0.00000000000E+00 0.  1.
         -2   -1    0    0    0  501 -0.00000000000E+00 -0.00000000000E+00 -0.14342748154E+02  0.14342748154E+02  0.00000000000E+00 0. -1.
         25    2    1    2    0    0  0.79285849837E+02  0.31472404954E+02  0.85362805932E+03  0.86695236189E+03  0.12509506735E+03 0.  0.
          5    1    3    3  502    0  0.25008719051E+02  0.63007680775E+02  0.22092678825E+03  0.23113096295E+03  0.41800000000E+01 0. -1.
         -5    1    3    3    0  502  0.54277130786E+02 -0.31535275821E+02  0.63270127107E+03  0.63582139895E+03  0.41800000000E+01 0. -1.
        -11    1    1    2    0    0 -0.24282435703E+02 -0.59668879481E+02  0.24190897179E+03  0.25033969421E+03  0.00000000000E+00 0. -1.
         11    1    1    2    0    0 -0.55003414134E+02  0.28196474527E+02  0.27215936228E+03  0.27908983360E+03  0.00000000000E+00 0.  1.
</event>
<event>
 7    1  0.2766180E-009  0.1191278E+03  0.7561462E-02  0.1244543E+00
         -2   -1    0    0    0  501 -0.00000000000E+00  0.00000000000E+00  0.23733813987E+03  0.23733813987E+03  0.00000000000E+00 0.  1.
          2   -1    0    0  501    0  0.00000000000E+00 -0.00000000000E+00 -0.10015497421E+03  0.10015497421E+03  0.00000000000E+00 0. -1.
         25    2    1    2    0    0  0.18702720784E+02 -0.97978539327E+02  0.12211154286E+03  0.20127300013E+03  0.12509998301E+03 0.  0.
          5    1    3    3  502    0  0.30670852169E+02 -0.45182946253E+02 -0.12453019753E+02  0.56167160385E+02  0.41800000000E+01 0. -1.
         -5    1    3    3    0  502 -0.11968131384E+02 -0.52795593075E+02  0.13456456262E+03  0.14510583975E+03  0.41800000000E+01 0. -1.
        -11    1    1    2    0    0  0.29047917563E+00 -0.14810295315E+02 -0.11552582630E+02  0.18785403666E+02  0.00000000000E+00 0. -1.
         11    1    1    2    0    0 -0.18993199960E+02  0.11278883464E+03  0.26624205430E+02  0.11743471028E+03  0.00000000000E+00 0.  1.
</event>
<event>
 7    1  0.2766180E-009  0.8592148E+02  0.7561462E-02  0.1313040E+00
          1   -1    0    0  501    0  0.00000000000E+00  0.00000000000E+00  0.49530441768E+03  0.49530441768E+03  0.00000000000E+00 0. -1.
         -1   -1    0    0    0  501 -0.00000000000E+00 -0.00000000000E+00 -0.27164871721E+02  0.27164871721E+02  0.00000000000E+00 0.  1.
         25    2    1    2    0    0 -0.34855167595E+02 -0.21725596864E+02  0.27571265745E+03  0.30553511793E+03  0.12508938623E+03 0.  0.
          5    1    3    3  502    0 -0.53765945353E+02 -0.45313671022E+02  0.26334772259E+03  0.27260521098E+03  0.41800000000E+01 0.  1.
         -5    1    3    3    0  502  0.18910777759E+02  0.23588074159E+02  0.12364934863E+02  0.32929906956E+02  0.41800000000E+01 0.  1.
        -11    1    1    2    0    0  0.43847283316E+02 -0.36144426131E+01  0.32335986776E+02  0.54600956863E+02  0.00000000000E+00 0.  1.
         11    1    1    2    0    0 -0.89921157209E+01  0.25340039477E+02  0.16009090173E+03  0.16233321460E+03  0.00000000000E+00 0. -1.
</event>
<event>
 7    1  0.2766180E-009  0.1041114E+03  0.7561462E-02  0.1271880E+00
          2   -1    0    0  501    0  0.00000000000E+00  0.00000000000E+00  0.59677227601E+03  0.59677227601E+03  0.00000000000E+00 0. -1.
         -2   -1    0    0    0  501 -0.00000000000E+00 -0.00000000000E+00 -0.34770666792E+02  0.34770666792E+02  0.00000000000E+00 0.  1.
         25    2    1    2    0    0 -0.12029754058E+01  0.88638287161E+02  0.36643233997E+03  0.39721416589E+03  0.12509292828E+03 0.  0.
          5    1    3    3  502    0  0.22726335630E+02 -0.26276882998E+01  0.23063236838E+03  0.23180196898E+03  0.41800000000E+01 0.  1.
         -5    1    3    3    0  502 -0.23929311036E+02  0.91265975461E+02  0.13579997159E+03  0.16541219691E+03  0.41800000000E+01 0.  1.
        -11    1    1    2    0    0  0.93731683438E+01 -0.60521143922E+02  0.33839379315E+02  0.69969770179E+02  0.00000000000E+00 0.  1.
         11    1    1    2    0    0 -0.81701929380E+01 -0.28117143239E+02  0.16172988994E+03  0.16435900674E+03  0.00000000000E+00 0. -1.
</event>
<event>
 7    1  0.2766180E-009  0.1418841E+03  0.7561462E-02  0.1210816E+00
          1   -1    0    0  501    0  0.00000000000E+00  0.00000000000E+00  0.98855270235E+02  0.98855270235E+02  0.00000000000E+00 0. -1.
         -1   -1    0    0    0  501 -0.00000000000E+00 -0.00000000000E+00 -0.27248210289E+03  0.27248210289E+03  0.00000000000E+00 0.  1.
         25    2    1    2    0    0 -0.11581823975E+03  0.39729409216E+02 -0.10229966342E+03  0.20274365591E+03  0.12508988073E+03 0.  0.
          5    1    3    3  502    0 -0.66339593452E+01  0.18935226273E+02  0.25894728812E+02  0.33023651991E+02  0.41800000000E+01 0.  1.
         -5    1    3    3    0  502 -0.10918428040E+03  0.20794182943E+02 -0.12819439223E+03  0.16972000392E+03  0.41800000000E+01 0.  1.
        -11    1    1    2    0    0  0.88853105856E+02 -0.68815895258E+02 -0.45403944400E+02  0.12121064321E+03  0.00000000000E+00 0.  1.
         11    1    1    2    0    0  0.26965133890E+02  0.29086486043E+02 -0.25923224835E+02  0.47383074002E+02  0.00000000000E+00 0. -1.
</event>
<event>
 7    1  0.2766180E-009  0.8981191E+02  0.7561462E-02  0.1303308E+00
          1   -1    0    0  501    0  0.00000000000E+00  0.00000000000E+00  0.12784187237E+03  0.12784187237E+03  0.00000000000E+00 0. -1.
         -1   -1    0    0    0  501 -0.00000000000E+00 -0.00000000000E+00 -0.11612053305E+03  0.11612053305E+03  0.00000000000E+00 0.  1.
         25    2    1    2    0    0 -0.16867198790E+01 -0.10541731027E+02  0.63691738994E+02  0.14077512806E+03  0.12508807277E+03 0.  0.
          5    1    3    3  502    0  0.21662272463E+00 -0.66566236282E+02  0.48738896722E+02  0.82607888194E+02  0.41800000000E+01 0.  1.
         -5    1    3    3    0  502 -0.19033426036E+01  0.56024505255E+02  0.14952842272E+02  0.58167239870E+02  0.41800000000E+01 0.  1.
        -11    1    1    2    0    0 -0.25598464709E+02  0.14055095942E+02 -0.66097633335E+02  0.72261499084E+02  0.00000000000E+00 0.  1.
         11    1    1    2    0    0  0.27285184588E+02 -0.35133649154E+01  0.14127233652E+02  0.30925778272E+02  0.00000000000E+00 0. -1.
</event>
<event>
 7    1  0.2766180E-009  0.1865047E+03  0.7561462E-02  0.1161652E+00
          1   -1    0    0  501    0  0.00000000000E+00  0.00000000000E+00  0.11460187573E+04  0.11460187573E+04  0.00000000000E+00 0. -1.
         -1   -1    0    0    0  501 -0.00000000000E+00 -0.00000000000E+00 -0.36611055464E+02  0.36611055464E+02  0.00000000000E+00 0.  1.
         25    2    1    2    0    0  0.98568353611E+02 -0.12835796859E+03  0.40260822310E+03  0.45158998958E+03  0.12509456003E+03 0.  0.
          5    1    3    3  502    0  0.74004558056E+02 -0.22171316099E+02  0.26463198362E+03  0.27570963172E+03  0.41800000000E+01 0.  1.
         -5    1    3    3    0  502  0.24563795555E+02 -0.10618665249E+03  0.13797623948E+03  0.17588035786E+03  0.41800000000E+01 0.  1.
        -11    1    1    2    0    0 -0.10555954242E+03  0.67462660205E+02  0.46210422380E+03  0.47878423238E+03  0.00000000000E+00 0. -1.
         11    1    1    2    0    0  0.69911888079E+01  0.60895308388E+02  0.24469525491E+03  0.25225559078E+03  0.00000000000E+00 0.  1.
</event>
<event>
 7    1  0.2782807E-009  0.1203242E+03  0.7561462E-02  0.1242563E+00
         -2   -1    0    0    0  501 -0.00000000000E+00  0.00000000000E+00  0.13485786387E+02  0.13485786387E+02  0.00000000000E+00 0.  1.
          2   -1    0    0  501    0  0.00000000000E+00 -0.00000000000E+00 -0.11201017737E+04  0.11201017737E+04  0.00000000000E+00 0. -1.
         25    2    1    2    0    0  0.47366229417E+02 -0.23402004273E+02 -0.72175808479E+03  0.73442067692E+03  0.12509110377E+03 0.  0.
          5    1    3    3  502    0  0.75707223796E+02 -0.54595698093E+02 -0.49379684997E+03  0.50255852935E+03  0.41800000000E+01 0. -1.
         -5    1    3    3    0  502 -0.28340994379E+02  0.31193693820E+02 -0.22796123482E+03  0.23186214757E+03  0.41800000000E+01 0. -1.
        -11    1    1    2    0    0 -0.27885696589E+02  0.58451966573E+02 -0.20946156017E+03  0.21924504477E+03  0.00000000000E+00 0.  1.
         11    1    1    2    0    0 -0.19480532828E+02 -0.35049962300E+02 -0.17539634235E+03  0.17992183838E+03  0.00000000000E+00 0. -1.
</event>
<event>
 7    1  0.2766180E-009  0.1421744E+03  0.7561462E-02  0.1210433E+00
          1   -1    0    0  501    0  0.00000000000E+00  0.00000000000E+00  0.33196225091E+03  0.33196225091E+03  0.00000000000E+00 0. -1.
         -1   -1    0    0    0  501 -0.00000000000E+00 -0.00000000000E+00 -0.80942721232E+02  0.80942721232E+02  0.00000000000E+00 0.  1.
         25    2    1    2    0    0  0.93386275693E+02 -0.53368701403E+02  0.20433763912E+03  0.26262535365E+03  0.12509592656E+03 0.  0.
          5    1    3    3  502    0  0.66956848640E+02 -0.83339246938E+02  0.84804866877E+02  0.13652101489E+03  0.41800000000E+01 0.  1.
         -5    1    3    3    0  502  0.26429427053E+02  0.29970545535E+02  0.11953277225E+03  0.12610433876E+03  0.41800000000E+01 0.  1.
        -11    1    1    2    0    0 -0.99480702403E+02  0.17753920387E+02  0.52183110026E+02  0.11373077337E+03  0.00000000000E+00 0.  1.
         11    1    1    2    0    0  0.60944267109E+01  0.35614781015E+02 -0.55012194736E+01  0.36548845117E+02  0.00000000000E+00 0. -1.
</event>
<event>
 7    1  0.2766180E-009  0.1975289E+03  0.7561462E-02  0.1151841E+00
          1   -1    0    0  501    0  0.00000000000E+00  0.00000000000E+00  0.95722120897E+03  0.95722120897E+03  0.00000000000E+00 0. -1.
         -1   -1    0    0    0  501 -0.00000000000E+00 -0.00000000000E+00 -0.49287931613E+02  0.49287931613E+02  0.00000000000E+00 0.  1.
         25    2    1    2    0    0 -0.17194778780E+03  0.64308617703E+02  0.56567384646E+03  0.60772998511E+03  0.12508874527E+03 0.  0.
          5    1    3    3  502    0 -0.23440718805E+02  0.51237077764E+02  0.69179175627E+02  0.89319293416E+02  0.41800000000E+01 0. -1.
         -5    1    3    3    0  502 -0.14850706900E+03  0.13071539939E+02  0.49649467083E+03  0.51841069169E+03  0.41800000000E+01 0. -1.
        -11    1    1    2    0    0  0.11075746405E+03 -0.16960232800E+02  0.27236872853E+03  0.29451585632E+03  0.00000000000E+00 0. -1.
         11    1    1    2    0    0  0.61190323748E+02 -0.47348384904E+02  0.69890702369E+02  0.10426329916E+03  0.00000000000E+00 0.  1.
</event>
<event>
 7    1  0.2766180E-009  0.1062957E+03  0.7561462E-02  0.1267588E+00
          1   -1    0    0  501    0  0.00000000000E+00  0.00000000000E+00  0.69423843584E+03  0.69423843584E+03  0.00000000000E+00 0. -1.
         -1   -1    0    0    0  501 -0.00000000000E+00 -0.00000000000E+00 -0.20967422165E+02  0.20967422165E+02  0.00000000000E+00 0.  1.
         25    2    1    2    0    0 -0.20389952456E+02  0.49819859390E+02  0.32449815811E+03  0.35191534559E+03  0.12509031657E+03 0.  0.
          5    1    3    3  502    0  0.26625579085E+02 -0.22404981649E+02  0.33829930307E+02  0.48711818370E+02  0.41800000000E+01 0. -1.
         -5    1    3    3    0  502 -0.47015531541E+02  0.72224841039E+02  0.29066822780E+03  0.30320352722E+03  0.41800000000E+01 0. -1.
        -11    1    1    2    0    0 -0.27671598793E+02 -0.24399336115E+02  0.68600909317E+02  0.77891782248E+02  0.00000000000E+00 0.  1.
         11    1    1    2    0    0  0.48061551249E+02 -0.25420523275E+02  0.28017194625E+03  0.28539873016E+03  0.00000000000E+00 0. -1.
</event>
<event>
 7    1  0.2766180E-009  0.1623011E+03  0.7561462E-02  0.1186123E+00
          1   -1    0    0  501    0  0.00000000000E+00  0.00000000000E+00  0.13773144970E+03  0.13773144970E+03  0.00000000000E+00 0. -1.
         -1   -1    0    0    0  501 -0.00000000000E+00 -0.00000000000E+00 -0.28424289243E+03  0.28424289243E+03  0.00000000000E+00 0.  1.
         25    2    1    2    0    0 -0.44100517882E+02  0.15331121787E+03 -0.31152118307E+02  0.20510259052E+03  0.12508969967E+03 0.  0.
          5    1    3    3  502    0  0.51245834362E+01  0.50212167115E+02  0.44990224381E+02  0.67743012714E+02  0.41800000000E+01 0. -1.
         -5    1    3    3    0  502 -0.49225101318E+02  0.10309905075E+03 -0.76142342688E+02  0.13735957781E+03  0.41800000000E+01 0. -1.
        -11    1    1    2    0    0  0.25311815450E+02 -0.98049849011E+02 -0.12151696649E+03  0.15817975230E+03  0.00000000000E+00 0.  1.
         11    1    1    2    0    0  0.18788702432E+02 -0.55261368858E+02  0.61576420715E+01  0.58691999310E+02  0.00000000000E+00 0. -1.
</event>
<event>
 7    1  0.2766180E-009  0.1441892E+03  0.7561462E-02  0.1207801E+00
         -2   -1    0    0    0  501 -0.00000000000E+00  0.00000000000E+00  0.20758748378E+03  0.20758748378E+03  0.00000000000E+00 0. -1.
          2   -1    0    0  501    0  0.00000000000E+00 -0.00000000000E+00 -0.20390962546E+03  0.20390962546E+03  0.00000000000E+00 0.  1.
         25    2    1    2    0    0  0.91566641290E+02 -0.10785719803E+03  0.10379553870E+03  0.21549709253E+03  0.12509139886E+03 0.  0.
          5    1    3    3  502    0  0.29794886913E+02 -0.63423710944E+02 -0.17409851114E+02  0.72324807030E+02  0.41800000000E+01 0.  1.
         -5    1    3    3    0  502  0.61771754378E+02 -0.44433487083E+02  0.12120538982E+03  0.14317228550E+03  0.41800000000E+01 0.  1.
        -11    1    1    2    0    0 -0.73202358477E+02  0.92984502435E+02 -0.30110626103E+02  0.12211205012E+03  0.00000000000E+00 0. -1.
         11    1    1    2    0    0 -0.18364282813E+02  0.14872695593E+02 -0.70007054284E+02  0.73887966591E+02  0.00000000000E+00 0.  1.
</event>
<event>
 7    1  0.2766180E-009  0.1330874E+03  0.7561462E-02  0.1222945E+00
         -2   -1    0    0    0  501 -0.00000000000E+00  0.00000000000E+00  0.20554919452E+02  0.20554919452E+02  0.00000000000E+00 0.  1.
          2   -1    0    0  501    0  0.00000000000E+00 -0.00000000000E+00 -0.99479848233E+03  0.99479848233E+03  0.00000000000E+00 0. -1.
         25    2    1    2    0    0  0.86603315672E+02  0.32328830254E+02 -0.52805592435E+03  0.55048633564E+03  0.12508740517E+03 0.  0.
          5    1    3    3  502    0  0.45255147423E+02 -0.44806400489E+02 -0.16266326626E+03  0.17473537846E+03  0.41800000000E+01 0. -1.
         -5    1    3    3    0  502  0.41348168249E+02  0.77135230743E+02 -0.36539265809E+03  0.37575095718E+03  0.41800000000E+01 0. -1.
        -11    1    1    2    0    0 -0.85827779269E+02 -0.35030853302E+01 -0.40838754868E+03  0.41732369836E+03  0.00000000000E+00 0. -1.
         11    1    1    2    0    0 -0.77553640324E+00 -0.28825744924E+02 -0.37800089854E+02  0.47543367782E+02  0.00000000000E+00 0.  1.
</event>
<event>
 7    1  0.2766180E-009  0.6776545E+02  0.7561462E-02  0.1367861E+00
         -1   -1    0    0    0  501 -0.00000000000E+00  0.00000000000E+00  0.41185383086E+02  0.41185383086E+02  0.00000000000E+00 0.  1.
          1   -1    0    0  501    0  0.00000000000E+00 -0.00000000000E+00 -0.37961226356E+03  0.37961226356E+03  0.00000000000E+00 0. -1.
         25    2    1    2    0    0  0.19370209483E+02  0.94899930670E+01 -0.24147915937E+03  0.27281033506E+03  0.12509208417E+03 0.  0.
          5    1    3    3  502    0 -0.11841184466E+01  0.35737096239E+02 -0.79383384771E+01  0.36865048513E+02  0.41800000000E+01 0. -1.
         -5    1    3    3    0  502  0.20554327929E+02 -0.26247103172E+02 -0.23354082089E+03  0.23594528655E+03  0.41800000000E+01 0. -1.
        -11    1    1    2    0    0 -0.22502743077E+02 -0.34246626249E+02  0.65725669286E+01  0.41501849254E+02  0.00000000000E+00 0.  1.
         11    1    1    2    0    0  0.31325335943E+01  0.24756633182E+02 -0.10352028803E+03  0.10648546233E+03  0.00000000000E+00 0. -1.
</event>
<event>
 7    1  0.2766180E-009  0.1534477E+03  0.7561462E-02  0.1196299E+00
         -4   -1    0    0    0  501 -0.00000000000E+00  0.00000000000E+00  0.37325928435E+02  0.37325928435E+02  0.00000000000E+00 0.  1.
          4   -1    0    0  501    0  0.00000000000E+00 -0.00000000000E+00 -0.76319118753E+03  0.76319118753E+03  0.00000000000E+00 0. -1.
         25    2    1    2    0    0  0.66800058156E+02  0.10919108668E+03 -0.36601383812E+03  0.40742985231E+03  0.12509202084E+03 0.  0.
          5    1    3    3  502    0 -0.29856324566E+02 -0.32178670589E+01 -0.53030112803E+02  0.61085350526E+02  0.41800000000E+01 0. -1.
         -5    1    3    3    0  502  0.96656382722E+02  0.11240895374E+03 -0.31298372531E+03  0.34634450178E+03  0.41800000000E+01 0. -1.
        -11    1    1    2    0    0 -0.13304846924E+02 -0.28517491980E+02 -0.14911512048E+02  0.34822686456E+02  0.00000000000E+00 0.  1.
         11    1    1    2    0    0 -0.53495211232E+02 -0.80673594698E+02 -0.34493990893E+03  0.35826457721E+03  0.00000000000E+00 0. -1.
</event>
<event>
 7    1  0.2766180E-009  0.1419723E+03  0.7561462E-02  0.1210699E+00
         -1   -1    0    0    0  501 -0.00000000000E+00  0.00000000000E+00  0.43755818886E+02  0.43755818886E+02  0.00000000000E+00 0.  1.
          1   -1    0    0  501    0  0.00000000000E+00 -0.00000000000E+00 -0.70937227888E+03  0.70937227888E+03  0.00000000000E+00 0. -1.
         25    2    1    2    0    0  0.43889822861E+02 -0.12550691365E+03 -0.43921732400E+03  0.47564453688E+03  0.12509023078E+03 0.  0.
          5    1    3    3  502    0  0.28828777496E+02 -0.49881974652E+02 -0.43105451039E+02  0.72075391892E+02  0.41800000000E+01 0. -1.
         -5    1    3    3    0  502  0.15061045365E+02 -0.75624938999E+02 -0.39611187296E+03  0.40356914499E+03  0.41800000000E+01 0. -1.
        -11    1    1    2    0    0 -0.45931490354E+01  0.10411144518E+03 -0.10428448627E+03  0.14742979384E+03  0.00000000000E+00 0.  1.
         11    1    1    2    0    0 -0.39296673826E+02  0.21395468470E+02 -0.12211464972E+03  0.13005376704E+03  0.00000000000E+00 0. -1.
</event>
<event>
 7    1  0.2766180E-009  0.8726146E+02  0.7561462E-02  0.1309622E+00
          1   -1    0    0  501    0  0.00000000000E+00  0.00000000000E+00  0.39105109938E+03  0.39105109938E+03  0.00000000000E+00 0. -1.
         -1   -1    0    0    0  501 -0.00000000000E+00 -0.00000000000E+00 -0.68618372053E+02  0.68618372053E+02  0.00000000000E+00 0.  1.
         25    2    1    2    0    0 -0.51562847338E+02 -0.26812740304E+02  0.22914377687E+02  0.13982119594E+03  0.12508895979E+03 0.  0.
          5    1    3    3  502    0 -0.24764981845E+00 -0.80809579768E+01 -0.48762052856E+02  0.49604167275E+02  0.41800000000E+01 0.  1.
         -5    1    3    3    0  502 -0.51315197519E+02 -0.18731782327E+02  0.71676430543E+02  0.90217028664E+02  0.41800000000E+01 0.  1.
        -11    1    1    2    0    0  0.87193361495E+01  0.57358253538E+02  0.13016960311E+03  0.14251358407E+03  0.00000000000E+00 0.  1.
         11    1    1    2    0    0  0.42843511188E+02 -0.30545513234E+02  0.16934874653E+03  0.17733469142E+03  0.00000000000E+00 0. -1.
</event>
<event>
 7    1  0.2766180E-009  0.7244637E+02  0.7561462E-02  0.1351966E+00
         -2   -1    0    0    0  501 -0.00000000000E+00  0.00000000000E+00  0.49446844782E+02  0.49446844782E+02  0.00000000000E+00 0.  1.
          2   -1    0    0  501    0  0.00000000000E+00 -0.00000000000E+00 -0.25095156700E+03  0.25095156700E+03  0.00000000000E+00 0. -1.
         25    2    1    2    0    0 -0.14887656910E+02 -0.80300509029E+01 -0.89209880771E+02  0.15455694654E+03  0.12507326993E+03 0.  0.
          5    1    3    3  502    0 -0.22300721356E+02  0.20605834709E+02  0.23075830474E+02  0.38365204928E+02  0.41800000000E+01 0. -1.
         -5    1    3    3    0  502  0.74130644452E+01 -0.28635885612E+02 -0.11228571125E+03  0.11619174161E+03  0.41800000000E+01 0. -1.
        -11    1    1    2    0    0 -0.25908993922E+02  0.28675294033E+02 -0.21600202789E+02  0.44273211025E+02  0.00000000000E+00 0.  1.
         11    1    1    2    0    0  0.40796650833E+02 -0.20645243130E+02 -0.90694638662E+02  0.10156825422E+03  0.00000000000E+00 0. -1.
</event>
<event>
 7    1  0.2766180E-009  0.1121188E+03  0.7561462E-02  0.1256696E+00
         -2   -1    0    0    0  501 -0.00000000000E+00  0.00000000000E+00  0.34680554044E+02  0.34680554044E+02  0.00000000000E+00 0.  1.
          2   -1    0    0  501    0  0.00000000000E+00 -0.00000000000E+00 -0.59284073449E+03  0.59284073449E+03  0.00000000000E+00 0. -1.
         25    2    1    2    0    0 -0.45905357964E+02  0.48719571804E+02 -0.44730386934E+03  0.46926435948E+03  0.12508952386E+03 0.  0.
          5    1    3    3  502    0 -0.50190967087E+02  0.86755038848E+02 -0.36258934923E+03  0.37621015207E+03  0.41800000000E+01 0.  1.
         -5    1    3    3    0  502  0.42856091231E+01 -0.38035467045E+02 -0.84714520109E+02  0.93054207408E+02  0.41800000000E+01 0.  1.
        -11    1    1    2    0    0  0.44862375288E+02 -0.90876631155E+01 -0.10939390493E+03  0.11858433612E+03  0.00000000000E+00 0.  1.
         11    1    1    2    0    0  0.10429826764E+01 -0.39631908688E+02 -0.14624061810E+01  0.39672592945E+02  0.00000000000E+00 0. -1.
</event>
<event>
 7    1  0.2766180E-009  0.8169455E+02  0.7561462E-02  0.1324310E+00
         -1   -1    0    0    0  501 -0.00000000000E+00  0.00000000000E+00  0.52546602085E+02  0.52546602085E+02  0.00000000000E+00 0.  1.
          1   -1    0    0  501    0  0.00000000000E+00 -0.00000000000E+00 -0.24001953263E+03  0.24001953263E+03  0.00000000000E+00 0. -1.
         25    2    1    2    0    0 -0.23299052694E+02 -0.17414816230E+02 -0.10991121160E+03  0.16903245284E+03  0.12508146945E+03 0.  0.
          5    1    3    3  502    0 -0.14978237155E+02  0.23660752508E+02  0.18545992664E+02  0.33846787757E+02  0.41800000000E+01 0.  1.
         -5    1    3    3    0  502 -0.83208155388E+01 -0.41075568738E+02 -0.12845720426E+03  0.13518566509E+03  0.41800000000E+01 0.  1.
        -11    1    1    2    0    0  0.28606132695E+02  0.51258555555E+02 -0.63576585480E+02  0.86531685333E+02  0.00000000000E+00 0. -1.
         11    1    1    2    0    0 -0.53070800005E+01 -0.33843739326E+02 -0.13985133467E+02  0.37001996538E+02  0.00000000000E+00 0.  1.
</event>
<event>
 7    1  0.2766180E-009  0.1021710E+03  0.7561462E-02  0.1275796E+00
          2   -1    0    0  501    0  0.00000000000E+00  0.00000000000E+00  0.48154368919E+03  0.48154368919E+03  0.00000000000E+00 0. -1.
         -2   -1    0    0    0  501 -0.00000000000E+00 -0.00000000000E+00 -0.26235535414E+02  0.26235535414E+02  0.00000000000E+00 0.  1.
         25    2    1    2    0    0  0.92978886080E+01 -0.11916317747E+02  0.25548023050E+03  0.28486272403E+03  0.12509266167E+03 0.  0.
          5    1    3    3  502    0  0.64759447667E+02 -0.22835995591E+01  0.97895810787E+02  0.11747366964E+03  0.41800000000E+01 0.  1.
         -5    1    3    3    0  502 -0.55461559059E+02 -0.96327181884E+01  0.15758441971E+03  0.16738905439E+03  0.41800000000E+01 0.  1.
        -11    1    1    2    0    0 -0.11108969067E+02  0.46764297995E+02  0.51115141073E+02  0.70164566610E+02  0.00000000000E+00 0.  1.
         11    1    1    2    0    0  0.18110804589E+01 -0.34847980247E+02  0.14871278221E+03  0.15275193397E+03  0.00000000000E+00 0. -1.
</event>
<event>
 7    1  0.2766180E-009  0.1789586E+03  0.7561462E-02  0.1168815E+00
         -2   -1    0    0    0  501 -0.00000000000E+00  0.00000000000E+00  0.24313683724E+02  0.24313683724E+02  0.00000000000E+00 0.  1.
          2   -1    0    0  501    0  0.00000000000E+00 -0.00000000000E+00 -0.16539320764E+04  0.16539320764E+04  0.00000000000E+00 0. -1.
         25    2    1    2    0    0 -0.15920574738E+03  0.15792000680E+02 -0.11449482561E+04  0.11628196533E+04  0.12508868668E+03 0.  0.
          5    1    3    3  502    0 -0.16980660291E+03  0.33018939220E+02 -0.10976885338E+04  0.11112435027E+04  0.41800000000E+01 0.  1.
         -5    1    3    3    0  502  0.10600855529E+02 -0.17226938539E+02 -0.47259722342E+02  0.51576150546E+02  0.41800000000E+01 0.  1.
        -11    1    1    2    0    0  0.57553999908E+02 -0.23750885710E+02 -0.10286400540E+03  0.12023964023E+03  0.00000000000E+00 0.  1.
         11    1    1    2    0    0  0.10165174747E+03  0.79588850292E+01 -0.38180613115E+03  0.39518646662E+03  0.00000000000E+00 0. -1.
</event>
<event>
 7    1  0.2766180E-009  0.1125153E+03  0.7561462E-02  0.1255982E+00
          2   -1    0    0  501    0  0.00000000000E+00  0.00000000000E+00  0.12275556349E+03  0.12275556349E+03  0.00000000000E+00 0.  1.
         -2   -1    0    0    0  501 -0.00000000000E+00 -0.00000000000E+00 -0.15947103160E+03  0.15947103160E+03  0.00000000000E+00 0. -1.
         25    2    1    2    0    0 -0.54913088170E+02  0.47404572136E+02  0.29549647445E+02  0.14759167272E+03  0.12508988561E+03 0.  0.
          5    1    3    3  502    0 -0.70646242197E+02  0.20168524563E+01 -0.24724788608E+02  0.74991644882E+02  0.41800000000E+01 0.  1.
         -5    1    3    3    0  502  0.15733154027E+02  0.45387719680E+02  0.54274436053E+02  0.72600027839E+02  0.41800000000E+01 0.  1.
        -11    1    1    2    0    0  0.92735386970E+01 -0.58347701099E+02 -0.76929361426E+01  0.59578805040E+02  0.00000000000E+00 0.  1.
         11    1    1    2    0    0  0.45639549473E+02  0.10943128963E+02 -0.58572179414E+02  0.75056117331E+02  0.00000000000E+00 0. -1.
</event>
<event>
 7    1  0.2766180E-009  0.1310875E+03  0.7561462E-02  0.1225851E+00
          1   -1    0    0  501    0  0.00000000000E+00  0.00000000000E+00  0.85861528420E+02  0.85861528420E+02  0.00000000000E+00 0. -1.
         -1   -1    0    0    0  501 -0.00000000000E+00 -0.00000000000E+00 -0.21963849140E+03  0.21963849140E+03  0.00000000000E+00 0.  1.
         25    2    1    2    0    0  0.42003786491E+01  0.79388939513E+02 -0.95862546885E+02  0.17651926413E+03  0.12509666588E+03 0.  0.
          5    1    3    3  502    0  0.51424783342E+02  0.85949081625E+02 -0.61616911357E+02  0.11766847131E+03  0.41800000000E+01 0.  1.
         -5    1    3    3    0  502 -0.47224404693E+02 -0.65601421129E+01 -0.34245635528E+02  0.58850792823E+02  0.41800000000E+01 0.  1.
        -11    1    1    2    0    0  0.34331799516E+02 -0.63901555696E+02 -0.47046058155E+02  0.86460469963E+02  0.00000000000E+00 0.  1.
         11    1    1    2    0    0 -0.38532178165E+02 -0.15487383817E+02  0.91316420608E+01  0.42520285728E+02  0.00000000000E+00 0. -1.
</event>
<event>
 7    1  0.2766180E-009  0.1338841E+03  0.7561462E-02  0.1221804E+00
          2   -1    0    0  501    0  0.00000000000E+00  0.00000000000E+00  0.41878580618E+02  0.41878580618E+02  0.00000000000E+00 0. -1.
         -2   -1    0    0    0  501 -0.00000000000E+00 -0.00000000000E+00 -0.57201232686E+03  0.57201232686E+03  0.00000000000E+00 0.  1.
         25    2    1    2    0    0  0.10241781610E+03 -0.26956702529E+02 -0.23231831508E+03  0.28431764704E+03  0.12509457235E+03 0.  0.
          5    1    3    3  502    0  0.10644352656E+03  0.15515045161E+02 -0.10662872899E+03  0.15151930313E+03  0.41800000000E+01 0. -1.
         -5    1    3    3    0  502 -0.40257104588E+01 -0.42471747691E+02 -0.12568958608E+03  0.13279834391E+03  0.41800000000E+01 0. -1.
        -11    1    1    2    0    0 -0.31998749872E+02 -0.14937344660E+02 -0.21451975374E+02  0.41318658090E+02  0.00000000000E+00 0. -1.
         11    1    1    2    0    0 -0.70419066229E+02  0.41894047189E+02 -0.27636345579E+03  0.28825460235E+03  0.00000000000E+00 0.  1.
</event>
<event>
 7    1  0.2766180E-009  0.1537315E+03  0.7561462E-02  0.1195961E+00
          2   -1    0    0  501    0  0.00000000000E+00  0.00000000000E+00  0.89828805206E+03  0.89828805206E+03  0.00000000000E+00 0. -1.
         -2   -1    0    0    0  501 -0.00000000000E+00 -0.00000000000E+00 -0.31919754503E+02  0.31919754503E+02  0.00000000000E+00 0.  1.
         25    2    1    2    0    0 -0.10848036577E+03 -0.61371701023E+02  0.59212553307E+03  0.61789492493E+03  0.12508803261E+03 0.  0.
          5    1    3    3  502    0 -0.89711087687E+02  0.91503898053E+01  0.43940869677E+03  0.44858587147E+03  0.41800000000E+01 0.  1.
         -5    1    3    3    0  502 -0.18769278082E+02 -0.70522090828E+02  0.15271683630E+03  0.16930905346E+03  0.41800000000E+01 0.  1.
        -11    1    1    2    0    0 -0.75624482381E+01  0.19181535698E+02  0.76124817279E+02  0.78867672343E+02  0.00000000000E+00 0. -1.
         11    1    1    2    0    0  0.11604281401E+03  0.42190165325E+02  0.19811794721E+03  0.23344520929E+03  0.00000000000E+00 0.  1.
</event>
<event>
 7    1  0.2766180E-009  0.1385992E+03  0.7561462E-02  0.1215226E+00
          2   -1    0    0  501    0  0.00000000000E+00  0.00000000000E+00  0.71344044169E+03  0.71344044169E+03  0.00000000000E+00 0. -1.
         -2   -1    0    0    0  501 -0.00000000000E+00 -0.00000000000E+00 -0.29836561722E+02  0.29836561722E+02  0.00000000000E+00 0.  1.
         25    2    1    2    0    0 -0.15782140472E+02  0.96120293596E+02  0.36203194638E+03  0.39522597292E+03  0.12509297612E+03 0.  0.
          5    1    3    3  502    0  0.40153238425E+02  0.73690403969E+02  0.28616675299E+03  0.29824728181E+03  0.41800000000E+01 0.  1.
         -5    1    3    3    0  502 -0.55935378897E+02  0.22429889627E+02  0.75865193390E+02  0.96978691109E+02  0.41800000000E+01 0.  1.
        -11    1    1    2    0    0  0.48704071009E+02 -0.25791217178E+02  0.12047823311E+03  0.13248501073E+03  0.00000000000E+00 0. -1.
         11    1    1    2    0    0 -0.32921930537E+02 -0.70329076418E+02  0.20109370048E+03  0.21556601976E+03  0.00000000000E+00 0.  1.
</event>
<event>
 7    1  0.2766180E-009  0.8368532E+02  0.7561462E-02  0.1318907E+00
          2   -1    0    0  501    0  0.00000000000E+00  0.00000000000E+00  0.24598431983E+03  0.24598431983E+03  0.00000000000E+00 0. -1.
         -2   -1    0    0    0  501 -0.00000000000E+00 -0.00000000000E+00 -0.59868852798E+02  0.59868852798E+02  0.00000000000E+00 0.  1.
         25    2    1    2    0    0 -0.24491850799E+02 -0.29027218606E+02  0.15177071801E+03  0.20031155593E+03  0.12509172002E+03 0.  0.
          5    1    3    3  502    0 -0.64995325536E+01 -0.46232477600E+02  0.16519806223E+03  0.17171941671E+03  0.41800000000E+01 0.  1.
         -5    1    3    3    0  502 -0.17992318246E+02  0.17205258994E+02 -0.13427344218E+02  0.28592139228E+02  0.41800000000E+01 0.  1.
        -11    1    1    2    0    0  0.53298316877E+02 -0.14487393366E+01  0.34680569792E+02  0.63604648798E+02  0.00000000000E+00 0. -1.
         11    1    1    2    0    0 -0.28806466077E+02  0.30475957942E+02 -0.33582077859E+00  0.41936967892E+02  0.00000000000E+00 0.  1.
</event>
<event>
 7    1  0.2766180E-009  0.1139121E+03  0.7561462E-02  0.1253492E+00
         -1   -1    0    0    0  501 -0.00000000000E+00  0.00000000000E+00  0.76036997554E+02  0.76036997554E+02  0.00000000000E+00 0.  1.
          1   -1    0    0  501    0  0.00000000000E+00 -0.00000000000E+00 -0.21962908513E+03  0.21962908513E+03  0.00000000000E+00 0. -1.
         25    2    1    2    0    0  0.64631067700E+02  0.29004538447E+02 -0.86299068136E+02  0.16767072614E+03  0.12508998793E+03 0.  0.
          5    1    3    3  502    0  0.92148563357E+02 -0.10832676064E+02 -0.70384857067E+02  0.11653413707E+03  0.41800000000E+01 0. -1.
         -5    1    3    3    0  502 -0.27517495657E+02  0.39837214511E+02 -0.15914211069E+02  0.51136589065E+02  0.41800000000E+01 0. -1.
        -11    1    1    2    0    0 -0.56276269400E+02 -0.42469697468E+02 -0.20591059366E+01  0.70533209326E+02  0.00000000000E+00 0.  1.
         11    1    1    2    0    0 -0.83547983001E+01  0.13465159021E+02 -0.55233913501E+02  0.57462147217E+02  0.00000000000E+00 0. -1.
</event>
<event>
 7    1  0.3373476E-009  0.1005447E+03  0.7561462E-02  0.1279155E+00
         -1   -1    0    0    0  501 -0.00000000000E+00  0.00000000000E+00  0.60439128830E+02  0.60439128830E+02  0.00000000000E+00 0.  1.
          1   -1    0    0  501    0  0.00000000000E+00 -0.00000000000E+00 -0.21482023717E+03  0.21482023717E+03  0.00000000000E+00 0. -1.
         25    2    1    2    0    0  0.37610652724E+01 -0.35412947721E+02 -0.77812231443E+02  0.15156376749E+03  0.12509440346E+03 0.  0.
          5    1    3    3  502    0  0.58047783051E+02  0.89481557276E+01 -0.26421186189E+02  0.64538097955E+02  0.41800000000E+01 0. -1.
         -5    1    3    3    0  502 -0.54286717779E+02 -0.44361103448E+02 -0.51391045254E+02  0.87025669539E+02  0.41800000000E+01 0. -1.
        -11    1    1    2    0    0 -0.33210905257E+02  0.18559853339E+02  0.20157498827E+01  0.38098499072E+02  0.00000000000E+00 0.  1.
         11    1    1    2    0    0  0.29449839985E+02  0.16853094382E+02 -0.78584626774E+02  0.85597099429E+02  0.00000000000E+00 0. -1.
</event>
<event>
 7    1  0.2766180E-009  0.6841059E+02  0.7561462E-02  0.1365583E+00
          2   -1    0    0  501    0  0.00000000000E+00  0.00000000000E+00  0.56157597125E+02  0.56157597125E+02  0.00000000000E+00 0. -1.
         -2   -1    0    0    0  501 -0.00000000000E+00 -0.00000000000E+00 -0.23350824292E+03  0.23350824292E+03  0.00000000000E+00 0.  1.
         25    2    1    2    0    0  0.36189965139E+02  0.46593735048E+01 -0.10999765662E+03  0.17052496081E+03  0.12509138443E+03 0.  0.
          5    1    3    3  502    0  0.40135807252E+02  0.10210189971E+02 -0.13657244357E+03  0.14277477280E+03  0.41800000000E+01 0. -1.
         -5    1    3    3    0  502 -0.39458421129E+01 -0.55508164659E+01  0.26574786951E+02  0.27750188015E+02  0.41800000000E+01 0. -1.
        -11    1    1    2    0    0  0.25429713868E+02 -0.24339312077E+01  0.28498511938E+01  0.25704396907E+02  0.00000000000E+00 0. -1.
         11    1    1    2    0    0 -0.61619679006E+02 -0.22254422971E+01 -0.70202840362E+02  0.93436482324E+02  0.00000000000E+00 0.  1.
</event>
<event>
 7    1  0.3100413E-009  0.1321478E+03  0.7561462E-02  0.1224303E+00
          2   -1    0    0  501    0  0.00000000000E+00  0.00000000000E+00  0.38462805065E+03  0.38462805065E+03  0.00000000000E+00 0. -1.
         -2   -1    0    0    0  501 -0.00000000000E+00 -0.00000000000E+00 -0.81478930647E+02  0.81478930647E+02  0.00000000000E+00 0.  1.
         25    2    1    2    0    0 -0.99490748857E+02  0.52128080229E+02  0.26842407278E+03  0.31672519651E+03  0.12509045287E+03 0.  0.
          5    1    3    3  502    0 -0.10019594336E+02  0.60619635687E+02  0.18134114814E+03  0.19151296800E+03  0.41800000000E+01 0. -1.
         -5    1    3    3    0  502 -0.89471154522E+02 -0.84915554582E+01  0.87082924639E+02  0.12521222851E+03  0.41800000000E+01 0. -1.
        -11    1    1    2    0    0  0.28671390438E+02 -0.10148698012E+02 -0.31453808746E+02  0.43753705964E+02  0.00000000000E+00 0.  1.
         11    1    1    2    0    0  0.70819358420E+02 -0.41979382217E+02  0.66178855963E+02  0.10562807882E+03  0.00000000000E+00 0. -1.
</event>
<event>
 7    1  0.2766180E-009  0.9109277E+02  0.7561462E-02  0.1300227E+00
          1   -1    0    0  501    0  0.00000000000E+00  0.00000000000E+00  0.13816626490E+03  0.13816626490E+03  0.00000000000E+00 0. -1.
         -1   -1    0    0    0  501 -0.00000000000E+00 -0.00000000000E+00 -0.12172142732E+03  0.12172142732E+03  0.00000000000E+00 0.  1.
         25    2    1    2    0    0 -0.15994350474E+02 -0.16858226575E+02  0.76595869402E+02  0.14850733253E+03  0.12508989389E+03 0.  0.
          5    1    3    3  502    0 -0.60670878748E+02  0.24602832871E+02  0.32862478811E+02  0.73373495398E+02  0.41800000000E+01 0. -1.
         -5    1    3    3    0  502  0.44676528274E+02 -0.41461059446E+02  0.43733390590E+02  0.75133837128E+02  0.41800000000E+01 0. -1.
        -11    1    1    2    0    0  0.60585111003E+01 -0.18130797391E+02  0.17320129668E+02  0.25795702404E+02  0.00000000000E+00 0. -1.
         11    1    1    2    0    0  0.99358393737E+01  0.34989023966E+02 -0.77471161491E+02  0.85584657299E+02  0.00000000000E+00 0.  1.
</event>
<event>
 7    1  0.2766180E-009  0.1156729E+03  0.7561462E-02  0.1250411E+00
          1   -1    0    0  501    0  0.00000000000E+00  0.00000000000E+00  0.13064421482E+03  0.13064421482E+03  0.00000000000E+00 0. -1.
         -1   -1    0    0    0  501 -0.00000000000E+00 -0.00000000000E+00 -0.17164704927E+03  0.17164704927E+03  0.00000000000E+00 0.  1.
         25    2    1    2    0    0  0.77202405024E+02  0.17036085470E+02 -0.93098940828E+02  0.17483047035E+03  0.12509133075E+03 0.  0.
          5    1    3    3  502    0  0.86097517258E+02  0.58256559699E+02 -0.54211689236E+02  0.11731576567E+03  0.41800000000E+01 0.  1.
         -5    1    3    3    0  502 -0.88951122339E+01 -0.41220474229E+02 -0.38887251593E+02  0.57514704674E+02  0.41800000000E+01 0.  1.
        -11    1    1    2    0    0 -0.43768934976E+02  0.62143031857E+01 -0.16912350856E+02  0.47332492481E+02  0.00000000000E+00 0.  1.
         11    1    1    2    0    0 -0.33433470047E+02 -0.23250388656E+02  0.69008457233E+02  0.80128301253E+02  0.00000000000E+00 0. -1.
</event>
<event>
 7    1  0.2766180E-009  0.1117756E+03  0.7561462E-02  0.1257317E+00
         -1   -1    0    0    0  501 -0.00000000000E+00  0.00000000000E+00  0.29926672064E+02  0.29926672064E+02  0.00000000000E+00 0.  1.
          1   -1    0    0  501    0  0.00000000000E+00 -0.00000000000E+00 -0.62475284196E+03  0.62475284196E+03  0.00000000000E+00 0. -1.
         25    2    1    2    0    0  0.56017870416E+02 -0.28535868119E+02 -0.49791968741E+03  0.51722948572E+03  0.12510007278E+03 0.  0.
          5    1    3    3  502    0  0.73251417563E+02  0.23655759743E+02 -0.36988943386E+03  0.37783730735E+03  0.41800000000E+01 0. -1.
         -5    1    3    3    0  502 -0.17233547147E+02 -0.52191627862E+02 -0.12803025355E+03  0.13939217837E+03  0.41800000000E+01 0. -1.
        -11    1    1    2    0    0  0.95637074647E+01  0.23726777331E+02 -0.51606748344E+02  0.57599313691E+02  0.00000000000E+00 0. -1.
         11    1    1    2    0    0 -0.65581577881E+02  0.48090907881E+01 -0.45299734147E+02  0.79850714620E+02  0.00000000000E+00 0.  1.
</event>
<event>
 7    1  0.2766180E-009  0.1673435E+03  0.7561462E-02  0.1180647E+00
          2   -1    0    0  501    0  0.00000000000E+00  0.00000000000E+00  0.17611159559E+03  0.17611159559E+03  0.00000000000E+00 0. -1.
         -2   -1    0    0    0  501 -0.00000000000E+00 -0.00000000000E+00 -0.20205882574E+03  0.20205882574E+03  0.00000000000E+00 0.  1.
         25    2    1    2    0    0 -0.27374425136E+02  0.14933383847E+03 -0.61308796744E+02  0.20603835996E+03  0.12507231011E+03 0.  0.
          5    1    3    3  502    0  0.13394034403E+02  0.12420119708E+03  0.38660507578E+01  0.12505101464E+03  0.41800000000E+01 0. -1.
         -5    1    3    3    0  502 -0.40768459539E+02  0.25132641390E+02 -0.65174847502E+02  0.80987345328E+02  0.41800000000E+01 0. -1.
        -11    1    1    2    0    0 -0.15105836816E+02 -0.70189532080E+02 -0.82704721019E+01  0.72271415015E+02  0.00000000000E+00 0.  1.
         11    1    1    2    0    0  0.42480261952E+02 -0.79144306388E+02  0.43632038701E+02  0.99860646354E+02  0.00000000000E+00 0. -1.
</event>
<event>
 7    1  0.2766180E-009  0.1165088E+03  0.7561462E-02  0.1248970E+00
         -2   -1    0    0    0  501 -0.00000000000E+00  0.00000000000E+00  0.13076097972E+03  0.13076097972E+03  0.00000000000E+00 0.  1.
          2   -1    0    0  501    0  0.00000000000E+00 -0.00000000000E+00 -0.10837972817E+03  0.10837972817E+03  0.00000000000E+00 0. -1.
         25    2    1    2    0    0  0.29976177221E+02 -0.32718134903E+02 -0.69066018544E+01  0.13290794640E+03  0.12509106089E+03 0.  0.
          5    1    3    3  502    0 -0.32274394402E+02 -0.57091065011E+02 -0.48485522421E+01  0.65893907890E+02  0.41800000000E+01 0. -1.
         -5    1    3    3    0  502  0.62250571623E+02  0.24372930108E+02 -0.20580496123E+01  0.67014038512E+02  0.41800000000E+01 0. -1.
        -11    1    1    2    0    0 -0.47695373206E+02 -0.14529090861E+02  0.24476977907E+02  0.55543366426E+02  0.00000000000E+00 0.  1.
         11    1    1    2    0    0  0.17719195985E+02  0.47247225764E+02  0.48108754892E+01  0.50689395062E+02  0.00000000000E+00 0. -1.
</event>
<event>
 7    1  0.2766180E-009  0.1624061E+03  0.7561462E-02  0.1186007E+00
          1   -1    0    0  501    0  0.00000000000E+00  0.00000000000E+00  0.87173165307E+03  0.87173165307E+03  0.00000000000E+00 0. -1.
         -1   -1    0    0    0  501 -0.00000000000E+00 -0.00000000000E+00 -0.41192946665E+02  0.41192946665E+02  0.00000000000E+00 0.  1.
         25    2    1    2    0    0  0.13029461392E+03  0.40178618431E+02  0.25903503384E+03  0.31833500842E+03  0.12508805312E+03 0.  0.
          5    1    3    3  502    0  0.10045833520E+03  0.67511021333E+02  0.24830498167E+03  0.27626518318E+03  0.41800000000E+01 0.  1.
         -5    1    3    3    0  502  0.29836278727E+02 -0.27332402902E+02  0.10730052167E+02  0.42069825245E+02  0.41800000000E+01 0.  1.
        -11    1    1    2    0    0 -0.31246512455E+02 -0.54624558771E+02  0.18875863279E+03  0.19897238103E+03  0.00000000000E+00 0.  1.
         11    1    1    2    0    0 -0.99048101469E+02  0.14445940341E+02  0.38274503978E+03  0.39561721028E+03  0.00000000000E+00 0. -1.
</event>
<event>
 7    1  0.2766180E-009  0.8779558E+02  0.7561462E-02  0.1308280E+00
          2   -1    0    0  501    0  0.00000000000E+00  0.00000000000E+00  0.13764979269E+04  0.13764979269E+04  0.00000000000E+00 0. -1.
         -2   -1    0    0    0  501 -0.00000000000E+00 -0.00000000000E+00 -0.11059236074E+02  0.11059236074E+02  0.00000000000E+00 0.  1.
         25    2    1    2    0    0 -0.25172787249E+02  0.28218917870E+02  0.10587704493E+04  0.10668027795E+04  0.12507329655E+03 0.  0.
          5    1    3    3  502    0 -0.51124217655E+02  0.28022353334E+02  0.22035335480E+03  0.22797370745E+03  0.41800000000E+01 0.  1.
         -5    1    3    3    0  502  0.25951430407E+02  0.19656453630E+00  0.83841709447E+03  0.83882907203E+03  0.41800000000E+01 0.  1.
        -11    1    1    2    0    0 -0.21972792059E+02 -0.36870826344E+02  0.10428737496E+03  0.11277463368E+03  0.00000000000E+00 0.  1.
         11    1    1    2    0    0  0.47145579308E+02  0.86519084740E+01  0.20238086661E+03  0.20797974983E+03  0.00000000000E+00 0. -1.
</event>
<event>
 7    1  0.2766180E-009  0.1037286E+03  0.7561462E-02  0.1272645E+00
         -3   -1    0    0    0  501 -0.00000000000E+00  0.00000000000E+00  0.77162246397E+02  0.77162246397E+02  0.00000000000E+00 0.  1.
          3   -1    0    0  501    0  0.00000000000E+00 -0.00000000000E+00 -0.17818624466E+03  0.17818624466E+03  0.00000000000E+00 0. -1.
         25    2    1    2    0    0  0.15219276009E+02 -0.43621799072E+02 -0.63738442505E+02  0.14779994119E+03  0.12509095030E+03 0.  0.
          5    1    3    3  502    0 -0.11788409706E+02 -0.82867002389E+02 -0.51753327288E+02  0.98497644509E+02  0.41800000000E+01 0.  1.
         -5    1    3    3    0  502  0.27007685714E+02  0.39245203318E+02 -0.11985115217E+02  0.49302296679E+02  0.41800000000E+01 0.  1.
        -11    1    1    2    0    0 -0.25334967781E+02 -0.52899472481E+01 -0.49741552001E+02  0.56071972766E+02  0.00000000000E+00 0. -1.
         11    1    1    2    0    0  0.10115691772E+02  0.48911746320E+02  0.12455996242E+02  0.51476577105E+02  0.00000000000E+00 0.  1.
</event>
<event>
 7    1  0.2766180E-009  0.9864484E+02  0.7561462E-02  0.1283172E+00
         -1   -1    0    0    0  501 -0.00000000000E+00  0.00000000000E+00  0.78743938082E+01  0.78743938082E+01  0.00000000000E+00 0.  1.
          1   -1    0    0  501    0  0.00000000000E+00 -0.00000000000E+00 -0.15410851058E+04  0.15410851058E+04  0.00000000000E+00 0. -1.
         25    2    1    2    0    0 -0.10942378020E+02 -0.15133267728E+02 -0.10530025149E+04  0.10605709946E+04  0.12509111373E+03 0.  0.
          5    1    3    3  502    0  0.39098495438E+01  0.45464407039E+02 -0.19579179142E+03  0.20108256318E+03  0.41800000000E+01 0.  1.
         -5    1    3    3    0  502 -0.14852227564E+02 -0.60597674767E+02 -0.85721072348E+03  0.85948843139E+03  0.41800000000E+01 0.  1.
        -11    1    1    2    0    0 -0.37046638505E+02  0.17322261642E+02 -0.21064825685E+03  0.21458145839E+03  0.00000000000E+00 0.  1.
         11    1    1    2    0    0  0.47989016525E+02 -0.21889939139E+01 -0.26955994021E+03  0.27380704660E+03  0.00000000000E+00 0. -1.
</event>
<event>
 7    1  0.2766180E-009  0.6282121E+02  0.7561462E-02  0.1386360E+00
          2   -1    0    0  501    0  0.00000000000E+00  0.00000000000E+00  0.15582247886E+03  0.15582247886E+03  0.00000000000E+00 0.  1.
         -2   -1    0    0    0  501 -0.00000000000E+00 -0.00000000000E+00 -0.86836099269E+02  0.86836099269E+02  0.00000000000E+00 0. -1.
         25    2    1    2    0    0 -0.39580854433E+01  0.29903005677E+02  0.66015009894E+02  0.14462292185E+03  0.12509177353E+03 0.  0.
          5    1    3    3  502    0 -0.27926268565E+02 -0.86768819090E-01  0.93208164199E+02  0.97391571906E+02  0.41800000000E+01 0.  1.
         -5    1    3    3    0  502  0.23968183122E+02  0.29989774496E+02 -0.27193154306E+02  0.47231349944E+02  0.41800000000E+01 0.  1.
        -11    1    1    2    0    0  0.27284161709E+02 -0.15781485845E+02  0.40704393978E+02  0.51481340938E+02  0.00000000000E+00 0.  1.
         11    1    1    2    0    0 -0.23326076266E+02 -0.14121519831E+02 -0.37733024276E+02  0.46554315346E+02  0.00000000000E+00 0. -1.
</event>
<event>
 7    1  0.2766180E-009  0.1466533E+03  0.7561462E-02  0.1204647E+00
          1   -1    0    0  501    0  0.00000000000E+00  0.00000000000E+00  0.48441010857E+02  0.48441010857E+02  0.00000000000E+00 0. -1.
         -1   -1    0    0    0  501 -0.00000000000E+00 -0.00000000000E+00 -0.47297157783E+03  0.47297157783E+03  0.00000000000E+00 0.  1.
         25    2    1    2    0    0 -0.99193285498E+02 -0.35124568764E+02 -0.20619444525E+03  0.26312975471E+03  0.12509226731E+03 0.  0.
          5    1    3    3  502    0 -0.61651296097E+02  0.43788354701E+02 -0.10285135888E+03  0.12772696168E+03  0.41800000000E+01 0. -1.
         -5    1    3    3    0  502 -0.37541989401E+02 -0.78912923465E+02 -0.10334308637E+03  0.13540279303E+03  0.41800000000E+01 0. -1.
        -11    1    1    2    0    0  0.96717340071E+01 -0.21901570773E+02 -0.82449064995E+02  0.85854933228E+02  0.00000000000E+00 0.  1.
         11    1    1    2    0    0  0.89521551490E+02  0.57026139536E+02 -0.13588705673E+03  0.17242790075E+03  0.00000000000E+00 0. -1.
</event>
<event>
 7    1  0.2766180E-009  0.8501962E+02  0.7561462E-02  0.1315381E+00
         -4   -1    0    0    0  501 -0.00000000000E+00  0.00000000000E+00  0.15153698947E+03  0.15153698947E+03  0.00000000000E+00 0.  1.
          4   -1    0    0  501    0  0.00000000000E+00 -0.00000000000E+00 -0.15510941332E+03  0.15510941332E+03  0.00000000000E+00 0. -1.
         25    2    1    2    0    0  0.22802429826E+01  0.39900011558E+02 -0.10261681601E+03  0.16665985190E+03  0.12509230542E+03 0.  0.
          5    1    3    3  502    0  0.26048130111E+02  0.39980008982E+02  0.12122709975E+02  0.49409904853E+02  0.41800000000E+01 0. -1.
         -5    1    3    3    0  502 -0.23767887128E+02 -0.79997424126E-01 -0.11473952599E+03  0.11724994704E+03  0.41800000000E+01 0. -1.
        -11    1    1    2    0    0  0.18420360165E+02  0.24333913643E+02  0.22356431282E+02  0.37831984372E+02  0.00000000000E+00 0.  1.
         11    1    1    2    0    0 -0.20700603148E+02 -0.64233925201E+02  0.76687960884E+02  0.10215456653E+03  0.00000000000E+00 0. -1.
</event>
<event>
 7    1  0.2766180E-009  0.1084838E+03  0.7561462E-02  0.1263404E+00
          2   -1    0    0  501    0  0.00000000000E+00  0.00000000000E+00  0.55234265953E+02  0.55234265953E+02  0.00000000000E+00 0. -1.
         -2   -1    0    0    0  501 -0.00000000000E+00 -0.00000000000E+00 -0.37235351954E+03  0.37235351954E+03  0.00000000000E+00 0.  1.
         25    2    1    2    0    0  0.77798038160E+02 -0.34146500308E+02 -0.11499175406E+03  0.18997289137E+03  0.12509227685E+03 0.  0.
          5    1    3    3  502    0  0.47718331092E+02  0.32714685190E+02 -0.99114913577E+02  0.11484131766E+03  0.41800000000E+01 0. -1.
         -5    1    3    3    0  502  0.30079707068E+02 -0.66861185497E+02 -0.15876840481E+02  0.75131573703E+02  0.41800000000E+01 0. -1.
        -11    1    1    2    0    0 -0.43151306981E+02  0.24228280709E+02 -0.22420189220E+02  0.54329639838E+02  0.00000000000E+00 0. -1.
         11    1    1    2    0    0 -0.34646731179E+02  0.99182195984E+01 -0.17970731030E+03  0.18328525428E+03  0.00000000000E+00 0.  1.
</event>
<event>
 7    1  0.2766180E-009  0.9912620E+02  0.7561462E-02  0.1282144E+00
          3   -1    0    0  501    0  0.00000000000E+00  0.00000000000E+00  0.33147982334E+02  0.33147982334E+02  0.00000000000E+00 0. -1.
         -3   -1    0    0    0  501 -0.00000000000E+00 -0.00000000000E+00 -0.42556746792E+03  0.42556746792E+03  0.00000000000E+00 0.  1.
         25    2    1    2    0    0 -0.18443419607E+02  0.90523079345E+01 -0.13842488452E+03  0.18769861688E+03  0.12508884091E+03 0.  0.
          5    1    3    3  502    0  0.46958323643E+02  0.22649852542E+02 -0.30046775002E+02  0.60318994252E+02  0.41800000000E+01 0.  1.
         -5    1    3    3    0  502 -0.65401743250E+02 -0.13597544608E+02 -0.10837810952E+03  0.12737962263E+03  0.41800000000E+01 0.  1.
        -11    1    1    2    0    0  0.22334319067E+02  0.31315399404E+02 -0.50282929461E+02  0.63307574927E+02  0.00000000000E+00 0.  1.
         11    1    1    2    0    0 -0.38908994598E+01 -0.40367707339E+02 -0.20371167161E+03  0.20770925845E+03  0.00000000000E+00 0. -1.
</event>
<event>
 7    1  0.2766180E-009  0.1413356E+03  0.7561462E-02  0.1211543E+00
         -1   -1    0    0    0  501 -0.00000000000E+00  0.00000000000E+00  0.57715755799E+02  0.57715755799E+02  0.00000000000E+00 0.  1.
          1   -1    0    0  501    0  0.00000000000E+00 -0.00000000000E+00 -0.39079935364E+03  0.39079935364E+03  0.00000000000E+00 0. -1.
         25    2    1    2    0    0  0.84878458273E+02 -0.60282795154E+02 -0.17439434947E+03  0.23853387495E+03  0.12508657921E+03 0.  0.
          5    1    3    3  502    0  0.12474077128E+02 -0.80724738550E+02 -0.59530336591E+02  0.10116036471E+03  0.41800000000E+01 0. -1.
         -5    1    3    3    0  502  0.72404381145E+02  0.20441943396E+02 -0.11486401288E+03  0.13737351023E+03  0.41800000000E+01 0. -1.
        -11    1    1    2    0    0 -0.19666725568E+02 -0.15870520889E+02 -0.75777053008E+02  0.79880005574E+02  0.00000000000E+00 0. -1.
         11    1    1    2    0    0 -0.65211732705E+02  0.76153316044E+02 -0.82912195361E+02  0.13010122892E+03  0.00000000000E+00 0.  1.
</event>
<event>
 7    1  0.2766180E-009  0.1143543E+03  0.7561462E-02  0.1252712E+00
         -1   -1    0    0    0  501 -0.00000000000E+00  0.00000000000E+00  0.31239966148E+03  0.31239966148E+03  0.00000000000E+00 0.  1.
          1   -1    0    0  501    0  0.00000000000E+00 -0.00000000000E+00 -0.86125917017E+02  0.86125917017E+02  0.00000000000E+00 0. -1.
         25    2    1    2    0    0 -0.90846584328E+02 -0.37227693806E+02  0.13395061236E+03  0.20791863692E+03  0.12509352484E+03 0.  0.
          5    1    3    3  502    0 -0.10446196237E+03 -0.17411926671E+02  0.14623056624E+03  0.18059991050E+03  0.41800000000E+01 0. -1.
         -5    1    3    3    0  502  0.13615378038E+02 -0.19815767135E+02 -0.12279953872E+02  0.27318726423E+02  0.41800000000E+01 0. -1.
        -11    1    1    2    0    0  0.49540902178E+02  0.17459898919E+02 -0.29652192525E+02  0.60319164288E+02  0.00000000000E+00 0. -1.
         11    1    1    2    0    0  0.41305682150E+02  0.19767794887E+02  0.12197532462E+03  0.13028777728E+03  0.00000000000E+00 0.  1.
</event>
<event>
 7    1  0.2766180E-009  0.1075084E+03  0.7561462E-02  0.1265255E+00
          1   -1    0    0  501    0  0.00000000000E+00  0.00000000000E+00  0.60742744891E+02  0.60742744891E+02  0.00000000000E+00 0. -1.
         -1   -1    0    0    0  501 -0.00000000000E+00 -0.00000000000E+00 -0.20119523761E+03  0.20119523761E+03  0.00000000000E+00 0.  1.
         25    2    1    2    0    0  0.72926428923E+01 -0.11999455968E+02 -0.57956257319E+02  0.13857579812E+03  0.12508858652E+03 0.  0.
          5    1    3    3  502    0 -0.45789224932E+02 -0.43976429813E+02 -0.32589312915E+02  0.71485069876E+02  0.41800000000E+01 0.  1.
         -5    1    3    3    0  502  0.53081867824E+02  0.31976973844E+02 -0.25366944403E+02  0.67090728244E+02  0.41800000000E+01 0.  1.
        -11    1    1    2    0    0  0.33842459368E+02  0.29197321227E+02 -0.55423846461E+02  0.71201112206E+02  0.00000000000E+00 0.  1.
         11    1    1    2    0    0 -0.41135102260E+02 -0.17197865259E+02 -0.27072388938E+02  0.52161072173E+02  0.00000000000E+00 0. -1.
</event>
<event>
 7    1  0.2766180E-009  0.8795016E+02  0.7561462E-02  0.1307893E+00
          2   -1    0    0  501    0  0.00000000000E+00  0.00000000000E+00  0.33862864613E+02  0.33862864613E+02  0.00000000000E+00 0. -1.
         -2   -1    0    0    0  501 -0.00000000000E+00 -0.00000000000E+00 -0.54718800883E+03  0.54718800883E+03  0.00000000000E+00 0.  1.
         25    2    1    2    0    0  0.85094927920E+01  0.51687212389E+02 -0.44541597293E+03  0.46560362785E+03  0.12508944772E+03 0.  0.
          5    1    3    3  502    0 -0.14655424896E+02 -0.88370743256E+01 -0.23138666606E+01  0.17767997649E+02  0.41800000000E+01 0.  1.
         -5    1    3    3    0  502  0.23164917688E+02  0.60524286714E+02 -0.44310210627E+03  0.44783563020E+03  0.41800000000E+01 0.  1.
        -11    1    1    2    0    0 -0.39052830661E+02 -0.77209841820E+01 -0.30104368898E+02  0.49910021099E+02  0.00000000000E+00 0.  1.
         11    1    1    2    0    0  0.30543337869E+02 -0.43966228207E+02 -0.37804802385E+02  0.65537224493E+02  0.00000000000E+00 0. -1.
</event>
<event>
 7    1  0.2766180E-009  0.2951656E+03  0.7561462E-02  0.1087683E+00
         -1   -1    0    0    0  501 -0.00000000000E+00  0.00000000000E+00  0.32200866974E+03  0.32200866974E+03  0.00000000000E+00 0.  1.
          1   -1    0    0  501    0  0.00000000000E+00 -0.00000000000E+00 -0.30656483039E+03  0.30656483039E+03  0.00000000000E+00 0. -1.
         25    2    1    2    0    0  0.27907974518E+03 -0.19723705893E+02 -0.85210463690E+02  0.31809304741E+03  0.12509130644E+03 0.  0.
          5    1    3    3  502    0  0.22156811022E+02  0.33545294002E+02 -0.28929887702E+02  0.49705350082E+02  0.41800000000E+01 0. -1.
         -5    1    3    3    0  502  0.25692293416E+03 -0.53268999895E+02 -0.56280575988E+02  0.26838769733E+03  0.41800000000E+01 0. -1.
        -11    1    1    2    0    0 -0.11058158172E+03  0.40398874324E+02  0.10323247759E+02  0.11818174439E+03  0.00000000000E+00 0. -1.
         11    1    1    2    0    0 -0.16849816346E+03 -0.20675168430E+02  0.90331055280E+02  0.19229870833E+03  0.00000000000E+00 0.  1.
</event>
<event>
 7    1  0.2766180E-009  0.1593086E+03  0.7561462E-02  0.1189480E+00
          3   -1    0    0  501    0  0.00000000000E+00  0.00000000000E+00  0.37162774366E+03  0.37162774366E+03  0.00000000000E+00 0. -1.
         -3   -1    0    0    0  501 -0.00000000000E+00 -0.00000000000E+00 -0.84780625624E+02  0.84780625624E+02  0.00000000000E+00 0.  1.
         25    2    1    2    0    0  0.65966565997E+01 -0.13570146239E+03  0.10733222970E+03  0.21360368051E+03  0.12509165449E+03 0.  0.
          5    1    3    3  502    0 -0.53775357136E+02 -0.32081800932E+02  0.22585255104E+02  0.66697804568E+02  0.41800000000E+01 0.  1.
         -5    1    3    3    0  502  0.60372013736E+02 -0.10361966146E+03  0.84746974599E+02  0.14690587594E+03  0.41800000000E+01 0.  1.
        -11    1    1    2    0    0 -0.45642593821E+00  0.12314057029E+02 -0.10480276324E+02  0.16176542182E+02  0.00000000000E+00 0.  1.
         11    1    1    2    0    0 -0.61402306615E+01  0.12338740536E+03  0.18999516465E+03  0.22662814659E+03  0.00000000000E+00 0. -1.
</event>
<event>
 7    1  0.2766180E-009  0.1254198E+03  0.7561462E-02  0.1234415E+00
         -2   -1    0    0    0  501 -0.00000000000E+00  0.00000000000E+00  0.13736714617E+03  0.13736714617E+03  0.00000000000E+00 0.  1.
          2   -1    0    0  501    0  0.00000000000E+00 -0.00000000000E+00 -0.13203825803E+03  0.13203825803E+03  0.00000000000E+00 0. -1.
         25    2    1    2    0    0 -0.35207233339E+02  0.59857351753E+02 -0.34994363714E+02  0.14729115241E+03  0.12509047225E+03 0.  0.
          5    1    3    3  502    0  0.34086259229E+02  0.61958116751E+02 -0.32079963281E+01  0.70911528964E+02  0.41800000000E+01 0. -1.
         -5    1    3    3    0  502 -0.69293492568E+02 -0.21007649977E+01 -0.31786367386E+02  0.76379623444E+02  0.41800000000E+01 0. -1.
        -11    1    1    2    0    0 -0.23114086161E+02  0.46598859845E+01  0.23962967507E+02  0.33618437325E+02  0.00000000000E+00 0.  1.
         11    1    1    2    0    0  0.58321319500E+02 -0.64517237738E+02  0.16360284347E+02  0.88495814463E+02  0.00000000000E+00 0. -1.
</event>
<event>
 7    1  0.2766180E-009  0.6365307E+02  0.7561462E-02  0.1383111E+00
         -2   -1    0    0    0  501 -0.00000000000E+00  0.00000000000E+00  0.99996981726E+02  0.99996981726E+02  0.00000000000E+00 0.  1.
          2   -1    0    0  501    0  0.00000000000E+00 -0.00000000000E+00 -0.24001351200E+03  0.24001351200E+03  0.00000000000E+00 0. -1.
         25    2    1    2    0    0  0.89262977512E+01 -0.15357461247E+02  0.44304389943E+02  0.13388743599E+03  0.12508971237E+03 0.  0.
          5    1    3    3  502    0 -0.15925152639E+02 -0.14591675517E+02  0.84015893973E+02  0.86848548180E+02  0.41800000000E+01 0.  1.
         -5    1    3    3    0  502  0.24851450390E+02 -0.76578573004E+00 -0.39711504030E+02  0.47038887812E+02  0.41800000000E+01 0.  1.
        -11    1    1    2    0    0 -0.35919809034E+02 -0.15477917437E+02 -0.39392332105E+02  0.55511750449E+02  0.00000000000E+00 0.  1.
         11    1    1    2    0    0  0.26993511283E+02  0.30835378683E+02 -0.14492858811E+03  0.15061130728E+03  0.00000000000E+00 0. -1.
</event>
<event>
 7    1  0.2766180E-009  0.9114140E+02  0.7561462E-02  0.1300111E+00
          2   -1    0    0  501    0  0.00000000000E+00  0.00000000000E+00  0.12298390809E+04  0.12298390809E+04  0.00000000000E+00 0. -1.
         -2   -1    0    0    0  501 -0.00000000000E+00 -0.00000000000E+00 -0.19719359655E+02  0.19719359655E+02  0.00000000000E+00 0.  1.
         25    2    1    2    0    0 -0.19147313814E+02 -0.17039394912E+01  0.10966009864E+04  0.11038797803E+04  0.12508925981E+03 0.  0.
          5    1    3    3  502    0 -0.67329496834E+02  0.20394838790E+02  0.50495907129E+03  0.50985325994E+03  0.41800000000E+01 0. -1.
         -5    1    3    3    0  502  0.48182183020E+02 -0.22098778281E+02  0.59164191512E+03  0.59402652036E+03  0.41800000000E+01 0. -1.
        -11    1    1    2    0    0 -0.19633466215E+02 -0.16911169833E+01 -0.54965747895E+01  0.20458377421E+02  0.00000000000E+00 0.  1.
         11    1    1    2    0    0  0.38780780029E+02  0.33950564745E+01  0.11901530961E+03  0.12522028282E+03  0.00000000000E+00 0. -1.
</event>
<event>
 7    1  0.2766180E-009  0.1037776E+03  0.7561462E-02  0.1272547E+00
          3   -1    0    0  501    0  0.00000000000E+00  0.00000000000E+00  0.82527749340E+02  0.82527749340E+02  0.00000000000E+00 0. -1.
         -3   -1    0    0    0  501 -0.00000000000E+00 -0.00000000000E+00 -0.16577490298E+03  0.16577490298E+03  0.00000000000E+00 0.  1.
         25    2    1    2    0    0  0.48675780875E+00  0.19808446381E+02 -0.89686455688E+02  0.15519012073E+03  0.12509077407E+03 0.  0.
          5    1    3    3  502    0  0.48908179286E+02 -0.28636501732E+02 -0.30101098849E+02  0.64308691360E+02  0.41800000000E+01 0.  1.
         -5    1    3    3    0  502 -0.48421421477E+02  0.48444948113E+02 -0.59585356839E+02  0.90881429375E+02  0.41800000000E+01 0.  1.
        -11    1    1    2    0    0 -0.39675395175E+02 -0.41088335670E+01 -0.18619144651E+02  0.44019223564E+02  0.00000000000E+00 0. -1.
         11    1    1    2    0    0  0.39188637366E+02 -0.15699612814E+02  0.25058446702E+02  0.49093308019E+02  0.00000000000E+00 0.  1.
</event>
<event>
 7    1  0.2766180E-009  0.1490484E+03  0.7561462E-02  0.1201647E+00
          1   -1    0    0  501    0  0.00000000000E+00  0.00000000000E+00  0.35966748604E+03  0.35966748604E+03  0.00000000000E+00 0. -1.
         -1   -1    0    0    0  501 -0.00000000000E+00 -0.00000000000E+00 -0.91878408826E+02  0.91878408826E+02  0.00000000000E+00 0.  1.
         25    2    1    2    0    0 -0.83183059031E+01 -0.10709799272E+03  0.25091173541E+03  0.30023763845E+03  0.12508703497E+03 0.  0.
          5    1    3    3  502    0  0.34016312753E+02 -0.10206796731E+03  0.11411483838E+03  0.15689056129E+03  0.41800000000E+01 0. -1.
         -5    1    3    3    0  502 -0.42334618656E+02 -0.50300254043E+01  0.13679689703E+03  0.14334707716E+03  0.41800000000E+01 0. -1.
        -11    1    1    2    0    0 -0.41333696427E+02  0.16949372101E+02 -0.81013249598E+01  0.45402501485E+02  0.00000000000E+00 0.  1.
         11    1    1    2    0    0  0.49652002330E+02  0.90148620614E+02  0.24978666761E+02  0.10590575493E+03  0.00000000000E+00 0. -1.
</event>
<event>
 7    1  0.2766180E-009  0.2585493E+03  0.7561462E-02  0.1108018E+00
         -2   -1    0    0    0  501 -0.00000000000E+00  0.00000000000E+00  0.63323186214E+02  0.63323186214E+02  0.00000000000E+00 0.  1.
          2   -1    0    0  501    0  0.00000000000E+00 -0.00000000000E+00 -0.11981455291E+04  0.11981455291E+04  0.00000000000E+00 0. -1.
         25    2    1    2    0    0  0.25070134088E+03  0.22354184056E+02 -0.62705619105E+03  0.68716711499E+03  0.12509318659E+03 0.  0.
          5    1    3    3  502    0  0.11790358202E+03  0.18075365367E+02 -0.45121104053E+03  0.46672995295E+03  0.41800000000E+01 0.  1.
         -5    1    3    3    0  502  0.13279775886E+03  0.42788186885E+01 -0.17584515052E+03  0.22043716204E+03  0.41800000000E+01 0.  1.
        -11    1    1    2    0    0 -0.12070284986E+03 -0.52078485470E+02 -0.29839658089E+03  0.32607033919E+03  0.00000000000E+00 0. -1.
         11    1    1    2    0    0 -0.12999849102E+03  0.29724301414E+02 -0.20936957090E+03  0.24823126109E+03  0.00000000000E+00 0.  1.
</event>
<event>
 7    1  0.2766180E-009  0.7551305E+02  0.7561462E-02  0.1342290E+00
          3   -1    0    0  501    0  0.00000000000E+00  0.00000000000E+00  0.90602376496E+03  0.90602376496E+03  0.00000000000E+00 0. -1.
         -3   -1    0    0    0  501 -0.00000000000E+00 -0.00000000000E+00 -0.32532276227E+02  0.32532276227E+02  0.00000000000E+00 0.  1.
         25    2    1    2    0    0 -0.26239437546E+02  0.42379598664E+01  0.82851111506E+03  0.83832291476E+03  0.12509265868E+03 0.  0.
          5    1    3    3  502    0 -0.29124096065E+02  0.31092324042E+02  0.93826870789E+02  0.10313049824E+03  0.41800000000E+01 0. -1.
         -5    1    3    3    0  502  0.28846585193E+01 -0.26854364175E+02  0.73468424427E+03  0.73519241652E+03  0.41800000000E+01 0. -1.
        -11    1    1    2    0    0  0.32148344492E+02  0.31296633099E+02  0.45917751409E+02  0.64198404897E+02  0.00000000000E+00 0. -1.
         11    1    1    2    0    0 -0.59089069460E+01 -0.35534592965E+02 -0.93737773409E+00  0.36034721527E+02  0.00000000000E+00 0.  1.
</event>
<event>
 7    1  0.2766180E-009  0.9809266E+02  0.7561462E-02  0.1284359E+00
          2   -1    0    0  501    0  0.00000000000E+00  0.00000000000E+00  0.43978200828E+03  0.43978200828E+03  0.00000000000E+00 0. -1.
         -2   -1    0    0    0  501 -0.00000000000E+00 -0.00000000000E+00 -0.26253871456E+02  0.26253871456E+02  0.00000000000E+00 0.  1.
         25    2    1    2    0    0  0.46934338031E+01  0.88177087480E+01  0.24767936799E+03  0.27765495456E+03  0.12508966447E+03 0.  0.
          5    1    3    3  502    0  0.62039228821E+02 -0.13787120505E+02  0.12793997188E+03  0.14291626713E+03  0.41800000000E+01 0. -1.
         -5    1    3    3    0  502 -0.57345795018E+02  0.22604829253E+02  0.11973939611E+03  0.13473868744E+03  0.41800000000E+01 0. -1.
        -11    1    1    2    0    0 -0.27164413623E+01 -0.39687535096E+02  0.14670603163E+03  0.15200374736E+03  0.00000000000E+00 0. -1.
         11    1    1    2    0    0 -0.19769924408E+01  0.30869826348E+02  0.19142737210E+02  0.36377177814E+02  0.00000000000E+00 0.  1.
</event>
<event>
 7    1  0.2766180E-009  0.1330546E+03  0.7561462E-02  0.1222992E+00
          2   -1    0    0  501    0  0.00000000000E+00  0.00000000000E+00  0.57916238204E+03  0.57916238204E+03  0.00000000000E+00 0.  1.
         -2   -1    0    0    0  501 -0.00000000000E+00 -0.00000000000E+00 -0.36722766848E+02  0.36722766848E+02  0.00000000000E+00 0. -1.
         25    2    1    2    0    0  0.60654574334E+02  0.65929031704E+02  0.28749490248E+03  0.32607784120E+03  0.12509126652E+03 0.  0.
          5    1    3    3  502    0  0.43492632547E+02 -0.30590286759E+02  0.75103792745E+02  0.92116376473E+02  0.41800000000E+01 0.  1.
         -5    1    3    3    0  502  0.17161941787E+02  0.96519318463E+02  0.21239110974E+03  0.23396146473E+03  0.41800000000E+01 0.  1.
        -11    1    1    2    0    0 -0.12229203784E+02 -0.65077930665E+02  0.22088680937E+03  0.23059851049E+03  0.00000000000E+00 0.  1.
         11    1    1    2    0    0 -0.48425370549E+02 -0.85110103894E+00  0.34057903333E+02  0.59208797195E+02  0.00000000000E+00 0. -1.
</event>
<event>
 7    1  0.2766180E-009  0.1676729E+03  0.7561462E-02  0.1180297E+00
          4   -1    0    0  501    0  0.00000000000E+00  0.00000000000E+00  0.97220960840E+02  0.97220960840E+02  0.00000000000E+00 0. -1.
         -4   -1    0    0    0  501 -0.00000000000E+00 -0.00000000000E+00 -0.34017492115E+03  0.34017492115E+03  0.00000000000E+00 0.  1.
         25    2    1    2    0    0 -0.95520788989E+02  0.10595457921E+03 -0.90333791230E+02  0.21013651728E+03  0.12508624254E+03 0.  0.
          5    1    3    3  502    0 -0.43285337220E+02  0.12569537887E+03 -0.55034604445E+02  0.14394175480E+03  0.41800000000E+01 0.  1.
         -5    1    3    3    0  502 -0.52235451770E+02 -0.19740799658E+02 -0.35299186785E+02  0.66194762485E+02  0.41800000000E+01 0.  1.
        -11    1    1    2    0    0  0.63166837524E+02 -0.45745678676E+02 -0.23992228498E+02  0.81598673449E+02  0.00000000000E+00 0.  1.
         11    1    1    2    0    0  0.32353951466E+02 -0.60208900538E+02 -0.12862794059E+03  0.14566069126E+03  0.00000000000E+00 0. -1.
</event>
<event>
 7    1  0.2766180E-009  0.1405474E+03  0.7561462E-02  0.1212594E+00
         -1   -1    0    0    0  501 -0.00000000000E+00  0.00000000000E+00  0.70992430956E+03  0.70992430956E+03  0.00000000000E+00 0.  1.
          1   -1    0    0  501    0  0.00000000000E+00 -0.00000000000E+00 -0.29425937597E+02  0.29425937597E+02  0.00000000000E+00 0. -1.
         25    2    1    2    0    0  0.72219361376E+02  0.55086746265E+02  0.44493990182E+03  0.47102962780E+03  0.12508880152E+03 0.  0.
          5    1    3    3  502    0 -0.32352394636E+02  0.32065092242E+02  0.10319432287E+03  0.11287775800E+03  0.41800000000E+01 0. -1.
         -5    1    3    3    0  502  0.10457175601E+03  0.23021654023E+02  0.34174557895E+03  0.35815186980E+03  0.41800000000E+01 0. -1.
        -11    1    1    2    0    0 -0.11645942827E+02  0.25118366971E+02  0.43770827168E+02  0.51792332005E+02  0.00000000000E+00 0. -1.
         11    1    1    2    0    0 -0.60573418549E+02 -0.80205113236E+02  0.19178764298E+03  0.21652828735E+03  0.00000000000E+00 0.  1.
</event>
<event>
 7    1  0.2766180E-009  0.1452024E+03  0.7561462E-02  0.1206495E+00
          2   -1    0    0  501    0  0.00000000000E+00  0.00000000000E+00  0.11310296397E+03  0.11310296397E+03  0.00000000000E+00 0. -1.
         -2   -1    0    0    0  501 -0.00000000000E+00 -0.00000000000E+00 -0.27170820176E+03  0.27170820176E+03  0.00000000000E+00 0.  1.
         25    2    1    2    0    0  0.71335935063E+02 -0.90683669206E+02 -0.16620773114E+03  0.23787618355E+03  0.12509086825E+03 0.  0.
          5    1    3    3  502    0  0.10073951902E+03 -0.68176937799E+02 -0.84787911734E+02  0.14833410908E+03  0.41800000000E+01 0.  1.
         -5    1    3    3    0  502 -0.29403583960E+02 -0.22506731407E+02 -0.81419819408E+02  0.89542074472E+02  0.41800000000E+01 0.  1.
        -11    1    1    2    0    0 -0.22771109529E+02  0.77969528022E+02 -0.27413472260E+02  0.85727878724E+02  0.00000000000E+00 0.  1.
         11    1    1    2    0    0 -0.48564825534E+02  0.12714141185E+02  0.35015965614E+02  0.61207103453E+02  0.00000000000E+00 0. -1.
</event>
<event>
 7    1  0.2766180E-009  0.1654449E+03  0.7561462E-02  0.1182683E+00
         -1   -1    0    0    0  501 -0.00000000000E+00  0.00000000000E+00  0.21170475044E+03  0.21170475044E+03  0.00000000000E+00 0.  1.
          1   -1    0    0  501    0  0.00000000000E+00 -0.00000000000E+00 -0.21505790056E+03  0.21505790056E+03  0.00000000000E+00 0. -1.
         25    2    1    2    0    0  0.56293776538E+01  0.11304037747E+03 -0.12866820466E+03  0.21215962938E+03  0.12508550921E+03 0.  0.
          5    1    3    3  502    0  0.50916862830E+02  0.10911075254E+03 -0.10894343559E+03  0.16243099396E+03  0.41800000000E+01 0.  1.
         -5    1    3    3    0  502 -0.45287485176E+02  0.39296249332E+01 -0.19724769064E+02  0.49728635416E+02  0.41800000000E+01 0.  1.
        -11    1    1    2    0    0  0.55348240793E+02 -0.73799724549E+02  0.10401080617E+03  0.13902544696E+03  0.00000000000E+00 0.  1.
         11    1    1    2    0    0 -0.60977618447E+02 -0.39240652925E+02  0.21304248367E+02  0.75577574663E+02  0.00000000000E+00 0. -1.
</event>
<event>
 7    1  0.3377184E-009  0.1279499E+03  0.7561462E-02  0.1230530E+00
          2   -1    0    0  501    0  0.00000000000E+00  0.00000000000E+00  0.19232781702E+03  0.19232781702E+03  0.00000000000E+00 0. -1.
         -2   -1    0    0    0  501 -0.00000000000E+00 -0.00000000000E+00 -0.10702918456E+03  0.10702918456E+03  0.00000000000E+00 0.  1.
         25    2    1    2    0    0 -0.91681500063E+02  0.57694191542E+01  0.27367843034E+02  0.15758909313E+03  0.12508612949E+03 0.  0.
          5    1    3    3  502    0 -0.97047225700E+02  0.41307751181E+02  0.47977941847E+02  0.11594761588E+03  0.41800000000E+01 0.  1.
         -5    1    3    3    0  502  0.53657256369E+01 -0.35538332027E+02 -0.20610098813E+02  0.41641477255E+02  0.41800000000E+01 0.  1.
        -11    1    1    2    0    0  0.50398133763E+02  0.30753800725E+02  0.63089835708E+02  0.86406571020E+02  0.00000000000E+00 0. -1.
         11    1    1    2    0    0  0.41283366301E+02 -0.36523219879E+02 -0.51590462740E+01  0.55361337429E+02  0.00000000000E+00 0.  1.
</event>
<event>
 7    1  0.3828450E-009  0.2512975E+03  0.7561462E-02  0.1112488E+00
         -2   -1    0    0    0  501 -0.00000000000E+00  0.00000000000E+00  0.39295518503E+02  0.39295518503E+02  0.00000000000E+00 0.  1.
          2   -1    0    0  501    0  0.00000000000E+00 -0.00000000000E+00 -0.17792770529E+04  0.17792770529E+04  0.00000000000E+00 0. -1.
         25    2    1    2    0    0 -0.23993815821E+03  0.19593023704E+02 -0.91840364108E+03  0.95763623570E+03  0.12509078954E+03 0.  0.
          5    1    3    3  502    0 -0.60982461121E+02  0.27907156592E+02 -0.10450153825E+03  0.12424054833E+03  0.41800000000E+01 0.  1.
         -5    1    3    3    0  502 -0.17895569709E+03 -0.83141328881E+01 -0.81390210283E+03  0.83339568736E+03  0.41800000000E+01 0.  1.
        -11    1    1    2    0    0  0.16877499428E+03  0.27313915874E+02 -0.50902635555E+03  0.53697195395E+03  0.00000000000E+00 0.  1.
         11    1    1    2    0    0  0.71163163934E+02 -0.46906939577E+02 -0.31255153780E+03  0.32396438178E+03  0.00000000000E+00 0. -1.
</event>
<event>
 7    1  0.2766180E-009  0.1807556E+03  0.7561462E-02  0.1167074E+00
         -3   -1    0    0    0  501 -0.00000000000E+00  0.00000000000E+00  0.28758535442E+03  0.28758535442E+03  0.00000000000E+00 0.  1.
          3   -1    0    0  501    0  0.00000000000E+00 -0.00000000000E+00 -0.20467279064E+03  0.20467279064E+03  0.00000000000E+00 0. -1.
         25    2    1    2    0    0 -0.25119010914E+02 -0.14241414870E+03 -0.12011812606E+03  0.22580626621E+03  0.12508937284E+03 0.  0.
          5    1    3    3  502    0 -0.29123650884E+01 -0.16152834257E+03 -0.10118111612E+03  0.19066981404E+03  0.41800000000E+01 0. -1.
         -5    1    3    3    0  502 -0.22206645825E+02  0.19114193878E+02 -0.18937009935E+02  0.35136452178E+02  0.41800000000E+01 0. -1.
        -11    1    1    2    0    0 -0.22489695301E+02  0.11102680930E+03  0.11391301218E+03  0.16065152699E+03  0.00000000000E+00 0. -1.
         11    1    1    2    0    0  0.47608706214E+02  0.31387339394E+02  0.89117677659E+02  0.10580035186E+03  0.00000000000E+00 0.  1.
</event>
<event>
 7    1  0.2766180E-009  0.6172337E+02  0.7561462E-02  0.1390739E+00
          1   -1    0    0  501    0  0.00000000000E+00  0.00000000000E+00  0.48003378328E+02  0.48003378328E+02  0.00000000000E+00 0. -1.
         -1   -1    0    0    0  501 -0.00000000000E+00 -0.00000000000E+00 -0.27403926822E+03  0.27403926822E+03  0.00000000000E+00 0.  1.
         25    2    1    2    0    0 -0.22969544090E+01 -0.23728741036E+02 -0.17195487783E+03  0.21397495052E+03  0.12509384593E+03 0.  0.
          5    1    3    3  502    0  0.59640500186E+01 -0.38278948024E+01  0.19552903000E+02  0.21213464756E+02  0.41800000000E+01 0.  1.
         -5    1    3    3    0  502 -0.82610044275E+01 -0.19900846234E+02 -0.19150778083E+03  0.19276148576E+03  0.41800000000E+01 0.  1.
        -11    1    1    2    0    0  0.37085484732E+02 -0.16063416927E+02 -0.19227687038E+02  0.44755675507E+02  0.00000000000E+00 0. -1.
         11    1    1    2    0    0 -0.34788530323E+02  0.39792157963E+02 -0.34853325022E+02  0.63312020521E+02  0.00000000000E+00 0.  1.
</event>
<event>
 7    1  0.2766180E-009  0.1432201E+03  0.7561462E-02  0.1209061E+00
          2   -1    0    0  501    0  0.00000000000E+00  0.00000000000E+00  0.18957663189E+03  0.18957663189E+03  0.00000000000E+00 0.  1.
         -2   -1    0    0    0  501 -0.00000000000E+00 -0.00000000000E+00 -0.14005336655E+03  0.14005336655E+03  0.00000000000E+00 0. -1.
         25    2    1    2    0    0  0.39011574764E+02  0.11570639887E+03  0.34112024643E+02  0.17810223740E+03  0.12508758146E+03 0.  0.
          5    1    3    3  502    0  0.76969143090E+02  0.67041086722E+02  0.50714978236E+02  0.11405366156E+03  0.41800000000E+01 0.  1.
         -5    1    3    3    0  502 -0.37957568326E+02  0.48665312143E+02 -0.16602953593E+02  0.64048575841E+02  0.41800000000E+01 0.  1.
        -11    1    1    2    0    0 -0.25238826290E+02 -0.86946190812E+02 -0.30582519554E+02  0.95561126780E+02  0.00000000000E+00 0. -1.
         11    1    1    2    0    0 -0.13772748474E+02 -0.28760208054E+02  0.45993760260E+02  0.55966634263E+02  0.00000000000E+00 0.  1.
</event>
<event>
 7    1  0.2766180E-009  0.2069948E+03  0.7561462E-02  0.1143968E+00
         -1   -1    0    0    0  501 -0.00000000000E+00  0.00000000000E+00  0.10597457382E+04  0.10597457382E+04  0.00000000000E+00 0.  1.
          1   -1    0    0  501    0  0.00000000000E+00 -0.00000000000E+00 -0.55070524989E+02  0.55070524989E+02  0.00000000000E+00 0. -1.
         25    2    1    2    0    0 -0.84138175029E+02 -0.17238430520E+03  0.74427961446E+03  0.77871217994E+03  0.12507970863E+03 0.  0.
          5    1    3    3  502    0 -0.94152874325E+02 -0.15360917245E+03  0.73185927202E+03  0.75372143929E+03  0.41800000000E+01 0.  1.
         -5    1    3    3    0  502  0.10014699297E+02 -0.18775132755E+02  0.12420342439E+02  0.24990740651E+02  0.41800000000E+01 0.  1.
        -11    1    1    2    0    0  0.16658653729E+01  0.10654411450E+03  0.12024364439E+03  0.16066411378E+03  0.00000000000E+00 0. -1.
         11    1    1    2    0    0  0.82472309656E+02  0.65840190699E+02  0.14015195433E+03  0.17543996943E+03  0.00000000000E+00 0.  1.
</event>
<event>
 7    1  0.2766180E-009  0.1024528E+03  0.7561462E-02  0.1275221E+00
         -1   -1    0    0    0  501 -0.00000000000E+00  0.00000000000E+00  0.22955999735E+02  0.22955999735E+02  0.00000000000E+00 0.  1.
          1   -1    0    0  501    0  0.00000000000E+00 -0.00000000000E+00 -0.85625237529E+03  0.85625237529E+03  0.00000000000E+00 0. -1.
         25    2    1    2    0    0 -0.43430701739E+02 -0.52797927923E-01 -0.69071948809E+03  0.70329833822E+03  0.12509561411E+03 0.  0.
          5    1    3    3  502    0 -0.78048181773E+02 -0.10790866806E+02 -0.27831277046E+03  0.28928088787E+03  0.41800000000E+01 0. -1.
         -5    1    3    3    0  502  0.34617480034E+02  0.10738068878E+02 -0.41240671763E+03  0.41401745035E+03  0.41800000000E+01 0. -1.
        -11    1    1    2    0    0  0.29309942319E+02  0.38600201884E+02 -0.11918068337E+03  0.12865878746E+03  0.00000000000E+00 0. -1.
         11    1    1    2    0    0  0.14120759421E+02 -0.38547403956E+02 -0.23396204100E+02  0.47251249345E+02  0.00000000000E+00 0.  1.
</event>
<event>
 7    1  0.2766180E-009  0.2453574E+03  0.7561462E-02  0.1116274E+00
         -1   -1    0    0    0  501 -0.00000000000E+00  0.00000000000E+00  0.87036193820E+02  0.87036193820E+02  0.00000000000E+00 0.  1.
          1   -1    0    0  501    0  0.00000000000E+00 -0.00000000000E+00 -0.74924704966E+03  0.74924704966E+03  0.00000000000E+00 0. -1.
         25    2    1    2    0    0  0.11925033704E+03  0.19713436669E+03 -0.29475255000E+03  0.39446329727E+03  0.12505848930E+03 0.  0.
          5    1    3    3  502    0  0.12539655331E+03  0.96897693566E+02 -0.20914402887E+03  0.26243505066E+03  0.41800000000E+01 0.  1.
         -5    1    3    3    0  502 -0.61462162756E+01  0.10023667312E+03 -0.85608521129E+02  0.13202824661E+03  0.41800000000E+01 0.  1.
        -11    1    1    2    0    0 -0.35287351741E+02 -0.38731785346E+02 -0.15614613545E+03  0.16470265330E+03  0.00000000000E+00 0.  1.
         11    1    1    2    0    0 -0.83962985297E+02 -0.15840258134E+03 -0.21131217040E+03  0.27711729292E+03  0.00000000000E+00 0. -1.
</event>
<event>
 7    1  0.2766180E-009  0.1484268E+03  0.7561462E-02  0.1202420E+00
          2   -1    0    0  501    0  0.00000000000E+00  0.00000000000E+00  0.51235608992E+03  0.51235608992E+03  0.00000000000E+00 0.  1.
         -2   -1    0    0    0  501 -0.00000000000E+00 -0.00000000000E+00 -0.58424138445E+02  0.58424138445E+02  0.00000000000E+00 0. -1.
         25    2    1    2    0    0 -0.11738471389E+03  0.31251669244E+02  0.33504352475E+03  0.37770335330E+03  0.12509924752E+03 0.  0.
          5    1    3    3  502    0  0.43356650087E+01 -0.14352686243E+02  0.15403602712E+03  0.15482043677E+03  0.41800000000E+01 0.  1.
         -5    1    3    3    0  502 -0.12172037890E+03  0.45604355487E+02  0.18100749764E+03  0.22288291653E+03  0.41800000000E+01 0.  1.
        -11    1    1    2    0    0  0.10804009519E+01 -0.34861212466E+02  0.18967827836E+02  0.39702013722E+02  0.00000000000E+00 0.  1.
         11    1    1    2    0    0  0.11630431294E+03  0.36095432219E+01  0.99920598884E+02  0.15337486134E+03  0.00000000000E+00 0. -1.
</event>
<event>
 7    1  0.2766180E-009  0.1263237E+03  0.7561462E-02  0.1233015E+00
          1   -1    0    0  501    0  0.00000000000E+00  0.00000000000E+00  0.56496126647E+02  0.56496126647E+02  0.00000000000E+00 0. -1.
         -1   -1    0    0    0  501 -0.00000000000E+00 -0.00000000000E+00 -0.44613509092E+03  0.44613509092E+03  0.00000000000E+00 0.  1.
         25    2    1    2    0    0 -0.38726300809E+02  0.58372368465E+02 -0.64806751151E+02  0.15733665269E+03  0.12509135665E+03 0.  0.
          5    1    3    3  502    0  0.41319003819E+02 -0.41180209249E+01 -0.19099829925E+02  0.45896558434E+02  0.41800000000E+01 0. -1.
         -5    1    3    3    0  502 -0.80045304628E+02  0.62490389390E+02 -0.45706921226E+02  0.11144009425E+03  0.41800000000E+01 0. -1.
        -11    1    1    2    0    0  0.65271973163E+02 -0.46820680737E+02 -0.17316806564E+03  0.19089207837E+03  0.00000000000E+00 0.  1.
         11    1    1    2    0    0 -0.26545672354E+02 -0.11551687728E+02 -0.15166414748E+03  0.15440248651E+03  0.00000000000E+00 0. -1.
</event>
<event>
 7    1  0.2805837E-009  0.2089309E+03  0.7561462E-02  0.1142415E+00
          1   -1    0    0  501    0  0.00000000000E+00  0.00000000000E+00  0.76686592654E+03  0.76686592654E+03  0.00000000000E+00 0. -1.
         -1   -1    0    0    0  501 -0.00000000000E+00 -0.00000000000E+00 -0.66932314255E+02  0.66932314255E+02  0.00000000000E+00 0.  1.
         25    2    1    2    0    0 -0.15862219114E+03  0.11912346883E+03  0.37439960105E+03  0.44178403224E+03  0.12508664807E+03 0.  0.
          5    1    3    3  502    0 -0.22523283470E+02  0.59256761359E+02  0.38151227059E+02  0.74105671788E+02  0.41800000000E+01 0.  1.
         -5    1    3    3    0  502 -0.13609890767E+03  0.59866707476E+02  0.33624837399E+03  0.36767836045E+03  0.41800000000E+01 0.  1.
        -11    1    1    2    0    0  0.37231464494E+02 -0.59883895522E+02  0.18068968623E+03  0.19396140235E+03  0.00000000000E+00 0.  1.
         11    1    1    2    0    0  0.12139072664E+03 -0.59239573313E+02  0.14484432501E+03  0.19805280621E+03  0.00000000000E+00 0. -1.
</event>
<event>
 7    1  0.2766180E-009  0.8578698E+02  0.7561462E-02  0.1313387E+00
          2   -1    0    0  501    0  0.00000000000E+00  0.00000000000E+00  0.74942427525E+03  0.74942427525E+03  0.00000000000E+00 0. -1.
         -2   -1    0    0    0  501 -0.00000000000E+00 -0.00000000000E+00 -0.20914005299E+02  0.20914005299E+02  0.00000000000E+00 0.  1.
         25    2    1    2    0    0 -0.18150728778E+02 -0.61798140138E+02  0.40357988713E+03  0.42740259938E+03  0.12509115708E+03 0.  0.
          5    1    3    3  502    0 -0.13104857232E+02 -0.34422594336E+02  0.39669613996E+03  0.39842433679E+03  0.41800000000E+01 0.  1.
         -5    1    3    3    0  502 -0.50458715461E+01 -0.27375545802E+02  0.68837471679E+01  0.28978262589E+02  0.41800000000E+01 0.  1.
        -11    1    1    2    0    0 -0.27771556396E+02  0.52658573931E+02  0.22221510803E+03  0.23005160071E+03  0.00000000000E+00 0. -1.
         11    1    1    2    0    0  0.45922285175E+02  0.91395662075E+01  0.10271527480E+03  0.11288408046E+03  0.00000000000E+00 0.  1.
</event>
<event>
 7    1  0.2766180E-009  0.1075114E+03  0.7561462E-02  0.1265249E+00
          2   -1    0    0  501    0  0.00000000000E+00  0.00000000000E+00  0.98684125708E+02  0.98684125708E+02  0.00000000000E+00 0. -1.
         -2   -1    0    0    0  501 -0.00000000000E+00 -0.00000000000E+00 -0.23827389124E+03  0.23827389124E+03  0.00000000000E+00 0.  1.
         25    2    1    2    0    0  0.45538767702E+02 -0.53131355346E+02 -0.16595371794E+03  0.21928118157E+03  0.12508748862E+03 0.  0.
          5    1    3    3  502    0 -0.12318273224E+02 -0.51621356917E+02 -0.11743880630E+02  0.54515094033E+02  0.41800000000E+01 0. -1.
         -5    1    3    3    0  502  0.57857040926E+02 -0.15099984285E+01 -0.15420983731E+03  0.16476608754E+03  0.41800000000E+01 0. -1.
        -11    1    1    2    0    0 -0.56662348248E+02  0.65843992452E+02  0.60139043021E+00  0.86870102576E+02  0.00000000000E+00 0.  1.
         11    1    1    2    0    0  0.11123580546E+02 -0.12712637106E+02  0.25762561975E+02  0.30806732801E+02  0.00000000000E+00 0. -1.
</event>
<event>
 7    1  0.2766180E-009  0.1309177E+03  0.7561462E-02  0.1226100E+00
          2   -1    0    0  501    0  0.00000000000E+00  0.00000000000E+00  0.17114862505E+03  0.17114862505E+03  0.00000000000E+00 0. -1.
         -2   -1    0    0    0  501 -0.00000000000E+00 -0.00000000000E+00 -0.15206719358E+03  0.15206719358E+03  0.00000000000E+00 0.  1.
         25    2    1    2    0    0  0.11468625375E+03 -0.22989705820E+02 -0.10483190139E+02  0.17158241070E+03  0.12509661472E+03 0.  0.
          5    1    3    3  502    0  0.66122341073E+02 -0.19223774652E+02  0.56142039472E+02  0.88944468613E+02  0.41800000000E+01 0.  1.
         -5    1    3    3    0  502  0.48563912673E+02 -0.37659311683E+01 -0.66625229611E+02  0.82637942087E+02  0.41800000000E+01 0.  1.
        -11    1    1    2    0    0 -0.80092605604E+02  0.54734047685E+02  0.37522674823E+02  0.10401246355E+03  0.00000000000E+00 0.  1.
         11    1    1    2    0    0 -0.34593648142E+02 -0.31744341865E+02 -0.79580532128E+01  0.47620944375E+02  0.00000000000E+00 0. -1.
</event>
<event>
 7    1  0.2766180E-009  0.1451521E+03  0.7561462E-02  0.1206560E+00
          1   -1    0    0  501    0  0.00000000000E+00  0.00000000000E+00  0.86385362310E+03  0.86385362310E+03  0.00000000000E+00 0. -1.
         -1   -1    0    0    0  501 -0.00000000000E+00 -0.00000000000E+00 -0.28192169891E+02  0.28192169891E+02  0.00000000000E+00 0.  1.
         25    2    1    2    0    0 -0.76550620921E+02  0.62262186921E+02  0.59817156462E+03  0.61902498593E+03  0.12508451144E+03 0.  0.
          5    1    3    3  502    0  0.30699238560E+02  0.32514651920E+02  0.23128310635E+03  0.23560346670E+03  0.41800000000E+01 0. -1.
         -5    1    3    3    0  502 -0.10724985948E+03  0.29747535001E+02  0.36688845827E+03  0.38342151923E+03  0.41800000000E+01 0. -1.
        -11    1    1    2    0    0  0.45209116641E+02 -0.84329582179E+02  0.15679031482E+03  0.18368055281E+03  0.00000000000E+00 0.  1.
         11    1    1    2    0    0  0.31341504280E+02  0.22067395258E+02  0.80699573771E+02  0.89340254258E+02  0.00000000000E+00 0. -1.
</event>
<event>
 7    1  0.2766180E-009  0.1128131E+03  0.7561462E-02  0.1255447E+00
         -2   -1    0    0    0  501 -0.00000000000E+00  0.00000000000E+00  0.25176672284E+02  0.25176672284E+02  0.00000000000E+00 0. -1.
          2   -1    0    0  501    0  0.00000000000E+00 -0.00000000000E+00 -0.68965187372E+03  0.68965187372E+03  0.00000000000E+00 0.  1.
         25    2    1    2    0    0 -0.19427203965E+01  0.72273042739E+02 -0.31402327528E+03  0.34566655317E+03  0.12509029418E+03 0.  0.
          5    1    3    3  502    0 -0.26169807686E+02  0.81188906706E+02 -0.10655935726E+03  0.13656085246E+03  0.41800000000E+01 0.  1.
         -5    1    3    3    0  502  0.24227087290E+02 -0.89158639662E+01 -0.20746391802E+03  0.20910570071E+03  0.41800000000E+01 0.  1.
        -11    1    1    2    0    0 -0.29117769861E+02  0.61142424562E+01 -0.12407554240E+03  0.12759298062E+03  0.00000000000E+00 0. -1.
         11    1    1    2    0    0  0.31060490257E+02 -0.78387285196E+02 -0.22637638376E+03  0.24156901221E+03  0.00000000000E+00 0.  1.
</event>
<event>
 7    1  0.2766180E-009  0.1223067E+03  0.7561462E-02  0.1239339E+00
         -2   -1    0    0    0  501 -0.00000000000E+00  0.00000000000E+00  0.18398784161E+02  0.18398784161E+02  0.00000000000E+00 0.  1.
          2   -1    0    0  501    0  0.00000000000E+00 -0.00000000000E+00 -0.11088468149E+04  0.11088468149E+04  0.00000000000E+00 0. -1.
         25    2    1    2    0    0  0.84076848386E+02  0.32006088127E+02 -0.54816299959E+03  0.56940607458E+03  0.12508915833E+03 0.  0.
          5    1    3    3  502    0  0.70473283835E+02  0.53159030765E+02 -0.18163879153E+03  0.20199626055E+03  0.41800000000E+01 0.  1.
         -5    1    3    3    0  502  0.13603564551E+02 -0.21152942637E+02 -0.36652420806E+03  0.36740981403E+03  0.41800000000E+01 0.  1.
        -11    1    1    2    0    0 -0.24847128018E+01  0.28850660471E+02 -0.12766329604E+03  0.13090627015E+03  0.00000000000E+00 0.  1.
         11    1    1    2    0    0 -0.81592135584E+02 -0.60856748599E+02 -0.41462173514E+03  0.42693325438E+03  0.00000000000E+00 0. -1.
</event>
<event>
 7    1  0.3354685E-009  0.6873965E+02  0.7561462E-02  0.1364432E+00
          3   -1    0    0  501    0  0.00000000000E+00  0.00000000000E+00  0.18428025743E+03  0.18428025743E+03  0.00000000000E+00 0.  1.
         -3   -1    0    0    0  501 -0.00000000000E+00 -0.00000000000E+00 -0.77003833447E+02  0.77003833447E+02  0.00000000000E+00 0. -1.
         25    2    1    2    0    0 -0.13996034200E+02  0.46646384264E+02  0.67776372757E+02  0.15037941107E+03  0.12509419024E+03 0.  0.
          5    1    3    3  502    0 -0.28997599521E+01 -0.16602845058E+02  0.82548017419E+02  0.84354671783E+02  0.41800000000E+01 0. -1.
         -5    1    3    3    0  502 -0.11096274247E+02  0.63249229322E+02 -0.14771644662E+02  0.66024739288E+02  0.41800000000E+01 0. -1.
        -11    1    1    2    0    0 -0.13835325482E+00 -0.40248025429E+02  0.67675752866E+02  0.78739635626E+02  0.00000000000E+00 0.  1.
         11    1    1    2    0    0  0.14134387454E+02 -0.63983588350E+01 -0.28175701638E+02  0.32165044182E+02  0.00000000000E+00 0. -1.
</event>
<event>
 7    1  0.2766180E-009  0.1236356E+03  0.7561462E-02  0.1237217E+00
         -2   -1    0    0    0  501 -0.00000000000E+00  0.00000000000E+00  0.50211921098E+02  0.50211921098E+02  0.00000000000E+00 0.  1.
          2   -1    0    0  501    0  0.00000000000E+00 -0.00000000000E+00 -0.38627802584E+03  0.38627802584E+03  0.00000000000E+00 0. -1.
         25    2    1    2    0    0  0.63791178848E+02  0.20251543965E+02 -0.26696070202E+03  0.30231560655E+03  0.12508904831E+03 0.  0.
          5    1    3    3  502    0 -0.27438337744E+02  0.39667503079E+02 -0.86134237983E+02  0.98807654215E+02  0.41800000000E+01 0.  1.
         -5    1    3    3    0  502  0.91229516591E+02 -0.19415959114E+02 -0.18082646404E+03  0.20350795233E+03  0.41800000000E+01 0.  1.
        -11    1    1    2    0    0 -0.13844388805E+02  0.30985660356E+02 -0.49440066819E+02  0.59967478321E+02  0.00000000000E+00 0. -1.
         11    1    1    2    0    0 -0.49946790042E+02 -0.51237204321E+02 -0.19665335903E+02  0.74206862070E+02  0.00000000000E+00 0.  1.
</event>
<event>
 7    1  0.2766180E-009  0.1073726E+03  0.7561462E-02  0.1265514E+00
         -2   -1    0    0    0  501 -0.00000000000E+00  0.00000000000E+00  0.76508594099E+02  0.76508594099E+02  0.00000000000E+00 0.  1.
          2   -1    0    0  501    0  0.00000000000E+00 -0.00000000000E+00 -0.22514155311E+03  0.22514155311E+03  0.00000000000E+00 0. -1.
         25    2    1    2    0    0 -0.73724501211E+02  0.11253643522E+02 -0.93605245405E+02  0.17312365456E+03  0.12509161135E+03 0.  0.
          5    1    3    3  502    0 -0.30053602676E+02 -0.46851456950E+02 -0.82301120648E+02  0.99444582115E+02  0.41800000000E+01 0. -1.
         -5    1    3    3    0  502 -0.43670898535E+02  0.58105100472E+02 -0.11304124758E+02  0.73679072444E+02  0.41800000000E+01 0. -1.
        -11    1    1    2    0    0  0.38464285062E+02  0.15894566320E+02  0.16100394261E+02  0.44624669850E+02  0.00000000000E+00 0.  1.
         11    1    1    2    0    0  0.35260216149E+02 -0.27148209842E+02 -0.71128107864E+02  0.83901822798E+02  0.00000000000E+00 0. -1.
</event>
<event>
 7    1  0.2766180E-009  0.7580643E+02  0.7561462E-02  0.1341392E+00
          1   -1    0    0  501    0  0.00000000000E+00  0.00000000000E+00  0.16834356295E+03  0.16834356295E+03  0.00000000000E+00 0. -1.
         -1   -1    0    0    0  501 -0.00000000000E+00 -0.00000000000E+00 -0.87950622852E+02  0.87950622852E+02  0.00000000000E+00 0.  1.
         25    2    1    2    0    0  0.44125955485E+02  0.77421647368E+01  0.96462611739E+01  0.13322110583E+03  0.12509105332E+03 0.  0.
          5    1    3    3  502    0 -0.84602887869E+01  0.16796578462E+02  0.57984091252E+02  0.61100971945E+02  0.41800000000E+01 0.  1.
         -5    1    3    3    0  502  0.52586244272E+02 -0.90544137252E+01 -0.48337830078E+02  0.72120133882E+02  0.41800000000E+01 0.  1.
        -11    1    1    2    0    0 -0.11638378803E+02 -0.34705030178E+02  0.72070428185E+02  0.80833394087E+02  0.00000000000E+00 0. -1.
         11    1    1    2    0    0 -0.32487576682E+02  0.26962865441E+02 -0.13237492634E+01  0.42239685884E+02  0.00000000000E+00 0.  1.
</event>
<event>
 7    1  0.2766180E-009  0.2410999E+03  0.7561462E-02  0.1119062E+00
          2   -1    0    0  501    0  0.00000000000E+00  0.00000000000E+00  0.10294758451E+03  0.10294758451E+03  0.00000000000E+00 0. -1.
         -2   -1    0    0    0  501 -0.00000000000E+00 -0.00000000000E+00 -0.64045551399E+03  0.64045551399E+03  0.00000000000E+00 0.  1.
         25    2    1    2    0    0  0.21635328188E+03  0.78662881876E+02 -0.32140351701E+03  0.41465997596E+03  0.12508430499E+03 0.  0.
          5    1    3    3  502    0  0.12185279024E+03  0.68158158753E+02 -0.27573276229E+03  0.30909491373E+03  0.41800000000E+01 0.  1.
         -5    1    3    3    0  502  0.94500491642E+02  0.10504723123E+02 -0.45670754722E+02  0.10556506224E+03  0.41800000000E+01 0.  1.
        -11    1    1    2    0    0 -0.10191824020E+03 -0.85030909793E+02 -0.10676882889E+03  0.17034425770E+03  0.00000000000E+00 0.  1.
         11    1    1    2    0    0 -0.11443504168E+03  0.63680279171E+01 -0.10933558358E+03  0.15839886483E+03  0.00000000000E+00 0. -1.
</event>
<event>
 7    1  0.2766180E-009  0.1590039E+03  0.7561462E-02  0.1189826E+00
         -2   -1    0    0    0  501 -0.00000000000E+00  0.00000000000E+00  0.21493449916E+03  0.21493449916E+03  0.00000000000E+00 0.  1.
          2   -1    0    0  501    0  0.00000000000E+00 -0.00000000000E+00 -0.15581982307E+03  0.15581982307E+03  0.00000000000E+00 0. -1.
         25    2    1    2    0    0  0.11750521076E+03 -0.70587790234E+02  0.85340560679E+02  0.20425686860E+03  0.12509095247E+03 0.  0.
          5    1    3    3  502    0  0.36922157724E+01 -0.66525591941E+02  0.96596475046E+01  0.67454192089E+02  0.41800000000E+01 0. -1.
         -5    1    3    3    0  502  0.11381299498E+03 -0.40621982932E+01  0.75680913174E+02  0.13680267651E+03  0.41800000000E+01 0. -1.
        -11    1    1    2    0    0 -0.79985397458E+02  0.43872574636E+02  0.27926745151E+02  0.95406339970E+02  0.00000000000E+00 0.  1.
         11    1    1    2    0    0 -0.37519813299E+02  0.26715215598E+02 -0.54152629740E+02  0.71091113666E+02  0.00000000000E+00 0. -1.
</event>
<event>
 7    1  0.2766180E-009  0.2556304E+03  0.7561462E-02  0.1109797E+00
         -2   -1    0    0    0  501 -0.00000000000E+00  0.00000000000E+00  0.68547308569E+02  0.68547308569E+02  0.00000000000E+00 0.  1.
          2   -1    0    0  501    0  0.00000000000E+00 -0.00000000000E+00 -0.11111128318E+04  0.11111128318E+04  0.00000000000E+00 0. -1.
         25    2    1    2    0    0 -0.21052907452E+03 -0.13792586001E+03 -0.61507247526E+03  0.67624501493E+03  0.12508851396E+03 0.  0.
          5    1    3    3  502    0 -0.81138034954E+02 -0.85189207367E+02 -0.42047758297E+03  0.43664568239E+03  0.41800000000E+01 0.  1.
         -5    1    3    3    0  502 -0.12939103956E+03 -0.52736652639E+02 -0.19459489228E+03  0.23959933254E+03  0.41800000000E+01 0.  1.
        -11    1    1    2    0    0  0.26242414725E+02  0.31288997900E+02 -0.13891023478E+03  0.14478853217E+03  0.00000000000E+00 0. -1.
         11    1    1    2    0    0  0.18428665979E+03  0.10663686211E+03 -0.28858281324E+03  0.35862659332E+03  0.00000000000E+00 0.  1.
</event>
<event>
 7    1  0.2766180E-009  0.1215823E+03  0.7561462E-02  0.1240509E+00
          1   -1    0    0  501    0  0.00000000000E+00  0.00000000000E+00  0.11067198995E+04  0.11067198995E+04  0.00000000000E+00 0. -1.
         -1   -1    0    0    0  501 -0.00000000000E+00 -0.00000000000E+00 -0.15704206322E+02  0.15704206322E+02  0.00000000000E+00 0.  1.
         25    2    1    2    0    0 -0.14810404715E+02  0.68997157776E+02  0.72013380396E+03  0.73431640537E+03  0.12509169323E+03 0.  0.
          5    1    3    3  502    0  0.38644338850E+02 -0.14978719143E+02  0.27740078990E+03  0.28051099370E+03  0.41800000000E+01 0. -1.
         -5    1    3    3    0  502 -0.53454743564E+02  0.83975876918E+02  0.44273301407E+03  0.45380541167E+03  0.41800000000E+01 0. -1.
        -11    1    1    2    0    0  0.79152464900E+01  0.15337338852E+02  0.16909708524E+02  0.24162436393E+02  0.00000000000E+00 0.  1.
         11    1    1    2    0    0  0.68951582247E+01 -0.84334496628E+02  0.35397218067E+03  0.36394526404E+03  0.00000000000E+00 0. -1.
</event>
<event>
 7    1  0.2766180E-009  0.1107281E+03  0.7561462E-02  0.1259228E+00
          3   -1    0    0  501    0  0.00000000000E+00  0.00000000000E+00  0.20693366721E+03  0.20693366721E+03  0.00000000000E+00 0. -1.
         -3   -1    0    0    0  501 -0.00000000000E+00 -0.00000000000E+00 -0.91867236521E+02  0.91867236521E+02  0.00000000000E+00 0.  1.
         25    2    1    2    0    0  0.45945829508E+02 -0.10412807675E+02  0.13844828076E+03  0.19244504990E+03  0.12509086687E+03 0.  0.
          5    1    3    3  502    0 -0.24507193676E+02  0.34617428115E+02  0.79010197405E+02  0.89772226023E+02  0.41800000000E+01 0. -1.
         -5    1    3    3    0  502  0.70453023183E+02 -0.45030235790E+02  0.59438083351E+02  0.10267282388E+03  0.41800000000E+01 0. -1.
        -11    1    1    2    0    0 -0.99655594117E+01  0.44471259025E+02 -0.32506288984E+02  0.55979139661E+02  0.00000000000E+00 0.  1.
         11    1    1    2    0    0 -0.35980270096E+02 -0.34058451351E+02  0.91244389155E+01  0.50376714165E+02  0.00000000000E+00 0. -1.
</event>
<event>
 7    1  0.2766180E-009  0.1002925E+03  0.7561462E-02  0.1279682E+00
         -2   -1    0    0    0  501 -0.00000000000E+00  0.00000000000E+00  0.40798960858E+02  0.40798960858E+02  0.00000000000E+00 0.  1.
          2   -1    0    0  501    0  0.00000000000E+00 -0.00000000000E+00 -0.32414916390E+03  0.32414916390E+03  0.00000000000E+00 0. -1.
         25    2    1    2    0    0  0.20543105570E+02 -0.18494790225E+02 -0.18664994480E+03  0.22638583421E+03  0.12509303572E+03 0.  0.
          5    1    3    3  502    0  0.29593646392E+02  0.38378228113E+02 -0.24913793111E+02  0.54652006249E+02  0.41800000000E+01 0.  1.
         -5    1    3    3    0  502 -0.90505408216E+01 -0.56873018338E+02 -0.16173615169E+03  0.17173382796E+03  0.41800000000E+01 0.  1.
        -11    1    1    2    0    0 -0.34438600090E+02 -0.28808847072E+02 -0.68086538693E+02  0.81558222130E+02  0.00000000000E+00 0. -1.
         11    1    1    2    0    0  0.13895494519E+02  0.47303637297E+02 -0.28613719547E+02  0.57004068414E+02  0.00000000000E+00 0.  1.
</event>
<event>
 7    1  0.2766180E-009  0.1134510E+03  0.7561462E-02  0.1254309E+00
          2   -1    0    0  501    0  0.00000000000E+00  0.00000000000E+00  0.26805861867E+03  0.26805861867E+03  0.00000000000E+00 0. -1.
         -2   -1    0    0    0  501 -0.00000000000E+00 -0.00000000000E+00 -0.61172043738E+02  0.61172043738E+02  0.00000000000E+00 0.  1.
         25    2    1    2    0    0 -0.29197125464E+02 -0.17510162013E+02  0.18288810337E+03  0.22417161619E+03  0.12508308136E+03 0.  0.
          5    1    3    3  502    0  0.47887436983E+02 -0.41806703630E+01  0.94198773270E+02  0.10583745042E+03  0.41800000000E+01 0.  1.
         -5    1    3    3    0  502 -0.77084562448E+02 -0.13329491650E+02  0.88689330096E+02  0.11833416577E+03  0.41800000000E+01 0.  1.
        -11    1    1    2    0    0  0.35162334487E+02 -0.33729990270E+02  0.21927116535E+02  0.53431268464E+02  0.00000000000E+00 0. -1.
         11    1    1    2    0    0 -0.59652090223E+01  0.51240152283E+02  0.20713550344E+01  0.51627777759E+02  0.00000000000E+00 0.  1.
</event>
<event>
 7    1  0.2766180E-009  0.1570142E+03  0.7561462E-02  0.1192109E+00
          1   -1    0    0  501    0  0.00000000000E+00  0.00000000000E+00  0.48075915665E+03  0.48075915665E+03  0.00000000000E+00 0. -1.
         -1   -1    0    0    0  501 -0.00000000000E+00 -0.00000000000E+00 -0.59297245501E+02  0.59297245501E+02  0.00000000000E+00 0.  1.
         25    2    1    2    0    0  0.12473290188E+02 -0.11281536364E+03  0.12710583315E+03  0.21138993136E+03  0.12508765333E+03 0.  0.
          5    1    3    3  502    0  0.59793308928E+02 -0.10322595704E+03  0.10088622598E+03  0.15628928624E+03  0.41800000000E+01 0.  1.
         -5    1    3    3    0  502 -0.47320018740E+02 -0.95894065999E+01  0.26219607171E+02  0.55100645120E+02  0.41800000000E+01 0.  1.
        -11    1    1    2    0    0  0.21543185529E+02 -0.62007394952E+01  0.44057291873E+02  0.49432812789E+02  0.00000000000E+00 0.  1.
         11    1    1    2    0    0 -0.34016475717E+02  0.11901610314E+03  0.25029878613E+03  0.27923365801E+03  0.00000000000E+00 0. -1.
</event>
<event>
 7    1  0.2766180E-009  0.2451382E+03  0.7561462E-02  0.1116416E+00
          1   -1    0    0  501    0  0.00000000000E+00  0.00000000000E+00  0.55299522468E+03  0.55299522468E+03  0.00000000000E+00 0. -1.
         -1   -1    0    0    0  501 -0.00000000000E+00 -0.00000000000E+00 -0.11525616585E+03  0.11525616585E+03  0.00000000000E+00 0.  1.
         25    2    1    2    0    0  0.69780218773E+02 -0.21442268170E+03  0.18161457963E+03  0.31539823311E+03  0.12508327048E+03 0.  0.
          5    1    3    3  502    0  0.68825214461E+02 -0.43850377644E+02  0.29701215616E+02  0.86944812233E+02  0.41800000000E+01 0.  1.
         -5    1    3    3    0  502  0.95500431179E+00 -0.17057230406E+03  0.15191336401E+03  0.22845342088E+03  0.41800000000E+01 0.  1.
        -11    1    1    2    0    0  0.46471294281E+01  0.10783118440E+03  0.81986171354E+02  0.13553926528E+03  0.00000000000E+00 0. -1.
         11    1    1    2    0    0 -0.74427348201E+02  0.10659149731E+03  0.17413830784E+03  0.21731389214E+03  0.00000000000E+00 0.  1.
</event>
<event>
 7    1  0.2766180E-009  0.1246910E+03  0.7561462E-02  0.1235553E+00
          2   -1    0    0  501    0  0.00000000000E+00  0.00000000000E+00  0.19555237691E+02  0.19555237691E+02  0.00000000000E+00 0. -1.
         -2   -1    0    0    0  501 -0.00000000000E+00 -0.00000000000E+00 -0.85076642458E+03  0.85076642458E+03  0.00000000000E+00 0.  1.
         25    2    1    2    0    0 -0.22519369663E+02 -0.60594295704E+02 -0.55837513465E+03  0.57585534115E+03  0.12509113576E+03 0.  0.
          5    1    3    3  502    0 -0.20266284985E+02  0.36332029283E+02 -0.21515183155E+03  0.21917691868E+03  0.41800000000E+01 0.  1.
         -5    1    3    3    0  502 -0.22530846786E+01 -0.96926324987E+02 -0.34322330310E+03  0.35667842247E+03  0.41800000000E+01 0.  1.
        -11    1    1    2    0    0 -0.22577546938E+02  0.61404403646E+02 -0.17103240555E+03  0.18311835015E+03  0.00000000000E+00 0.  1.
         11    1    1    2    0    0  0.45096916602E+02 -0.81010794217E+00 -0.10180364668E+03  0.11134797097E+03  0.00000000000E+00 0. -1.
</event>
<event>
 7    1  0.2766180E-009  0.9505482E+02  0.7561462E-02  0.1291053E+00
         -1   -1    0    0    0  501 -0.00000000000E+00  0.00000000000E+00  0.15815497600E+03  0.15815497600E+03  0.00000000000E+00 0.  1.
          1   -1    0    0  501    0  0.00000000000E+00 -0.00000000000E+00 -0.23825617090E+03  0.23825617090E+03  0.00000000000E+00 0. -1.
         25    2    1    2    0    0  0.38227853471E+02 -0.47582407691E+01 -0.20117400630E+03  0.24000381683E+03  0.12508733606E+03 0.  0.
          5    1    3    3  502    0 -0.30724175209E+02 -0.40125195118E+01 -0.15206185907E+03  0.15524289561E+03  0.41800000000E+01 0. -1.
         -5    1    3    3    0  502  0.68952028679E+02 -0.74572125726E+00 -0.49112147238E+02  0.84760921217E+02  0.41800000000E+01 0. -1.
        -11    1    1    2    0    0  0.18164406391E+02 -0.20998951468E+02  0.10584774539E+02  0.29714290743E+02  0.00000000000E+00 0.  1.
         11    1    1    2    0    0 -0.56392259862E+02  0.25757192237E+02  0.11048803686E+03  0.12669303933E+03  0.00000000000E+00 0. -1.
</event>
<event>
 7    1  0.3255072E-009  0.8598707E+02  0.7561462E-02  0.1312871E+00
         -2   -1    0    0    0  501 -0.00000000000E+00  0.00000000000E+00  0.11001972540E+03  0.11001972540E+03  0.00000000000E+00 0.  1.
          2   -1    0    0  501    0  0.00000000000E+00 -0.00000000000E+00 -0.26220440982E+03  0.26220440982E+03  0.00000000000E+00 0. -1.
         25    2    1    2    0    0 -0.58786834292E+02 -0.78507344279E+01 -0.20836759310E+03  0.25016556367E+03  0.12509288339E+03 0.  0.
          5    1    3    3  502    0  0.19329359811E+02  0.13995417130E+00  0.69311134812E+01  0.20956060507E+02  0.41800000000E+01 0. -1.
         -5    1    3    3    0  502 -0.78116194103E+02 -0.79906885992E+01 -0.21529870658E+03  0.22920950316E+03  0.41800000000E+01 0. -1.
        -11    1    1    2    0    0  0.25563313409E+02 -0.18169244244E+02  0.70770445165E+02  0.77408399659E+02  0.00000000000E+00 0.  1.
         11    1    1    2    0    0  0.33223520883E+02  0.26019978671E+02 -0.14587536486E+02  0.44650171899E+02  0.00000000000E+00 0. -1.
</event>
<event>
 7    1  0.2766180E-009  0.1208223E+03  0.7561462E-02  0.1241747E+00
          1   -1    0    0  501    0  0.00000000000E+00  0.00000000000E+00  0.12556575484E+03  0.12556575484E+03  0.00000000000E+00 0. -1.
         -1   -1    0    0    0  501 -0.00000000000E+00 -0.00000000000E+00 -0.18079984745E+03  0.18079984745E+03  0.00000000000E+00 0.  1.
         25    2    1    2    0    0  0.74791611973E+02  0.21812373079E+02  0.39693899201E+02  0.15262126757E+03  0.12509228929E+03 0.  0.
          5    1    3    3  502    0 -0.26087256915E+02 -0.22835935641E+02  0.20720106991E+02  0.40605666645E+02  0.41800000000E+01 0.  1.
         -5    1    3    3    0  502  0.10087886889E+03  0.44648308720E+02  0.18973792209E+02  0.11201560092E+03  0.41800000000E+01 0.  1.
        -11    1    1    2    0    0  0.33714105760E+00  0.13365465481E+02  0.12303933487E+02  0.18169648067E+02  0.00000000000E+00 0. -1.
         11    1    1    2    0    0 -0.75128753031E+02 -0.35177838561E+02 -0.10723192530E+03  0.13557468666E+03  0.00000000000E+00 0.  1.
</event>
<event>
 7    1  0.2766180E-009  0.1125301E+03  0.7561462E-02  0.1255955E+00
          1   -1    0    0  501    0  0.00000000000E+00  0.00000000000E+00  0.53462342762E+03  0.53462342762E+03  0.00000000000E+00 0. -1.
         -1   -1    0    0    0  501 -0.00000000000E+00 -0.00000000000E+00 -0.38150624885E+02  0.38150624885E+02  0.00000000000E+00 0.  1.
         25    2    1    2    0    0 -0.50667322004E+02  0.51085144464E+02  0.15639428902E+03  0.21279787984E+03  0.12508754743E+03 0.  0.
          5    1    3    3  502    0 -0.73748800543E+01  0.75084010624E+02  0.14237267961E+03  0.16118141893E+03  0.41800000000E+01 0. -1.
         -5    1    3    3    0  502 -0.43292441950E+02 -0.23998866160E+02  0.14021609408E+02  0.51616460915E+02  0.41800000000E+01 0. -1.
        -11    1    1    2    0    0 -0.11766377320E+02  0.77067934367E+01  0.63993478653E+01  0.15452959374E+02  0.00000000000E+00 0.  1.
         11    1    1    2    0    0  0.62433699325E+02 -0.58791937900E+02  0.33367916585E+03  0.34452321329E+03  0.00000000000E+00 0. -1.
</event>
<event>
 7    1  0.2766180E-009  0.1122809E+03  0.7561462E-02  0.1256403E+00
         -2   -1    0    0    0  501 -0.00000000000E+00  0.00000000000E+00  0.21861769168E+02  0.21861769168E+02  0.00000000000E+00 0.  1.
          2   -1    0    0  501    0  0.00000000000E+00 -0.00000000000E+00 -0.67038482660E+03  0.67038482660E+03  0.00000000000E+00 0. -1.
         25    2    1    2    0    0 -0.10685855150E+02 -0.41075936857E+02 -0.46846672215E+03  0.48673508129E+03  0.12509416256E+03 0.  0.
          5    1    3    3  502    0  0.82116461790E+01 -0.81208234181E+02 -0.36576589023E+03  0.37478576185E+03  0.41800000000E+01 0. -1.
         -5    1    3    3    0  502 -0.18897501329E+02  0.40132297324E+02 -0.10270083192E+03  0.11194931944E+03  0.41800000000E+01 0. -1.
        -11    1    1    2    0    0  0.48936170056E+02  0.12432788228E+02 -0.10543019606E+03  0.11689674591E+03  0.00000000000E+00 0. -1.
         11    1    1    2    0    0 -0.38250314906E+02  0.28643148629E+02 -0.74626139221E+02  0.88614768570E+02  0.00000000000E+00 0.  1.
</event>
<event>
 7    1  0.2766180E-009  0.1024395E+03  0.7561462E-02  0.1275248E+00
          2   -1    0    0  501    0  0.00000000000E+00  0.00000000000E+00  0.44128945410E+03  0.44128945410E+03  0.00000000000E+00 0. -1.
         -2   -1    0    0    0  501 -0.00000000000E+00 -0.00000000000E+00 -0.47438706653E+02  0.47438706653E+02  0.00000000000E+00 0.  1.
         25    2    1    2    0    0 -0.23884231129E+02  0.34163780204E+01  0.58124380417E+02  0.14003050843E+03  0.12509185248E+03 0.  0.
          5    1    3    3  502    0  0.49421394932E+02  0.13807936285E+01  0.60354139179E+01  0.49982791931E+02  0.41800000000E+01 0.  1.
         -5    1    3    3    0  502 -0.73305626061E+02  0.20355843919E+01  0.52088966499E+02  0.90047716501E+02  0.41800000000E+01 0.  1.
        -11    1    1    2    0    0 -0.18546080261E+02  0.24715449591E+02  0.52387403412E+02  0.60821464778E+02  0.00000000000E+00 0.  1.
         11    1    1    2    0    0  0.42430311390E+02 -0.28131827611E+02  0.28333896362E+03  0.28787618754E+03  0.00000000000E+00 0. -1.
</event>
<event>
 7    1  0.2766180E-009  0.9043245E+02  0.7561462E-02  0.1301808E+00
          2   -1    0    0  501    0  0.00000000000E+00  0.00000000000E+00  0.18112660879E+02  0.18112660879E+02  0.00000000000E+00 0.  1.
         -2   -1    0    0    0  501 -0.00000000000E+00 -0.00000000000E+00 -0.11263598544E+04  0.11263598544E+04  0.00000000000E+00 0. -1.
         25    2    1    2    0    0 -0.17101591549E+02  0.33774252258E+02 -0.94383833623E+03  0.95284385408E+03  0.12508973091E+03 0.  0.
          5    1    3    3  502    0 -0.53031118534E+02  0.56436631045E+02 -0.40783865144E+03  0.41514723998E+03  0.41800000000E+01 0. -1.
         -5    1    3    3    0  502  0.35929526985E+02 -0.22662378787E+02 -0.53599968479E+03  0.53769661410E+03  0.41800000000E+01 0. -1.
        -11    1    1    2    0    0  0.33722878659E+02 -0.22438323431E+02 -0.16654193883E+03  0.17139699032E+03  0.00000000000E+00 0. -1.
         11    1    1    2    0    0 -0.16621287110E+02 -0.11335928827E+02  0.21330815780E+01  0.20231670830E+02  0.00000000000E+00 0.  1.
</event>
<event>
 7    1  0.2766180E-009  0.9596355E+02  0.7561462E-02  0.1289021E+00
          1   -1    0    0  501    0  0.00000000000E+00  0.00000000000E+00  0.20929890403E+03  0.20929890403E+03  0.00000000000E+00 0. -1.
         -1   -1    0    0    0  501 -0.00000000000E+00 -0.00000000000E+00 -0.71982705246E+02  0.71982705246E+02  0.00000000000E+00 0.  1.
         25    2    1    2    0    0 -0.33937863602E+02  0.10415168173E+02  0.23842425832E+02  0.13219782348E+03  0.12509016328E+03 0.  0.
          5    1    3    3  502    0 -0.50119707751E+02 -0.28949293971E+02 -0.28463090784E+02  0.64634871884E+02  0.41800000000E+01 0. -1.
         -5    1    3    3    0  502  0.16181844149E+02  0.39364462144E+02  0.52305516616E+02  0.67562951597E+02  0.41800000000E+01 0. -1.
        -11    1    1    2    0    0  0.20186956686E+02 -0.47482502542E+02  0.88129471862E+02  0.10212201074E+03  0.00000000000E+00 0.  1.
         11    1    1    2    0    0  0.13750906916E+02  0.37067334368E+02  0.25344301093E+02  0.46961775052E+02  0.00000000000E+00 0. -1.
</event>
<event>
 7    1  0.2766180E-009  0.1552492E+03  0.7561462E-02  0.1194167E+00
          2   -1    0    0  501    0  0.00000000000E+00  0.00000000000E+00  0.87083662159E+02  0.87083662159E+02  0.00000000000E+00 0. -1.
         -2   -1    0    0    0  501 -0.00000000000E+00 -0.00000000000E+00 -0.28322285161E+03  0.28322285161E+03  0.00000000000E+00 0.  1.
         25    2    1    2    0    0  0.83112569582E+02  0.76835298615E+02 -0.10104968548E+03  0.19664590064E+03  0.12508880432E+03 0.  0.
          5    1    3    3  502    0 -0.26042255680E+02 -0.10536400256E+02 -0.22397310207E+02  0.36170799214E+02  0.41800000000E+01 0.  1.
         -5    1    3    3    0  502  0.10915482526E+03  0.87371698871E+02 -0.78652375276E+02  0.16047510143E+03  0.41800000000E+01 0.  1.
        -11    1    1    2    0    0 -0.96945879208E+02 -0.43757637734E+02 -0.85711975528E+02  0.13660079467E+03  0.00000000000E+00 0. -1.
         11    1    1    2    0    0  0.13833309626E+02 -0.33077660881E+02 -0.93775284416E+01  0.37059818459E+02  0.00000000000E+00 0.  1.
</event>
<event>
 7    1  0.2766180E-009  0.1174556E+03  0.7561462E-02  0.1247355E+00
         -1   -1    0    0    0  501 -0.00000000000E+00  0.00000000000E+00  0.18573346128E+03  0.18573346128E+03  0.00000000000E+00 0.  1.
          1   -1    0    0  501    0  0.00000000000E+00 -0.00000000000E+00 -0.81491429801E+02  0.81491429801E+02  0.00000000000E+00 0. -1.
         25    2    1    2    0    0 -0.33416429431E+02 -0.47725345087E+02  0.75237665807E+02  0.15717004897E+03  0.12508937452E+03 0.  0.
          5    1    3    3  502    0  0.38654114776E+02 -0.50256306009E+02  0.21287462903E+02  0.67010934628E+02  0.41800000000E+01 0. -1.
         -5    1    3    3    0  502 -0.72070544208E+02  0.25309609217E+01  0.53950202905E+02  0.90159114342E+02  0.41800000000E+01 0. -1.
        -11    1    1    2    0    0  0.59070512292E+01 -0.22737796506E+02 -0.93002615596E+01  0.25266489848E+02  0.00000000000E+00 0. -1.
         11    1    1    2    0    0  0.27509378202E+02  0.70463141593E+02  0.38304627232E+02  0.84788352264E+02  0.00000000000E+00 0.  1.
</event>
<event>
 7    1  0.2766180E-009  0.1015485E+03  0.7561462E-02  0.1277073E+00
         -2   -1    0    0    0  501 -0.00000000000E+00  0.00000000000E+00  0.40583374372E+02  0.40583374372E+02  0.00000000000E+00 0.  1.
          2   -1    0    0  501    0  0.00000000000E+00 -0.00000000000E+00 -0.29989784722E+03  0.29989784722E+03  0.00000000000E+00 0. -1.
         25    2    1    2    0    0 -0.87151646551E+01 -0.16626630566E+02 -0.13305796041E+03  0.18358855726E+03  0.12509172071E+03 0.  0.
          5    1    3    3  502    0 -0.56153339726E+02 -0.43067164826E+02 -0.87239049281E+02  0.11241041930E+03  0.41800000000E+01 0. -1.
         -5    1    3    3    0  502  0.47438175071E+02  0.26440534259E+02 -0.45818911128E+02  0.71178137956E+02  0.41800000000E+01 0. -1.
        -11    1    1    2    0    0  0.41496709208E+01 -0.30302938396E+02 -0.96275209985E+02  0.10101684959E+03  0.00000000000E+00 0. -1.
         11    1    1    2    0    0  0.45654937344E+01  0.46929568963E+02 -0.29981302460E+02  0.55875814743E+02  0.00000000000E+00 0.  1.
</event>
<event>
 7    1  0.2766180E-009  0.1037342E+03  0.7561462E-02  0.1272634E+00
         -2   -1    0    0    0  501 -0.00000000000E+00  0.00000000000E+00  0.67160041589E+02  0.67160041589E+02  0.00000000000E+00 0.  1.
          2   -1    0    0  501    0  0.00000000000E+00 -0.00000000000E+00 -0.26401429064E+03  0.26401429064E+03  0.00000000000E+00 0. -1.
         25    2    1    2    0    0  0.22238154800E+02 -0.37609603697E+02 -0.18632062741E+03  0.22864581494E+03  0.12511800300E+03 0.  0.
          5    1    3    3  502    0  0.67637115005E+02 -0.12286166050E+02 -0.15011103063E+03  0.16515605686E+03  0.41800000000E+01 0. -1.
         -5    1    3    3    0  502 -0.45398960205E+02 -0.25323437648E+02 -0.36209596778E+02  0.63489758078E+02  0.41800000000E+01 0. -1.
        -11    1    1    2    0    0 -0.26603475275E+02  0.58943834783E+02  0.17533744156E+02  0.67004124797E+02  0.00000000000E+00 0.  1.
         11    1    1    2    0    0  0.43653204752E+01 -0.21334231086E+02 -0.28067365803E+02  0.35524392493E+02  0.00000000000E+00 0. -1.
</event>
<event>
 7    1  0.2766180E-009  0.1738466E+03  0.7561462E-02  0.1173895E+00
         -1   -1    0    0    0  501 -0.00000000000E+00  0.00000000000E+00  0.19135572544E+03  0.19135572544E+03  0.00000000000E+00 0. -1.
          1   -1    0    0  501    0  0.00000000000E+00 -0.00000000000E+00 -0.17509932937E+03  0.17509932937E+03  0.00000000000E+00 0.  1.
         25    2    1    2    0    0  0.13865989307E+03 -0.27788965274E+02 -0.21310109247E+02  0.19000350875E+03  0.12509364511E+03 0.  0.
          5    1    3    3  502    0 -0.28301429383E+01  0.24271005175E+02 -0.30017398619E+02  0.38930810692E+02  0.41800000000E+01 0. -1.
         -5    1    3    3    0  502  0.14149003600E+03 -0.52059970449E+02  0.87072893725E+01  0.15107269806E+03  0.41800000000E+01 0. -1.
        -11    1    1    2    0    0 -0.35085459485E+02 -0.36137306625E+02  0.60963793361E+01  0.50735197234E+02  0.00000000000E+00 0.  1.
         11    1    1    2    0    0 -0.10357443358E+03  0.63926271899E+02  0.31470125983E+02  0.12571634882E+03  0.00000000000E+00 0. -1.
</event>
<event>
 7    1  0.2766180E-009  0.8484066E+02  0.7561462E-02  0.1315850E+00
         -1   -1    0    0    0  501 -0.00000000000E+00  0.00000000000E+00  0.34801424105E+02  0.34801424105E+02  0.00000000000E+00 0.  1.
          1   -1    0    0  501    0  0.00000000000E+00 -0.00000000000E+00 -0.46284455723E+03  0.46284455723E+03  0.00000000000E+00 0. -1.
         25    2    1    2    0    0  0.53911341622E+02 -0.35923492513E+02 -0.27521159715E+03  0.30916950453E+03  0.12508968485E+03 0.  0.
          5    1    3    3  502    0  0.35963988486E+02 -0.55562978621E+01 -0.53953805941E+01  0.37025173133E+02  0.41800000000E+01 0. -1.
         -5    1    3    3    0  502  0.17947353136E+02 -0.30367194651E+02 -0.26981621655E+03  0.27214433140E+03  0.41800000000E+01 0. -1.
        -11    1    1    2    0    0 -0.38342155042E+02  0.58596612455E+02 -0.61853875879E+02  0.93432252492E+02  0.00000000000E+00 0.  1.
         11    1    1    2    0    0 -0.15569186580E+02 -0.22673119942E+02 -0.90977660103E+02  0.95044224320E+02  0.00000000000E+00 0. -1.
</event>
<event>
 7    1  0.2766180E-009  0.7818620E+02  0.7561462E-02  0.1334279E+00
          1   -1    0    0  501    0  0.00000000000E+00  0.00000000000E+00  0.26769213161E+03  0.26769213161E+03  0.00000000000E+00 0. -1.
         -1   -1    0    0    0  501 -0.00000000000E+00 -0.00000000000E+00 -0.44603259818E+02  0.44603259818E+02  0.00000000000E+00 0.  1.
         25    2    1    2    0    0 -0.12127657306E+02  0.57037788134E+01  0.12055772954E+03  0.17424344752E+03  0.12508796779E+03 0.  0.
          5    1    3    3  502    0  0.51913245172E+02  0.14985433695E+02  0.83532729128E+02  0.99572774808E+02  0.41800000000E+01 0. -1.
         -5    1    3    3    0  502 -0.64040902478E+02 -0.92816548817E+01  0.37025000407E+02  0.74670672708E+02  0.41800000000E+01 0. -1.
        -11    1    1    2    0    0 -0.29990708388E+01 -0.17746519028E+02 -0.12173901587E+02  0.21728719322E+02  0.00000000000E+00 0.  1.
         11    1    1    2    0    0  0.15126728144E+02  0.12042740215E+02  0.11470504385E+03  0.11632322459E+03  0.00000000000E+00 0. -1.
</event>
<event>
 7    1  0.2766180E-009  0.1059060E+03  0.7561462E-02  0.1268345E+00
         -1   -1    0    0    0  501 -0.00000000000E+00  0.00000000000E+00  0.61599514792E+02  0.61599514792E+02  0.00000000000E+00 0.  1.
          1   -1    0    0  501    0  0.00000000000E+00 -0.00000000000E+00 -0.29941577699E+03  0.29941577699E+03  0.00000000000E+00 0. -1.
         25    2    1    2    0    0  0.33126811330E+02  0.13923396410E+02 -0.34053636757E+02  0.13452795053E+03  0.12508746020E+03 0.  0.
          5    1    3    3  502    0 -0.15018279025E+02 -0.39794307664E+02  0.17062398780E+02  0.46018838311E+02  0.41800000000E+01 0. -1.
         -5    1    3    3    0  502  0.48145090355E+02  0.53717704074E+02 -0.51116035536E+02  0.88509112216E+02  0.41800000000E+01 0. -1.
        -11    1    1    2    0    0  0.32191122978E+01 -0.47336600604E+02 -0.76928863145E+02  0.90383441103E+02  0.00000000000E+00 0.  1.
         11    1    1    2    0    0 -0.36345923628E+02  0.33413204194E+02 -0.12683376230E+03  0.13610390016E+03  0.00000000000E+00 0. -1.
</event>
<event>
 7    1  0.2766180E-009  0.1462005E+03  0.7561462E-02  0.1205221E+00
         -1   -1    0    0    0  501 -0.00000000000E+00  0.00000000000E+00  0.42057665586E+02  0.42057665586E+02  0.00000000000E+00 0.  1.
          1   -1    0    0  501    0  0.00000000000E+00 -0.00000000000E+00 -0.99729537002E+03  0.99729537002E+03  0.00000000000E+00 0. -1.
         25    2    1    2    0    0 -0.10134506214E+03 -0.66573062684E+02 -0.81187796211E+03  0.83035908194E+03  0.12509030857E+03 0.  0.
          5    1    3    3  502    0 -0.25748284600E+01  0.23405367771E+02 -0.31203299849E+03  0.31294808760E+03  0.41800000000E+01 0. -1.
         -5    1    3    3    0  502 -0.98770233685E+02 -0.89978430455E+02 -0.49984496362E+03  0.51741099434E+03  0.41800000000E+01 0. -1.
        -11    1    1    2    0    0  0.52854109165E+02  0.50405278779E+00 -0.12057682661E+02  0.54214376655E+02  0.00000000000E+00 0.  1.
         11    1    1    2    0    0  0.48490952979E+02  0.66069009896E+02 -0.13130205966E+03  0.15477957701E+03  0.00000000000E+00 0. -1.
</event>
<event>
 7    1  0.2766180E-009  0.1060742E+03  0.7561462E-02  0.1268017E+00
          1   -1    0    0  501    0  0.00000000000E+00  0.00000000000E+00  0.45645207816E+02  0.45645207816E+02  0.00000000000E+00 0. -1.
         -1   -1    0    0    0  501 -0.00000000000E+00 -0.00000000000E+00 -0.35750536373E+03  0.35750536373E+03  0.00000000000E+00 0.  1.
         25    2    1    2    0    0  0.32980273999E+02 -0.10856574695E+02 -0.83227223107E+02  0.15420996579E+03  0.12509348183E+03 0.  0.
          5    1    3    3  502    0  0.70342398877E+02 -0.28962187211E+02 -0.20543250302E+02  0.78907280404E+02  0.41800000000E+01 0.  1.
         -5    1    3    3    0  502 -0.37362124878E+02  0.18105612516E+02 -0.62683972805E+02  0.75302685388E+02  0.41800000000E+01 0.  1.
        -11    1    1    2    0    0 -0.54181903098E+02 -0.19173331545E+02 -0.10197869973E+03  0.11705960218E+03  0.00000000000E+00 0. -1.
         11    1    1    2    0    0  0.21201629099E+02  0.30029906240E+02 -0.12665423308E+03  0.13188100357E+03  0.00000000000E+00 0.  1.
</event>
<event>
 7    1  0.2766180E-009  0.1173127E+03  0.7561462E-02  0.1247597E+00
         -1   -1    0    0    0  501 -0.00000000000E+00  0.00000000000E+00  0.84200516662E+02  0.84200516662E+02  0.00000000000E+00 0.  1.
          1   -1    0    0  501    0  0.00000000000E+00 -0.00000000000E+00 -0.21472738742E+03  0.21472738742E+03  0.00000000000E+00 0. -1.
         25    2    1    2    0    0 -0.18571141229E+02  0.56726036262E+02 -0.10583897710E+02  0.13900409908E+03  0.12508952872E+03 0.  0.
          5    1    3    3  502    0  0.50437421118E+02  0.41571883731E+02  0.75845344489E+01  0.65932939634E+02  0.41800000000E+01 0. -1.
         -5    1    3    3    0  502 -0.69008562347E+02  0.15154152531E+02 -0.18168432158E+02  0.73071159449E+02  0.41800000000E+01 0. -1.
        -11    1    1    2    0    0  0.49424764986E+02 -0.36887783738E+02 -0.10174382234E+03  0.11897613781E+03  0.00000000000E+00 0.  1.
         11    1    1    2    0    0 -0.30853623757E+02 -0.19838252524E+02 -0.18199150709E+02  0.40947667194E+02  0.00000000000E+00 0. -1.
</event>
<event>
 7    1  0.2766180E-009  0.1293962E+03  0.7561462E-02  0.1228354E+00
         -1   -1    0    0    0  501 -0.00000000000E+00  0.00000000000E+00  0.36279715844E+02  0.36279715844E+02  0.00000000000E+00 0.  1.
          1   -1    0    0  501    0  0.00000000000E+00 -0.00000000000E+00 -0.10744427048E+04  0.10744427048E+04  0.00000000000E+00 0. -1.
         25    2    1    2    0    0 -0.91152518383E+02 -0.54051482551E+02 -0.91792038961E+03  0.93244715676E+03  0.12509801798E+03 0.  0.
          5    1    3    3  502    0 -0.81112631619E+02 -0.80139941828E+02 -0.47061031213E+03  0.48424498714E+03  0.41800000000E+01 0. -1.
         -5    1    3    3    0  502 -0.10039886764E+02  0.26088459277E+02 -0.44731007748E+03  0.44820216962E+03  0.41800000000E+01 0. -1.
        -11    1    1    2    0    0  0.18477229788E+02  0.37626030028E+02 -0.87233657656E+02  0.96782421877E+02  0.00000000000E+00 0. -1.
         11    1    1    2    0    0  0.72675288594E+02  0.16425452523E+02 -0.33008941637E+02  0.81492841961E+02  0.00000000000E+00 0.  1.
</event>
<event>
 7    1  0.2766180E-009  0.3381677E+03  0.7561462E-02  0.1067579E+00
         -1   -1    0    0    0  501 -0.00000000000E+00  0.00000000000E+00  0.23524427151E+03  0.23524427151E+03  0.00000000000E+00 0.  1.
          1   -1    0    0  501    0  0.00000000000E+00 -0.00000000000E+00 -0.53325679880E+03  0.53325679880E+03  0.00000000000E+00 0. -1.
         25    2    1    2    0    0  0.19742855645E+03 -0.26656930412E+03 -0.87091569395E+02  0.36505910334E+03  0.12508388653E+03 0.  0.
          5    1    3    3  502    0  0.16987616705E+01 -0.54107717445E+02  0.18648983038E+02  0.57408952670E+02  0.41800000000E+01 0. -1.
         -5    1    3    3    0  502  0.19572979478E+03 -0.21246158668E+03 -0.10574055243E+03  0.30765015067E+03  0.41800000000E+01 0. -1.
        -11    1    1    2    0    0 -0.15957184883E+03  0.19325056898E+03 -0.19911361206E+03  0.32008621941E+03  0.00000000000E+00 0.  1.
         11    1    1    2    0    0 -0.37856707620E+02  0.73318735147E+02 -0.11807345832E+02  0.83355747559E+02  0.00000000000E+00 0. -1.
</event>
<event>
 7    1  0.2766180E-009  0.1643841E+03  0.7561462E-02  0.1183834E+00
          2   -1    0    0  501    0  0.00000000000E+00  0.00000000000E+00  0.28165550666E+03  0.28165550666E+03  0.00000000000E+00 0. -1.
         -2   -1    0    0    0  501 -0.00000000000E+00 -0.00000000000E+00 -0.11608797618E+03  0.11608797618E+03  0.00000000000E+00 0.  1.
         25    2    1    2    0    0  0.12686590839E+03  0.68049373119E+02  0.77524598507E+02  0.20587013759E+03  0.12508706681E+03 0.  0.
          5    1    3    3  502    0  0.14908007854E+03  0.57600807074E+02  0.83346534432E+02  0.18029653351E+03  0.41800000000E+01 0. -1.
         -5    1    3    3    0  502 -0.22214170150E+02  0.10448566045E+02 -0.58219359249E+01  0.25573604082E+02  0.41800000000E+01 0. -1.
        -11    1    1    2    0    0 -0.11525929922E+02 -0.70940225986E+01 -0.18857956593E+02  0.23211952612E+02  0.00000000000E+00 0. -1.
         11    1    1    2    0    0 -0.11533997847E+03 -0.60955350520E+02  0.10690088856E+03  0.16866139264E+03  0.00000000000E+00 0.  1.
</event>
<event>
 7    1  0.2766180E-009  0.1588922E+03  0.7561462E-02  0.1189953E+00
          1   -1    0    0  501    0  0.00000000000E+00  0.00000000000E+00  0.10176730270E+03  0.10176730270E+03  0.00000000000E+00 0. -1.
         -1   -1    0    0    0  501 -0.00000000000E+00 -0.00000000000E+00 -0.31679089088E+03  0.31679089088E+03  0.00000000000E+00 0.  1.
         25    2    1    2    0    0 -0.13460238837E+03 -0.37330014962E+02 -0.88125692059E+02  0.20718271475E+03  0.12508879533E+03 0.  0.
          5    1    3    3  502    0 -0.89303418248E+02 -0.49506295697E+02 -0.11428526658E+03  0.15331199686E+03  0.41800000000E+01 0.  1.
         -5    1    3    3    0  502 -0.45298970124E+02  0.12176280734E+02  0.26159574519E+02  0.53870717889E+02  0.41800000000E+01 0.  1.
        -11    1    1    2    0    0 -0.14306185440E+02  0.90496457250E+01 -0.18215651294E+02  0.24867106419E+02  0.00000000000E+00 0.  1.
         11    1    1    2    0    0  0.14890857381E+03  0.28280369237E+02 -0.10868224483E+03  0.18650837241E+03  0.00000000000E+00 0. -1.
</event>
<event>
 7    1  0.2766180E-009  0.1666631E+03  0.7561462E-02  0.1181373E+00
          2   -1    0    0  501    0  0.00000000000E+00  0.00000000000E+00  0.69735952156E+02  0.69735952156E+02  0.00000000000E+00 0. -1.
         -2   -1    0    0    0  501 -0.00000000000E+00 -0.00000000000E+00 -0.60512569613E+03  0.60512569613E+03  0.00000000000E+00 0.  1.
         25    2    1    2    0    0  0.11107259224E+03  0.61904583357E+02 -0.47119478440E+03  0.50382641974E+03  0.12508892114E+03 0.  0.
          5    1    3    3  502    0 -0.25478674027E+02  0.18172931953E+02 -0.12848780657E+03  0.13231026839E+03  0.41800000000E+01 0.  1.
         -5    1    3    3    0  502  0.13655126627E+03  0.43731651404E+02 -0.34270697783E+03  0.37151615134E+03  0.41800000000E+01 0.  1.
        -11    1    1    2    0    0 -0.58367132018E+02 -0.83059157108E+02 -0.36797035184E+02  0.10797947711E+03  0.00000000000E+00 0. -1.
         11    1    1    2    0    0 -0.52705460226E+02  0.21154573751E+02 -0.27397924392E+02  0.63055751436E+02  0.00000000000E+00 0.  1.
</event>
<event>
 7    1  0.2766180E-009  0.9434144E+02  0.7561462E-02  0.1292666E+00
          2   -1    0    0  501    0  0.00000000000E+00  0.00000000000E+00  0.20880124916E+03  0.20880124916E+03  0.00000000000E+00 0. -1.
         -2   -1    0    0    0  501 -0.00000000000E+00 -0.00000000000E+00 -0.78724678772E+02  0.78724678772E+02  0.00000000000E+00 0.  1.
         25    2    1    2    0    0 -0.22249774288E+02 -0.48669336155E+02  0.24254619148E+02  0.13820489892E+03  0.12509416772E+03 0.  0.
          5    1    3    3  502    0  0.32252551768E+02 -0.81254662416E+01  0.54297406398E+02  0.63811684187E+02  0.41800000000E+01 0. -1.
         -5    1    3    3    0  502 -0.54502326056E+02 -0.40543869913E+02 -0.30042787251E+02  0.74393214737E+02  0.41800000000E+01 0. -1.
        -11    1    1    2    0    0  0.19854912868E+02 -0.14059786327E+02  0.76044962234E+02  0.79841915294E+02  0.00000000000E+00 0. -1.
         11    1    1    2    0    0  0.23948614201E+01  0.62729122482E+02  0.29776989009E+02  0.69479113718E+02  0.00000000000E+00 0.  1.
</event>
<event>
 7    1  0.2766180E-009  0.1640371E+03  0.7561462E-02  0.1184213E+00
         -1   -1    0    0    0  501 -0.00000000000E+00  0.00000000000E+00  0.12620550052E+03  0.12620550052E+03  0.00000000000E+00 0.  1.
          1   -1    0    0  501    0  0.00000000000E+00 -0.00000000000E+00 -0.27476139592E+03  0.27476139592E+03  0.00000000000E+00 0. -1.
         25    2    1    2    0    0 -0.11688743496E+03 -0.77561048770E+02 -0.14366282754E+03  0.23656837542E+03  0.12508876646E+03 0.  0.
          5    1    3    3  502    0 -0.13534310275E+03 -0.33202845394E+02 -0.11252803901E+03  0.17916533250E+03  0.41800000000E+01 0. -1.
         -5    1    3    3    0  502  0.18455667793E+02 -0.44358203375E+02 -0.31134788525E+02  0.57403042924E+02  0.41800000000E+01 0. -1.
        -11    1    1    2    0    0  0.99070188705E+02  0.62857808333E+02 -0.38617870891E+02  0.12352063111E+03  0.00000000000E+00 0. -1.
         11    1    1    2    0    0  0.17817246255E+02  0.14703240437E+02  0.33724803027E+02  0.40877889900E+02  0.00000000000E+00 0.  1.
</event>
<event>
 7    1  0.2766180E-009  0.1530542E+03  0.7561462E-02  0.1196769E+00
          2   -1    0    0  501    0  0.00000000000E+00  0.00000000000E+00  0.64574421463E+02  0.64574421463E+02  0.00000000000E+00 0. -1.
         -2   -1    0    0    0  501 -0.00000000000E+00 -0.00000000000E+00 -0.36316881202E+03  0.36316881202E+03  0.00000000000E+00 0.  1.
         25    2    1    2    0    0 -0.87083676816E+02  0.89364993071E+02 -0.16769967953E+03  0.24359493601E+03  0.12508253908E+03 0.  0.
          5    1    3    3  502    0  0.35848742265E+01  0.85572452521E+02 -0.77656059592E+02  0.11568678380E+03  0.41800000000E+01 0. -1.
         -5    1    3    3    0  502 -0.90668551043E+02  0.37925405498E+01 -0.90043619933E+02  0.12790815221E+03  0.41800000000E+01 0. -1.
        -11    1    1    2    0    0 -0.14610929455E+01 -0.11532741994E+02 -0.12470986191E+02  0.17048883455E+02  0.00000000000E+00 0.  1.
         11    1    1    2    0    0  0.88544769762E+02 -0.77832251076E+02 -0.11842372484E+03  0.16709941401E+03  0.00000000000E+00 0. -1.
</event>
<event>
 7    1  0.2766180E-009  0.1274483E+03  0.7561462E-02  0.1231292E+00
          1   -1    0    0  501    0  0.00000000000E+00  0.00000000000E+00  0.21144850537E+03  0.21144850537E+03  0.00000000000E+00 0. -1.
         -1   -1    0    0    0  501 -0.00000000000E+00 -0.00000000000E+00 -0.90849368353E+02  0.90849368353E+02  0.00000000000E+00 0.  1.
         25    2    1    2    0    0 -0.51584524519E+02  0.72270959161E+02  0.56974915198E+02  0.16363751388E+03  0.12508813005E+03 0.  0.
          5    1    3    3  502    0  0.32076101676E+02  0.60701398972E+02  0.23360402966E+02  0.72641014328E+02  0.41800000000E+01 0. -1.
         -5    1    3    3    0  502 -0.83660626195E+02  0.11569560189E+02  0.33614512232E+02  0.90996499553E+02  0.41800000000E+01 0. -1.
        -11    1    1    2    0    0  0.53523629162E+02 -0.34381433992E+02 -0.11135165489E+01  0.63624694900E+02  0.00000000000E+00 0.  1.
         11    1    1    2    0    0 -0.19391046429E+01 -0.37889525169E+02  0.64737738364E+02  0.75035664939E+02  0.00000000000E+00 0. -1.
</event>
<event>
 7    1  0.2766180E-009  0.1144438E+03  0.7561462E-02  0.1252555E+00
         -2   -1    0    0    0  501 -0.00000000000E+00  0.00000000000E+00  0.17603873390E+02  0.17603873390E+02  0.00000000000E+00 0.  1.
          2   -1    0    0  501    0  0.00000000000E+00 -0.00000000000E+00 -0.96315191217E+03  0.96315191217E+03  0.00000000000E+00 0. -1.
         25    2    1    2    0    0 -0.45279474393E+02  0.53866738200E+02 -0.44682409038E+03  0.46930929288E+03  0.12509032079E+03 0.  0.
          5    1    3    3  502    0 -0.73562497898E+02  0.24411994337E+02 -0.14284951946E+03  0.16257565677E+03  0.41800000000E+01 0.  1.
         -5    1    3    3    0  502  0.28283023505E+02  0.29454743863E+02 -0.30397457093E+03  0.30673363611E+03  0.41800000000E+01 0.  1.
        -11    1    1    2    0    0  0.52562759853E+02 -0.72880699974E+02 -0.44525974439E+03  0.45423637033E+03  0.00000000000E+00 0.  1.
         11    1    1    2    0    0 -0.72832854604E+01  0.19013961774E+02 -0.53464204005E+02  0.57210122350E+02  0.00000000000E+00 0. -1.
</event>
<event>
 7    1  0.2766180E-009  0.1913952E+03  0.7561462E-02  0.1157209E+00
         -2   -1    0    0    0  501 -0.00000000000E+00  0.00000000000E+00  0.19830616952E+03  0.19830616952E+03  0.00000000000E+00 0.  1.
          2   -1    0    0  501    0  0.00000000000E+00 -0.00000000000E+00 -0.20910470844E+03  0.20910470844E+03  0.00000000000E+00 0. -1.
         25    2    1    2    0    0  0.54216045081E+02  0.16037312487E+03  0.28107869929E+01  0.21051028871E+03  0.12509101647E+03 0.  0.
          5    1    3    3  502    0 -0.82716321892E+01  0.13550747653E+03 -0.24112200392E+02  0.13794769553E+03  0.41800000000E+01 0.  1.
         -5    1    3    3    0  502  0.62487677270E+02  0.24865648341E+02  0.26922987385E+02  0.72562593171E+02  0.41800000000E+01 0.  1.
        -11    1    1    2    0    0 -0.30460572422E+02 -0.15100604773E+03 -0.41043192912E+02  0.15942150610E+03  0.00000000000E+00 0. -1.
         11    1    1    2    0    0 -0.23755472658E+02 -0.93670771460E+01  0.27433866996E+02  0.37479083151E+02  0.00000000000E+00 0.  1.
</event>
<event>
 7    1  0.2766180E-009  0.1261486E+03  0.7561462E-02  0.1233285E+00
         -2   -1    0    0    0  501 -0.00000000000E+00  0.00000000000E+00  0.55699921658E+02  0.55699921658E+02  0.00000000000E+00 0.  1.
          2   -1    0    0  501    0  0.00000000000E+00 -0.00000000000E+00 -0.31948785847E+03  0.31948785847E+03  0.00000000000E+00 0. -1.
         25    2    1    2    0    0  0.29353030153E+02 -0.57074604660E+02 -0.20090257140E+03  0.24521240954E+03  0.12509265254E+03 0.  0.
          5    1    3    3  502    0 -0.36331338733E+02 -0.62937420583E+02 -0.86051986259E+02  0.11270981245E+03  0.41800000000E+01 0.  1.
         -5    1    3    3    0  502  0.65684368886E+02  0.58628159226E+01 -0.11485058515E+03  0.13250259709E+03  0.41800000000E+01 0.  1.
        -11    1    1    2    0    0 -0.18837439245E+02  0.83179035896E+02 -0.42970827492E+02  0.95499178767E+02  0.00000000000E+00 0.  1.
         11    1    1    2    0    0 -0.10515590908E+02 -0.26104431236E+02 -0.19914537919E+02  0.34476191825E+02  0.00000000000E+00 0. -1.
</event>
<event>
 7    1  0.3548673E-009  0.1732511E+03  0.7561462E-02  0.1174499E+00
          2   -1    0    0  501    0  0.00000000000E+00  0.00000000000E+00  0.94645849265E+03  0.94645849265E+03  0.00000000000E+00 0. -1.
         -2   -1    0    0    0  501 -0.00000000000E+00 -0.00000000000E+00 -0.40011783739E+02  0.40011783739E+02  0.00000000000E+00 0.  1.
         25    2    1    2    0    0 -0.12134506153E+03  0.94727612002E+02  0.59731705813E+03  0.62938957838E+03  0.12508248878E+03 0.  0.
          5    1    3    3  502    0 -0.11195420517E+03  0.10619294377E+03  0.36159994786E+03  0.39317003962E+03  0.41800000000E+01 0. -1.
         -5    1    3    3    0  502 -0.93908563603E+01 -0.11465331764E+02  0.23571711027E+03  0.23621953875E+03  0.41800000000E+01 0. -1.
        -11    1    1    2    0    0  0.85111259949E+02 -0.11394801464E+02  0.12371269456E+03  0.15059415282E+03  0.00000000000E+00 0.  1.
         11    1    1    2    0    0  0.36233801583E+02 -0.83332810538E+02  0.18541695622E+03  0.20648654519E+03  0.00000000000E+00 0. -1.
</event>
<event>
 7    1  0.2766180E-009  0.1980521E+03  0.7561462E-02  0.1151393E+00
          2   -1    0    0  501    0  0.00000000000E+00  0.00000000000E+00  0.18255899746E+04  0.18255899746E+04  0.00000000000E+00 0.  1.
         -2   -1    0    0    0  501 -0.00000000000E+00 -0.00000000000E+00 -0.27807789392E+02  0.27807789392E+02  0.00000000000E+00 0. -1.
         25    2    1    2    0    0 -0.58463142765E+02  0.18610065837E+03  0.10534452246E+04  0.10786302036E+04  0.12507949822E+03 0.  0.
          5    1    3    3  502    0 -0.29694513355E+02  0.59590759607E+02  0.13011108224E+03  0.14621624012E+03  0.41800000000E+01 0. -1.
         -5    1    3    3    0  502 -0.28768629410E+02  0.12650989876E+03  0.92333414235E+03  0.93241396351E+03  0.41800000000E+01 0. -1.
        -11    1    1    2    0    0  0.24469582650E+02 -0.14101273919E+03  0.64324289178E+03  0.65897251150E+03  0.00000000000E+00 0.  1.
         11    1    1    2    0    0  0.33993560115E+02 -0.45087919181E+02  0.10109406884E+03  0.11579504886E+03  0.00000000000E+00 0. -1.
</event>
<event>
 7    1  0.2766180E-009  0.9592317E+02  0.7561462E-02  0.1289110E+00
          1   -1    0    0  501    0  0.00000000000E+00  0.00000000000E+00  0.45503808801E+02  0.45503808801E+02  0.00000000000E+00 0. -1.
         -1   -1    0    0    0  501 -0.00000000000E+00 -0.00000000000E+00 -0.44662376626E+03  0.44662376626E+03  0.00000000000E+00 0.  1.
         25    2    1    2    0    0  0.48811140778E+02 -0.36399149050E+02 -0.33613428639E+03  0.36378631775E+03  0.12508717351E+03 0.  0.
          5    1    3    3  502    0  0.45446998228E+02  0.28091257102E+02 -0.61241137730E+02  0.81378730169E+02  0.41800000000E+01 0. -1.
         -5    1    3    3    0  502  0.33641425495E+01 -0.64490406152E+02 -0.27489314866E+03  0.28240758758E+03  0.41800000000E+01 0. -1.
        -11    1    1    2    0    0  0.24296649464E+01  0.19404966958E+02 -0.71350376364E+02  0.73981972275E+02  0.00000000000E+00 0.  1.
         11    1    1    2    0    0 -0.51240805724E+02  0.16994182092E+02  0.63647052985E+01  0.54359285037E+02  0.00000000000E+00 0. -1.
</event>
<event>
 7    1  0.2766180E-009  0.8315177E+02  0.7561462E-02  0.1320338E+00
         -2   -1    0    0    0  501 -0.00000000000E+00  0.00000000000E+00  0.71216061098E+02  0.71216061098E+02  0.00000000000E+00 0.  1.
          2   -1    0    0  501    0  0.00000000000E+00 -0.00000000000E+00 -0.17627640264E+03  0.17627640264E+03  0.00000000000E+00 0. -1.
         25    2    1    2    0    0 -0.76888834682E+01 -0.82610886880E+01 -0.31476322147E+02  0.12948650853E+03  0.12509449436E+03 0.  0.
          5    1    3    3  502    0  0.40017847964E+02  0.18737145707E+02  0.24775962247E+02  0.50831382926E+02  0.41800000000E+01 0. -1.
         -5    1    3    3    0  502 -0.47706731432E+02 -0.26998234395E+02 -0.56252284394E+02  0.78655125605E+02  0.41800000000E+01 0. -1.
        -11    1    1    2    0    0  0.12569095613E+02  0.36335545550E+02  0.68901325823E+00  0.38454242603E+02  0.00000000000E+00 0.  1.
         11    1    1    2    0    0 -0.48802121444E+01 -0.28074456862E+02 -0.74273032653E+02  0.79551712603E+02  0.00000000000E+00 0. -1.
</event>
<event>
 7    1  0.2766180E-009  0.1862607E+03  0.7561462E-02  0.1161878E+00
         -1   -1    0    0    0  501 -0.00000000000E+00  0.00000000000E+00  0.72657604233E+02  0.72657604233E+02  0.00000000000E+00 0.  1.
          1   -1    0    0  501    0  0.00000000000E+00 -0.00000000000E+00 -0.52446099556E+03  0.52446099556E+03  0.00000000000E+00 0. -1.
         25    2    1    2    0    0 -0.15711833670E+03 -0.21795095504E+02 -0.28599740203E+03  0.35014788488E+03  0.12509128429E+03 0.  0.
          5    1    3    3  502    0 -0.14343828253E+03 -0.58167752374E+02 -0.26185093423E+03  0.30420620057E+03  0.41800000000E+01 0.  1.
         -5    1    3    3    0  502 -0.13680054177E+02  0.36372656870E+02 -0.24146467795E+02  0.45941684308E+02  0.41800000000E+01 0.  1.
        -11    1    1    2    0    0  0.12008173526E+03  0.51949338959E+02 -0.95526473730E+02  0.16199896341E+03  0.00000000000E+00 0. -1.
         11    1    1    2    0    0  0.37036601440E+02 -0.30154243455E+02 -0.70279515573E+02  0.84971751504E+02  0.00000000000E+00 0.  1.
</event>
<event>
 7    1  0.2766180E-009  0.1001413E+03  0.7561462E-02  0.1279999E+00
         -3   -1    0    0    0  501 -0.00000000000E+00  0.00000000000E+00  0.87420315288E+02  0.87420315288E+02  0.00000000000E+00 0.  1.
          3   -1    0    0  501    0  0.00000000000E+00 -0.00000000000E+00 -0.20513859081E+03  0.20513859081E+03  0.00000000000E+00 0. -1.
         25    2    1    2    0    0 -0.56974131720E+02 -0.50252019615E+02 -0.55499953143E+02  0.15651614728E+03  0.12508294208E+03 0.  0.
          5    1    3    3  502    0 -0.18641828445E+02 -0.32865035252E+02 -0.92696903719E+02  0.10018890492E+03  0.41800000000E+01 0.  1.
         -5    1    3    3    0  502 -0.38332303275E+02 -0.17386984363E+02  0.37196950576E+02  0.56327242359E+02  0.41800000000E+01 0.  1.
        -11    1    1    2    0    0  0.41103526647E+02 -0.21567074362E+02 -0.15635844077E+02  0.48980794393E+02  0.00000000000E+00 0.  1.
         11    1    1    2    0    0  0.15870605073E+02  0.71819093977E+02 -0.46582478300E+02  0.87061964425E+02  0.00000000000E+00 0. -1.
</event>
<event>
 7    1  0.2766180E-009  0.1442239E+03  0.7561462E-02  0.1207756E+00
          2   -1    0    0  501    0  0.00000000000E+00  0.00000000000E+00  0.47512769869E+03  0.47512769869E+03  0.00000000000E+00 0. -1.
         -2   -1    0    0    0  501 -0.00000000000E+00 -0.00000000000E+00 -0.56958703497E+02  0.56958703497E+02  0.00000000000E+00 0.  1.
         25    2    1    2    0    0 -0.24718819189E+02 -0.10096513649E+03  0.32921175771E+03  0.36720596017E+03  0.12511937085E+03 0.  0.
          5    1    3    3  502    0 -0.38608498993E+02  0.10663745631E+02  0.15216388192E+03  0.15740283043E+03  0.41800000000E+01 0. -1.
         -5    1    3    3    0  502  0.13889679805E+02 -0.11162888212E+03  0.17704787579E+03  0.20980312975E+03  0.41800000000E+01 0. -1.
        -11    1    1    2    0    0 -0.15257650991E+02 -0.96082003534E+01  0.25618222255E+02  0.31327411947E+02  0.00000000000E+00 0. -1.
         11    1    1    2    0    0  0.39976470179E+02  0.11057333685E+03  0.63339015225E+02  0.13355303006E+03  0.00000000000E+00 0.  1.
</event>
<event>
 7    1  0.2766180E-009  0.9346630E+02  0.7561462E-02  0.1294668E+00
          3   -1    0    0  501    0  0.00000000000E+00  0.00000000000E+00  0.54112022180E+03  0.54112022180E+03  0.00000000000E+00 0.  1.
         -3   -1    0    0    0  501 -0.00000000000E+00 -0.00000000000E+00 -0.23208057143E+02  0.23208057143E+02  0.00000000000E+00 0. -1.
         25    2    1    2    0    0  0.94888548739E+00  0.28675767087E+02  0.28593842422E+03  0.31343360789E+03  0.12512651241E+03 0.  0.
          5    1    3    3  502    0 -0.59490092723E+00  0.60918270014E+02  0.61569316049E+02  0.86715872869E+02  0.41800000000E+01 0. -1.
         -5    1    3    3    0  502  0.15437864146E+01 -0.32242502927E+02  0.22436910817E+03  0.22671773502E+03  0.41800000000E+01 0. -1.
        -11    1    1    2    0    0 -0.31917934674E+02  0.18496161358E+02  0.66264992628E+02  0.75841359342E+02  0.00000000000E+00 0. -1.
         11    1    1    2    0    0  0.30969049187E+02 -0.47171928446E+02  0.16570874781E+03  0.17505331171E+03  0.00000000000E+00 0.  1.
</event>
<event>
 7    1  0.2766180E-009  0.1043754E+03  0.7561462E-02  0.1271355E+00
          2   -1    0    0  501    0  0.00000000000E+00  0.00000000000E+00  0.25177097728E+03  0.25177097728E+03  0.00000000000E+00 0.  1.
         -2   -1    0    0    0  501 -0.00000000000E+00 -0.00000000000E+00 -0.62105098430E+02  0.62105098430E+02  0.00000000000E+00 0. -1.
         25    2    1    2    0    0 -0.50763551569E+02  0.41277429243E+02  0.12182648866E+03  0.18646100857E+03  0.12508097396E+03 0.  0.
          5    1    3    3  502    0 -0.73771810088E+02  0.50651594958E+02  0.35210666649E+02  0.96255532211E+02  0.41800000000E+01 0.  1.
         -5    1    3    3    0  502  0.23008258518E+02 -0.93741657148E+01  0.86615822010E+02  0.90205476360E+02  0.41800000000E+01 0.  1.
        -11    1    1    2    0    0 -0.44164865928E+01 -0.38468601014E+02  0.60285351486E+02  0.71649579354E+02  0.00000000000E+00 0. -1.
         11    1    1    2    0    0  0.55180038162E+02 -0.28088282290E+01  0.75540387100E+01  0.55765487790E+02  0.00000000000E+00 0.  1.
</event>
<event>
 7    1  0.2766180E-009  0.8974345E+02  0.7561462E-02  0.1303474E+00
         -2   -1    0    0    0  501 -0.00000000000E+00  0.00000000000E+00  0.29177958901E+03  0.29177958901E+03  0.00000000000E+00 0.  1.
          2   -1    0    0  501    0  0.00000000000E+00 -0.00000000000E+00 -0.79646993517E+02  0.79646993517E+02  0.00000000000E+00 0. -1.
         25    2    1    2    0    0 -0.54172605666E+02  0.18368311422E+02  0.22302792092E+03  0.26203234716E+03  0.12508969334E+03 0.  0.
          5    1    3    3  502    0 -0.31296812279E+02  0.54657083682E+02  0.41699305926E+02  0.75651779689E+02  0.41800000000E+01 0.  1.
         -5    1    3    3    0  502 -0.22875793387E+02 -0.36288772261E+02  0.18132861499E+03  0.18638056747E+03  0.41800000000E+01 0.  1.
        -11    1    1    2    0    0  0.12690836449E+02 -0.27945067015E+02  0.35163337954E+02  0.46673808890E+02  0.00000000000E+00 0.  1.
         11    1    1    2    0    0  0.41481769217E+02  0.95767555933E+01 -0.46058663380E+02  0.62720426476E+02  0.00000000000E+00 0. -1.
</event>
<event>
 7    1  0.2766180E-009  0.9464502E+02  0.7561462E-02  0.1291978E+00
         -2   -1    0    0    0  501 -0.00000000000E+00  0.00000000000E+00  0.88421710685E+01  0.88421710685E+01  0.00000000000E+00 0. -1.
          2   -1    0    0  501    0  0.00000000000E+00 -0.00000000000E+00 -0.14271133426E+04  0.14271133426E+04  0.00000000000E+00 0.  1.
         25    2    1    2    0    0 -0.13651458909E+01 -0.14137142486E+02 -0.10552250432E+04  0.10627089769E+04  0.12509498566E+03 0.  0.
          5    1    3    3  502    0 -0.55452556496E+01  0.44252089594E+02 -0.17895743738E+03  0.18447827538E+03  0.41800000000E+01 0.  1.
         -5    1    3    3    0  502  0.41801097587E+01 -0.58389232080E+02 -0.87626760583E+03  0.87823070156E+03  0.41800000000E+01 0.  1.
        -11    1    1    2    0    0  0.26201446488E+01 -0.35779981104E+02 -0.12657516994E+03  0.13156118672E+03  0.00000000000E+00 0. -1.
         11    1    1    2    0    0 -0.12549987579E+01  0.49917123590E+02 -0.23647095838E+03  0.24168535000E+03  0.00000000000E+00 0.  1.
</event>
<event>
 7    1  0.3575288E-009  0.8081891E+02  0.7561462E-02  0.1326743E+00
          2   -1    0    0  501    0  0.00000000000E+00  0.00000000000E+00  0.51602959193E+02  0.51602959193E+02  0.00000000000E+00 0. -1.
         -2   -1    0    0    0  501 -0.00000000000E+00 -0.00000000000E+00 -0.32209653413E+03  0.32209653413E+03  0.00000000000E+00 0.  1.
         25    2    1    2    0    0 -0.10288196247E+02  0.33922849876E+02 -0.23803263830E+03  0.27122744613E+03  0.12509270127E+03 0.  0.
          5    1    3    3  502    0 -0.19734350080E+02 -0.43105295737E+02 -0.57256084625E+02  0.74452956424E+02  0.41800000000E+01 0.  1.
         -5    1    3    3    0  502  0.94461538334E+01  0.77028145613E+02 -0.18077655368E+03  0.19677448970E+03  0.41800000000E+01 0.  1.
        -11    1    1    2    0    0  0.92582845165E+01 -0.16862957828E+02  0.31146520697E+02  0.36608481674E+02  0.00000000000E+00 0. -1.
         11    1    1    2    0    0  0.10299117301E+01 -0.17059892048E+02 -0.63607457336E+02  0.65863565524E+02  0.00000000000E+00 0.  1.
</event>
<event>
 7    1  0.2766180E-009  0.2548883E+03  0.7561462E-02  0.1110254E+00
         -1   -1    0    0    0  501 -0.00000000000E+00  0.00000000000E+00  0.56234554629E+02  0.56234554629E+02  0.00000000000E+00 0.  1.
          1   -1    0    0  501    0  0.00000000000E+00 -0.00000000000E+00 -0.14094587588E+04  0.14094587588E+04  0.00000000000E+00 0. -1.
         25    2    1    2    0    0  0.11112024086E+03 -0.22504453642E+03 -0.86367894205E+03  0.90806347780E+03  0.12508082776E+03 0.  0.
          5    1    3    3  502    0  0.10379070736E+03 -0.16801200774E+03 -0.79101861941E+03  0.81530882145E+03  0.41800000000E+01 0.  1.
         -5    1    3    3    0  502  0.73295334940E+01 -0.57032528678E+02 -0.72660322642E+02  0.92754656352E+02  0.41800000000E+01 0.  1.
        -11    1    1    2    0    0 -0.31916334665E+02  0.11272684764E+03 -0.31085327630E+03  0.33219836542E+03  0.00000000000E+00 0. -1.
         11    1    1    2    0    0 -0.79203906193E+02  0.11231768878E+03 -0.17869198584E+03  0.22543147024E+03  0.00000000000E+00 0.  1.
</event>
<event>
 7    1  0.2766180E-009  0.8274976E+02  0.7561462E-02  0.1321424E+00
          2   -1    0    0  501    0  0.00000000000E+00  0.00000000000E+00  0.66082492851E+03  0.66082492851E+03  0.00000000000E+00 0. -1.
         -2   -1    0    0    0  501 -0.00000000000E+00 -0.00000000000E+00 -0.21699607541E+02  0.21699607541E+02  0.00000000000E+00 0.  1.
         25    2    1    2    0    0  0.21380287206E+02 -0.15250945711E+01  0.49144543762E+03  0.50756743147E+03  0.12508651699E+03 0.  0.
          5    1    3    3  502    0  0.35470349034E+02  0.39273307235E+02  0.95566585572E+02  0.10932055159E+03  0.41800000000E+01 0.  1.
         -5    1    3    3    0  502 -0.14090061827E+02 -0.40798401806E+02  0.39587885205E+03  0.39824687988E+03  0.41800000000E+01 0.  1.
        -11    1    1    2    0    0 -0.43900655368E+02  0.99341164825E+01  0.28271307922E+02  0.53152808615E+02  0.00000000000E+00 0.  1.
         11    1    1    2    0    0  0.22520368162E+02 -0.84090219114E+01  0.11940857542E+03  0.12180429597E+03  0.00000000000E+00 0. -1.
</event>
<event>
 7    1  0.2766180E-009  0.1014090E+03  0.7561462E-02  0.1277361E+00
         -3   -1    0    0    0  501 -0.00000000000E+00  0.00000000000E+00  0.11728101206E+03  0.11728101206E+03  0.00000000000E+00 0.  1.
          3   -1    0    0  501    0  0.00000000000E+00 -0.00000000000E+00 -0.13420790556E+03  0.13420790556E+03  0.00000000000E+00 0. -1.
         25    2    1    2    0    0 -0.61511346040E+02 -0.14829767706E+02 -0.41083865763E+01  0.14024165475E+03  0.12508906901E+03 0.  0.
          5    1    3    3  502    0 -0.59346059776E+02  0.44929026756E+02  0.17399878515E+02  0.76555864755E+02  0.41800000000E+01 0. -1.
         -5    1    3    3    0  502 -0.21652862646E+01 -0.59758794462E+02 -0.21508265092E+02  0.63685789996E+02  0.41800000000E+01 0. -1.
        -11    1    1    2    0    0  0.44778175266E+02 -0.16869810871E+01 -0.50071986249E+02  0.67194751969E+02  0.00000000000E+00 0. -1.
         11    1    1    2    0    0  0.16733170775E+02  0.16516748794E+02  0.37253479328E+02  0.44052510904E+02  0.00000000000E+00 0.  1.
</event>
<event>
 7    1  0.2766180E-009  0.1099354E+03  0.7561462E-02  0.1260690E+00
          2   -1    0    0  501    0  0.00000000000E+00  0.00000000000E+00  0.28520922853E+03  0.28520922853E+03  0.00000000000E+00 0. -1.
         -2   -1    0    0    0  501 -0.00000000000E+00 -0.00000000000E+00 -0.88540540028E+02  0.88540540028E+02  0.00000000000E+00 0.  1.
         25    2    1    2    0    0  0.83569013304E+02 -0.53831658309E+02  0.40285791915E+02  0.16477708614E+03  0.12508763195E+03 0.  0.
          5    1    3    3  502    0  0.76318326468E+02 -0.68788104952E+02  0.74182157993E+02  0.12679414538E+03  0.41800000000E+01 0.  1.
         -5    1    3    3    0  502  0.72506868354E+01  0.14956446643E+02 -0.33896366078E+02  0.37982940763E+02  0.41800000000E+01 0.  1.
        -11    1    1    2    0    0 -0.45675243779E+02  0.23506960171E+02  0.15176112909E+03  0.16021936642E+03  0.00000000000E+00 0. -1.
         11    1    1    2    0    0 -0.37893769525E+02  0.30324698138E+02  0.46217674903E+01  0.48753315997E+02  0.00000000000E+00 0.  1.
</event>
<event>
 7    1  0.2766180E-009  0.9056704E+02  0.7561462E-02  0.1301484E+00
         -1   -1    0    0    0  501 -0.00000000000E+00  0.00000000000E+00  0.11941558610E+03  0.11941558610E+03  0.00000000000E+00 0.  1.
          1   -1    0    0  501    0  0.00000000000E+00 -0.00000000000E+00 -0.13388251442E+03  0.13388251442E+03  0.00000000000E+00 0. -1.
         25    2    1    2    0    0 -0.45840530388E+02 -0.44653557504E+02 -0.12023398943E+02  0.14102117064E+03  0.12508842481E+03 0.  0.
          5    1    3    3  502    0 -0.23218479166E+02 -0.41702482624E+02  0.53319376893E+02  0.71684190615E+02  0.41800000000E+01 0.  1.
         -5    1    3    3    0  502 -0.22622051222E+02 -0.29510748800E+01 -0.65342775837E+02  0.69336980021E+02  0.41800000000E+01 0.  1.
        -11    1    1    2    0    0  0.39791014780E+02 -0.20384586299E+02 -0.11929665560E+02  0.46272812063E+02  0.00000000000E+00 0.  1.
         11    1    1    2    0    0  0.60495156071E+01  0.65038143803E+02  0.94861361827E+01  0.66004117812E+02  0.00000000000E+00 0. -1.
</event>
<event>
 6    1  0.2766180E-009  0.1127539E+03  0.7561462E-02  0.1255554E+00
         -3   -1    0    0    0  501 -0.00000000000E+00  0.00000000000E+00  0.85991784383E+03  0.85991784383E+03  0.00000000000E+00 0.  1.
          3   -1    0    0  501    0  0.00000000000E+00 -0.00000000000E+00 -0.17923984577E+02  0.17923984577E+02  0.00000000000E+00 0. -1.
          5    1    1    2  502    0  0.25973232907E+02 -0.44285685296E+02  0.98140259572E+02  0.11083687878E+03  0.41800000000E+01 0. -1.
         -5    1    1    2    0  502 -0.71535782616E+02  0.24690463494E+01  0.40602068343E+03  0.41230296162E+03  0.41800000000E+01 0. -1.
        -11    1    1    2    0    0  0.36311455598E+02 -0.18861444057E+02  0.19487478417E+03  0.19912422601E+03  0.00000000000E+00 0.  1.
         11    1    1    2    0    0  0.92510941098E+01  0.60678083004E+02  0.14295813208E+03  0.15557776199E+03  0.00000000000E+00 0. -1.
</event>
<event>
 7    1  0.2766180E-009  0.1396501E+03  0.7561462E-02  0.1213801E+00
         -2   -1    0    0    0  501 -0.00000000000E+00  0.00000000000E+00  0.49056991793E+03  0.49056991793E+03  0.00000000000E+00 0. -1.
          2   -1    0    0  501    0  0.00000000000E+00 -0.00000000000E+00 -0.44153484231E+02  0.44153484231E+02  0.00000000000E+00 0.  1.
         25    2    1    2    0    0 -0.81656679845E+02  0.53644571503E+02  0.28991434712E+03  0.33052009676E+03  0.12509057631E+03 0.  0.
          5    1    3    3  502    0 -0.13651462116E+02 -0.39968858480E+02  0.66580020430E+02  0.78957226309E+02  0.41800000000E+01 0.  1.
         -5    1    3    3    0  502 -0.68005217729E+02  0.93613429983E+02  0.22333432669E+03  0.25156287045E+03  0.41800000000E+01 0.  1.
        -11    1    1    2    0    0  0.22385192303E+02  0.17544652106E+02  0.77161605190E+02  0.82236396854E+02  0.00000000000E+00 0. -1.
         11    1    1    2    0    0  0.59271487542E+02 -0.71189223610E+02  0.79340481394E+02  0.12196690855E+03  0.00000000000E+00 0.  1.
</event>
<event>
 7    1  0.2766180E-009  0.1281921E+03  0.7561462E-02  0.1230163E+00
         -1   -1    0    0    0  501 -0.00000000000E+00  0.00000000000E+00  0.30829341097E+03  0.30829341097E+03  0.00000000000E+00 0.  1.
          1   -1    0    0  501    0  0.00000000000E+00 -0.00000000000E+00 -0.64962800143E+02  0.64962800143E+02  0.00000000000E+00 0. -1.
         25    2    1    2    0    0  0.54369160687E+02 -0.48952647552E+02  0.19604461438E+03  0.24379031662E+03  0.12509140783E+03 0.  0.
          5    1    3    3  502    0  0.72224633218E+02  0.11351872391E+02  0.63122719120E+02  0.96680984270E+02  0.41800000000E+01 0.  1.
         -5    1    3    3    0  502 -0.17855472531E+02 -0.60304519943E+02  0.13292189526E+03  0.14710933235E+03  0.41800000000E+01 0.  1.
        -11    1    1    2    0    0 -0.30637094329E+02 -0.26821380753E+02  0.21065839938E+02  0.45845257407E+02  0.00000000000E+00 0.  1.
         11    1    1    2    0    0 -0.23732066358E+02  0.75774028305E+02  0.26220156508E+02  0.83620637085E+02  0.00000000000E+00 0. -1.
</event>
<event>
 7    1  0.2766180E-009  0.2005687E+03  0.7561462E-02  0.1149260E+00
         -2   -1    0    0    0  501 -0.00000000000E+00  0.00000000000E+00  0.60853604706E+02  0.60853604706E+02  0.00000000000E+00 0.  1.
          2   -1    0    0  501    0  0.00000000000E+00 -0.00000000000E+00 -0.92448204138E+03  0.92448204138E+03  0.00000000000E+00 0. -1.
         25    2    1    2    0    0  0.12427856756E+02  0.16885411569E+03 -0.18590110702E+03  0.28084405904E+03  0.12509196576E+03 0.  0.
          5    1    3    3  502    0 -0.13588280042E+02  0.18085598490E+03 -0.16376760498E+03  0.24439891463E+03  0.41800000000E+01 0. -1.
         -5    1    3    3    0  502  0.26016136798E+02 -0.12001869217E+02 -0.22133502040E+02  0.36445144411E+02  0.41800000000E+01 0. -1.
        -11    1    1    2    0    0 -0.47734700521E+02 -0.12887641734E+03 -0.52619993494E+03  0.54385117827E+03  0.00000000000E+00 0. -1.
         11    1    1    2    0    0  0.35306843766E+02 -0.39977698349E+02 -0.15152739472E+03  0.16064040878E+03  0.00000000000E+00 0.  1.
</event>
<event>
 7    1  0.2766180E-009  0.1352244E+03  0.7561462E-02  0.1219903E+00
          2   -1    0    0  501    0  0.00000000000E+00  0.00000000000E+00  0.55183484909E+03  0.55183484909E+03  0.00000000000E+00 0. -1.
         -2   -1    0    0    0  501 -0.00000000000E+00 -0.00000000000E+00 -0.46225668059E+02  0.46225668059E+02  0.00000000000E+00 0.  1.
         25    2    1    2    0    0 -0.39348665896E+02  0.78771249661E+02  0.12698790760E+03  0.19881818854E+03  0.12509802612E+03 0.  0.
          5    1    3    3  502    0 -0.74227961461E+02  0.80863727645E+02  0.65276710890E+02  0.12777814405E+03  0.41800000000E+01 0.  1.
         -5    1    3    3    0  502  0.34879295564E+02 -0.20924779843E+01  0.61711196707E+02  0.71040044497E+02  0.41800000000E+01 0.  1.
        -11    1    1    2    0    0  0.59447834400E+02 -0.85570127305E+02  0.33316921449E+03  0.34908167695E+03  0.00000000000E+00 0. -1.
         11    1    1    2    0    0 -0.20099168504E+02  0.67988776442E+01  0.45452058950E+02  0.50160651656E+02  0.00000000000E+00 0.  1.
</event>
<event>
 7    1  0.2766180E-009  0.2068359E+03  0.7561462E-02  0.1144096E+00
         -2   -1    0    0    0  501 -0.00000000000E+00  0.00000000000E+00  0.35087827259E+03  0.35087827259E+03  0.00000000000E+00 0.  1.
          2   -1    0    0  501    0  0.00000000000E+00 -0.00000000000E+00 -0.20745908677E+03  0.20745908677E+03  0.00000000000E+00 0. -1.
         25    2    1    2    0    0 -0.26609313743E+02 -0.18131154335E+03 -0.96229565720E+02  0.24184492317E+03  0.12508759416E+03 0.  0.
          5    1    3    3  502    0 -0.59895618417E+02 -0.73619968149E+02 -0.22458900893E+01  0.95025792489E+02  0.41800000000E+01 0. -1.
         -5    1    3    3    0  502  0.33286304675E+02 -0.10769157521E+03 -0.93983675630E+02  0.14681913068E+03  0.41800000000E+01 0. -1.
        -11    1    1    2    0    0  0.62027411139E+02  0.11938521612E+03  0.16995573849E+03  0.21676065743E+03  0.00000000000E+00 0.  1.
         11    1    1    2    0    0 -0.35418097396E+02  0.61926327232E+02  0.69693013050E+02  0.99731778765E+02  0.00000000000E+00 0. -1.
</event>
<event>
 7    1  0.2766180E-009  0.1193306E+03  0.7561462E-02  0.1244205E+00
          1   -1    0    0  501    0  0.00000000000E+00  0.00000000000E+00  0.73515824720E+03  0.73515824720E+03  0.00000000000E+00 0. -1.
         -1   -1    0    0    0  501 -0.00000000000E+00 -0.00000000000E+00 -0.22674552078E+02  0.22674552078E+02  0.00000000000E+00 0.  1.
         25    2    1    2    0    0  0.14748411316E+02  0.71474798987E+02  0.33104897826E+03  0.36134028116E+03  0.12508880947E+03 0.  0.
          5    1    3    3  502    0  0.70084591589E+02  0.42383168832E+02  0.17934250691E+03  0.19720393040E+03  0.41800000000E+01 0. -1.
         -5    1    3    3    0  502 -0.55336180273E+02  0.29091630155E+02  0.15170647135E+03  0.16413635076E+03  0.41800000000E+01 0. -1.
        -11    1    1    2    0    0 -0.34151094610E+02 -0.21425629752E+02  0.72737814205E+02  0.83163360253E+02  0.00000000000E+00 0.  1.
         11    1    1    2    0    0  0.19402683294E+02 -0.50049169235E+02  0.30869690265E+03  0.31332915786E+03  0.00000000000E+00 0. -1.
</event>
<event>
 7    1  0.2766180E-009  0.3733767E+03  0.7561462E-02  0.1053409E+00
          2   -1    0    0  501    0  0.00000000000E+00  0.00000000000E+00  0.45505499939E+03  0.45505499939E+03  0.00000000000E+00 0. -1.
         -2   -1    0    0    0  501 -0.00000000000E+00 -0.00000000000E+00 -0.31662652957E+03  0.31662652957E+03  0.00000000000E+00 0.  1.
         25    2    1    2    0    0  0.24798969648E+03  0.25906670485E+03  0.13075638647E+03  0.40169540501E+03  0.12509004229E+03 0.  0.
          5    1    3    3  502    0  0.11143712917E+03  0.34697948652E+02  0.32435610155E+02  0.12120941631E+03  0.41800000000E+01 0. -1.
         -5    1    3    3    0  502  0.13655256732E+03  0.22436875620E+03  0.98320776312E+02  0.28048598869E+03  0.41800000000E+01 0. -1.
        -11    1    1    2    0    0 -0.55931868821E+02 -0.11265207666E+03 -0.18274720836E+02  0.12709378327E+03  0.00000000000E+00 0. -1.
         11    1    1    2    0    0 -0.19205782766E+03 -0.14641462819E+03  0.25946804187E+02  0.24289234068E+03  0.00000000000E+00 0.  1.
</event>
<event>
 7    1  0.2766180E-009  0.1692984E+03  0.7561462E-02  0.1178581E+00
          1   -1    0    0  501    0  0.00000000000E+00  0.00000000000E+00  0.56433395549E+03  0.56433395549E+03  0.00000000000E+00 0. -1.
         -1   -1    0    0    0  501 -0.00000000000E+00 -0.00000000000E+00 -0.59591736043E+02  0.59591736043E+02  0.00000000000E+00 0.  1.
         25    2    1    2    0    0 -0.13943515571E+03 -0.13888208493E+02  0.20474339999E+03  0.27785285456E+03  0.12508918404E+03 0.  0.
          5    1    3    3  502    0 -0.13860235414E+03 -0.45086608076E+02  0.19758360283E+03  0.24556092383E+03  0.41800000000E+01 0.  1.
         -5    1    3    3    0  502 -0.83280156685E+00  0.31198399583E+02  0.71597971567E+01  0.32291930731E+02  0.41800000000E+01 0.  1.
        -11    1    1    2    0    0  0.12612402560E+03 -0.17378089224E+02  0.17420493312E+03  0.21576984623E+03  0.00000000000E+00 0.  1.
         11    1    1    2    0    0  0.13311130115E+02  0.31266297717E+02  0.12579388634E+03  0.13030299075E+03  0.00000000000E+00 0. -1.
</event>
<event>
 7    1  0.2766180E-009  0.1404269E+03  0.7561462E-02  0.1212756E+00
          1   -1    0    0  501    0  0.00000000000E+00  0.00000000000E+00  0.60658934269E+03  0.60658934269E+03  0.00000000000E+00 0. -1.
         -1   -1    0    0    0  501 -0.00000000000E+00 -0.00000000000E+00 -0.45930641334E+02  0.45930641334E+02  0.00000000000E+00 0.  1.
         25    2    1    2    0    0 -0.18202498932E+02 -0.12236016421E+03  0.35626823325E+03  0.39733991271E+03  0.12509441019E+03 0.  0.
          5    1    3    3  502    0  0.87335455422E+01 -0.85066672647E+02  0.79799450053E+02  0.11703861859E+03  0.41800000000E+01 0. -1.
         -5    1    3    3    0  502 -0.26936044474E+02 -0.37293491562E+02  0.27646878319E+03  0.28030129412E+03  0.41800000000E+01 0. -1.
        -11    1    1    2    0    0  0.49891545318E+02  0.53001743413E+02  0.12796457169E+03  0.14721848630E+03  0.00000000000E+00 0.  1.
         11    1    1    2    0    0 -0.31689046385E+02  0.69358420797E+02  0.76425896417E+02  0.10796158502E+03  0.00000000000E+00 0. -1.
</event>
<event>
 7    1  0.2766180E-009  0.4300282E+03  0.7561462E-02  0.1033851E+00
          2   -1    0    0  501    0  0.00000000000E+00  0.00000000000E+00  0.57365709317E+03  0.57365709317E+03  0.00000000000E+00 0.  1.
         -2   -1    0    0    0  501 -0.00000000000E+00 -0.00000000000E+00 -0.35693623081E+03  0.35693623081E+03  0.00000000000E+00 0. -1.
         25    2    1    2    0    0  0.72108081707E+02 -0.41617771007E+03 -0.16031934166E+02  0.44080363585E+03  0.12508941064E+03 0.  0.
          5    1    3    3  502    0  0.25410760150E+02 -0.34453228855E+03  0.23917198755E+02  0.34632024108E+03  0.41800000000E+01 0. -1.
         -5    1    3    3    0  502  0.46697321557E+02 -0.71645421523E+02 -0.39949132921E+02  0.94483394768E+02  0.41800000000E+01 0. -1.
        -11    1    1    2    0    0 -0.75177727737E+02  0.21544667926E+03  0.14733703525E+03  0.27161952122E+03  0.00000000000E+00 0.  1.
         11    1    1    2    0    0  0.30696460298E+01  0.20073103082E+03  0.85415761270E+02  0.21817016692E+03  0.00000000000E+00 0. -1.
</event>
<event>
 7    1  0.2766180E-009  0.1161944E+03  0.7561462E-02  0.1249510E+00
          1   -1    0    0  501    0  0.00000000000E+00  0.00000000000E+00  0.23356827702E+03  0.23356827702E+03  0.00000000000E+00 0. -1.
         -1   -1    0    0    0  501 -0.00000000000E+00 -0.00000000000E+00 -0.66105124392E+02  0.66105124392E+02  0.00000000000E+00 0.  1.
         25    2    1    2    0    0  0.34427998719E+02 -0.50469546618E+02  0.10851513991E+03  0.17651084309E+03  0.12509228556E+03 0.  0.
          5    1    3    3  502    0  0.23734791442E+02 -0.91846114354E+02  0.85579266975E+02  0.12782930956E+03  0.41800000000E+01 0.  1.
         -5    1    3    3    0  502  0.10693207277E+02  0.41376567735E+02  0.22935872939E+02  0.48681533531E+02  0.41800000000E+01 0.  1.
        -11    1    1    2    0    0 -0.69813146386E+01 -0.18762567767E+02 -0.93661939359E+01  0.22101997470E+02  0.00000000000E+00 0.  1.
         11    1    1    2    0    0 -0.27446684080E+02  0.69232114385E+02  0.68314206649E+02  0.10106056085E+03  0.00000000000E+00 0. -1.
</event>
<event>
 7    1  0.2766180E-009  0.1501521E+03  0.7561462E-02  0.1200286E+00
          2   -1    0    0  501    0  0.00000000000E+00  0.00000000000E+00  0.14188564630E+04  0.14188564630E+04  0.00000000000E+00 0. -1.
         -2   -1    0    0    0  501 -0.00000000000E+00 -0.00000000000E+00 -0.16373871061E+02  0.16373871061E+02  0.00000000000E+00 0.  1.
         25    2    1    2    0    0  0.93946655983E+02  0.15489104634E+02  0.81024655794E+03  0.82535319561E+03  0.12507008558E+03 0.  0.
          5    1    3    3  502    0  0.59268464171E+01  0.58293676441E+02  0.33557563039E+03  0.34067837667E+03  0.41800000000E+01 0.  1.
         -5    1    3    3    0  502  0.88019809566E+02 -0.42804571807E+02  0.47467092756E+03  0.48467481894E+03  0.41800000000E+01 0.  1.
        -11    1    1    2    0    0 -0.10768055803E+03  0.16355874404E+02  0.48860687707E+03  0.50059893879E+03  0.00000000000E+00 0.  1.
         11    1    1    2    0    0  0.13733902049E+02 -0.31844979038E+02  0.10362915697E+03  0.10927819970E+03  0.00000000000E+00 0. -1.
</event>
<event>
 7    1  0.2766180E-009  0.1020411E+03  0.7561462E-02  0.1276061E+00
         -1   -1    0    0    0  501 -0.00000000000E+00  0.00000000000E+00  0.44562562191E+02  0.44562562191E+02  0.00000000000E+00 0.  1.
          1   -1    0    0  501    0  0.00000000000E+00 -0.00000000000E+00 -0.32305715987E+03  0.32305715987E+03  0.00000000000E+00 0. -1.
         25    2    1    2    0    0 -0.45139434711E+02 -0.45180590095E+01 -0.12595703120E+03  0.18322790786E+03  0.12509720655E+03 0.  0.
          5    1    3    3  502    0 -0.70247768249E+02  0.10182210826E+02 -0.13490969588E+03  0.15250090099E+03  0.41800000000E+01 0.  1.
         -5    1    3    3    0  502  0.25108333538E+02 -0.14700269836E+02  0.89526646783E+01  0.30727006870E+02  0.41800000000E+01 0.  1.
        -11    1    1    2    0    0  0.57076412231E+02 -0.31811721223E+02 -0.97724949739E+02  0.11755793568E+03  0.00000000000E+00 0.  1.
         11    1    1    2    0    0 -0.11936977520E+02  0.36329780233E+02 -0.54812616746E+02  0.66833878525E+02  0.00000000000E+00 0. -1.
</event>
<event>
 7    1  0.2766180E-009  0.9337092E+02  0.7561462E-02  0.1294888E+00
          2   -1    0    0  501    0  0.00000000000E+00  0.00000000000E+00  0.57300577040E+03  0.57300577040E+03  0.00000000000E+00 0. -1.
         -2   -1    0    0    0  501 -0.00000000000E+00 -0.00000000000E+00 -0.22574702548E+02  0.22574702548E+02  0.00000000000E+00 0.  1.
         25    2    1    2    0    0  0.22599019846E+02 -0.12661507646E+02  0.37978641569E+03  0.40069532685E+03  0.12509194197E+03 0.  0.
          5    1    3    3  502    0 -0.36686123033E+02 -0.40448081160E+02  0.10787540234E+03  0.12098137758E+03  0.41800000000E+01 0. -1.
         -5    1    3    3    0  502  0.59285142879E+02  0.27786573514E+02  0.27191101335E+03  0.27971394927E+03  0.41800000000E+01 0. -1.
        -11    1    1    2    0    0 -0.41751512868E+02  0.19434635939E+02  0.16823898313E+03  0.17442835018E+03  0.00000000000E+00 0. -1.
         11    1    1    2    0    0  0.19152493022E+02 -0.67731282930E+01  0.24056690354E+01  0.20456795920E+02  0.00000000000E+00 0.  1.
</event>
<event>
 7    1  0.2766180E-009  0.1805815E+03  0.7561462E-02  0.1167241E+00
         -2   -1    0    0    0  501 -0.00000000000E+00  0.00000000000E+00  0.32100078827E+02  0.32100078827E+02  0.00000000000E+00 0.  1.
          2   -1    0    0  501    0  0.00000000000E+00 -0.00000000000E+00 -0.12163668927E+04  0.12163668927E+04  0.00000000000E+00 0. -1.
         25    2    1    2    0    0 -0.15002440446E+03  0.66241583592E+02 -0.66230808455E+03  0.69368212301E+03  0.12509044565E+03 0.  0.
          5    1    3    3  502    0 -0.72704254794E+02  0.61955480911E+02 -0.54320899624E+03  0.55155949477E+03  0.41800000000E+01 0. -1.
         -5    1    3    3    0  502 -0.77320149662E+02  0.42861026813E+01 -0.11909908831E+03  0.14212262823E+03  0.41800000000E+01 0. -1.
        -11    1    1    2    0    0  0.11598499712E+03 -0.89729161533E+02 -0.40884777762E+03  0.43435048895E+03  0.00000000000E+00 0.  1.
         11    1    1    2    0    0  0.34039407340E+02  0.23487577941E+02 -0.11311095170E+03  0.12043435957E+03  0.00000000000E+00 0. -1.
</event>
<event>
 7    1  0.2766180E-009  0.1032132E+03  0.7561462E-02  0.1273681E+00
         -1   -1    0    0    0  501 -0.00000000000E+00  0.00000000000E+00  0.39208289549E+02  0.39208289549E+02  0.00000000000E+00 0.  1.
          1   -1    0    0  501    0  0.00000000000E+00 -0.00000000000E+00 -0.10332030290E+04  0.10332030290E+04  0.00000000000E+00 0. -1.
         25    2    1    2    0    0 -0.36980145765E+02 -0.85899919537E+02 -0.89437920674E+03  0.90791396699E+03  0.12508908283E+03 0.  0.
          5    1    3    3  502    0  0.44905418290E+01 -0.66747053667E+02 -0.18018798644E+03  0.19225118204E+03  0.41800000000E+01 0.  1.
         -5    1    3    3    0  502 -0.41470687594E+02 -0.19152865869E+02 -0.71419122030E+03  0.71566278495E+03  0.41800000000E+01 0.  1.
        -11    1    1    2    0    0  0.85527736858E+01  0.20953724406E+02 -0.90180587736E+02  0.92977131106E+02  0.00000000000E+00 0. -1.
         11    1    1    2    0    0  0.28427372080E+02  0.64946195131E+02 -0.94349449578E+01  0.71520220440E+02  0.00000000000E+00 0.  1.
</event>
<event>
 7    1  0.2766180E-009  0.9688001E+02  0.7561462E-02  0.1286997E+00
         -1   -1    0    0    0  501 -0.00000000000E+00  0.00000000000E+00  0.27952337584E+03  0.27952337584E+03  0.00000000000E+00 0.  1.
          1   -1    0    0  501    0  0.00000000000E+00 -0.00000000000E+00 -0.62317026265E+02  0.62317026265E+02  0.00000000000E+00 0. -1.
         25    2    1    2    0    0 -0.50663127181E+02  0.46654859549E+02  0.15765484619E+03  0.21270953700E+03  0.12508744233E+03 0.  0.
          5    1    3    3  502    0 -0.64808825593E+01  0.50746914215E+02  0.26205352615E+01  0.51396407911E+02  0.41800000000E+01 0. -1.
         -5    1    3    3    0  502 -0.44182244622E+02 -0.40920546668E+01  0.15503431093E+03  0.16131312909E+03  0.41800000000E+01 0. -1.
        -11    1    1    2    0    0 -0.10135459504E+02 -0.34372725112E+02 -0.87289647247E+01  0.36883690110E+02  0.00000000000E+00 0. -1.
         11    1    1    2    0    0  0.60798586686E+02 -0.12282134437E+02  0.68280468112E+02  0.92247174997E+02  0.00000000000E+00 0.  1.
</event>
<event>
 7    1  0.2766180E-009  0.1156073E+03  0.7561462E-02  0.1250525E+00
         -1   -1    0    0    0  501 -0.00000000000E+00  0.00000000000E+00  0.11757108953E+03  0.11757108953E+03  0.00000000000E+00 0.  1.
          1   -1    0    0  501    0  0.00000000000E+00 -0.00000000000E+00 -0.13646189010E+03  0.13646189010E+03  0.00000000000E+00 0. -1.
         25    2    1    2    0    0  0.10332920414E+02  0.37439014697E+02  0.39363267289E+02  0.13676799708E+03  0.12509024402E+03 0.  0.
          5    1    3    3  502    0  0.15510935322E+02  0.83197083427E+02  0.26176888401E+02  0.88685092838E+02  0.41800000000E+01 0.  1.
         -5    1    3    3    0  502 -0.51780149077E+01 -0.45758068730E+02  0.13186378888E+02  0.48082904243E+02  0.41800000000E+01 0.  1.
        -11    1    1    2    0    0  0.41324864358E+02 -0.17137463691E+02 -0.36166028230E+02  0.57527547087E+02  0.00000000000E+00 0.  1.
         11    1    1    2    0    0 -0.51657784772E+02 -0.20301551006E+02 -0.22088039634E+02  0.59737435463E+02  0.00000000000E+00 0. -1.
</event>
<event>
 7    1  0.2766180E-009  0.1107084E+03  0.7561462E-02  0.1259264E+00
         -1   -1    0    0    0  501 -0.00000000000E+00  0.00000000000E+00  0.41251338686E+03  0.41251338686E+03  0.00000000000E+00 0.  1.
          1   -1    0    0  501    0  0.00000000000E+00 -0.00000000000E+00 -0.80633138454E+02  0.80633138454E+02  0.00000000000E+00 0. -1.
         25    2    1    2    0    0  0.44406170392E+02  0.38489259669E+02 -0.74473678456E+01  0.13839525726E+03  0.12507778725E+03 0.  0.
          5    1    3    3  502    0  0.14422893781E+02 -0.38256239064E+02 -0.32256987435E+02  0.52245050778E+02  0.41800000000E+01 0.  1.
         -5    1    3    3    0  502  0.29983276611E+02  0.76745498733E+02  0.24809619589E+02  0.86150206479E+02  0.41800000000E+01 0.  1.
        -11    1    1    2    0    0  0.19465133252E+02  0.55443263962E+01  0.32657170748E+02  0.38420330152E+02  0.00000000000E+00 0. -1.
         11    1    1    2    0    0 -0.63871303644E+02 -0.44033586065E+02  0.30667044551E+03  0.31633093791E+03  0.00000000000E+00 0.  1.
</event>
<event>
 7    1  0.2766180E-009  0.2008173E+03  0.7561462E-02  0.1149051E+00
         -1   -1    0    0    0  501 -0.00000000000E+00  0.00000000000E+00  0.13353487853E+03  0.13353487853E+03  0.00000000000E+00 0.  1.
          1   -1    0    0  501    0  0.00000000000E+00 -0.00000000000E+00 -0.37337601088E+03  0.37337601088E+03  0.00000000000E+00 0. -1.
         25    2    1    2    0    0  0.16137662906E+03  0.10653297438E+03 -0.66813061536E+02  0.23979892402E+03  0.12509135754E+03 0.  0.
          5    1    3    3  502    0  0.49615106309E+02  0.71469697528E+02  0.25326406125E+02  0.90710945789E+02  0.41800000000E+01 0. -1.
         -5    1    3    3    0  502  0.11176152275E+03  0.35063276855E+02 -0.92139467661E+02  0.14908797823E+03  0.41800000000E+01 0. -1.
        -11    1    1    2    0    0 -0.32153106148E+02 -0.40746499428E+01 -0.71165870559E+01  0.33182387172E+02  0.00000000000E+00 0. -1.
         11    1    1    2    0    0 -0.12922352291E+03 -0.10245832444E+03 -0.16591148376E+03  0.23392957822E+03  0.00000000000E+00 0.  1.
</event>
<event>
 7    1  0.2766180E-009  0.1253644E+03  0.7561462E-02  0.1234501E+00
         -2   -1    0    0    0  501 -0.00000000000E+00  0.00000000000E+00  0.55399647994E+02  0.55399647994E+02  0.00000000000E+00 0.  1.
          2   -1    0    0  501    0  0.00000000000E+00 -0.00000000000E+00 -0.33016476789E+03  0.33016476789E+03  0.00000000000E+00 0. -1.
         25    2    1    2    0    0  0.69035021367E+02 -0.37693039411E+02 -0.14441941295E+03  0.20661874299E+03  0.12509092183E+03 0.  0.
          5    1    3    3  502    0 -0.23133409442E+02  0.24570736199E+02 -0.51034373638E+02  0.61325813508E+02  0.41800000000E+01 0.  1.
         -5    1    3    3    0  502  0.92168430809E+02 -0.62263775610E+02 -0.93385039314E+02  0.14529292949E+03  0.41800000000E+01 0.  1.
        -11    1    1    2    0    0 -0.48655270272E+02 -0.13351684620E+02 -0.17458366244E+02  0.53389112742E+02  0.00000000000E+00 0. -1.
         11    1    1    2    0    0 -0.20379751095E+02  0.51044724031E+02 -0.11288734070E+03  0.12555656015E+03  0.00000000000E+00 0.  1.
</event>
<event>
 7    1  0.3120645E-009  0.1549010E+03  0.7561462E-02  0.1194577E+00
          2   -1    0    0  501    0  0.00000000000E+00  0.00000000000E+00  0.60951792991E+03  0.60951792991E+03  0.00000000000E+00 0. -1.
         -2   -1    0    0    0  501 -0.00000000000E+00 -0.00000000000E+00 -0.45187391165E+02  0.45187391165E+02  0.00000000000E+00 0.  1.
         25    2    1    2    0    0 -0.10743932973E+03  0.57398678002E+02  0.24426918912E+03  0.30025433364E+03  0.12508960911E+03 0.  0.
          5    1    3    3  502    0 -0.39576012072E+02 -0.27932753964E+02  0.14431078243E+03  0.15228123259E+03  0.41800000000E+01 0. -1.
         -5    1    3    3    0  502 -0.67863317657E+02  0.85331431966E+02  0.99958406687E+02  0.14797310104E+03  0.41800000000E+01 0. -1.
        -11    1    1    2    0    0  0.66101346651E+02  0.15841742447E+02  0.15276808238E+03  0.16720776246E+03  0.00000000000E+00 0. -1.
         11    1    1    2    0    0  0.41337983078E+02 -0.73240420449E+02  0.16729326725E+03  0.18724322498E+03  0.00000000000E+00 0.  1.
</event>
<event>
 7    1  0.2766180E-009  0.9519752E+02  0.7561462E-02  0.1290732E+00
          2   -1    0    0  501    0  0.00000000000E+00  0.00000000000E+00  0.16744543193E+03  0.16744543193E+03  0.00000000000E+00 0. -1.
         -2   -1    0    0    0  501 -0.00000000000E+00 -0.00000000000E+00 -0.72960839701E+02  0.72960839701E+02  0.00000000000E+00 0.  1.
         25    2    1    2    0    0 -0.12044178691E+02  0.83827428855E+01  0.75322957512E+02  0.14675309345E+03  0.12509032692E+03 0.  0.
          5    1    3    3  502    0  0.22689862034E+02 -0.48711393480E+02  0.13377996181E+02  0.55534429643E+02  0.41800000000E+01 0.  1.
         -5    1    3    3    0  502 -0.34734040725E+02  0.57094136366E+02  0.61944961331E+02  0.91218663807E+02  0.41800000000E+01 0.  1.
        -11    1    1    2    0    0  0.17432399865E+02 -0.36742817651E+02  0.40776498025E+02  0.57590329094E+02  0.00000000000E+00 0. -1.
         11    1    1    2    0    0 -0.53882211738E+01  0.28360074765E+02 -0.21614863311E+02  0.36062849084E+02  0.00000000000E+00 0.  1.
</event>
<event>
 7    1  0.3226292E-009  0.8835009E+02  0.7561462E-02  0.1306897E+00
          2   -1    0    0  501    0  0.00000000000E+00  0.00000000000E+00  0.23890775551E+03  0.23890775551E+03  0.00000000000E+00 0. -1.
         -2   -1    0    0    0  501 -0.00000000000E+00 -0.00000000000E+00 -0.76735389999E+02  0.76735389999E+02  0.00000000000E+00 0.  1.
         25    2    1    2    0    0  0.52929661104E+02 -0.54494613570E+02  0.57992468483E+02  0.15741095651E+03  0.12507546081E+03 0.  0.
          5    1    3    3  502    0  0.42160765712E+02 -0.66471843026E+02  0.91032181811E+02  0.12041746803E+03  0.41800000000E+01 0. -1.
         -5    1    3    3    0  502  0.10768895392E+02  0.11977229456E+02 -0.33039713328E+02  0.36993488484E+02  0.41800000000E+01 0. -1.
        -11    1    1    2    0    0 -0.22387190288E+02  0.43225920351E+02 -0.42232861635E+00  0.48681052172E+02  0.00000000000E+00 0.  1.
         11    1    1    2    0    0 -0.30542470816E+02  0.11268693219E+02  0.10460222564E+03  0.10955113683E+03  0.00000000000E+00 0. -1.
</event>
<event>
 7    1  0.2766180E-009  0.1044903E+03  0.7561462E-02  0.1271127E+00
         -3   -1    0    0    0  501 -0.00000000000E+00  0.00000000000E+00  0.33588909396E+02  0.33588909396E+02  0.00000000000E+00 0.  1.
          3   -1    0    0  501    0  0.00000000000E+00 -0.00000000000E+00 -0.56035458647E+03  0.56035458647E+03  0.00000000000E+00 0. -1.
         25    2    1    2    0    0 -0.18066551395E+02 -0.48148996302E+02 -0.39878923325E+03  0.42110058804E+03  0.12509247207E+03 0.  0.
          5    1    3    3  502    0  0.36343671188E+02 -0.67808003379E+02 -0.23876883959E+03  0.25089204634E+03  0.41800000000E+01 0.  1.
         -5    1    3    3    0  502 -0.54410222582E+02  0.19659007077E+02 -0.16002039366E+03  0.17020854170E+03  0.41800000000E+01 0.  1.
        -11    1    1    2    0    0  0.35381433224E+02  0.19351732874E+02  0.20706715387E+00  0.40328380318E+02  0.00000000000E+00 0.  1.
         11    1    1    2    0    0 -0.17314881830E+02  0.28797263428E+02 -0.12818351098E+03  0.13251452751E+03  0.00000000000E+00 0. -1.
</event>
<event>
 7    1  0.2766180E-009  0.1030376E+03  0.7561462E-02  0.1274035E+00
         -2   -1    0    0    0  501 -0.00000000000E+00  0.00000000000E+00  0.66615023044E+03  0.66615023044E+03  0.00000000000E+00 0.  1.
          2   -1    0    0  501    0  0.00000000000E+00 -0.00000000000E+00 -0.21854312535E+02  0.21854312535E+02  0.00000000000E+00 0. -1.
         25    2    1    2    0    0  0.17990611460E+02  0.43911531156E+02  0.32617060070E+03  0.35254349492E+03  0.12509104837E+03 0.  0.
          5    1    3    3  502    0  0.59144364477E+02  0.30648899613E+02  0.88025143000E+02  0.11046858873E+03  0.41800000000E+01 0.  1.
         -5    1    3    3    0  502 -0.41153753017E+02  0.13262631543E+02  0.23814545770E+03  0.24207490618E+03  0.41800000000E+01 0.  1.
        -11    1    1    2    0    0 -0.21078560113E+02  0.21673359144E+02  0.42709958969E+02  0.52327629300E+02  0.00000000000E+00 0. -1.
         11    1    1    2    0    0  0.30879486533E+01 -0.65584890300E+02  0.27541535824E+03  0.28313341876E+03  0.00000000000E+00 0.  1.
</event>
<event>
 7    1  0.2863339E-009  0.2417872E+03  0.7561462E-02  0.1118608E+00
         -1   -1    0    0    0  501 -0.00000000000E+00  0.00000000000E+00  0.16390284070E+03  0.16390284070E+03  0.00000000000E+00 0.  1.
          1   -1    0    0  501    0  0.00000000000E+00 -0.00000000000E+00 -0.48457758949E+03  0.48457758949E+03  0.00000000000E+00 0. -1.
         25    2    1    2    0    0  0.11585792708E+03  0.20112928460E+03 -0.29606167018E+02  0.26532969724E+03  0.12508906717E+03 0.  0.
          5    1    3    3  502    0  0.46963365754E+02  0.52661907245E+02  0.46675367448E+02  0.84704760929E+02  0.41800000000E+01 0.  1.
         -5    1    3    3    0  502  0.68894561321E+02  0.14846737736E+03 -0.76281534466E+02  0.18062493632E+03  0.41800000000E+01 0.  1.
        -11    1    1    2    0    0 -0.11514521984E+03 -0.11400448046E+03 -0.18843511939E+03  0.24852210653E+03  0.00000000000E+00 0.  1.
         11    1    1    2    0    0 -0.71270724019E+00 -0.87124804141E+02 -0.10263346239E+03  0.13462862641E+03  0.00000000000E+00 0. -1.
</event>
<event>
 7    1  0.2766180E-009  0.8834997E+02  0.7561462E-02  0.1306897E+00
          3   -1    0    0  501    0  0.00000000000E+00  0.00000000000E+00  0.97292504623E+02  0.97292504623E+02  0.00000000000E+00 0. -1.
         -3   -1    0    0    0  501 -0.00000000000E+00 -0.00000000000E+00 -0.15250124590E+03  0.15250124590E+03  0.00000000000E+00 0.  1.
         25    2    1    2    0    0 -0.21013532609E+02  0.49030565870E+02 -0.37893970792E+02  0.14116563078E+03  0.12508484061E+03 0.  0.
          5    1    3    3  502    0 -0.31533459415E+02  0.49599113937E+02 -0.78983892040E+02  0.98541152661E+02  0.41800000000E+01 0. -1.
         -5    1    3    3    0  502  0.10519926805E+02 -0.56854806739E+00  0.41089921248E+02  0.42624478120E+02  0.41800000000E+01 0. -1.
        -11    1    1    2    0    0 -0.31842641618E+02 -0.42616602988E+02 -0.15260978567E+02  0.55344612586E+02  0.00000000000E+00 0.  1.
         11    1    1    2    0    0  0.52856174227E+02 -0.64139628821E+01 -0.20537919198E+01  0.53283507158E+02  0.00000000000E+00 0. -1.
</event>
<event>
 7    1  0.2766180E-009  0.8906906E+02  0.7561462E-02  0.1305122E+00
         -2   -1    0    0    0  501 -0.00000000000E+00  0.00000000000E+00  0.76245648551E+03  0.76245648551E+03  0.00000000000E+00 0.  1.
          2   -1    0    0  501    0  0.00000000000E+00 -0.00000000000E+00 -0.22764573751E+02  0.22764573751E+02  0.00000000000E+00 0. -1.
         25    2    1    2    0    0  0.34666473618E+02 -0.17970199473E+02  0.40867906439E+03  0.42917480571E+03  0.12509094181E+03 0.  0.
          5    1    3    3  502    0  0.29231503916E+02  0.13221319236E+01  0.11893790161E+02  0.31861630504E+02  0.41800000000E+01 0. -1.
         -5    1    3    3    0  502  0.54349697028E+01 -0.19292331396E+02  0.39678527423E+03  0.39731317520E+03  0.41800000000E+01 0. -1.
        -11    1    1    2    0    0 -0.62470560303E+02 -0.32547970074E+02  0.14332129503E+03  0.15969638339E+03  0.00000000000E+00 0. -1.
         11    1    1    2    0    0  0.27804086685E+02  0.50518169547E+02  0.18769155234E+03  0.19634987016E+03  0.00000000000E+00 0.  1.
</event>
<event>
 7    1  0.2766180E-009  0.7011985E+02  0.7561462E-02  0.1359686E+00
         -2   -1    0    0    0  501 -0.00000000000E+00  0.00000000000E+00  0.64399395898E+02  0.64399395898E+02  0.00000000000E+00 0.  1.
          2   -1    0    0  501    0  0.00000000000E+00 -0.00000000000E+00 -0.23727007190E+03  0.23727007190E+03  0.00000000000E+00 0. -1.
         25    2    1    2    0    0 -0.34808472094E+02 -0.21942057928E+02 -0.14699484325E+03  0.19735516544E+03  0.12509393970E+03 0.  0.
          5    1    3    3  502    0 -0.44569779519E+02 -0.36666914443E+01 -0.16411801945E+03  0.17015318563E+03  0.41800000000E+01 0.  1.
         -5    1    3    3    0  502  0.97613074243E+01 -0.18275366484E+02  0.17123176199E+02  0.27201979816E+02  0.41800000000E+01 0.  1.
        -11    1    1    2    0    0 -0.10637355412E+02  0.26460082946E+02 -0.46226421413E+02  0.54315479896E+02  0.00000000000E+00 0. -1.
         11    1    1    2    0    0  0.45445827507E+02 -0.45180250180E+01  0.20350588662E+02  0.49998822453E+02  0.00000000000E+00 0.  1.
</event>
<event>
 7    1  0.2766180E-009  0.1445020E+03  0.7561462E-02  0.1207396E+00
         -2   -1    0    0    0  501 -0.00000000000E+00  0.00000000000E+00  0.13208807679E+02  0.13208807679E+02  0.00000000000E+00 0.  1.
          2   -1    0    0  501    0  0.00000000000E+00 -0.00000000000E+00 -0.23773900154E+04  0.23773900154E+04  0.00000000000E+00 0. -1.
         25    2    1    2    0    0  0.31119893250E+02  0.11686411578E+03 -0.17074674705E+04  0.17163097585E+04  0.12509338593E+03 0.  0.
          5    1    3    3  502    0 -0.10403041764E+02  0.83712063895E+02 -0.14905291927E+04  0.14929201853E+04  0.41800000000E+01 0. -1.
         -5    1    3    3    0  502  0.41522935014E+02  0.33152051882E+02 -0.21693827775E+03  0.22338957323E+03  0.41800000000E+01 0. -1.
        -11    1    1    2    0    0 -0.14212540456E+01 -0.12122150196E+03 -0.56224741930E+03  0.57516852575E+03  0.00000000000E+00 0. -1.
         11    1    1    2    0    0 -0.29698639205E+02  0.43573861814E+01 -0.94466317944E+02  0.99120538794E+02  0.00000000000E+00 0.  1.
</event>
<event>
 7    1  0.2766180E-009  0.1974121E+03  0.7561462E-02  0.1151941E+00
          3   -1    0    0  501    0  0.00000000000E+00  0.00000000000E+00  0.54435101068E+03  0.54435101068E+03  0.00000000000E+00 0. -1.
         -3   -1    0    0    0  501 -0.00000000000E+00 -0.00000000000E+00 -0.83588433921E+02  0.83588433921E+02  0.00000000000E+00 0.  1.
         25    2    1    2    0    0 -0.47939371945E+02  0.15164242756E+03  0.14204014996E+03  0.24721679968E+03  0.12508849918E+03 0.  0.
          5    1    3    3  502    0 -0.32828854135E+02 -0.74917371763E+01  0.56407353828E+02  0.65826451793E+02  0.41800000000E+01 0.  1.
         -5    1    3    3    0  502 -0.15110517810E+02  0.15913416473E+03  0.85632796127E+02  0.18139034789E+03  0.41800000000E+01 0.  1.
        -11    1    1    2    0    0 -0.37153063790E+02 -0.85465176613E+02  0.98883215994E+02  0.13587691845E+03  0.00000000000E+00 0. -1.
         11    1    1    2    0    0  0.85092435735E+02 -0.66177250944E+02  0.21983921081E+03  0.24484572647E+03  0.00000000000E+00 0.  1.
</event>
<event>
 7    1  0.2766180E-009  0.4146880E+03  0.7561462E-02  0.1038809E+00
         -4   -1    0    0    0  501 -0.00000000000E+00  0.00000000000E+00  0.55284900900E+03  0.55284900900E+03  0.00000000000E+00 0.  1.
          4   -1    0    0  501    0  0.00000000000E+00 -0.00000000000E+00 -0.34004816124E+03  0.34004816124E+03  0.00000000000E+00 0. -1.
         25    2    1    2    0    0  0.35969001705E+03 -0.19659381777E+03  0.14673785809E+02  0.42882231957E+03  0.12508886527E+03 0.  0.
          5    1    3    3  502    0  0.24040038041E+03 -0.17505511125E+03  0.51987572431E+02  0.30192186898E+03  0.41800000000E+01 0.  1.
         -5    1    3    3    0  502  0.11928963664E+03 -0.21538706518E+02 -0.37313786621E+02  0.12690045059E+03  0.41800000000E+01 0.  1.
        -11    1    1    2    0    0 -0.27669137510E+03  0.13895270852E+03  0.18868190842E+03  0.36258355564E+03  0.00000000000E+00 0.  1.
         11    1    1    2    0    0 -0.82998641956E+02  0.57641109246E+02  0.94451535374E+01  0.10149129503E+03  0.00000000000E+00 0. -1.
</event>
<event>
 7    1  0.2766180E-009  0.1040164E+03  0.7561462E-02  0.1272070E+00
         -1   -1    0    0    0  501 -0.00000000000E+00  0.00000000000E+00  0.35619147440E+02  0.35619147440E+02  0.00000000000E+00 0.  1.
          1   -1    0    0  501    0  0.00000000000E+00 -0.00000000000E+00 -0.63650359033E+03  0.63650359033E+03  0.00000000000E+00 0. -1.
         25    2    1    2    0    0 -0.32442675827E+02  0.90669698459E+02 -0.20653214367E+03  0.25995596122E+03  0.12509218190E+03 0.  0.
          5    1    3    3  502    0 -0.21871403530E+02  0.68048611950E+01 -0.16324369652E+03  0.16489584980E+03  0.41800000000E+01 0.  1.
         -5    1    3    3    0  502 -0.10571272297E+02  0.83864837264E+02 -0.43288447152E+02  0.95060111425E+02  0.41800000000E+01 0.  1.
        -11    1    1    2    0    0  0.36896787732E+02 -0.71759523859E+02 -0.37874959640E+03  0.38724934988E+03  0.00000000000E+00 0. -1.
         11    1    1    2    0    0 -0.44541119045E+01 -0.18910174601E+02 -0.15602702815E+02  0.24917426661E+02  0.00000000000E+00 0.  1.
</event>
<event>
 7    1  0.2766180E-009  0.1412969E+03  0.7561462E-02  0.1211594E+00
         -1   -1    0    0    0  501 -0.00000000000E+00  0.00000000000E+00  0.26176767715E+02  0.26176767715E+02  0.00000000000E+00 0.  1.
          1   -1    0    0  501    0  0.00000000000E+00 -0.00000000000E+00 -0.90178999594E+03  0.90178999594E+03  0.00000000000E+00 0. -1.
         25    2    1    2    0    0 -0.82708591345E+02 -0.48208936426E+02 -0.62043568841E+03  0.64011921205E+03  0.12508936626E+03 0.  0.
          5    1    3    3  502    0  0.26262136319E+02 -0.39963836351E+02 -0.20251483805E+03  0.20812625987E+03  0.41800000000E+01 0. -1.
         -5    1    3    3    0  502 -0.10897072766E+03 -0.82451000750E+01 -0.41792085037E+03  0.43199295218E+03  0.41800000000E+01 0. -1.
        -11    1    1    2    0    0 -0.12701947349E+02 -0.74941765893E+01 -0.75453960971E+02  0.76881742796E+02  0.00000000000E+00 0. -1.
         11    1    1    2    0    0  0.95410538694E+02  0.55703113015E+02 -0.17972357885E+03  0.21096580881E+03  0.00000000000E+00 0.  1.
</event>
<event>
 7    1  0.2766180E-009  0.1026445E+03  0.7561462E-02  0.1274831E+00
          2   -1    0    0  501    0  0.00000000000E+00  0.00000000000E+00  0.14353440715E+03  0.14353440715E+03  0.00000000000E+00 0.  1.
         -2   -1    0    0    0  501 -0.00000000000E+00 -0.00000000000E+00 -0.97044477282E+02  0.97044477282E+02  0.00000000000E+00 0. -1.
         25    2    1    2    0    0  0.28658936334E+02 -0.22434993709E+02 -0.12684182899E+02  0.13089194147E+03  0.12508856171E+03 0.  0.
          5    1    3    3  502    0  0.70775211458E+02 -0.23966920565E+02 -0.35448403235E+02  0.82810660728E+02  0.41800000000E+01 0. -1.
         -5    1    3    3    0  502 -0.42116275123E+02  0.15319268562E+01  0.22764220337E+02  0.48081280741E+02  0.41800000000E+01 0. -1.
        -11    1    1    2    0    0 -0.21475194832E+02 -0.29043565051E+02  0.40957485595E+02  0.54609782001E+02  0.00000000000E+00 0.  1.
         11    1    1    2    0    0 -0.71837415028E+01  0.51478558760E+02  0.18216627169E+02  0.55077160959E+02  0.00000000000E+00 0. -1.
</event>
<event>
 7    1  0.2766180E-009  0.1041881E+03  0.7561462E-02  0.1271728E+00
         -3   -1    0    0    0  501 -0.00000000000E+00  0.00000000000E+00  0.45875362520E+02  0.45875362520E+02  0.00000000000E+00 0.  1.
          3   -1    0    0  501    0  0.00000000000E+00 -0.00000000000E+00 -0.43366114056E+03  0.43366114056E+03  0.00000000000E+00 0. -1.
         25    2    1    2    0    0  0.11106626958E+02  0.79293198081E+02 -0.14857644836E+03  0.21007926537E+03  0.12509024064E+03 0.  0.
          5    1    3    3  502    0 -0.40799340631E+02  0.22295893166E+02 -0.11825392779E+03  0.12713440481E+03  0.41800000000E+01 0. -1.
         -5    1    3    3    0  502  0.51905967589E+02  0.56997304914E+02 -0.30322520568E+02  0.82944860555E+02  0.41800000000E+01 0. -1.
        -11    1    1    2    0    0 -0.53590476224E+00 -0.71138435556E+02 -0.24484141349E+03  0.25496721743E+03  0.00000000000E+00 0. -1.
         11    1    1    2    0    0 -0.10570722196E+02 -0.81547625248E+01  0.56320838122E+01  0.14490020278E+02  0.00000000000E+00 0.  1.
</event>
<event>
 7    1  0.2766180E-009  0.1385235E+03  0.7561462E-02  0.1215330E+00
          2   -1    0    0  501    0  0.00000000000E+00  0.00000000000E+00  0.52532103747E+02  0.52532103747E+02  0.00000000000E+00 0. -1.
         -2   -1    0    0    0  501 -0.00000000000E+00 -0.00000000000E+00 -0.56972538893E+03  0.56972538893E+03  0.00000000000E+00 0.  1.
         25    2    1    2    0    0  0.10600463880E+03 -0.21504610432E+02 -0.13209163392E+03  0.21164780096E+03  0.12508860933E+03 0.  0.
          5    1    3    3  502    0  0.98426829751E+02  0.13337163367E+02 -0.14296872753E+03  0.17413572348E+03  0.41800000000E+01 0.  1.
         -5    1    3    3    0  502  0.75778090512E+01 -0.34841773799E+02  0.10877093612E+02  0.37512077480E+02  0.41800000000E+01 0.  1.
        -11    1    1    2    0    0 -0.48814644784E+02  0.56514034579E+02 -0.18199549211E+03  0.19672077877E+03  0.00000000000E+00 0. -1.
         11    1    1    2    0    0 -0.57189994018E+02 -0.35009424147E+02 -0.20310615915E+03  0.21388891294E+03  0.00000000000E+00 0.  1.
</event>
<event>
 7    1  0.2766180E-009  0.1618782E+03  0.7561462E-02  0.1186592E+00
         -1   -1    0    0    0  501 -0.00000000000E+00  0.00000000000E+00  0.35075866668E+02  0.35075866668E+02  0.00000000000E+00 0.  1.
          1   -1    0    0  501    0  0.00000000000E+00 -0.00000000000E+00 -0.88778792035E+03  0.88778792035E+03  0.00000000000E+00 0. -1.
         25    2    1    2    0    0  0.51860126192E+02  0.13196226227E+03 -0.50775162522E+03  0.54181461519E+03  0.12509137847E+03 0.  0.
          5    1    3    3  502    0  0.33307008900E+02 -0.22233822861E+01 -0.29542778946E+02  0.44772183981E+02  0.41800000000E+01 0. -1.
         -5    1    3    3    0  502  0.18553117292E+02  0.13418564456E+03 -0.47820884628E+03  0.49704243121E+03  0.41800000000E+01 0. -1.
        -11    1    1    2    0    0  0.12739735203E+02 -0.41615872711E+02 -0.52407196886E+02  0.68122654088E+02  0.00000000000E+00 0.  1.
         11    1    1    2    0    0 -0.64599861395E+02 -0.90346389562E+02 -0.29255323158E+03  0.31292651774E+03  0.00000000000E+00 0. -1.
</event>
<event>
 6    1  0.2766180E-009  0.9485441E+02  0.7561462E-02  0.1291504E+00
          3   -1    0    0  501    0  0.00000000000E+00  0.00000000000E+00  0.63569549353E+02  0.63569549353E+02  0.00000000000E+00 0. -1.
         -3   -1    0    0    0  501 -0.00000000000E+00 -0.00000000000E+00 -0.33897754482E+03  0.33897754482E+03  0.00000000000E+00 0.  1.
          5    1    1    2  502    0 -0.20575032839E+02 -0.58167418667E+02 -0.20644443670E+02  0.65195444819E+02  0.41800000000E+01 0. -1.
         -5    1    1    2    0  502  0.31814489799E+02 -0.26919832921E+02 -0.18919993398E+03  0.19378061458E+03  0.41800000000E+01 0. -1.
        -11    1    1    2    0    0 -0.10987711815E+02  0.67017439951E+02  0.74820393547E+01  0.68323114547E+02  0.00000000000E+00 0. -1.
         11    1    1    2    0    0 -0.25174514454E+00  0.18069811638E+02 -0.73045657171E+02  0.75247920235E+02  0.00000000000E+00 0.  1.
</event>
<event>
 7    1  0.2766180E-009  0.1033109E+03  0.7561462E-02  0.1273484E+00
          1   -1    0    0  501    0  0.00000000000E+00  0.00000000000E+00  0.18539761392E+03  0.18539761392E+03  0.00000000000E+00 0. -1.
         -1   -1    0    0    0  501 -0.00000000000E+00 -0.00000000000E+00 -0.90084327234E+02  0.90084327234E+02  0.00000000000E+00 0.  1.
         25    2    1    2    0    0  0.66180001901E+02  0.19913479321E+02  0.57448090277E+02  0.15402946108E+03  0.12509377480E+03 0.  0.
          5    1    3    3  502    0 -0.61826881666E+01 -0.41617369975E+02  0.38285582405E+02  0.57039366552E+02  0.41800000000E+01 0. -1.
         -5    1    3    3    0  502  0.72362690068E+02  0.61530849296E+02  0.19162507872E+02  0.96990094530E+02  0.41800000000E+01 0. -1.
        -11    1    1    2    0    0 -0.19453663572E+02 -0.36955098994E+01 -0.30928211913E+02  0.36724053588E+02  0.00000000000E+00 0.  1.
         11    1    1    2    0    0 -0.46726338329E+02 -0.16217969422E+02  0.68793408317E+02  0.84728426479E+02  0.00000000000E+00 0. -1.
</event>
<event>
 7    1  0.3008926E-009  0.2178687E+03  0.7561462E-02  0.1135482E+00
          2   -1    0    0  501    0  0.00000000000E+00  0.00000000000E+00  0.58092347655E+03  0.58092347655E+03  0.00000000000E+00 0. -1.
         -2   -1    0    0    0  501 -0.00000000000E+00 -0.00000000000E+00 -0.10604015093E+03  0.10604015093E+03  0.00000000000E+00 0.  1.
         25    2    1    2    0    0  0.20069403362E+03  0.54799477999E+02  0.13364837651E+03  0.27710812751E+03  0.12508376340E+03 0.  0.
          5    1    3    3  502    0  0.13898406031E+03  0.30459939525E+02  0.15190803765E+03  0.20817757141E+03  0.41800000000E+01 0. -1.
         -5    1    3    3    0  502  0.61709973314E+02  0.24339538474E+02 -0.18259661137E+02  0.68930556101E+02  0.41800000000E+01 0. -1.
        -11    1    1    2    0    0 -0.14386548214E+03  0.56255298027E+01  0.21061559617E+03  0.25512321119E+03  0.00000000000E+00 0.  1.
         11    1    1    2    0    0 -0.56828551483E+02 -0.60425007802E+02  0.13061935294E+03  0.15473228879E+03  0.00000000000E+00 0. -1.
</event>
<event>
 7    1  0.2766180E-009  0.1524912E+03  0.7561462E-02  0.1197445E+00
         -2   -1    0    0    0  501 -0.00000000000E+00  0.00000000000E+00  0.79112141840E+02  0.79112141840E+02  0.00000000000E+00 0.  1.
          2   -1    0    0  501    0  0.00000000000E+00 -0.00000000000E+00 -0.36794794533E+03  0.36794794533E+03  0.00000000000E+00 0. -1.
         25    2    1    2    0    0  0.92276045400E+02  0.88791738675E+02 -0.16315915642E+03  0.24221359641E+03  0.12509066532E+03 0.  0.
          5    1    3    3  502    0 -0.12098214988E+02  0.23232430569E+02  0.11079043090E+02  0.28745960269E+02  0.41800000000E+01 0.  1.
         -5    1    3    3    0  502  0.10437426039E+03  0.65559308106E+02 -0.17423819951E+03  0.21346763614E+03  0.41800000000E+01 0.  1.
        -11    1    1    2    0    0 -0.99930174814E+02 -0.43144710658E+02 -0.59374392875E+02  0.12398719460E+03  0.00000000000E+00 0. -1.
         11    1    1    2    0    0  0.76541294135E+01 -0.45647028017E+02 -0.66302254192E+02  0.80859296156E+02  0.00000000000E+00 0.  1.
</event>
<event>
 7    1  0.2766180E-009  0.1060210E+03  0.7561462E-02  0.1268121E+00
         -1   -1    0    0    0  501 -0.00000000000E+00  0.00000000000E+00  0.22273475188E+03  0.22273475188E+03  0.00000000000E+00 0.  1.
          1   -1    0    0  501    0  0.00000000000E+00 -0.00000000000E+00 -0.68747724642E+02  0.68747724642E+02  0.00000000000E+00 0. -1.
         25    2    1    2    0    0  0.48892987078E+02 -0.15196467344E+02  0.14374706367E+03  0.19730439050E+03  0.12507736563E+03 0.  0.
          5    1    3    3  502    0 -0.18419187451E+02 -0.48050008916E+02  0.94139005577E+02  0.10736710201E+03  0.41800000000E+01 0. -1.
         -5    1    3    3    0  502  0.67312174528E+02  0.32853541572E+02  0.49608058096E+02  0.89937288494E+02  0.41800000000E+01 0. -1.
        -11    1    1    2    0    0 -0.37443524228E+02 -0.24056843301E+02  0.24586416034E+02  0.50845265951E+02  0.00000000000E+00 0.  1.
         11    1    1    2    0    0 -0.11449462850E+02  0.39253310645E+02 -0.14346452471E+02  0.43332820064E+02  0.00000000000E+00 0. -1.
</event>
<event>
 7    1  0.2766180E-009  0.1210096E+03  0.7561462E-02  0.1241441E+00
          2   -1    0    0  501    0  0.00000000000E+00  0.00000000000E+00  0.47509458223E+03  0.47509458223E+03  0.00000000000E+00 0. -1.
         -2   -1    0    0    0  501 -0.00000000000E+00 -0.00000000000E+00 -0.42691834013E+02  0.42691834013E+02  0.00000000000E+00 0.  1.
         25    2    1    2    0    0 -0.89461543528E+02 -0.17288819750E+02  0.19964671548E+03  0.25260330990E+03  0.12508936849E+03 0.  0.
          5    1    3    3  502    0 -0.45166648712E+02 -0.69067454137E+02  0.80952088596E+02  0.11567649902E+03  0.41800000000E+01 0.  1.
         -5    1    3    3    0  502 -0.44294894816E+02  0.51778634388E+02  0.11869462689E+03  0.13692681088E+03  0.41800000000E+01 0.  1.
        -11    1    1    2    0    0  0.32745448451E+02  0.59301164643E+01  0.19091589307E+03  0.19379450173E+03  0.00000000000E+00 0. -1.
         11    1    1    2    0    0  0.56716095077E+02  0.11358703285E+02  0.41840139660E+02  0.71388604608E+02  0.00000000000E+00 0.  1.
</event>
<event>
 7    1  0.2766180E-009  0.1072039E+03  0.7561462E-02  0.1265837E+00
          2   -1    0    0  501    0  0.00000000000E+00  0.00000000000E+00  0.13076607247E+03  0.13076607247E+03  0.00000000000E+00 0. -1.
         -2   -1    0    0    0  501 -0.00000000000E+00 -0.00000000000E+00 -0.15916877468E+03  0.15916877468E+03  0.00000000000E+00 0.  1.
         25    2    1    2    0    0  0.45006731654E+02  0.76969122973E+02  0.14841259577E+02  0.15432946517E+03  0.12508984391E+03 0.  0.
          5    1    3    3  502    0  0.36639024221E+02  0.62075218288E+02  0.67482035729E+02  0.98828378351E+02  0.41800000000E+01 0.  1.
         -5    1    3    3    0  502  0.83677074325E+01  0.14893904685E+02 -0.52640776152E+02  0.55501086821E+02  0.41800000000E+01 0.  1.
        -11    1    1    2    0    0 -0.36299730717E+02  0.96512568952E+01  0.17639592848E+01  0.37602244110E+02  0.00000000000E+00 0. -1.
         11    1    1    2    0    0 -0.87070009368E+01 -0.86620379868E+02 -0.45007921072E+02  0.98003137873E+02  0.00000000000E+00 0.  1.
</event>
<event>
 7    1  0.2766180E-009  0.1326439E+03  0.7561462E-02  0.1223585E+00
          3   -1    0    0  501    0  0.00000000000E+00  0.00000000000E+00  0.37536908084E+03  0.37536908084E+03  0.00000000000E+00 0. -1.
         -3   -1    0    0    0  501 -0.00000000000E+00 -0.00000000000E+00 -0.69959046687E+02  0.69959046687E+02  0.00000000000E+00 0.  1.
         25    2    1    2    0    0 -0.11920520850E+03  0.39887606043E+02  0.17481125011E+03  0.24900963957E+03  0.12508367033E+03 0.  0.
          5    1    3    3  502    0 -0.71643340080E+02  0.48691168803E+02  0.18037634204E+03  0.20014168798E+03  0.41800000000E+01 0.  1.
         -5    1    3    3    0  502 -0.47561868416E+02 -0.88035627601E+01 -0.55650919302E+01  0.48867951591E+02  0.41800000000E+01 0.  1.
        -11    1    1    2    0    0  0.11137304116E+02 -0.15738336550E+02  0.64584312076E+02  0.67400802271E+02  0.00000000000E+00 0. -1.
         11    1    1    2    0    0  0.10806790438E+03 -0.24149269493E+02  0.66014471961E+02  0.12891768569E+03  0.00000000000E+00 0.  1.
</event>
<event>
 7    1  0.2766180E-009  0.9039560E+02  0.7561462E-02  0.1301897E+00
          1   -1    0    0  501    0  0.00000000000E+00  0.00000000000E+00  0.11610161650E+03  0.11610161650E+03  0.00000000000E+00 0. -1.
         -1   -1    0    0    0  501 -0.00000000000E+00 -0.00000000000E+00 -0.11487434449E+03  0.11487434449E+03  0.00000000000E+00 0.  1.
         25    2    1    2    0    0  0.54768952058E+01 -0.57353395005E+01  0.40904844776E+02  0.13184404567E+03  0.12508699194E+03 0.  0.
          5    1    3    3  502    0  0.14670776371E+02  0.41073839062E+02  0.64881668638E+02  0.78290454462E+02  0.41800000000E+01 0.  1.
         -5    1    3    3    0  502 -0.91938811656E+01 -0.46809178563E+02 -0.23976823863E+02  0.53553591207E+02  0.41800000000E+01 0.  1.
        -11    1    1    2    0    0  0.17862113599E+02  0.42183577560E+02 -0.10687711557E+02  0.47039733166E+02  0.00000000000E+00 0.  1.
         11    1    1    2    0    0 -0.23339008804E+02 -0.36448238060E+02 -0.28989861207E+02  0.52092182162E+02  0.00000000000E+00 0. -1.
</event>
<event>
 7    1  0.2766180E-009  0.1466173E+03  0.7561462E-02  0.1204692E+00
          1   -1    0    0  501    0  0.00000000000E+00  0.00000000000E+00  0.26564414788E+03  0.26564414788E+03  0.00000000000E+00 0. -1.
         -1   -1    0    0    0  501 -0.00000000000E+00 -0.00000000000E+00 -0.13434013585E+03  0.13434013585E+03  0.00000000000E+00 0.  1.
         25    2    1    2    0    0 -0.85449474987E+02 -0.87382777842E+02 -0.32428703988E+02  0.17786671755E+03  0.12509031030E+03 0.  0.
          5    1    3    3  502    0 -0.63039874562E+02 -0.10569606575E+03 -0.60618021746E+02  0.13725050477E+03  0.41800000000E+01 0. -1.
         -5    1    3    3    0  502 -0.22409600425E+02  0.18313287905E+02  0.28189317758E+02  0.40616212782E+02  0.41800000000E+01 0. -1.
        -11    1    1    2    0    0  0.94803351826E+02  0.60676968774E+02  0.93252113135E+02  0.14616882931E+03  0.00000000000E+00 0. -1.
         11    1    1    2    0    0 -0.93538768396E+01  0.26705809068E+02  0.70480602883E+02  0.75948736874E+02  0.00000000000E+00 0.  1.
</event>
<event>
 7    1  0.2766180E-009  0.1044124E+03  0.7561462E-02  0.1271282E+00
          1   -1    0    0  501    0  0.00000000000E+00  0.00000000000E+00  0.33778745592E+02  0.33778745592E+02  0.00000000000E+00 0. -1.
         -1   -1    0    0    0  501 -0.00000000000E+00 -0.00000000000E+00 -0.41397290322E+03  0.41397290322E+03  0.00000000000E+00 0.  1.
         25    2    1    2    0    0 -0.46117299635E+02  0.27660103624E+01 -0.19702616749E+03  0.23791115405E+03  0.12509176795E+03 0.  0.
          5    1    3    3  502    0  0.30423180822E+02 -0.27114238662E+01 -0.13691934171E+03  0.14034707081E+03  0.41800000000E+01 0. -1.
         -5    1    3    3    0  502 -0.76540480457E+02  0.54774342286E+01 -0.60106825780E+02  0.97564083246E+02  0.41800000000E+01 0. -1.
        -11    1    1    2    0    0  0.70638281182E+02 -0.17186970500E+02 -0.11602103166E+03  0.13691617330E+03  0.00000000000E+00 0. -1.
         11    1    1    2    0    0 -0.24520981547E+02  0.14420960138E+02 -0.67146958485E+02  0.72924321465E+02  0.00000000000E+00 0.  1.
</event>
<event>
 7    1  0.2766180E-009  0.9252734E+02  0.7561462E-02  0.1296844E+00
         -1   -1    0    0    0  501 -0.00000000000E+00  0.00000000000E+00  0.22123538542E+03  0.22123538542E+03  0.00000000000E+00 0.  1.
          1   -1    0    0  501    0  0.00000000000E+00 -0.00000000000E+00 -0.78860529917E+02  0.78860529917E+02  0.00000000000E+00 0. -1.
         25    2    1    2    0    0 -0.15404741685E+02 -0.66502869891E+02  0.12050684769E+03  0.18662477761E+03  0.12508784716E+03 0.  0.
          5    1    3    3  502    0 -0.19953660387E+02 -0.67262807254E+02  0.44757289552E+01  0.70426829775E+02  0.41800000000E+01 0. -1.
         -5    1    3    3    0  502  0.45489187019E+01  0.75993736245E+00  0.11603111873E+03  0.11619794783E+03  0.41800000000E+01 0. -1.
        -11    1    1    2    0    0 -0.30180222913E+02  0.29348600160E+01 -0.50616336717E+01  0.30742143611E+02  0.00000000000E+00 0. -1.
         11    1    1    2    0    0  0.45584964598E+02  0.63568009875E+02  0.26929641485E+02  0.82728994116E+02  0.00000000000E+00 0.  1.
</event>
<event>
 7    1  0.3425826E-009  0.1183166E+03  0.7561462E-02  0.1245900E+00
          2   -1    0    0  501    0  0.00000000000E+00  0.00000000000E+00  0.45011246389E+03  0.45011246389E+03  0.00000000000E+00 0. -1.
         -2   -1    0    0    0  501 -0.00000000000E+00 -0.00000000000E+00 -0.59857793767E+02  0.59857793767E+02  0.00000000000E+00 0.  1.
         25    2    1    2    0    0 -0.98572350705E+02  0.23349392595E+02  0.10071888403E+03  0.18987727466E+03  0.12508950145E+03 0.  0.
          5    1    3    3  502    0 -0.36838311595E+02 -0.29095123342E+02  0.97974232878E+02  0.10871986990E+03  0.41800000000E+01 0. -1.
         -5    1    3    3    0  502 -0.61734039109E+02  0.52444515937E+02  0.27446511510E+01  0.81157404755E+02  0.41800000000E+01 0. -1.
        -11    1    1    2    0    0  0.43362015689E+02 -0.30081938259E+02  0.45134571559E+02  0.69442904344E+02  0.00000000000E+00 0.  1.
         11    1    1    2    0    0  0.55210335016E+02  0.67325456632E+01  0.24440121454E+03  0.25065007866E+03  0.00000000000E+00 0. -1.
</event>
<event>
 7    1  0.2766180E-009  0.1035294E+03  0.7561462E-02  0.1273045E+00
          1   -1    0    0  501    0  0.00000000000E+00  0.00000000000E+00  0.83158330909E+03  0.83158330909E+03  0.00000000000E+00 0. -1.
         -1   -1    0    0    0  501 -0.00000000000E+00 -0.00000000000E+00 -0.15021952518E+02  0.15021952518E+02  0.00000000000E+00 0.  1.
         25    2    1    2    0    0  0.38000311769E+01  0.27706866030E+02  0.46142925172E+03  0.47890746251E+03  0.12511311939E+03 0.  0.
          5    1    3    3  502    0 -0.23098158438E+02  0.63264631093E+02  0.38029625673E+03  0.38623652566E+03  0.41800000000E+01 0.  1.
         -5    1    3    3    0  502  0.26898189615E+02 -0.35557765062E+02  0.81132994989E+02  0.92670936850E+02  0.41800000000E+01 0.  1.
        -11    1    1    2    0    0 -0.43295009891E+02 -0.33682738225E+02  0.22387198488E+03  0.23049436078E+03  0.00000000000E+00 0. -1.
         11    1    1    2    0    0  0.39494978714E+02  0.59758721947E+01  0.13126011997E+03  0.13720343832E+03  0.00000000000E+00 0.  1.
</event>
<event>
 7    1  0.2766180E-009  0.7976648E+02  0.7561462E-02  0.1329715E+00
         -1   -1    0    0    0  501 -0.00000000000E+00  0.00000000000E+00  0.21449947303E+03  0.21449947303E+03  0.00000000000E+00 0.  1.
          1   -1    0    0  501    0  0.00000000000E+00 -0.00000000000E+00 -0.51170820438E+02  0.51170820438E+02  0.00000000000E+00 0. -1.
         25    2    1    2    0    0  0.26444447312E+02 -0.49085946943E+00  0.91832322077E+02  0.15741532518E+03  0.12508740739E+03 0.  0.
          5    1    3    3  502    0  0.31083698686E+01 -0.49851312390E+02  0.89533364798E+02  0.10260853338E+03  0.41800000000E+01 0. -1.
         -5    1    3    3    0  502  0.23336077443E+02  0.49360452921E+02  0.22989572794E+01  0.54806791802E+02  0.41800000000E+01 0. -1.
        -11    1    1    2    0    0 -0.59520349135E+00 -0.21016578756E+02 -0.75610616433E+01  0.22343242893E+02  0.00000000000E+00 0. -1.
         11    1    1    2    0    0 -0.25849243820E+02  0.21507438226E+02  0.79057392156E+02  0.85911725391E+02  0.00000000000E+00 0.  1.
</event>
<event>
 7    1  0.2766180E-009  0.1104588E+03  0.7561462E-02  0.1259723E+00
         -2   -1    0    0    0  501 -0.00000000000E+00  0.00000000000E+00  0.16372977628E+03  0.16372977628E+03  0.00000000000E+00 0.  1.
          2   -1    0    0  501    0  0.00000000000E+00 -0.00000000000E+00 -0.83825040824E+02  0.83825040824E+02  0.00000000000E+00 0. -1.
         25    2    1    2    0    0 -0.24429505215E+02 -0.10792218141E+02  0.50511868638E+01  0.12801064845E+03  0.12509172207E+03 0.  0.
          5    1    3    3  502    0 -0.38156226234E+02 -0.62896891463E+02 -0.46181087638E+00  0.73685834632E+02  0.41800000000E+01 0.  1.
         -5    1    3    3    0  502  0.13726721019E+02  0.52104673322E+02  0.55129977402E+01  0.54324813815E+02  0.41800000000E+01 0.  1.
        -11    1    1    2    0    0  0.27905709224E+02  0.48159475794E+02  0.43513688130E+02  0.70650582240E+02  0.00000000000E+00 0. -1.
         11    1    1    2    0    0 -0.34762040090E+01 -0.37367257654E+02  0.31339860457E+02  0.48893586413E+02  0.00000000000E+00 0.  1.
</event>
<event>
 7    1  0.2766180E-009  0.1040148E+03  0.7561462E-02  0.1272073E+00
         -1   -1    0    0    0  501 -0.00000000000E+00  0.00000000000E+00  0.21445132137E+02  0.21445132137E+02  0.00000000000E+00 0.  1.
          1   -1    0    0  501    0  0.00000000000E+00 -0.00000000000E+00 -0.61280815854E+03  0.61280815854E+03  0.00000000000E+00 0. -1.
         25    2    1    2    0    0 -0.17658304787E+02 -0.18265392426E+02 -0.41082280903E+03  0.43019411279E+03  0.12508458726E+03 0.  0.
          5    1    3    3  502    0  0.45950731505E+02  0.22284666556E+02 -0.14224985620E+03  0.15119712325E+03  0.41800000000E+01 0. -1.
         -5    1    3    3    0  502 -0.63609036292E+02 -0.40550058982E+02 -0.26857295283E+03  0.27899698954E+03  0.41800000000E+01 0. -1.
        -11    1    1    2    0    0  0.42546450348E+02 -0.98690411011E+01 -0.14816931611E+03  0.15447247213E+03  0.00000000000E+00 0. -1.
         11    1    1    2    0    0 -0.24888145560E+02  0.28134433527E+02 -0.32370901261E+02  0.49586705756E+02  0.00000000000E+00 0.  1.
</event>
<event>
 7    1  0.2766180E-009  0.1134150E+03  0.7561462E-02  0.1254373E+00
          1   -1    0    0  501    0  0.00000000000E+00  0.00000000000E+00  0.28450409426E+02  0.28450409426E+02  0.00000000000E+00 0. -1.
         -1   -1    0    0    0  501 -0.00000000000E+00 -0.00000000000E+00 -0.46314270720E+03  0.46314270720E+03  0.00000000000E+00 0.  1.
         25    2    1    2    0    0 -0.42562688554E+01 -0.38874441218E+02 -0.22826486033E+03  0.26321326515E+03  0.12508812288E+03 0.  0.
          5    1    3    3  502    0  0.56801357852E+02 -0.39516325587E+02 -0.10932995921E+03  0.12945441909E+03  0.41800000000E+01 0.  1.
         -5    1    3    3    0  502 -0.61057626707E+02  0.64188436893E+00 -0.11893490112E+03  0.13375884606E+03  0.41800000000E+01 0.  1.
        -11    1    1    2    0    0 -0.41437422339E+02  0.11358167350E+02 -0.73299800703E+02  0.84964279076E+02  0.00000000000E+00 0. -1.
         11    1    1    2    0    0  0.45693691195E+02  0.27516273868E+02 -0.13312763675E+03  0.14341557241E+03  0.00000000000E+00 0.  1.
</event>
<event>
 7    1  0.2766180E-009  0.1090298E+03  0.7561462E-02  0.1262377E+00
          2   -1    0    0  501    0  0.00000000000E+00  0.00000000000E+00  0.16492247646E+04  0.16492247646E+04  0.00000000000E+00 0.  1.
         -2   -1    0    0    0  501 -0.00000000000E+00 -0.00000000000E+00 -0.11228752999E+02  0.11228752999E+02  0.00000000000E+00 0. -1.
         25    2    1    2    0    0 -0.24425848842E+02 -0.49383115938E+02  0.12616487453E+04  0.12690312591E+04  0.12508983071E+03 0.  0.
          5    1    3    3  502    0 -0.38547857181E+02 -0.74211293357E+02  0.11688731166E+04  0.11718682044E+04  0.41800000000E+01 0. -1.
         -5    1    3    3    0  502  0.14122008339E+02  0.24828177418E+02  0.92775628694E+02  0.97163054671E+02  0.41800000000E+01 0. -1.
        -11    1    1    2    0    0  0.39589294207E+02 -0.12682194159E+02  0.18773519033E+03  0.19228273961E+03  0.00000000000E+00 0. -1.
         11    1    1    2    0    0 -0.15163445366E+02  0.62065310097E+02  0.18861207596E+03  0.19913951891E+03  0.00000000000E+00 0.  1.
</event>
<event>
 7    1  0.2766180E-009  0.8660846E+02  0.7561462E-02  0.1311279E+00
          1   -1    0    0  501    0  0.00000000000E+00  0.00000000000E+00  0.14973432216E+03  0.14973432216E+03  0.00000000000E+00 0. -1.
         -1   -1    0    0    0  501 -0.00000000000E+00 -0.00000000000E+00 -0.10307427385E+03  0.10307427385E+03  0.00000000000E+00 0.  1.
         25    2    1    2    0    0  0.95515395333E+01 -0.27634377183E+02  0.77763206666E+02  0.15016287538E+03  0.12508749786E+03 0.  0.
          5    1    3    3  502    0 -0.33824373323E+02 -0.22413792785E+02  0.94706306311E+02  0.10311752127E+03  0.41800000000E+01 0. -1.
         -5    1    3    3    0  502  0.43375912856E+02 -0.52205843981E+01 -0.16943099645E+02  0.47045354108E+02  0.41800000000E+01 0. -1.
        -11    1    1    2    0    0  0.34712820876E+02 -0.27904996437E+01 -0.34245270006E+02  0.48841635305E+02  0.00000000000E+00 0. -1.
         11    1    1    2    0    0 -0.44264360410E+02  0.30424876827E+02  0.31421116458E+01  0.53804085328E+02  0.00000000000E+00 0.  1.
</event>
<event>
 7    1  0.2766180E-009  0.9218512E+02  0.7561462E-02  0.1297645E+00
         -1   -1    0    0    0  501 -0.00000000000E+00  0.00000000000E+00  0.18344456417E+03  0.18344456417E+03  0.00000000000E+00 0.  1.
          1   -1    0    0  501    0  0.00000000000E+00 -0.00000000000E+00 -0.73690997257E+02  0.73690997257E+02  0.00000000000E+00 0. -1.
         25    2    1    2    0    0  0.85398116836E+01 -0.36175435504E+02  0.83617339473E+02  0.15498678054E+03  0.12508977642E+03 0.  0.
          5    1    3    3  502    0 -0.52245116899E+02 -0.40472905584E+02  0.26383969033E+02  0.71282498189E+02  0.41800000000E+01 0.  1.
         -5    1    3    3    0  502  0.60784928582E+02  0.42974700800E+01  0.57233370440E+02  0.83704282351E+02  0.41800000000E+01 0.  1.
        -11    1    1    2    0    0  0.15693180059E+02  0.26860394526E+02 -0.28162411658E+02  0.41962818362E+02  0.00000000000E+00 0. -1.
         11    1    1    2    0    0 -0.24232991743E+02  0.93150409779E+01  0.54298639099E+02  0.60185962527E+02  0.00000000000E+00 0.  1.
</event>
<event>
 7    1  0.2766180E-009  0.1999884E+03  0.7561462E-02  0.1149749E+00
         -1   -1    0    0    0  501 -0.00000000000E+00  0.00000000000E+00  0.50852397213E+02  0.50852397213E+02  0.00000000000E+00 0.  1.
          1   -1    0    0  501    0  0.00000000000E+00 -0.00000000000E+00 -0.92311663545E+03  0.92311663545E+03  0.00000000000E+00 0. -1.
         25    2    1    2    0    0 -0.16640702714E+03  0.75267221186E+02 -0.35285717668E+03  0.41654769842E+03  0.12508934668E+03 0.  0.
          5    1    3    3  502    0  0.18437834450E+02  0.87511225099E+01 -0.14875093540E+02  0.25598372843E+02  0.41800000000E+01 0.  1.
         -5    1    3    3    0  502 -0.18484486159E+03  0.66516098676E+02 -0.33798208314E+03  0.39094932557E+03  0.41800000000E+01 0.  1.
        -11    1    1    2    0    0  0.11948061771E+03 -0.52940821874E+02 -0.24048431773E+03  0.27369884126E+03  0.00000000000E+00 0.  1.
         11    1    1    2    0    0  0.46926409433E+02 -0.22326399312E+02 -0.27892274381E+03  0.28372249299E+03  0.00000000000E+00 0. -1.
</event>
<event>
 7    1  0.2766180E-009  0.1460144E+03  0.7561462E-02  0.1205458E+00
         -2   -1    0    0    0  501 -0.00000000000E+00  0.00000000000E+00  0.52565937167E+02  0.52565937167E+02  0.00000000000E+00 0.  1.
          2   -1    0    0  501    0  0.00000000000E+00 -0.00000000000E+00 -0.59428031868E+03  0.59428031868E+03  0.00000000000E+00 0. -1.
         25    2    1    2    0    0  0.93721424168E+02  0.69397686953E+02 -0.42306080605E+03  0.45631974884E+03  0.12509006061E+03 0.  0.
          5    1    3    3  502    0  0.11207204159E+03  0.33104472360E+02 -0.21960327857E+03  0.24879533949E+03  0.41800000000E+01 0. -1.
         -5    1    3    3    0  502 -0.18350617423E+02  0.36293214592E+02 -0.20345752748E+03  0.20752440934E+03  0.41800000000E+01 0. -1.
        -11    1    1    2    0    0 -0.61995464434E+02 -0.79592627287E+02 -0.12049210336E+03  0.15715206298E+03  0.00000000000E+00 0. -1.
         11    1    1    2    0    0 -0.31725959735E+02  0.10194940334E+02  0.18385278861E+01  0.33374444030E+02  0.00000000000E+00 0.  1.
</event>
<event>
 7    1  0.2766180E-009  0.9636170E+02  0.7561462E-02  0.1288138E+00
         -2   -1    0    0    0  501 -0.00000000000E+00  0.00000000000E+00  0.12793847116E+03  0.12793847116E+03  0.00000000000E+00 0.  1.
          2   -1    0    0  501    0  0.00000000000E+00 -0.00000000000E+00 -0.14147950650E+03  0.14147950650E+03  0.00000000000E+00 0. -1.
         25    2    1    2    0    0 -0.29021025622E+02  0.60042145844E+02 -0.51798887441E+02  0.15093701863E+03  0.12510627341E+03 0.  0.
          5    1    3    3  502    0 -0.21848326369E+02  0.77532675513E+02  0.14425642622E+02  0.81940446072E+02  0.41800000000E+01 0. -1.
         -5    1    3    3    0  502 -0.71726992525E+01 -0.17490529669E+02 -0.66224530062E+02  0.68996572557E+02  0.41800000000E+01 0. -1.
        -11    1    1    2    0    0  0.38042458262E+02 -0.67314850673E+01  0.49965572553E+02  0.63159322055E+02  0.00000000000E+00 0.  1.
         11    1    1    2    0    0 -0.90214326401E+01 -0.53310660776E+02 -0.11707720448E+02  0.55321636973E+02  0.00000000000E+00 0. -1.
</event>
<event>
 7    1  0.3289920E-009  0.1580671E+03  0.7561462E-02  0.1190896E+00
         -2   -1    0    0    0  501 -0.00000000000E+00  0.00000000000E+00  0.12307248070E+03  0.12307248070E+03  0.00000000000E+00 0.  1.
          2   -1    0    0  501    0  0.00000000000E+00 -0.00000000000E+00 -0.22704253672E+03  0.22704253672E+03  0.00000000000E+00 0. -1.
         25    2    1    2    0    0  0.79936234138E+02  0.98012794806E+02 -0.44179493131E+02  0.18328851822E+03  0.12508614562E+03 0.  0.
          5    1    3    3  502    0  0.93154667573E+02  0.22738922615E+02 -0.46632174485E+02  0.10670933787E+03  0.41800000000E+01 0. -1.
         -5    1    3    3    0  502 -0.13218433435E+02  0.75273872191E+02  0.24526813543E+01  0.76579180349E+02  0.41800000000E+01 0. -1.
        -11    1    1    2    0    0 -0.77770396661E+02 -0.43601201976E+02 -0.67500778420E+02  0.11182868370E+03  0.00000000000E+00 0. -1.
         11    1    1    2    0    0 -0.21658374763E+01 -0.54411592830E+02  0.77102155270E+01  0.54997815499E+02  0.00000000000E+00 0.  1.
</event>
<event>
 7    1  0.2766180E-009  0.1095394E+03  0.7561462E-02  0.1261425E+00
         -2   -1    0    0    0  501 -0.00000000000E+00  0.00000000000E+00  0.12741322285E+03  0.12741322285E+03  0.00000000000E+00 0.  1.
          2   -1    0    0  501    0  0.00000000000E+00 -0.00000000000E+00 -0.11151127764E+03  0.11151127764E+03  0.00000000000E+00 0. -1.
         25    2    1    2    0    0  0.34743655363E+02  0.34375704151E+02 -0.46369738969E+01  0.13438052673E+03  0.12509122197E+03 0.  0.
          5    1    3    3  502    0  0.63497612986E+02  0.62398958560E+02  0.13473123946E+02  0.90136420792E+02  0.41800000000E+01 0.  1.
         -5    1    3    3    0  502 -0.28753957623E+02 -0.28023254410E+02 -0.18110097843E+02  0.44244105942E+02  0.41800000000E+01 0.  1.
        -11    1    1    2    0    0  0.22486663854E+02 -0.21102736927E+02 -0.16618072429E+02  0.35030499402E+02  0.00000000000E+00 0. -1.
         11    1    1    2    0    0 -0.57230319217E+02 -0.13272967224E+02  0.37156991531E+02  0.69513474350E+02  0.00000000000E+00 0.  1.
</event>
<event>
 7    1  0.2766180E-009  0.1983255E+03  0.7561462E-02  0.1151160E+00
          2   -1    0    0  501    0  0.00000000000E+00  0.00000000000E+00  0.10885296774E+04  0.10885296774E+04  0.00000000000E+00 0.  1.
         -2   -1    0    0    0  501 -0.00000000000E+00 -0.00000000000E+00 -0.47074071735E+02  0.47074071735E+02  0.00000000000E+00 0. -1.
         25    2    1    2    0    0  0.39336907703E+02 -0.16646614497E+03  0.78290426929E+03  0.81107661691E+03  0.12509122229E+03 0.  0.
          5    1    3    3  502    0  0.10774266381E+02  0.13954047505E+02  0.21792777480E+02  0.28340744664E+02  0.41800000000E+01 0.  1.
         -5    1    3    3    0  502  0.28562641323E+02 -0.18042019247E+03  0.76111149181E+03  0.78273587224E+03  0.41800000000E+01 0.  1.
        -11    1    1    2    0    0 -0.52330529405E+02  0.33317353505E+02  0.90653665002E+02  0.10984815579E+03  0.00000000000E+00 0.  1.
         11    1    1    2    0    0  0.12993621702E+02  0.13314879146E+03  0.16789767138E+03  0.21467897644E+03  0.00000000000E+00 0. -1.
</event>
<event>
 7    1  0.2766180E-009  0.8889572E+02  0.7561462E-02  0.1305548E+00
          1   -1    0    0  501    0  0.00000000000E+00  0.00000000000E+00  0.36291544590E+02  0.36291544590E+02  0.00000000000E+00 0. -1.
         -1   -1    0    0    0  501 -0.00000000000E+00 -0.00000000000E+00 -0.28950475723E+03  0.28950475723E+03  0.00000000000E+00 0.  1.
         25    2    1    2    0    0  0.40422772968E+00  0.23775828344E+01 -0.17165710751E+03  0.21241373476E+03  0.12509043071E+03 0.  0.
          5    1    3    3  502    0 -0.18523025268E+02 -0.45209339961E+02 -0.21195226456E+02  0.53420004767E+02  0.41800000000E+01 0.  1.
         -5    1    3    3    0  502  0.18927252998E+02  0.47586922795E+02 -0.15046188105E+03  0.15899372999E+03  0.41800000000E+01 0.  1.
        -11    1    1    2    0    0  0.22229471796E+02  0.30326189413E+02 -0.50287504205E+02  0.62790606462E+02  0.00000000000E+00 0.  1.
         11    1    1    2    0    0 -0.22633699526E+02 -0.32703772247E+02 -0.31268600927E+02  0.50591960600E+02  0.00000000000E+00 0. -1.
</event>
<event>
 7    1  0.2766180E-009  0.1031632E+03  0.7561462E-02  0.1273781E+00
         -1   -1    0    0    0  501 -0.00000000000E+00  0.00000000000E+00  0.28184704613E+03  0.28184704613E+03  0.00000000000E+00 0.  1.
          1   -1    0    0  501    0  0.00000000000E+00 -0.00000000000E+00 -0.53795064061E+02  0.53795064061E+02  0.00000000000E+00 0. -1.
         25    2    1    2    0    0 -0.13458013961E+02  0.43986624610E+02  0.79678239352E+02  0.15527808041E+03  0.12508684641E+03 0.  0.
          5    1    3    3  502    0 -0.26775803864E+02  0.78349496148E+02  0.83898346196E+02  0.11794910815E+03  0.41800000000E+01 0. -1.
         -5    1    3    3    0  502  0.13317789904E+02 -0.34362871537E+02 -0.42201068440E+01  0.37328972260E+02  0.41800000000E+01 0. -1.
        -11    1    1    2    0    0 -0.62283799378E+01 -0.60388641012E+02  0.49821421103E+02  0.78535053833E+02  0.00000000000E+00 0. -1.
         11    1    1    2    0    0  0.19686393898E+02  0.16402016401E+02  0.98552321612E+02  0.10182897594E+03  0.00000000000E+00 0.  1.
</event>
<event>
 7    1  0.2766180E-009  0.1595319E+03  0.7561462E-02  0.1189226E+00
         -1   -1    0    0    0  501 -0.00000000000E+00  0.00000000000E+00  0.58097961871E+03  0.58097961871E+03  0.00000000000E+00 0.  1.
          1   -1    0    0  501    0  0.00000000000E+00 -0.00000000000E+00 -0.68168809817E+02  0.68168809817E+02  0.00000000000E+00 0. -1.
         25    2    1    2    0    0  0.98402627750E+02 -0.71990094980E+02  0.85730119438E+02  0.19458405090E+03  0.12509056145E+03 0.  0.
          5    1    3    3  502    0  0.55065943460E+02 -0.98842872547E+02  0.26426059105E+02  0.11626685075E+03  0.41800000000E+01 0.  1.
         -5    1    3    3    0  502  0.43336684290E+02  0.26852777567E+02  0.59304060333E+02  0.78317200157E+02  0.41800000000E+01 0.  1.
        -11    1    1    2    0    0  0.14383834961E+02 -0.79586205441E+01  0.31669219482E+02  0.35681561229E+02  0.00000000000E+00 0.  1.
         11    1    1    2    0    0 -0.11278646271E+03  0.79948715524E+02  0.39541146997E+03  0.41888281639E+03  0.00000000000E+00 0. -1.
</event>
<event>
 7    1  0.2766180E-009  0.1059886E+03  0.7561462E-02  0.1268184E+00
          1   -1    0    0  501    0  0.00000000000E+00  0.00000000000E+00  0.56334341548E+02  0.56334341548E+02  0.00000000000E+00 0. -1.
         -1   -1    0    0    0  501 -0.00000000000E+00 -0.00000000000E+00 -0.21890412915E+03  0.21890412915E+03  0.00000000000E+00 0.  1.
         25    2    1    2    0    0 -0.14918790403E+02  0.20376467640E+02 -0.84775131490E+02  0.15320619906E+03  0.12509015057E+03 0.  0.
          5    1    3    3  502    0 -0.62481213902E+02  0.32410363925E+02 -0.75122481878E+02  0.10303006097E+03  0.41800000000E+01 0. -1.
         -5    1    3    3    0  502  0.47562423499E+02 -0.12033896284E+02 -0.96526496125E+01  0.50176138088E+02  0.41800000000E+01 0. -1.
        -11    1    1    2    0    0  0.50117412638E+02 -0.26196231255E+02 -0.35804549285E+02  0.66932528198E+02  0.00000000000E+00 0.  1.
         11    1    1    2    0    0 -0.35198622234E+02  0.58197636151E+01 -0.41990106826E+02  0.55099743438E+02  0.00000000000E+00 0. -1.
</event>
<event>
 7    1  0.2766180E-009  0.1550634E+03  0.7561462E-02  0.1194386E+00
         -1   -1    0    0    0  501 -0.00000000000E+00  0.00000000000E+00  0.56524736191E+02  0.56524736191E+02  0.00000000000E+00 0. -1.
          1   -1    0    0  501    0  0.00000000000E+00 -0.00000000000E+00 -0.48640271180E+03  0.48640271180E+03  0.00000000000E+00 0.  1.
         25    2    1    2    0    0  0.71574036829E+02  0.98736687071E+02 -0.19016598814E+03  0.25822930264E+03  0.12508994195E+03 0.  0.
          5    1    3    3  502    0 -0.63047607784E+01  0.85320283711E+02 -0.55599173399E+02  0.10211778152E+03  0.41800000000E+01 0.  1.
         -5    1    3    3    0  502  0.77878797607E+02  0.13416403360E+02 -0.13456681474E+03  0.15611152112E+03  0.41800000000E+01 0.  1.
        -11    1    1    2    0    0 -0.88730058110E+02 -0.75844251296E+02 -0.14720539451E+03  0.18786910826E+03  0.00000000000E+00 0. -1.
         11    1    1    2    0    0  0.17156021281E+02 -0.22892435775E+02 -0.92506592958E+02  0.96829037084E+02  0.00000000000E+00 0.  1.
</event>
<event>
 7    1  0.2766180E-009  0.1396709E+03  0.7561462E-02  0.1213773E+00
         -3   -1    0    0    0  501 -0.00000000000E+00  0.00000000000E+00  0.56363410664E+03  0.56363410664E+03  0.00000000000E+00 0.  1.
          3   -1    0    0  501    0  0.00000000000E+00 -0.00000000000E+00 -0.83359929960E+02  0.83359929960E+02  0.00000000000E+00 0. -1.
         25    2    1    2    0    0 -0.88108397228E+02 -0.74880736064E+02  0.46811734927E+03  0.49814811967E+03  0.12508989624E+03 0.  0.
          5    1    3    3  502    0 -0.35164813153E+02 -0.69140569229E+02  0.41713337848E+03  0.42430497315E+03  0.41800000000E+01 0.  1.
         -5    1    3    3    0  502 -0.52943584075E+02 -0.57401668351E+01  0.50983970796E+02  0.73843146521E+02  0.41800000000E+01 0.  1.
        -11    1    1    2    0    0  0.10380409908E+03  0.80720359391E+02  0.12562103298E+02  0.13209418551E+03  0.00000000000E+00 0.  1.
         11    1    1    2    0    0 -0.15695701849E+02 -0.58396233264E+01 -0.40527589212E+00  0.16751731423E+02  0.00000000000E+00 0. -1.
</event>
<event>
 7    1  0.2766180E-009  0.1054974E+03  0.7561462E-02  0.1269143E+00
          2   -1    0    0  501    0  0.00000000000E+00  0.00000000000E+00  0.46945464787E+03  0.46945464787E+03  0.00000000000E+00 0. -1.
         -2   -1    0    0    0  501 -0.00000000000E+00 -0.00000000000E+00 -0.38990827726E+02  0.38990827726E+02  0.00000000000E+00 0.  1.
         25    2    1    2    0    0  0.69450155345E+02  0.48498951579E+02  0.27610140650E+03  0.31472753605E+03  0.12508382348E+03 0.  0.
          5    1    3    3  502    0  0.22928650748E+02  0.42642800775E+02  0.26071021164E+03  0.26520071330E+03  0.41800000000E+01 0. -1.
         -5    1    3    3    0  502  0.46521504596E+02  0.58561508041E+01  0.15391194859E+02  0.49526822746E+02  0.41800000000E+01 0. -1.
        -11    1    1    2    0    0 -0.86676307855E+02 -0.45310889945E+02  0.11731484007E+03  0.15273712971E+03  0.00000000000E+00 0.  1.
         11    1    1    2    0    0  0.17226152510E+02 -0.31880616338E+01  0.37047573573E+02  0.40980809838E+02  0.00000000000E+00 0. -1.
</event>
<event>
 7    1  0.2864343E-009  0.1052148E+03  0.7561462E-02  0.1269697E+00
         -2   -1    0    0    0  501 -0.00000000000E+00  0.00000000000E+00  0.47296407718E+02  0.47296407718E+02  0.00000000000E+00 0.  1.
          2   -1    0    0  501    0  0.00000000000E+00 -0.00000000000E+00 -0.33874318231E+03  0.33874318231E+03  0.00000000000E+00 0. -1.
         25    2    1    2    0    0 -0.49971363564E+02 -0.16495251248E+02 -0.10503787971E+03  0.17160875455E+03  0.12508947987E+03 0.  0.
          5    1    3    3  502    0 -0.51648111964E+02 -0.60840632272E+02 -0.98047100374E+02  0.12649038025E+03  0.41800000000E+01 0.  1.
         -5    1    3    3    0  502  0.16767483994E+01  0.44345381024E+02 -0.69907793388E+01  0.45118374296E+02  0.41800000000E+01 0.  1.
        -11    1    1    2    0    0  0.34817012839E+02 -0.24275222011E+02 -0.29715032162E+02  0.51812102091E+02  0.00000000000E+00 0.  1.
         11    1    1    2    0    0  0.15154350725E+02  0.40770473259E+02 -0.15669386272E+03  0.16261873339E+03  0.00000000000E+00 0. -1.
</event>
<event>
 7    1  0.2766180E-009  0.3596366E+03  0.7561462E-02  0.1058728E+00
          1   -1    0    0  501    0  0.00000000000E+00  0.00000000000E+00  0.49187289393E+03  0.49187289393E+03  0.00000000000E+00 0. -1.
         -1   -1    0    0    0  501 -0.00000000000E+00 -0.00000000000E+00 -0.27329041610E+03  0.27329041610E+03  0.00000000000E+00 0.  1.
         25    2    1    2    0    0 -0.33317077685E+03  0.10698064250E+03  0.12003541548E+03  0.39051637137E+03  0.12508761298E+03 0.  0.
          5    1    3    3  502    0 -0.33371259123E+03  0.83105976756E+02  0.12467868217E+03  0.36583185086E+03  0.41800000000E+01 0. -1.
         -5    1    3    3    0  502  0.54181437808E+00  0.23874665743E+02 -0.46432666874E+01  0.24684520508E+02  0.41800000000E+01 0. -1.
        -11    1    1    2    0    0  0.15056880618E+03 -0.63373522496E+02  0.90461290000E+02  0.18673621431E+03  0.00000000000E+00 0. -1.
         11    1    1    2    0    0  0.18260197067E+03 -0.43607120003E+02  0.80857723482E+01  0.18791072434E+03  0.00000000000E+00 0.  1.
</event>
<event>
 7    1  0.2766180E-009  0.4526127E+03  0.7561462E-02  0.1026946E+00
         -2   -1    0    0    0  501 -0.00000000000E+00  0.00000000000E+00  0.17866834696E+03  0.17866834696E+03  0.00000000000E+00 0.  1.
          2   -1    0    0  501    0  0.00000000000E+00 -0.00000000000E+00 -0.11709751869E+04  0.11709751869E+04  0.00000000000E+00 0. -1.
         25    2    1    2    0    0 -0.40013225299E+03 -0.19142009058E+03 -0.47427019776E+03  0.66130742562E+03  0.12509124568E+03 0.  0.
          5    1    3    3  502    0 -0.32865844963E+03 -0.98072060846E+02 -0.36187861308E+03  0.49860616586E+03  0.41800000000E+01 0.  1.
         -5    1    3    3    0  502 -0.71473803358E+02 -0.93348029732E+02 -0.11239158468E+03  0.16270125976E+03  0.41800000000E+01 0.  1.
        -11    1    1    2    0    0  0.26675189899E+03  0.11173770311E+03 -0.26998773344E+03  0.39564537925E+03  0.00000000000E+00 0.  1.
         11    1    1    2    0    0  0.13338035400E+03  0.79682387469E+02 -0.24804890875E+03  0.29269072899E+03  0.00000000000E+00 0. -1.
</event>
<event>
 7    1  0.2766180E-009  0.4688641E+03  0.7561462E-02  0.1022241E+00
         -1   -1    0    0    0  501 -0.00000000000E+00  0.00000000000E+00  0.44023098273E+03  0.44023098273E+03  0.00000000000E+00 0.  1.
          1   -1    0    0  501    0  0.00000000000E+00 -0.00000000000E+00 -0.67525711456E+03  0.67525711456E+03  0.00000000000E+00 0. -1.
         25    2    1    2    0    0 -0.36069149618E+03  0.29320573978E+03  0.15069936027E+03  0.50440653473E+03  0.12509074239E+03 0.  0.
          5    1    3    3  502    0 -0.26119920152E+03  0.16198238123E+03  0.50225118962E+02  0.31145360758E+03  0.41800000000E+01 0.  1.
         -5    1    3    3    0  502 -0.99492294668E+02  0.13122335855E+03  0.10047424131E+03  0.19295292714E+03  0.41800000000E+01 0.  1.
        -11    1    1    2    0    0  0.13161633542E+03 -0.12402364858E+03 -0.20698085737E+03  0.27485596314E+03  0.00000000000E+00 0.  1.
         11    1    1    2    0    0  0.22907516077E+03 -0.16918209120E+03 -0.17874463473E+03  0.33622559942E+03  0.00000000000E+00 0. -1.
</event>
<event>
 7    1  0.2766180E-009  0.8454695E+02  0.7561462E-02  0.1316622E+00
         -2   -1    0    0    0  501 -0.00000000000E+00  0.00000000000E+00  0.24076973355E+02  0.24076973355E+02  0.00000000000E+00 0.  1.
          2   -1    0    0  501    0  0.00000000000E+00 -0.00000000000E+00 -0.94717024129E+03  0.94717024129E+03  0.00000000000E+00 0. -1.
         25    2    1    2    0    0 -0.38610201911E+02  0.25177553237E+02 -0.79506973526E+03  0.80616753201E+03  0.12508216840E+03 0.  0.
          5    1    3    3  502    0 -0.17295117382E+02  0.49793470031E+02 -0.13075371768E+03  0.14104083746E+03  0.41800000000E+01 0. -1.
         -5    1    3    3    0  502 -0.21315084529E+02 -0.24615916794E+02 -0.66431601758E+03  0.66512669455E+03  0.41800000000E+01 0. -1.
        -11    1    1    2    0    0  0.28654178735E+02 -0.49450373528E+02 -0.12648662620E+03  0.13879938043E+03  0.00000000000E+00 0. -1.
         11    1    1    2    0    0  0.99560231759E+01  0.24272820292E+02 -0.15369064707E+01  0.26280302203E+02  0.00000000000E+00 0.  1.
</event>
<event>
 7    1  0.2766180E-009  0.1545473E+03  0.7561462E-02  0.1194994E+00
         -3   -1    0    0    0  501 -0.00000000000E+00  0.00000000000E+00  0.33535456314E+03  0.33535456314E+03  0.00000000000E+00 0.  1.
          3   -1    0    0  501    0  0.00000000000E+00 -0.00000000000E+00 -0.10300232153E+03  0.10300232153E+03  0.00000000000E+00 0. -1.
         25    2    1    2    0    0 -0.13739841746E+03  0.13522711826E+02  0.19049994842E+03  0.26645564353E+03  0.12508873157E+03 0.  0.
          5    1    3    3  502    0 -0.12906400838E+03  0.20686589298E+02  0.20780626099E+03  0.24553282417E+03  0.41800000000E+01 0.  1.
         -5    1    3    3    0  502 -0.83344090775E+01 -0.71638774720E+01 -0.17306312573E+02  0.20922819360E+02  0.41800000000E+01 0.  1.
        -11    1    1    2    0    0  0.71420412116E+02 -0.53658412702E+02  0.18568889566E+02  0.91240912864E+02  0.00000000000E+00 0. -1.
         11    1    1    2    0    0  0.65978005341E+02  0.40135700876E+02  0.23283403627E+02  0.80660328279E+02  0.00000000000E+00 0.  1.
</event>
<event>
 7    1  0.3440246E-009  0.8791588E+02  0.7561462E-02  0.1307979E+00
          1   -1    0    0  501    0  0.00000000000E+00  0.00000000000E+00  0.18249755524E+04  0.18249755524E+04  0.00000000000E+00 0. -1.
         -1   -1    0    0    0  501 -0.00000000000E+00 -0.00000000000E+00 -0.11481580761E+02  0.11481580761E+02  0.00000000000E+00 0.  1.
         25    2    1    2    0    0 -0.15801646331E+02  0.51980346349E+02  0.14793079066E+04  0.14855810921E+04  0.12509056882E+03 0.  0.
          5    1    3    3  502    0 -0.62492652410E+01 -0.77730047864E+01  0.91310466822E+01  0.14153491900E+02  0.41800000000E+01 0. -1.
         -5    1    3    3    0  502 -0.95523810903E+01  0.59753351135E+02  0.14701768599E+04  0.14714276002E+04  0.41800000000E+01 0. -1.
        -11    1    1    2    0    0 -0.21434521027E+02  0.16069978463E+02  0.56016413058E+02  0.62092845251E+02  0.00000000000E+00 0.  1.
         11    1    1    2    0    0  0.37236167358E+02 -0.68050324812E+02  0.27816965199E+03  0.28878319576E+03  0.00000000000E+00 0. -1.
</event>
<event>
 7    1  0.2766180E-009  0.1983198E+03  0.7561462E-02  0.1151164E+00
         -1   -1    0    0    0  501 -0.00000000000E+00  0.00000000000E+00  0.59567425672E+02  0.59567425672E+02  0.00000000000E+00 0.  1.
          1   -1    0    0  501    0  0.00000000000E+00 -0.00000000000E+00 -0.86618739713E+03  0.86618739713E+03  0.00000000000E+00 0. -1.
         25    2    1    2    0    0  0.17430520847E+03  0.20403126742E+01 -0.61342933547E+03  0.64986848158E+03  0.12508806960E+03 0.  0.
          5    1    3    3  502    0 -0.27240496616E+01 -0.33467326908E+02 -0.89308381995E+02  0.95503622505E+02  0.41800000000E+01 0.  1.
         -5    1    3    3    0  502  0.17702925813E+03  0.35507639582E+02 -0.52412095348E+03  0.55436485907E+03  0.41800000000E+01 0.  1.
        -11    1    1    2    0    0 -0.15804415722E+03 -0.18425315714E+02 -0.19619608034E+03  0.25260710567E+03  0.00000000000E+00 0. -1.
         11    1    1    2    0    0 -0.16261051242E+02  0.16385003040E+02  0.30054443590E+01  0.23279235553E+02  0.00000000000E+00 0.  1.
</event>
<event>
 7    1  0.2766180E-009  0.1040771E+03  0.7561462E-02  0.1271949E+00
          1   -1    0    0  501    0  0.00000000000E+00  0.00000000000E+00  0.17362215297E+03  0.17362215297E+03  0.00000000000E+00 0. -1.
         -1   -1    0    0    0  501 -0.00000000000E+00 -0.00000000000E+00 -0.92405082567E+02  0.92405082567E+02  0.00000000000E+00 0.  1.
         25    2    1    2    0    0 -0.40092793667E+02 -0.44844699715E+02  0.21702821478E+02  0.14048946155E+03  0.12509115536E+03 0.  0.
          5    1    3    3  502    0 -0.69964262469E+00 -0.81326856386E+02 -0.24349250438E+01  0.81473605109E+02  0.41800000000E+01 0. -1.
         -5    1    3    3    0  502 -0.39393151043E+02  0.36482156672E+02  0.24137746522E+02  0.59015856442E+02  0.41800000000E+01 0. -1.
        -11    1    1    2    0    0  0.25555592490E+02 -0.17315289418E+00 -0.20380629266E+02  0.32687739884E+02  0.00000000000E+00 0.  1.
         11    1    1    2    0    0  0.14537201178E+02  0.45017852609E+02  0.79894878195E+02  0.92850034106E+02  0.00000000000E+00 0. -1.
</event>
<event>
 7    1  0.2766180E-009  0.1394835E+03  0.7561462E-02  0.1214026E+00
          1   -1    0    0  501    0  0.00000000000E+00  0.00000000000E+00  0.15615011836E+03  0.15615011836E+03  0.00000000000E+00 0. -1.
         -1   -1    0    0    0  501 -0.00000000000E+00 -0.00000000000E+00 -0.26402785080E+03  0.26402785080E+03  0.00000000000E+00 0.  1.
         25    2    1    2    0    0  0.85185801860E+02 -0.52459925338E+02 -0.19918819587E+03  0.25560100922E+03  0.12508906402E+03 0.  0.
          5    1    3    3  502    0  0.66754806567E+02  0.17984915817E+02 -0.15637679680E+03  0.17102875891E+03  0.41800000000E+01 0. -1.
         -5    1    3    3    0  502  0.18430995293E+02 -0.70444841156E+02 -0.42811399073E+02  0.84572250316E+02  0.41800000000E+01 0. -1.
        -11    1    1    2    0    0  0.64584984883E+01 -0.19313589049E+02  0.10891953881E+02  0.23094622404E+02  0.00000000000E+00 0. -1.
         11    1    1    2    0    0 -0.91644300348E+02  0.71773514387E+02  0.80418509556E+02  0.14148233753E+03  0.00000000000E+00 0.  1.
</event>
<event>
 7    1  0.2766180E-009  0.1282647E+03  0.7561462E-02  0.1230054E+00
         -2   -1    0    0    0  501 -0.00000000000E+00  0.00000000000E+00  0.70971079530E+02  0.70971079530E+02  0.00000000000E+00 0.  1.
          2   -1    0    0  501    0  0.00000000000E+00 -0.00000000000E+00 -0.32414625147E+03  0.32414625147E+03  0.00000000000E+00 0. -1.
         25    2    1    2    0    0  0.72361716135E+02 -0.56045382780E+02 -0.20601629741E+03  0.25781182452E+03  0.12508764596E+03 0.  0.
          5    1    3    3  502    0  0.55985673774E+02  0.29332646866E+02 -0.11860382837E+03  0.13445869382E+03  0.41800000000E+01 0. -1.
         -5    1    3    3    0  502  0.16376042361E+02 -0.85378029646E+02 -0.87412469044E+02  0.12335313070E+03  0.41800000000E+01 0. -1.
        -11    1    1    2    0    0 -0.57238761715E+02  0.10542031069E+02  0.13733438629E+02  0.59799812695E+02  0.00000000000E+00 0. -1.
         11    1    1    2    0    0 -0.15122954420E+02  0.45503351711E+02 -0.60892313156E+02  0.77505693784E+02  0.00000000000E+00 0.  1.
</event>
<event>
 7    1  0.2766180E-009  0.9861416E+02  0.7561462E-02  0.1283237E+00
         -2   -1    0    0    0  501 -0.00000000000E+00  0.00000000000E+00  0.44624296825E+02  0.44624296825E+02  0.00000000000E+00 0.  1.
          2   -1    0    0  501    0  0.00000000000E+00 -0.00000000000E+00 -0.33030215455E+03  0.33030215455E+03  0.00000000000E+00 0. -1.
         25    2    1    2    0    0 -0.45606722348E+02 -0.23517092595E+02 -0.20432156147E+03  0.24500479534E+03  0.12508805895E+03 0.  0.
          5    1    3    3  502    0  0.21308153688E+02  0.76642133736E+01 -0.15365226454E+03  0.15536817041E+03  0.41800000000E+01 0.  1.
         -5    1    3    3    0  502 -0.66914876036E+02 -0.31181305968E+02 -0.50669296935E+02  0.89636624929E+02  0.41800000000E+01 0.  1.
        -11    1    1    2    0    0 -0.14184889186E+02  0.36425955036E+02 -0.40946147576E+02  0.56609612990E+02  0.00000000000E+00 0.  1.
         11    1    1    2    0    0  0.59791611534E+02 -0.12908862441E+02 -0.40410148683E+02  0.73312043048E+02  0.00000000000E+00 0. -1.
</event>
<event>
 7    1  0.2766180E-009  0.1722154E+03  0.7561462E-02  0.1175557E+00
         -1   -1    0    0    0  501 -0.00000000000E+00  0.00000000000E+00  0.95136253851E+02  0.95136253851E+02  0.00000000000E+00 0.  1.
          1   -1    0    0  501    0  0.00000000000E+00 -0.00000000000E+00 -0.38686226811E+03  0.38686226811E+03  0.00000000000E+00 0. -1.
         25    2    1    2    0    0  0.27041187562E+02  0.15495553248E+03 -0.14201981140E+03  0.24609062902E+03  0.12509407655E+03 0.  0.
          5    1    3    3  502    0 -0.92568203053E+01 -0.12082734050E+02  0.88174176079E+01  0.18080388203E+02  0.41800000000E+01 0. -1.
         -5    1    3    3    0  502  0.36298007867E+02  0.16703826653E+03 -0.15083722901E+03  0.22801024081E+03  0.41800000000E+01 0. -1.
        -11    1    1    2    0    0 -0.21806142509E+02 -0.14232687928E+03 -0.79688797923E+02  0.16456838375E+03  0.00000000000E+00 0.  1.
         11    1    1    2    0    0 -0.52350450528E+01 -0.12628653194E+02 -0.70017404937E+02  0.71339509196E+02  0.00000000000E+00 0. -1.
</event>
<event>
 7    1  0.2766180E-009  0.9233349E+02  0.7561462E-02  0.1297297E+00
          1   -1    0    0  501    0  0.00000000000E+00  0.00000000000E+00  0.18031671268E+03  0.18031671268E+03  0.00000000000E+00 0. -1.
         -1   -1    0    0    0  501 -0.00000000000E+00 -0.00000000000E+00 -0.96474013906E+02  0.96474013906E+02  0.00000000000E+00 0.  1.
         25    2    1    2    0    0  0.32709029916E+02 -0.12153399639E+02  0.11789922367E+03  0.17540099455E+03  0.12509075180E+03 0.  0.
          5    1    3    3  502    0  0.70724621692E+02 -0.16820814847E+02  0.28759473473E+02  0.78291069989E+02  0.41800000000E+01 0. -1.
         -5    1    3    3    0  502 -0.38015591777E+02  0.46674152077E+01  0.89139750198E+02  0.97109924561E+02  0.41800000000E+01 0. -1.
        -11    1    1    2    0    0 -0.34289026756E+02  0.35828933085E+02 -0.51836702917E+02  0.71739065865E+02  0.00000000000E+00 0.  1.
         11    1    1    2    0    0  0.15799968403E+01 -0.23675533445E+02  0.17780178021E+02  0.29650666171E+02  0.00000000000E+00 0. -1.
</event>
<event>
 7    1  0.2766180E-009  0.1246907E+03  0.7561462E-02  0.1235553E+00
          2   -1    0    0  501    0  0.00000000000E+00  0.00000000000E+00  0.18113114303E+03  0.18113114303E+03  0.00000000000E+00 0. -1.
         -2   -1    0    0    0  501 -0.00000000000E+00 -0.00000000000E+00 -0.10454400613E+03  0.10454400613E+03  0.00000000000E+00 0.  1.
         25    2    1    2    0    0 -0.80260453301E+02 -0.25534139633E+02  0.33948066867E+02  0.15461286495E+03  0.12513566283E+03 0.  0.
          5    1    3    3  502    0 -0.85530975330E+02 -0.58326258380E+02  0.52701308808E+02  0.11624285143E+03  0.41800000000E+01 0.  1.
         -5    1    3    3    0  502  0.52705220294E+01  0.32792118746E+02 -0.18753241941E+02  0.38370013521E+02  0.41800000000E+01 0.  1.
        -11    1    1    2    0    0 -0.43433179189E+01  0.27330991677E+02  0.37064420948E+02  0.46256013844E+02  0.00000000000E+00 0. -1.
         11    1    1    2    0    0  0.84603771219E+02 -0.17968520431E+01  0.55746490842E+01  0.84806270371E+02  0.00000000000E+00 0.  1.
</event>
<event>
 7    1  0.2766180E-009  0.1174169E+03  0.7561462E-02  0.1247420E+00
         -1   -1    0    0    0  501 -0.00000000000E+00  0.00000000000E+00  0.94681303529E+02  0.94681303529E+02  0.00000000000E+00 0.  1.
          1   -1    0    0  501    0  0.00000000000E+00 -0.00000000000E+00 -0.22961796286E+03  0.22961796286E+03  0.00000000000E+00 0. -1.
         25    2    1    2    0    0 -0.64438408495E+02  0.39827846084E+02 -0.14388339357E+03  0.20515103025E+03  0.12508376575E+03 0.  0.
          5    1    3    3  502    0  0.24907628280E+01  0.64067114841E+02 -0.30294174876E+02  0.71035262617E+02  0.41800000000E+01 0.  1.
         -5    1    3    3    0  502 -0.66929171323E+02 -0.24239268757E+02 -0.11358921869E+03  0.13411576763E+03  0.41800000000E+01 0.  1.
        -11    1    1    2    0    0  0.66600663594E+02 -0.53503971501E+02  0.32846719280E+02  0.91527210844E+02  0.00000000000E+00 0.  1.
         11    1    1    2    0    0 -0.21622550990E+01  0.13676125416E+02 -0.23899985040E+02  0.27621025297E+02  0.00000000000E+00 0. -1.
</event>
<event>
 7    1  0.2766180E-009  0.1491494E+03  0.7561462E-02  0.1201522E+00
          1   -1    0    0  501    0  0.00000000000E+00  0.00000000000E+00  0.89295274095E+02  0.89295274095E+02  0.00000000000E+00 0. -1.
         -1   -1    0    0    0  501 -0.00000000000E+00 -0.00000000000E+00 -0.30524542252E+03  0.30524542252E+03  0.00000000000E+00 0.  1.
         25    2    1    2    0    0  0.80315849822E+02  0.81178453734E+02 -0.17245065683E+03  0.24171669100E+03  0.12508857895E+03 0.  0.
          5    1    3    3  502    0 -0.23593215574E+02  0.19592371764E+02  0.21775824765E+00  0.30951909006E+02  0.41800000000E+01 0.  1.
         -5    1    3    3    0  502  0.10390906540E+03  0.61586081970E+02 -0.17266841508E+03  0.21076478200E+03  0.41800000000E+01 0.  1.
        -11    1    1    2    0    0  0.19408729373E+02 -0.26216177388E+02 -0.10628361912E+02  0.34306687535E+02  0.00000000000E+00 0. -1.
         11    1    1    2    0    0 -0.99724579195E+02 -0.54962276347E+02 -0.32871129677E+02  0.11851731807E+03  0.00000000000E+00 0.  1.
</event>
<event>
 7    1  0.2766180E-009  0.2394263E+03  0.7561462E-02  0.1120176E+00
         -1   -1    0    0    0  501 -0.00000000000E+00  0.00000000000E+00  0.11872756942E+04  0.11872756942E+04  0.00000000000E+00 0.  1.
          1   -1    0    0  501    0  0.00000000000E+00 -0.00000000000E+00 -0.67427935546E+02  0.67427935546E+02  0.00000000000E+00 0. -1.
         25    2    1    2    0    0  0.51881056886E+02  0.22964673466E+03  0.32348637852E+03  0.41918953745E+03  0.12508862624E+03 0.  0.
          5    1    3    3  502    0  0.20735425609E+02  0.11916674877E+03  0.26268866747E+03  0.28922911386E+03  0.41800000000E+01 0. -1.
         -5    1    3    3    0  502  0.31145631277E+02  0.11047998589E+03  0.60797711048E+02  0.12996042359E+03  0.41800000000E+01 0. -1.
        -11    1    1    2    0    0 -0.61477507776E+02 -0.14130489238E+03  0.60830160832E+03  0.62751685496E+03  0.00000000000E+00 0.  1.
         11    1    1    2    0    0  0.95964508900E+01 -0.88341842280E+02  0.18805977186E+03  0.20799723738E+03  0.00000000000E+00 0. -1.
</event>
<event>
 7    1  0.2766180E-009  0.2092138E+03  0.7561462E-02  0.1142190E+00
          1   -1    0    0  501    0  0.00000000000E+00  0.00000000000E+00  0.14726170086E+03  0.14726170086E+03  0.00000000000E+00 0. -1.
         -1   -1    0    0    0  501 -0.00000000000E+00 -0.00000000000E+00 -0.35074458694E+03  0.35074458694E+03  0.00000000000E+00 0.  1.
         25    2    1    2    0    0 -0.17990129524E+03 -0.82226669652E+02 -0.10898383587E+03  0.25817123193E+03  0.12509679166E+03 0.  0.
          5    1    3    3  502    0 -0.39029047810E+02 -0.22962782177E+02  0.27569390299E+02  0.53179879839E+02  0.41800000000E+01 0.  1.
         -5    1    3    3    0  502 -0.14087224743E+03 -0.59263887475E+02 -0.13655322617E+03  0.20499135209E+03  0.41800000000E+01 0.  1.
        -11    1    1    2    0    0  0.14715817297E+03  0.18367459979E+02 -0.57124084674E+02  0.15892152940E+03  0.00000000000E+00 0.  1.
         11    1    1    2    0    0  0.32743122268E+02  0.63859209673E+02 -0.37374965545E+02  0.80913526467E+02  0.00000000000E+00 0. -1.
</event>
<event>
 7    1  0.2766180E-009  0.1142555E+03  0.7561462E-02  0.1252886E+00
          1   -1    0    0  501    0  0.00000000000E+00  0.00000000000E+00  0.46109880333E+03  0.46109880333E+03  0.00000000000E+00 0. -1.
         -1   -1    0    0    0  501 -0.00000000000E+00 -0.00000000000E+00 -0.52886674020E+02  0.52886674020E+02  0.00000000000E+00 0.  1.
         25    2    1    2    0    0  0.82552214703E+02 -0.29822439922E+02  0.33468958634E+03  0.36792496867E+03  0.12508963702E+03 0.  0.
          5    1    3    3  502    0  0.67465358092E+01 -0.54429068306E+02  0.22885042426E+03  0.23536785741E+03  0.41800000000E+01 0. -1.
         -5    1    3    3    0  502  0.75805678894E+02  0.24606628385E+02  0.10583916209E+03  0.13255711125E+03  0.41800000000E+01 0. -1.
        -11    1    1    2    0    0 -0.25214298656E+02 -0.62226820452E+01  0.73902350839E+02  0.78332879993E+02  0.00000000000E+00 0. -1.
         11    1    1    2    0    0 -0.57337916047E+02  0.36045121967E+02 -0.37980786705E+00  0.67727628692E+02  0.00000000000E+00 0.  1.
</event>
<event>
 7    1  0.2766180E-009  0.1705137E+03  0.7561462E-02  0.1177313E+00
          1   -1    0    0  501    0  0.00000000000E+00  0.00000000000E+00  0.15144979801E+04  0.15144979801E+04  0.00000000000E+00 0. -1.
         -1   -1    0    0    0  501 -0.00000000000E+00 -0.00000000000E+00 -0.20132713370E+02  0.20132713370E+02  0.00000000000E+00 0.  1.
         25    2    1    2    0    0  0.13473042934E+03 -0.35294496549E+00  0.69078834853E+03  0.71483343309E+03  0.12508349782E+03 0.  0.
          5    1    3    3  502    0  0.64321821136E+02 -0.58978476150E+02  0.41821146006E+03  0.42724004383E+03  0.41800000000E+01 0. -1.
         -5    1    3    3    0  502  0.70408608208E+02  0.58625531185E+02  0.27257688847E+03  0.28759338926E+03  0.41800000000E+01 0. -1.
        -11    1    1    2    0    0 -0.21760615134E+01  0.26706154091E+02  0.15340479202E+03  0.15572727482E+03  0.00000000000E+00 0.  1.
         11    1    1    2    0    0 -0.13255436783E+03 -0.26353209125E+02  0.65017212621E+03  0.66406998559E+03  0.00000000000E+00 0. -1.
</event>
<event>
 7    1  0.2766180E-009  0.1133386E+03  0.7561462E-02  0.1254509E+00
         -2   -1    0    0    0  501 -0.00000000000E+00  0.00000000000E+00  0.11998893696E+02  0.11998893696E+02  0.00000000000E+00 0.  1.
          2   -1    0    0  501    0  0.00000000000E+00 -0.00000000000E+00 -0.14104478421E+04  0.14104478421E+04  0.00000000000E+00 0. -1.
         25    2    1    2    0    0  0.36367009458E+02 -0.10220570676E+02 -0.11041487255E+04  0.11118537460E+04  0.12508926804E+03 0.  0.
          5    1    3    3  502    0  0.76092265031E+02  0.18241274118E+02 -0.79311777428E+03  0.79697933044E+03  0.41800000000E+01 0.  1.
         -5    1    3    3    0  502 -0.39725255573E+02 -0.28461844794E+02 -0.31103095123E+03  0.31487441554E+03  0.41800000000E+01 0.  1.
        -11    1    1    2    0    0  0.18365577307E+02  0.34740348223E+02 -0.11510518741E+03  0.12162808226E+03  0.00000000000E+00 0. -1.
         11    1    1    2    0    0 -0.54732586766E+02 -0.24519777547E+02 -0.17919503552E+03  0.18896490759E+03  0.00000000000E+00 0.  1.
</event>
<event>
 7    1  0.2766180E-009  0.9263084E+02  0.7561462E-02  0.1296603E+00
         -2   -1    0    0    0  501 -0.00000000000E+00  0.00000000000E+00  0.59381729906E+02  0.59381729906E+02  0.00000000000E+00 0.  1.
          2   -1    0    0  501    0  0.00000000000E+00 -0.00000000000E+00 -0.19373756147E+03  0.19373756147E+03  0.00000000000E+00 0. -1.
         25    2    1    2    0    0 -0.84516877869E+01  0.19094362329E+00 -0.90054995666E+02  0.15436630902E+03  0.12509031789E+03 0.  0.
          5    1    3    3  502    0 -0.36345496946E+02 -0.37600958842E+02  0.28046967745E+00  0.52463113874E+02  0.41800000000E+01 0. -1.
         -5    1    3    3    0  502  0.27893809159E+02  0.37791902465E+02 -0.90335465343E+02  0.10190319514E+03  0.41800000000E+01 0. -1.
        -11    1    1    2    0    0 -0.22679848135E+02  0.33060588009E+02 -0.32731185280E+02  0.51756240983E+02  0.00000000000E+00 0. -1.
         11    1    1    2    0    0  0.31131535922E+02 -0.33251531632E+02 -0.11569650620E+02  0.46996741378E+02  0.00000000000E+00 0.  1.
</event>
<event>
 7    1  0.2766180E-009  0.1177336E+03  0.7561462E-02  0.1246883E+00
          4   -1    0    0  501    0  0.00000000000E+00  0.00000000000E+00  0.16113454892E+03  0.16113454892E+03  0.00000000000E+00 0. -1.
         -4   -1    0    0    0  501 -0.00000000000E+00 -0.00000000000E+00 -0.10464612587E+03  0.10464612587E+03  0.00000000000E+00 0.  1.
         25    2    1    2    0    0  0.69628784137E+02  0.12119144418E+02  0.20398919166E+02  0.14511732736E+03  0.12509149274E+03 0.  0.
          5    1    3    3  502    0  0.15326642733E+02 -0.41874174247E+02 -0.29493661878E+02  0.53625562350E+02  0.41800000000E+01 0. -1.
         -5    1    3    3    0  502  0.54302141404E+02  0.53993318665E+02  0.49892581044E+02  0.91491765010E+02  0.41800000000E+01 0. -1.
        -11    1    1    2    0    0 -0.91381565125E+02 -0.12508883174E+02  0.35705410269E+02  0.98903685095E+02  0.00000000000E+00 0.  1.
         11    1    1    2    0    0  0.21752780988E+02  0.38973875590E+00  0.38409362217E+00  0.21759662335E+02  0.00000000000E+00 0. -1.
</event>
<event>
 7    1  0.2766180E-009  0.7561141E+02  0.7561462E-02  0.1341988E+00
          1   -1    0    0  501    0  0.00000000000E+00  0.00000000000E+00  0.71322605082E+03  0.71322605082E+03  0.00000000000E+00 0. -1.
         -1   -1    0    0    0  501 -0.00000000000E+00 -0.00000000000E+00 -0.20795720204E+02  0.20795720204E+02  0.00000000000E+00 0.  1.
         25    2    1    2    0    0 -0.19624629383E+02  0.50794958046E+02  0.42436874875E+03  0.44575811515E+03  0.12508480508E+03 0.  0.
          5    1    3    3  502    0  0.34044486353E+01  0.28387240239E+02  0.10684406027E+02  0.30806729964E+02  0.41800000000E+01 0. -1.
         -5    1    3    3    0  502 -0.23029078018E+02  0.22407717807E+02  0.41368434273E+03  0.41495138519E+03  0.41800000000E+01 0. -1.
        -11    1    1    2    0    0 -0.16449957841E+02 -0.51273861248E+02  0.77835422069E+02  0.94646515462E+02  0.00000000000E+00 0.  1.
         11    1    1    2    0    0  0.36074587224E+02  0.47890320240E+00  0.19022615979E+03  0.19361714041E+03  0.00000000000E+00 0. -1.
</event>
<event>
 7    1  0.2766180E-009  0.1167893E+03  0.7561462E-02  0.1248490E+00
          3   -1    0    0  501    0  0.00000000000E+00  0.00000000000E+00  0.31794886078E+03  0.31794886078E+03  0.00000000000E+00 0. -1.
         -3   -1    0    0    0  501 -0.00000000000E+00 -0.00000000000E+00 -0.55934992338E+02  0.55934992338E+02  0.00000000000E+00 0.  1.
         25    2    1    2    0    0 -0.75178894052E+02 -0.14486025803E+02  0.11725447482E+03  0.18777152855E+03  0.12509126275E+03 0.  0.
          5    1    3    3  502    0 -0.15193271651E+02 -0.63195774549E+02  0.75955085663E+02  0.10005592867E+03  0.41800000000E+01 0.  1.
         -5    1    3    3    0  502 -0.59985622401E+02  0.48709748746E+02  0.41299389153E+02  0.87715599879E+02  0.41800000000E+01 0.  1.
        -11    1    1    2    0    0  0.25054580425E+01 -0.13094595575E+02 -0.73999356572E+01  0.15248108113E+02  0.00000000000E+00 0. -1.
         11    1    1    2    0    0  0.72673436009E+02  0.27580621378E+02  0.15215932928E+03  0.17086421645E+03  0.00000000000E+00 0.  1.
</event>
<event>
 7    1  0.2766180E-009  0.1575396E+03  0.7561462E-02  0.1191503E+00
          2   -1    0    0  501    0  0.00000000000E+00  0.00000000000E+00  0.74699796367E+03  0.74699796367E+03  0.00000000000E+00 0. -1.
         -2   -1    0    0    0  501 -0.00000000000E+00 -0.00000000000E+00 -0.45712056806E+02  0.45712056806E+02  0.00000000000E+00 0.  1.
         25    2    1    2    0    0  0.13130902609E+03  0.69529594974E+02  0.40954139704E+03  0.45326358357E+03  0.12508914977E+03 0.  0.
          5    1    3    3  502    0  0.33374531047E+01  0.21549438031E+02  0.75596178005E+00  0.22216227198E+02  0.41800000000E+01 0.  1.
         -5    1    3    3    0  502  0.12797157299E+03  0.47980156943E+02  0.40878543526E+03  0.43104735637E+03  0.41800000000E+01 0.  1.
        -11    1    1    2    0    0 -0.49444599195E+02 -0.53265240834E+02  0.63821808399E+02  0.96722166528E+02  0.00000000000E+00 0.  1.
         11    1    1    2    0    0 -0.81864426895E+02 -0.16264354140E+02  0.22792270142E+03  0.24272427038E+03  0.00000000000E+00 0. -1.
</event>
<event>
 7    1  0.2766180E-009  0.1191161E+03  0.7561462E-02  0.1244562E+00
         -2   -1    0    0    0  501 -0.00000000000E+00  0.00000000000E+00  0.24221062271E+02  0.24221062271E+02  0.00000000000E+00 0.  1.
          2   -1    0    0  501    0  0.00000000000E+00 -0.00000000000E+00 -0.58611865198E+03  0.58611865198E+03  0.00000000000E+00 0. -1.
         25    2    1    2    0    0  0.59620498139E+02  0.57318736608E+02 -0.35299256930E+03  0.38352540056E+03  0.12509171645E+03 0.  0.
          5    1    3    3  502    0  0.94163278270E+02  0.64780225821E+02 -0.26813099886E+03  0.29150455499E+03  0.41800000000E+01 0.  1.
         -5    1    3    3    0  502 -0.34542780131E+02 -0.74614892128E+01 -0.84861570445E+02  0.92020845567E+02  0.41800000000E+01 0.  1.
        -11    1    1    2    0    0 -0.82982990878E+01 -0.27925525876E+02 -0.72964408142E+02  0.78565269800E+02  0.00000000000E+00 0. -1.
         11    1    1    2    0    0 -0.51322199051E+02 -0.29393210732E+02 -0.13594061227E+03  0.14824904390E+03  0.00000000000E+00 0.  1.
</event>
<event>
 7    1  0.2766180E-009  0.1217920E+03  0.7561462E-02  0.1240170E+00
         -3   -1    0    0    0  501 -0.00000000000E+00  0.00000000000E+00  0.62934568786E+02  0.62934568786E+02  0.00000000000E+00 0.  1.
          3   -1    0    0  501    0  0.00000000000E+00 -0.00000000000E+00 -0.36715365942E+03  0.36715365942E+03  0.00000000000E+00 0. -1.
         25    2    1    2    0    0  0.17346545398E+02  0.58163614495E+02 -0.40878790193E+02  0.14491780933E+03  0.12508472043E+03 0.  0.
          5    1    3    3  502    0  0.55736531558E+02  0.75070822485E+02 -0.13278340947E+02  0.94530291848E+02  0.41800000000E+01 0.  1.
         -5    1    3    3    0  502 -0.38389986159E+02 -0.16907207991E+02 -0.27600449246E+02  0.50387517481E+02  0.41800000000E+01 0.  1.
        -11    1    1    2    0    0 -0.27344166709E+02  0.16875839042E+02 -0.57782758054E+02  0.66116144207E+02  0.00000000000E+00 0.  1.
         11    1    1    2    0    0  0.99976213111E+01 -0.75039453537E+02 -0.20555754239E+03  0.21905427467E+03  0.00000000000E+00 0. -1.
</event>
<event>
 7    1  0.2766180E-009  0.1083566E+03  0.7561462E-02  0.1263644E+00
          1   -1    0    0  501    0  0.00000000000E+00  0.00000000000E+00  0.27749251589E+03  0.27749251589E+03  0.00000000000E+00 0. -1.
         -1   -1    0    0    0  501 -0.00000000000E+00 -0.00000000000E+00 -0.47178317827E+02  0.47178317827E+02  0.00000000000E+00 0.  1.
         25    2    1    2    0    0 -0.11147529063E+01  0.27006352251E+02  0.17044552197E+03  0.21314195312E+03  0.12508889034E+03 0.  0.
          5    1    3    3  502    0 -0.40027502379E+01 -0.47799850502E+02  0.96443289562E+02  0.10779437935E+03  0.41800000000E+01 0.  1.
         -5    1    3    3    0  502  0.28879973315E+01  0.74806202753E+02  0.74002232404E+02  0.10534757377E+03  0.41800000000E+01 0.  1.
        -11    1    1    2    0    0  0.11489563941E+02 -0.58919132358E+02  0.32733982413E+02  0.68373882748E+02  0.00000000000E+00 0.  1.
         11    1    1    2    0    0 -0.10374811034E+02  0.31912780107E+02  0.27134693686E+02  0.43154997852E+02  0.00000000000E+00 0. -1.
</event>
<event>
 7    1  0.2766180E-009  0.1668890E+03  0.7561462E-02  0.1181131E+00
         -1   -1    0    0    0  501 -0.00000000000E+00  0.00000000000E+00  0.25595692192E+03  0.25595692192E+03  0.00000000000E+00 0. -1.
          1   -1    0    0  501    0  0.00000000000E+00 -0.00000000000E+00 -0.13838742308E+03  0.13838742308E+03  0.00000000000E+00 0.  1.
         25    2    1    2    0    0  0.98352557837E+02  0.10795004260E+03  0.10954242778E+03  0.22129953239E+03  0.12508997651E+03 0.  0.
          5    1    3    3  502    0  0.50362772928E+02  0.95820952418E+01 -0.16780485366E+02  0.54104367063E+02  0.41800000000E+01 0.  1.
         -5    1    3    3    0  502  0.47989784909E+02  0.98367947356E+02  0.12632291315E+03  0.16719516533E+03  0.41800000000E+01 0.  1.
        -11    1    1    2    0    0 -0.75329750795E+02 -0.14685506465E+02  0.55594245390E+01  0.76948961372E+02  0.00000000000E+00 0.  1.
         11    1    1    2    0    0 -0.23022807042E+02 -0.93264536133E+02  0.24676465188E+01  0.96095851229E+02  0.00000000000E+00 0. -1.
</event>
<event>
 7    1  0.2766180E-009  0.1292532E+03  0.7561462E-02  0.1228568E+00
          1   -1    0    0  501    0  0.00000000000E+00  0.00000000000E+00  0.34314841449E+02  0.34314841449E+02  0.00000000000E+00 0. -1.
         -1   -1    0    0    0  501 -0.00000000000E+00 -0.00000000000E+00 -0.83821112782E+03  0.83821112782E+03  0.00000000000E+00 0.  1.
         25    2    1    2    0    0 -0.38652870121E+02 -0.83196288644E+02 -0.66097107122E+03  0.67893041643E+03  0.12509231212E+03 0.  0.
          5    1    3    3  502    0 -0.74040596353E+02 -0.21079037403E+02 -0.24512197088E+03  0.25696028629E+03  0.41800000000E+01 0.  1.
         -5    1    3    3    0  502  0.35387726233E+02 -0.62117251240E+02 -0.41584910034E+03  0.42197013013E+03  0.41800000000E+01 0.  1.
        -11    1    1    2    0    0  0.51117909993E+02  0.82822503983E+02 -0.15033474126E+03  0.17908976050E+03  0.00000000000E+00 0.  1.
         11    1    1    2    0    0 -0.12465039873E+02  0.37378466076E+00  0.74095261106E+01  0.14505792332E+02  0.00000000000E+00 0. -1.
</event>
<event>
 7    1  0.2766180E-009  0.1656535E+03  0.7561462E-02  0.1182458E+00
         -1   -1    0    0    0  501 -0.00000000000E+00  0.00000000000E+00  0.14602757860E+03  0.14602757860E+03  0.00000000000E+00 0.  1.
          1   -1    0    0  501    0  0.00000000000E+00 -0.00000000000E+00 -0.21069598220E+03  0.21069598220E+03  0.00000000000E+00 0. -1.
         25    2    1    2    0    0  0.11608456320E+03  0.73708818314E+02 -0.37661061597E+02  0.18967247592E+03  0.12509467156E+03 0.  0.
          5    1    3    3  502    0  0.11157651474E+03  0.44544537736E+00 -0.30836397597E+02  0.11583554239E+03  0.41800000000E+01 0.  1.
         -5    1    3    3    0  502  0.45080484527E+01  0.73263372936E+02 -0.68246640001E+01  0.73836933533E+02  0.41800000000E+01 0.  1.
        -11    1    1    2    0    0 -0.57070287481E+02 -0.64964473368E+02 -0.53597117212E+02  0.10173520279E+03  0.00000000000E+00 0. -1.
         11    1    1    2    0    0 -0.59014275715E+02 -0.87443449451E+01  0.26589775214E+02  0.65315882086E+02  0.00000000000E+00 0.  1.
</event>
<event>
 7    1  0.2766180E-009  0.6492001E+02  0.7561462E-02  0.1378273E+00
         -2   -1    0    0    0  501 -0.00000000000E+00  0.00000000000E+00  0.63375757415E+02  0.63375757415E+02  0.00000000000E+00 0.  1.
          2   -1    0    0  501    0  0.00000000000E+00 -0.00000000000E+00 -0.24170387612E+03  0.24170387612E+03  0.00000000000E+00 0. -1.
         25    2    1    2    0    0 -0.20348570880E+02  0.27616853679E+02 -0.10050433075E+02  0.13009889011E+03  0.12509178653E+03 0.  0.
          5    1    3    3  502    0  0.28534136923E+02  0.11151043634E+01  0.43882667351E+02  0.52522388765E+02  0.41800000000E+01 0. -1.
         -5    1    3    3    0  502 -0.48882707802E+02  0.26501749315E+02 -0.53933100426E+02  0.77576501342E+02  0.41800000000E+01 0. -1.
        -11    1    1    2    0    0  0.19759312416E+02 -0.22977960102E+01 -0.46148842852E+02  0.50253616688E+02  0.00000000000E+00 0.  1.
         11    1    1    2    0    0  0.58925846365E+00 -0.25319057669E+02 -0.12212884278E+03  0.12472712674E+03  0.00000000000E+00 0. -1.
</event>
<event>
 7    1  0.2766180E-009  0.8728430E+02  0.7561462E-02  0.1309565E+00
         -1   -1    0    0    0  501 -0.00000000000E+00  0.00000000000E+00  0.21719748850E+02  0.21719748850E+02  0.00000000000E+00 0.  1.
          1   -1    0    0  501    0  0.00000000000E+00 -0.00000000000E+00 -0.61310990471E+03  0.61310990471E+03  0.00000000000E+00 0. -1.
         25    2    1    2    0    0 -0.16077441563E+02 -0.15560998161E+02 -0.43275374946E+03  0.45103530738E+03  0.12512558510E+03 0.  0.
          5    1    3    3  502    0  0.49600309245E+02  0.17786239436E+02 -0.20010684493E+03  0.20697043939E+03  0.41800000000E+01 0.  1.
         -5    1    3    3    0  502 -0.65677750808E+02 -0.33347237597E+02 -0.23264690452E+03  0.24406486800E+03  0.41800000000E+01 0.  1.
        -11    1    1    2    0    0 -0.17281494468E+01 -0.13630517697E+02  0.64683135567E+01  0.15186065767E+02  0.00000000000E+00 0.  1.
         11    1    1    2    0    0  0.17805591010E+02  0.29191515859E+02 -0.16510471996E+03  0.16860828041E+03  0.00000000000E+00 0. -1.
</event>
<event>
 7    1  0.2766180E-009  0.1061200E+03  0.7561462E-02  0.1267928E+00
         -1   -1    0    0    0  501 -0.00000000000E+00  0.00000000000E+00  0.16227612191E+02  0.16227612191E+02  0.00000000000E+00 0.  1.
          1   -1    0    0  501    0  0.00000000000E+00 -0.00000000000E+00 -0.11800332747E+04  0.11800332747E+04  0.00000000000E+00 0. -1.
         25    2    1    2    0    0  0.60254803597E+02  0.59235690007E+02 -0.73507371565E+03  0.75041361967E+03  0.12509086625E+03 0.  0.
          5    1    3    3  502    0  0.18190500836E+02  0.46329809190E+02 -0.66935016724E+03  0.67121119204E+03  0.41800000000E+01 0.  1.
         -5    1    3    3    0  502  0.42064302761E+02  0.12905880817E+02 -0.65723548414E+02  0.79202427631E+02  0.41800000000E+01 0.  1.
        -11    1    1    2    0    0 -0.68040250848E+02 -0.10626000465E+02 -0.30508146219E+03  0.31275723204E+03  0.00000000000E+00 0.  1.
         11    1    1    2    0    0  0.77854472507E+01 -0.48609689542E+02 -0.12365048471E+03  0.13309003522E+03  0.00000000000E+00 0. -1.
</event>
<event>
 7    1  0.2766180E-009  0.1179906E+03  0.7561462E-02  0.1246449E+00
          2   -1    0    0  501    0  0.00000000000E+00  0.00000000000E+00  0.47936442866E+02  0.47936442866E+02  0.00000000000E+00 0. -1.
         -2   -1    0    0    0  501 -0.00000000000E+00 -0.00000000000E+00 -0.37345938751E+03  0.37345938751E+03  0.00000000000E+00 0.  1.
         25    2    1    2    0    0  0.49312550766E+02  0.59212783294E+02 -0.15779168056E+03  0.21559896081E+03  0.12508723389E+03 0.  0.
          5    1    3    3  502    0  0.41503474914E+02 -0.28797101773E+02 -0.26247934119E+02  0.57080977093E+02  0.41800000000E+01 0.  1.
         -5    1    3    3    0  502  0.78090758523E+01  0.88009885067E+02 -0.13154374644E+03  0.15851798372E+03  0.41800000000E+01 0.  1.
        -11    1    1    2    0    0 -0.57335778419E+02 -0.26513327072E+02 -0.15888931693E+03  0.17098585624E+03  0.00000000000E+00 0.  1.
         11    1    1    2    0    0  0.80232276526E+01 -0.32699456222E+02 -0.88419471562E+01  0.34811013325E+02  0.00000000000E+00 0. -1.
</event>
<event>
 7    1  0.2766180E-009  0.1307926E+03  0.7561462E-02  0.1226284E+00
          1   -1    0    0  501    0  0.00000000000E+00  0.00000000000E+00  0.51620396319E+03  0.51620396319E+03  0.00000000000E+00 0. -1.
         -1   -1    0    0    0  501 -0.00000000000E+00 -0.00000000000E+00 -0.59469111382E+02  0.59469111382E+02  0.00000000000E+00 0.  1.
         25    2    1    2    0    0 -0.10100378928E+03 -0.57209022928E+02  0.12389113129E+03  0.21088255841E+03  0.12509117985E+03 0.  0.
          5    1    3    3  502    0 -0.10264157517E+03 -0.61357971672E+02  0.14552511789E+03  0.18840150206E+03  0.41800000000E+01 0.  1.
         -5    1    3    3    0  502  0.16377858932E+01  0.41489487443E+01 -0.21633986602E+02  0.22481056350E+02  0.41800000000E+01 0.  1.
        -11    1    1    2    0    0  0.52610517176E+02  0.68255405633E+02  0.27689737097E+03  0.28999796718E+03  0.00000000000E+00 0. -1.
         11    1    1    2    0    0  0.48393272104E+02 -0.11046382705E+02  0.55946349550E+02  0.74792548986E+02  0.00000000000E+00 0.  1.
</event>
<event>
 6    1  0.2766180E-009  0.1186211E+03  0.7561462E-02  0.1245389E+00
          1   -1    0    0  501    0  0.00000000000E+00  0.00000000000E+00  0.67704170699E+03  0.67704170699E+03  0.00000000000E+00 0. -1.
         -1   -1    0    0    0  501 -0.00000000000E+00 -0.00000000000E+00 -0.27598798026E+02  0.27598798026E+02  0.00000000000E+00 0.  1.
          5    1    1    2  502    0 -0.38213731893E+01  0.10256627519E+03  0.20042235509E+03  0.22521331337E+03  0.41800000000E+01 0. -1.
         -5    1    1    2    0  502  0.38061658093E+02 -0.25327205749E+02  0.13705177834E+03  0.14453656809E+03  0.41800000000E+01 0. -1.
        -11    1    1    2    0    0 -0.22971862283E+02 -0.20580867090E+02  0.18878985673E+02  0.36162060879E+02  0.00000000000E+00 0.  1.
         11    1    1    2    0    0 -0.11268422620E+02 -0.56658202349E+02  0.29308978985E+03  0.29872856267E+03  0.00000000000E+00 0. -1.
</event>
<event>
 7    1  0.2766180E-009  0.1594812E+03  0.7561462E-02  0.1189284E+00
          1   -1    0    0  501    0  0.00000000000E+00  0.00000000000E+00  0.67266215305E+03  0.67266215305E+03  0.00000000000E+00 0. -1.
         -1   -1    0    0    0  501 -0.00000000000E+00 -0.00000000000E+00 -0.86582762027E+02  0.86582762027E+02  0.00000000000E+00 0.  1.
         25    2    1    2    0    0  0.12754098834E+03  0.54550101654E+02  0.54834080704E+03  0.57928159867E+03  0.12508841911E+03 0.  0.
          5    1    3    3  502    0  0.79548694653E+02 -0.22257233506E+01  0.11699640990E+03  0.14155769494E+03  0.41800000000E+01 0.  1.
         -5    1    3    3    0  502  0.47992293684E+02  0.56775825004E+02  0.43134439714E+03  0.43772390374E+03  0.41800000000E+01 0.  1.
        -11    1    1    2    0    0 -0.93314147962E+02  0.78489701799E+01  0.52387950095E+02  0.10730160231E+03  0.00000000000E+00 0. -1.
         11    1    1    2    0    0 -0.34226840375E+02 -0.62399071834E+02 -0.14649366116E+02  0.72661714096E+02  0.00000000000E+00 0.  1.
</event>
<event>
 7    1  0.2766180E-009  0.2596195E+03  0.7561462E-02  0.1107372E+00
          3   -1    0    0  501    0  0.00000000000E+00  0.00000000000E+00  0.18695858536E+03  0.18695858536E+03  0.00000000000E+00 0. -1.
         -3   -1    0    0    0  501 -0.00000000000E+00 -0.00000000000E+00 -0.48722194873E+03  0.48722194873E+03  0.00000000000E+00 0.  1.
         25    2    1    2    0    0 -0.25057914413E+03 -0.71969869065E+01 -0.95706427683E+01  0.28031840562E+03  0.12508040308E+03 0.  0.
          5    1    3    3  502    0 -0.19049914708E+03 -0.21144504008E+02 -0.59628313808E+02  0.20077356224E+03  0.41800000000E+01 0.  1.
         -5    1    3    3    0  502 -0.60079997052E+02  0.13947517102E+02  0.50057671039E+02  0.79544843384E+02  0.41800000000E+01 0.  1.
        -11    1    1    2    0    0  0.14603185293E+02  0.25112836516E+02 -0.34176988289E+02  0.44855034356E+02  0.00000000000E+00 0.  1.
         11    1    1    2    0    0  0.23597595884E+03 -0.17915849609E+02 -0.25651573231E+03  0.34900709411E+03  0.00000000000E+00 0. -1.
</event>
<event>
 7    1  0.2766180E-009  0.1870610E+03  0.7561462E-02  0.1161139E+00
         -2   -1    0    0    0  501 -0.00000000000E+00  0.00000000000E+00  0.30620049311E+02  0.30620049311E+02  0.00000000000E+00 0.  1.
          2   -1    0    0  501    0  0.00000000000E+00 -0.00000000000E+00 -0.13786617480E+04  0.13786617480E+04  0.00000000000E+00 0. -1.
         25    2    1    2    0    0 -0.15947593361E+03 -0.47948181867E+02 -0.87996209769E+03  0.90427453764E+03  0.12509014551E+03 0.  0.
          5    1    3    3  502    0 -0.75754408455E+02 -0.86729706344E+02 -0.52450255378E+03  0.53701133478E+03  0.41800000000E+01 0. -1.
         -5    1    3    3    0  502 -0.83721525158E+02  0.38781524477E+02 -0.35545954391E+03  0.36726320286E+03  0.41800000000E+01 0. -1.
        -11    1    1    2    0    0  0.76526611086E+02  0.23196096625E+02 -0.34744597302E+03  0.35652922078E+03  0.00000000000E+00 0. -1.
         11    1    1    2    0    0  0.82949322526E+02  0.24752085242E+02 -0.12063362794E+03  0.14847803885E+03  0.00000000000E+00 0.  1.
</event>
<event>
 7    1  0.2766180E-009  0.6021815E+02  0.7561462E-02  0.1396919E+00
          1   -1    0    0  501    0  0.00000000000E+00  0.00000000000E+00  0.18560291834E+03  0.18560291834E+03  0.00000000000E+00 0. -1.
         -1   -1    0    0    0  501 -0.00000000000E+00 -0.00000000000E+00 -0.97965394438E+02  0.97965394438E+02  0.00000000000E+00 0.  1.
         25    2    1    2    0    0 -0.25596395000E+02 -0.32372408075E+01  0.12786720647E+03  0.18072901647E+03  0.12508916715E+03 0.  0.
          5    1    3    3  502    0 -0.10643738035E+02 -0.31927236082E+02 -0.12860478168E+02  0.36269847834E+02  0.41800000000E+01 0.  1.
         -5    1    3    3    0  502 -0.14952656965E+02  0.28689995275E+02  0.14072768464E+03  0.14445916863E+03  0.41800000000E+01 0.  1.
        -11    1    1    2    0    0  0.38936363636E+02 -0.32421893155E+01  0.17807080807E+02  0.42937679625E+02  0.00000000000E+00 0. -1.
         11    1    1    2    0    0 -0.13339968636E+02  0.64794301230E+01 -0.58036763376E+02  0.59901616682E+02  0.00000000000E+00 0.  1.
</event>
<event>
 7    1  0.2766180E-009  0.1177645E+03  0.7561462E-02  0.1246831E+00
          1   -1    0    0  501    0  0.00000000000E+00  0.00000000000E+00  0.37704106271E+03  0.37704106271E+03  0.00000000000E+00 0. -1.
         -1   -1    0    0    0  501 -0.00000000000E+00 -0.00000000000E+00 -0.10981727787E+03  0.10981727787E+03  0.00000000000E+00 0.  1.
         25    2    1    2    0    0 -0.51180632117E+02  0.71656146218E+02 -0.36842662605E+02  0.15736968290E+03  0.12511504671E+03 0.  0.
          5    1    3    3  502    0  0.11353531788E+02  0.44691944504E+02 -0.68078679831E+02  0.82331352686E+02  0.41800000000E+01 0.  1.
         -5    1    3    3    0  502 -0.62534163905E+02  0.26964201714E+02  0.31236017226E+02  0.75038330216E+02  0.41800000000E+01 0.  1.
        -11    1    1    2    0    0 -0.22200352995E+02 -0.72227615695E+01  0.26878652914E+02  0.35601768780E+02  0.00000000000E+00 0.  1.
         11    1    1    2    0    0  0.73380985112E+02 -0.64433384649E+02  0.27718779453E+03  0.29388688890E+03  0.00000000000E+00 0. -1.
</event>
