<event>
 7    1  0.2844572E-009  0.1296086E+03  0.7561462E-02  0.1228038E+00
         -2   -1    0    0    0  501 -0.00000000000E+00  0.00000000000E+00  0.97271926927E+02  0.97271926927E+02  0.00000000000E+00 0.  1.
          2   -1    0    0  501    0  0.00000000000E+00 -0.00000000000E+00 -0.18793085668E+03  0.18793085668E+03  0.00000000000E+00 0. -1.
         25    2    1    2    0    0 -0.50066991154E+02 -0.66867233052E+02 -0.60642901265E+02  0.16218186859E+03  0.12508983398E+03 0.  0.
          5    1    3    3  502    0 -0.86619906211E+02 -0.67959823361E+02 -0.59811321188E+02  0.12536511590E+03  0.41800000000E+01 0.  1.
         -5    1    3    3    0  502  0.36552915058E+02  0.10925903089E+01 -0.83158007631E+00  0.36816752684E+02  0.41800000000E+01 0.  1.
        -11    1    1    2    0    0  0.33047201854E+02 -0.91845178193E+01 -0.29259565337E+02  0.45084310815E+02  0.00000000000E+00 0. -1.
         11    1    1    2    0    0  0.17019789300E+02  0.76051750872E+02 -0.75646315209E+00  0.77936604205E+02  0.00000000000E+00 0.  1.
</event>
<event>
 7    1  0.3941433E-009  0.1524678E+03  0.7561462E-02  0.1197473E+00
          2   -1    0    0  501    0  0.00000000000E+00  0.00000000000E+00  0.18876960955E+04  0.18876960955E+04  0.00000000000E+00 0.  1.
         -2   -1    0    0    0  501 -0.00000000000E+00 -0.00000000000E+00 -0.13475207742E+02  0.13475207742E+02  0.00000000000E+00 0. -1.
         25    2    1    2    0    0 -0.96855564416E+02 -0.55851304396E+02  0.12000214982E+04  0.12116926683E+04  0.12508859944E+03 0.  0.
          5    1    3    3  502    0 -0.11735342779E+03 -0.12413223251E+02  0.92061440128E+03  0.92815637873E+03  0.41800000000E+01 0. -1.
         -5    1    3    3    0  502  0.20497863373E+02 -0.43438081144E+02  0.27940709688E+03  0.28353628953E+03  0.41800000000E+01 0. -1.
        -11    1    1    2    0    0  0.84158413615E+02  0.29217495524E+01  0.49780068175E+03  0.50487294833E+03  0.00000000000E+00 0. -1.
         11    1    1    2    0    0  0.12697150801E+02  0.52929554843E+02  0.17639870783E+03  0.18460568664E+03  0.00000000000E+00 0.  1.
</event>
<event>
 7    1  0.2844572E-009  0.1032192E+03  0.7561462E-02  0.1273668E+00
         -1   -1    0    0    0  501 -0.00000000000E+00  0.00000000000E+00  0.61123386687E+03  0.61123386687E+03  0.00000000000E+00 0.  1.
          1   -1    0    0  501    0  0.00000000000E+00 -0.00000000000E+00 -0.22916863448E+02  0.22916863448E+02  0.00000000000E+00 0. -1.
         25    2    1    2    0    0 -0.27472293686E+02 -0.25459852002E+02  0.41127108081E+03  0.43150095288E+03  0.12508492890E+03 0.  0.
          5    1    3    3  502    0  0.15738508952E+02  0.38336171912E+02  0.68647441550E+02  0.80295120476E+02  0.41800000000E+01 0.  1.
         -5    1    3    3    0  502 -0.43210802638E+02 -0.63796023913E+02  0.34262363926E+03  0.35120583240E+03  0.41800000000E+01 0.  1.
        -11    1    1    2    0    0  0.53090950316E+02  0.30903948240E+02  0.16003326071E+03  0.17141863247E+03  0.00000000000E+00 0.  1.
         11    1    1    2    0    0 -0.25618656631E+02 -0.54440962380E+01  0.17012661893E+02  0.31231144970E+02  0.00000000000E+00 0. -1.
</event>
<event>
 7    1  0.2844572E-009  0.1224970E+03  0.7561462E-02  0.1239034E+00
         -1   -1    0    0    0  501 -0.00000000000E+00  0.00000000000E+00  0.79823788546E+02  0.79823788546E+02  0.00000000000E+00 0.  1.
          1   -1    0    0  501    0  0.00000000000E+00 -0.00000000000E+00 -0.34637222031E+03  0.34637222031E+03  0.00000000000E+00 0. -1.
         25    2    1    2    0    0 -0.58212457015E+02 -0.79769539712E+02 -0.44585529770E+02  0.16549115710E+03  0.12509030337E+03 0.  0.
          5    1    3    3  502    0  0.97949183768E+01  0.35521077293E+01 -0.56128756201E+02  0.57240436477E+02  0.41800000000E+01 0. -1.
         -5    1    3    3    0  502 -0.68007375392E+02 -0.83321647441E+02  0.11543226431E+02  0.10825072063E+03  0.41800000000E+01 0. -1.
        -11    1    1    2    0    0  0.59856683149E+01  0.73258957865E+02 -0.76848454075E+02  0.10634090477E+03  0.00000000000E+00 0.  1.
         11    1    1    2    0    0  0.52226788700E+02  0.65105818471E+01 -0.14511444792E+03  0.15436394698E+03  0.00000000000E+00 0. -1.
</event>
<event>
 7    1  0.2844572E-009  0.1169939E+03  0.7561462E-02  0.1248140E+00
          1   -1    0    0  501    0  0.00000000000E+00  0.00000000000E+00  0.96060032415E+03  0.96060032415E+03  0.00000000000E+00 0. -1.
         -1   -1    0    0    0  501 -0.00000000000E+00 -0.00000000000E+00 -0.24244908408E+02  0.24244908408E+02  0.00000000000E+00 0.  1.
         25    2    1    2    0    0  0.26256193709E+02 -0.70594660550E+02  0.75419515773E+03  0.76820322474E+03  0.12511140933E+03 0.  0.
          5    1    3    3  502    0 -0.42071089957E+01 -0.83659281691E+02  0.26696896735E+03  0.27983294500E+03  0.41800000000E+01 0.  1.
         -5    1    3    3    0  502  0.30463302705E+02  0.13064621141E+02  0.48722619038E+03  0.48837027974E+03  0.41800000000E+01 0.  1.
        -11    1    1    2    0    0  0.32238614568E+02  0.37681908429E+02  0.87957875841E+02  0.10097446417E+03  0.00000000000E+00 0. -1.
         11    1    1    2    0    0 -0.58494808277E+02  0.32912752121E+02  0.94202382166E+02  0.11566754365E+03  0.00000000000E+00 0.  1.
</event>
<event>
 7    1  0.2844572E-009  0.1199277E+03  0.7561462E-02  0.1243216E+00
         -1   -1    0    0    0  501 -0.00000000000E+00  0.00000000000E+00  0.30272691652E+03  0.30272691652E+03  0.00000000000E+00 0.  1.
          1   -1    0    0  501    0  0.00000000000E+00 -0.00000000000E+00 -0.89628195812E+02  0.89628195812E+02  0.00000000000E+00 0. -1.
         25    2    1    2    0    0  0.25307415289E+02  0.48384993066E+02 -0.18880214735E+02  0.13778507007E+03  0.12508673072E+03 0.  0.
          5    1    3    3  502    0  0.67763053023E+02 -0.40463404497E+01 -0.16640132973E+01  0.68032680134E+02  0.41800000000E+01 0.  1.
         -5    1    3    3    0  502 -0.42455637734E+02  0.52431333516E+02 -0.17216201437E+02  0.69752389934E+02  0.41800000000E+01 0.  1.
        -11    1    1    2    0    0  0.24559633965E+02  0.10823036414E+02  0.72194108334E+02  0.77021445169E+02  0.00000000000E+00 0.  1.
         11    1    1    2    0    0 -0.49867049254E+02 -0.59208029480E+02  0.15978482711E+03  0.17754859710E+03  0.00000000000E+00 0. -1.
</event>
<event>
 7    1  0.2844572E-009  0.8933618E+02  0.7561462E-02  0.1304467E+00
         -2   -1    0    0    0  501 -0.00000000000E+00  0.00000000000E+00  0.75543639055E+02  0.75543639055E+02  0.00000000000E+00 0.  1.
          2   -1    0    0  501    0  0.00000000000E+00 -0.00000000000E+00 -0.20304820675E+03  0.20304820675E+03  0.00000000000E+00 0. -1.
         25    2    1    2    0    0  0.55615490521E+02 -0.16279449689E+02 -0.97450901576E+02  0.16882551501E+03  0.12508906040E+03 0.  0.
          5    1    3    3  502    0  0.66004554583E+02  0.36926120912E+01  0.24984945257E+01  0.66286887728E+02  0.41800000000E+01 0. -1.
         -5    1    3    3    0  502 -0.10389064062E+02 -0.19972061780E+02 -0.99949396102E+02  0.10253862728E+03  0.41800000000E+01 0. -1.
        -11    1    1    2    0    0 -0.33204135729E+02  0.43213200072E+02 -0.45956884364E+02  0.71287660295E+02  0.00000000000E+00 0. -1.
         11    1    1    2    0    0 -0.22411354792E+02 -0.26933750383E+02  0.15903218240E+02  0.38478670503E+02  0.00000000000E+00 0.  1.
</event>
<event>
 7    1  0.2844572E-009  0.1884727E+03  0.7561462E-02  0.1159846E+00
         -2   -1    0    0    0  501 -0.00000000000E+00  0.00000000000E+00  0.38951998048E+02  0.38951998048E+02  0.00000000000E+00 0. -1.
          2   -1    0    0  501    0  0.00000000000E+00 -0.00000000000E+00 -0.11207372328E+04  0.11207372328E+04  0.00000000000E+00 0.  1.
         25    2    1    2    0    0 -0.13022136754E+03  0.90506459578E+02 -0.79021068214E+03  0.81561569255E+03  0.12508801691E+03 0.  0.
          5    1    3    3  502    0  0.16241347888E+02  0.39558728711E+02 -0.11371390700E+03  0.12156068215E+03  0.41800000000E+01 0.  1.
         -5    1    3    3    0  502 -0.14646271543E+03  0.50947730867E+02 -0.67649677514E+03  0.69405501040E+03  0.41800000000E+01 0.  1.
        -11    1    1    2    0    0  0.90286501959E+02 -0.12408140050E+02 -0.18347583192E+03  0.20486335757E+03  0.00000000000E+00 0.  1.
         11    1    1    2    0    0  0.39934865579E+02 -0.78098319528E+02 -0.10809872066E+03  0.13921018070E+03  0.00000000000E+00 0. -1.
</event>
<event>
 7    1  0.2844572E-009  0.1085067E+03  0.7561462E-02  0.1263361E+00
         -1   -1    0    0    0  501 -0.00000000000E+00  0.00000000000E+00  0.40474586666E+02  0.40474586666E+02  0.00000000000E+00 0.  1.
          1   -1    0    0  501    0  0.00000000000E+00 -0.00000000000E+00 -0.41439025787E+03  0.41439025787E+03  0.00000000000E+00 0. -1.
         25    2    1    2    0    0 -0.44096375212E+02 -0.79816417415E+01 -0.10865867981E+03  0.17164855654E+03  0.12509325062E+03 0.  0.
          5    1    3    3  502    0 -0.19559160125E+02  0.52061639495E+02 -0.86608758961E+02  0.10301225452E+03  0.41800000000E+01 0. -1.
         -5    1    3    3    0  502 -0.24537215087E+02 -0.60043281236E+02 -0.22049920852E+02  0.68636302023E+02  0.41800000000E+01 0. -1.
        -11    1    1    2    0    0  0.26524887273E+02  0.46709984123E+02 -0.11276942493E+03  0.12490930895E+03  0.00000000000E+00 0.  1.
         11    1    1    2    0    0  0.17571487939E+02 -0.38728342382E+02 -0.15248756645E+03  0.15830697905E+03  0.00000000000E+00 0. -1.
</event>
<event>
 7    1  0.2844572E-009  0.1262082E+03  0.7561462E-02  0.1233193E+00
          2   -1    0    0  501    0  0.00000000000E+00  0.00000000000E+00  0.97423828133E+03  0.97423828133E+03  0.00000000000E+00 0.  1.
         -2   -1    0    0    0  501 -0.00000000000E+00 -0.00000000000E+00 -0.22539732250E+02  0.22539732250E+02  0.00000000000E+00 0. -1.
         25    2    1    2    0    0 -0.72463037131E+02  0.54838793971E+02  0.65367151964E+03  0.67170518147E+03  0.12507281938E+03 0.  0.
          5    1    3    3  502    0 -0.19355354789E+02 -0.25799526197E+02  0.38150143816E+03  0.38288518518E+03  0.41800000000E+01 0. -1.
         -5    1    3    3    0  502 -0.53107682342E+02  0.80638320168E+02  0.27217008148E+03  0.28881999629E+03  0.41800000000E+01 0. -1.
        -11    1    1    2    0    0 -0.18953611033E+02 -0.98743307335E+01  0.21234219647E+02  0.30126962386E+02  0.00000000000E+00 0.  1.
         11    1    1    2    0    0  0.91416648164E+02 -0.44964463238E+02  0.27679280979E+03  0.29494586973E+03  0.00000000000E+00 0. -1.
</event>
<event>
 7    1  0.2844572E-009  0.1020524E+03  0.7561462E-02  0.1276038E+00
         -1   -1    0    0    0  501 -0.00000000000E+00  0.00000000000E+00  0.65682919376E+02  0.65682919376E+02  0.00000000000E+00 0.  1.
          1   -1    0    0  501    0  0.00000000000E+00 -0.00000000000E+00 -0.21806190177E+03  0.21806190177E+03  0.00000000000E+00 0. -1.
         25    2    1    2    0    0  0.42872934670E+02 -0.10104307575E+02 -0.61286291183E+02  0.14609500971E+03  0.12509019473E+03 0.  0.
          5    1    3    3  502    0  0.82422568981E+02  0.87909479839E+01 -0.59330331131E+02  0.10202118033E+03  0.41800000000E+01 0.  1.
         -5    1    3    3    0  502 -0.39549634311E+02 -0.18895255558E+02 -0.19559600519E+01  0.44073829383E+02  0.41800000000E+01 0.  1.
        -11    1    1    2    0    0 -0.46418306144E+02 -0.17232158091E+02 -0.80655257884E+01  0.50166314634E+02  0.00000000000E+00 0.  1.
         11    1    1    2    0    0  0.35453714736E+01  0.27336465666E+02 -0.83027165422E+02  0.87483496798E+02  0.00000000000E+00 0. -1.
</event>
<event>
 7    1  0.2844572E-009  0.9312651E+02  0.7561462E-02  0.1295452E+00
         -3   -1    0    0    0  501 -0.00000000000E+00  0.00000000000E+00  0.36574467956E+03  0.36574467956E+03  0.00000000000E+00 0.  1.
          3   -1    0    0  501    0  0.00000000000E+00 -0.00000000000E+00 -0.40888791824E+02  0.40888791824E+02  0.00000000000E+00 0. -1.
         25    2    1    2    0    0  0.37201594292E+02  0.42107743195E+02  0.19255837140E+03  0.23639521004E+03  0.12508776230E+03 0.  0.
          5    1    3    3  502    0 -0.96964446397E+01  0.50623896886E+02  0.17004177103E+02  0.54437252075E+02  0.41800000000E+01 0. -1.
         -5    1    3    3    0  502  0.46898038932E+02 -0.85161536907E+01  0.17555419430E+03  0.18195795796E+03  0.41800000000E+01 0. -1.
        -11    1    1    2    0    0  0.14521630903E+02  0.63187678696E+01 -0.42540779510E+01  0.16398224620E+02  0.00000000000E+00 0.  1.
         11    1    1    2    0    0 -0.51723225195E+02 -0.48426511065E+02  0.13655159429E+03  0.15384003673E+03  0.00000000000E+00 0. -1.
</event>
<event>
 7    1  0.2844572E-009  0.8014749E+02  0.7561462E-02  0.1328633E+00
         -3   -1    0    0    0  501 -0.00000000000E+00  0.00000000000E+00  0.14089677711E+03  0.14089677711E+03  0.00000000000E+00 0.  1.
          3   -1    0    0  501    0  0.00000000000E+00 -0.00000000000E+00 -0.10408810026E+03  0.10408810026E+03  0.00000000000E+00 0. -1.
         25    2    1    2    0    0 -0.41187965296E+02  0.20175379474E+02  0.72892494031E+02  0.15187025187E+03  0.12509102004E+03 0.  0.
          5    1    3    3  502    0  0.90795777102E+01 -0.30170235795E+02 -0.17877505354E+02  0.36465867013E+02  0.41800000000E+01 0. -1.
         -5    1    3    3    0  502 -0.50267543006E+02  0.50345615269E+02  0.90769999385E+02  0.11540438486E+03  0.41800000000E+01 0. -1.
        -11    1    1    2    0    0  0.56123615622E+01 -0.20921981136E+02 -0.50323604337E+02  0.54787708936E+02  0.00000000000E+00 0. -1.
         11    1    1    2    0    0  0.35575603734E+02  0.74660166153E+00  0.14239787150E+02  0.38326916562E+02  0.00000000000E+00 0.  1.
</event>
<event>
 7    1  0.2844572E-009  0.1772030E+03  0.7561462E-02  0.1170538E+00
         -1   -1    0    0    0  501 -0.00000000000E+00  0.00000000000E+00  0.14079654926E+03  0.14079654926E+03  0.00000000000E+00 0.  1.
          1   -1    0    0  501    0  0.00000000000E+00 -0.00000000000E+00 -0.27005702316E+03  0.27005702316E+03  0.00000000000E+00 0. -1.
         25    2    1    2    0    0  0.10714923646E+03 -0.92133424931E+02  0.13368276003E+02  0.18919996453E+03  0.12509352066E+03 0.  0.
          5    1    3    3  502    0  0.97905669743E+01 -0.87032888090E+02 -0.11676360061E+02  0.88455574133E+02  0.41800000000E+01 0. -1.
         -5    1    3    3    0  502  0.97358669488E+02 -0.51005368415E+01  0.25044636064E+02  0.10074439040E+03  0.41800000000E+01 0. -1.
        -11    1    1    2    0    0 -0.97064553193E+02  0.23627890458E+02 -0.92732335029E+02  0.13630513803E+03  0.00000000000E+00 0.  1.
         11    1    1    2    0    0 -0.10084683270E+02  0.68505534474E+02 -0.49896414875E+02  0.85348469860E+02  0.00000000000E+00 0. -1.
</event>
<event>
 7    1  0.2844572E-009  0.1218406E+03  0.7561462E-02  0.1240091E+00
          2   -1    0    0  501    0  0.00000000000E+00  0.00000000000E+00  0.22676963525E+03  0.22676963525E+03  0.00000000000E+00 0. -1.
         -2   -1    0    0    0  501 -0.00000000000E+00 -0.00000000000E+00 -0.80689671204E+02  0.80689671204E+02  0.00000000000E+00 0.  1.
         25    2    1    2    0    0  0.14759167108E+02  0.79488495807E+02  0.72803159637E+02  0.16578095440E+03  0.12508705292E+03 0.  0.
          5    1    3    3  502    0  0.61474823307E+02  0.20722593624E+02  0.61976636381E+02  0.89817346010E+02  0.41800000000E+01 0.  1.
         -5    1    3    3    0  502 -0.46715656199E+02  0.58765902183E+02  0.10826523256E+02  0.75963608388E+02  0.41800000000E+01 0.  1.
        -11    1    1    2    0    0 -0.12261519481E+02  0.88433063368E+01  0.47173092304E+02  0.49536345894E+02  0.00000000000E+00 0. -1.
         11    1    1    2    0    0 -0.24976476267E+01 -0.88331802144E+02  0.26103712104E+02  0.92142006160E+02  0.00000000000E+00 0.  1.
</event>
<event>
 7    1  0.2844572E-009  0.5769578E+02  0.7561462E-02  0.1407764E+00
          1   -1    0    0  501    0  0.00000000000E+00  0.00000000000E+00  0.34764199780E+03  0.34764199780E+03  0.00000000000E+00 0. -1.
         -1   -1    0    0    0  501 -0.00000000000E+00 -0.00000000000E+00 -0.41001110927E+02  0.41001110927E+02  0.00000000000E+00 0.  1.
         25    2    1    2    0    0  0.13682391318E+02 -0.22388424270E+02  0.11095624300E+03  0.16926139536E+03  0.12509869194E+03 0.  0.
          5    1    3    3  502    0  0.63499876709E+01 -0.86896272787E+01  0.13762837526E+03  0.13811181717E+03  0.41800000000E+01 0. -1.
         -5    1    3    3    0  502  0.73324036468E+01 -0.13698796992E+02 -0.26672132259E+02  0.31149578191E+02  0.41800000000E+01 0. -1.
        -11    1    1    2    0    0  0.15856047175E+02  0.46814047933E+02  0.15831132188E+03  0.16584765284E+03  0.00000000000E+00 0. -1.
         11    1    1    2    0    0 -0.29538438493E+02 -0.24425623663E+02  0.37373321995E+02  0.53534060530E+02  0.00000000000E+00 0.  1.
</event>
<event>
 7    1  0.2844572E-009  0.8991810E+02  0.7561462E-02  0.1303050E+00
          1   -1    0    0  501    0  0.00000000000E+00  0.00000000000E+00  0.25788604370E+02  0.25788604370E+02  0.00000000000E+00 0. -1.
         -1   -1    0    0    0  501 -0.00000000000E+00 -0.00000000000E+00 -0.57294167317E+03  0.57294167317E+03  0.00000000000E+00 0.  1.
         25    2    1    2    0    0 -0.15248949548E+02  0.38351081753E+02 -0.39650708046E+03  0.41781596903E+03  0.12509589596E+03 0.  0.
          5    1    3    3  502    0 -0.48893982480E+02  0.20861819942E+02 -0.64783360709E+02  0.83905859621E+02  0.41800000000E+01 0. -1.
         -5    1    3    3    0  502  0.33645032931E+02  0.17489261811E+02 -0.33172371975E+03  0.33391010941E+03  0.41800000000E+01 0. -1.
        -11    1    1    2    0    0 -0.29362161993E+02  0.26245953281E+00 -0.96374811562E+02  0.10074874563E+03  0.00000000000E+00 0.  1.
         11    1    1    2    0    0  0.44611111542E+02 -0.38613541286E+02 -0.54271176778E+02  0.80165562884E+02  0.00000000000E+00 0. -1.
</event>
<event>
 7    1  0.2844572E-009  0.9393003E+02  0.7561462E-02  0.1293604E+00
         -4   -1    0    0    0  501 -0.00000000000E+00  0.00000000000E+00  0.11986549339E+03  0.11986549339E+03  0.00000000000E+00 0.  1.
          4   -1    0    0  501    0  0.00000000000E+00 -0.00000000000E+00 -0.21442707289E+03  0.21442707289E+03  0.00000000000E+00 0. -1.
         25    2    1    2    0    0 -0.66963094348E+02  0.44202622999E+02  0.38876341941E+02  0.15361811272E+03  0.12509686930E+03 0.  0.
          5    1    3    3  502    0 -0.37786672917E+02 -0.15419420220E+02  0.69258845909E+02  0.80497523606E+02  0.41800000000E+01 0.  1.
         -5    1    3    3    0  502 -0.29176421431E+02  0.59622043219E+02 -0.30382503967E+02  0.73120589114E+02  0.41800000000E+01 0.  1.
        -11    1    1    2    0    0  0.36590728816E+02 -0.26396326538E+02 -0.13798574737E+03  0.14517477043E+03  0.00000000000E+00 0. -1.
         11    1    1    2    0    0  0.30372365531E+02 -0.17806296460E+02  0.45478259372E+01  0.35499683130E+02  0.00000000000E+00 0.  1.
</event>
<event>
 7    1  0.2844572E-009  0.1066531E+03  0.7561462E-02  0.1266896E+00
          1   -1    0    0  501    0  0.00000000000E+00  0.00000000000E+00  0.61584167554E+03  0.61584167554E+03  0.00000000000E+00 0. -1.
         -1   -1    0    0    0  501 -0.00000000000E+00 -0.00000000000E+00 -0.57486091286E+02  0.57486091286E+02  0.00000000000E+00 0.  1.
         25    2    1    2    0    0 -0.93695727264E+01 -0.37808055908E+02  0.28221453356E+02  0.13402819337E+03  0.12509943327E+03 0.  0.
          5    1    3    3  502    0  0.79728270179E+01  0.36697403610E+02 -0.20744512228E+02  0.43105366138E+02  0.41800000000E+01 0.  1.
         -5    1    3    3    0  502 -0.17342399744E+02 -0.74505459518E+02  0.48965965585E+02  0.90922827235E+02  0.41800000000E+01 0.  1.
        -11    1    1    2    0    0 -0.40156079267E+02  0.75132399315E+01  0.20743744948E+03  0.21142198306E+03  0.00000000000E+00 0. -1.
         11    1    1    2    0    0  0.49525651994E+02  0.30294815977E+02  0.32269668142E+03  0.32787759039E+03  0.00000000000E+00 0.  1.
</event>
<event>
 7    1  0.2844572E-009  0.1868820E+03  0.7561462E-02  0.1161304E+00
         -2   -1    0    0    0  501 -0.00000000000E+00  0.00000000000E+00  0.53226597315E+02  0.53226597315E+02  0.00000000000E+00 0.  1.
          2   -1    0    0  501    0  0.00000000000E+00 -0.00000000000E+00 -0.70712800812E+03  0.70712800812E+03  0.00000000000E+00 0. -1.
         25    2    1    2    0    0  0.25102523515E+02  0.15593823720E+03 -0.39663127607E+03  0.44486964709E+03  0.12508302540E+03 0.  0.
          5    1    3    3  502    0  0.25995117177E+01 -0.18321802756E+02 -0.85010334629E+02  0.87101523013E+02  0.41800000000E+01 0. -1.
         -5    1    3    3    0  502  0.22503011798E+02  0.17426003995E+03 -0.31162094144E+03  0.35776812408E+03  0.41800000000E+01 0. -1.
        -11    1    1    2    0    0 -0.50069373203E+02 -0.14171893435E+03 -0.23574814238E+03  0.27958609608E+03  0.00000000000E+00 0.  1.
         11    1    1    2    0    0  0.24966849688E+02 -0.14219302850E+02 -0.21521992363E+02  0.35898862268E+02  0.00000000000E+00 0. -1.
</event>
<event>
 7    1  0.2844572E-009  0.6911081E+02  0.7561462E-02  0.1363143E+00
         -1   -1    0    0    0  501 -0.00000000000E+00  0.00000000000E+00  0.22930301762E+02  0.22930301762E+02  0.00000000000E+00 0.  1.
          1   -1    0    0  501    0  0.00000000000E+00 -0.00000000000E+00 -0.55976812311E+03  0.55976812311E+03  0.00000000000E+00 0. -1.
         25    2    1    2    0    0  0.29634707719E+02 -0.23406298150E+02 -0.25152537531E+03  0.28343973901E+03  0.12508797117E+03 0.  0.
          5    1    3    3  502    0  0.13943778892E+02  0.90299495410E+01  0.97148840091E+01  0.19693154389E+02  0.41800000000E+01 0. -1.
         -5    1    3    3    0  502  0.15690928827E+02 -0.32436247691E+02 -0.26124025932E+03  0.26374658462E+03  0.41800000000E+01 0. -1.
        -11    1    1    2    0    0  0.19254919021E+02 -0.13539010909E+02 -0.40033036617E+02  0.46440292243E+02  0.00000000000E+00 0.  1.
         11    1    1    2    0    0 -0.48889626740E+02  0.36945309059E+02 -0.24527940942E+03  0.25281839361E+03  0.00000000000E+00 0. -1.
</event>
<event>
 7    1  0.2844572E-009  0.9695245E+02  0.7561462E-02  0.1286838E+00
          1   -1    0    0  501    0  0.00000000000E+00  0.00000000000E+00  0.27489713326E+03  0.27489713326E+03  0.00000000000E+00 0. -1.
         -1   -1    0    0    0  501 -0.00000000000E+00 -0.00000000000E+00 -0.44827465967E+02  0.44827465967E+02  0.00000000000E+00 0.  1.
         25    2    1    2    0    0  0.50192604040E+01  0.14136101596E+02  0.16670563814E+03  0.20895795300E+03  0.12509050320E+03 0.  0.
          5    1    3    3  502    0  0.29505346444E+02  0.50799576457E+02  0.31721310497E+02  0.66894516791E+02  0.41800000000E+01 0. -1.
         -5    1    3    3    0  502 -0.24486086040E+02 -0.36663474861E+02  0.13498432764E+03  0.14206343621E+03  0.41800000000E+01 0. -1.
        -11    1    1    2    0    0  0.11531695949E+02  0.36065479480E+02  0.29371575332E+02  0.47920645437E+02  0.00000000000E+00 0. -1.
         11    1    1    2    0    0 -0.16550956353E+02 -0.50201581076E+02  0.33992453827E+02  0.62846000795E+02  0.00000000000E+00 0.  1.
</event>
<event>
 7    1  0.2844572E-009  0.1320097E+03  0.7561462E-02  0.1224504E+00
          1   -1    0    0  501    0  0.00000000000E+00  0.00000000000E+00  0.83207599590E+02  0.83207599590E+02  0.00000000000E+00 0. -1.
         -1   -1    0    0    0  501 -0.00000000000E+00 -0.00000000000E+00 -0.29165038241E+03  0.29165038241E+03  0.00000000000E+00 0.  1.
         25    2    1    2    0    0  0.33152609143E+02 -0.90246501604E+02 -0.44274957148E+02  0.16386370087E+03  0.12509002393E+03 0.  0.
          5    1    3    3  502    0  0.72801907213E+02 -0.17844714914E+02 -0.19180359229E+02  0.77484902557E+02  0.41800000000E+01 0.  1.
         -5    1    3    3    0  502 -0.39649298070E+02 -0.72401786690E+02 -0.25094597920E+02  0.86378798313E+02  0.41800000000E+01 0.  1.
        -11    1    1    2    0    0 -0.17121780872E+02  0.27518434792E+01 -0.99551899699E+02  0.10105102056E+03  0.00000000000E+00 0.  1.
         11    1    1    2    0    0 -0.16030828271E+02  0.87494658124E+02 -0.64615925977E+02  0.10994326057E+03  0.00000000000E+00 0. -1.
</event>
<event>
 7    1  0.2844572E-009  0.9221847E+02  0.7561462E-02  0.1297567E+00
          1   -1    0    0  501    0  0.00000000000E+00  0.00000000000E+00  0.22396477798E+03  0.22396477798E+03  0.00000000000E+00 0. -1.
         -1   -1    0    0    0  501 -0.00000000000E+00 -0.00000000000E+00 -0.72787696038E+02  0.72787696038E+02  0.00000000000E+00 0.  1.
         25    2    1    2    0    0 -0.57809568735E+02 -0.85063952400E+01  0.12284393179E+03  0.18480700007E+03  0.12509472690E+03 0.  0.
          5    1    3    3  502    0  0.21691195462E+02  0.65781000865E+00 -0.14045915076E+02  0.26185889423E+02  0.41800000000E+01 0.  1.
         -5    1    3    3    0  502 -0.79500764197E+02 -0.91642052486E+01  0.13688984687E+03  0.15862111064E+03  0.41800000000E+01 0.  1.
        -11    1    1    2    0    0 -0.70581061726E+00  0.22112815864E+02  0.44530627661E+02  0.49723752815E+02  0.00000000000E+00 0. -1.
         11    1    1    2    0    0  0.58515379352E+02 -0.13606420624E+02 -0.16197477516E+02  0.62221721133E+02  0.00000000000E+00 0.  1.
</event>
<event>
 6    1  0.2844572E-009  0.1125942E+03  0.7561462E-02  0.1255840E+00
         -1   -1    0    0    0  501 -0.00000000000E+00  0.00000000000E+00  0.57101058332E+02  0.57101058332E+02  0.00000000000E+00 0.  1.
          1   -1    0    0  501    0  0.00000000000E+00 -0.00000000000E+00 -0.69148804821E+03  0.69148804821E+03  0.00000000000E+00 0. -1.
          5    1    1    2  502    0  0.12472199753E+02 -0.83537548079E+02 -0.48026411581E+03  0.48765271561E+03  0.41800000000E+01 0. -1.
         -5    1    1    2    0  502  0.27468942091E+02  0.39065713723E+02 -0.14511153486E+03  0.15282507228E+03  0.41800000000E+01 0. -1.
        -11    1    1    2    0    0 -0.26242244193E+02 -0.15962047819E+02 -0.29754950638E+02  0.42764464668E+02  0.00000000000E+00 0. -1.
         11    1    1    2    0    0 -0.13698897651E+02  0.60433882175E+02  0.20743611423E+02  0.65346853991E+02  0.00000000000E+00 0.  1.
</event>
<event>
 7    1  0.2844572E-009  0.1405740E+03  0.7561462E-02  0.1212559E+00
          1   -1    0    0  501    0  0.00000000000E+00  0.00000000000E+00  0.35300602544E+03  0.35300602544E+03  0.00000000000E+00 0. -1.
         -1   -1    0    0    0  501 -0.00000000000E+00 -0.00000000000E+00 -0.10254607388E+03  0.10254607388E+03  0.00000000000E+00 0.  1.
         25    2    1    2    0    0 -0.11938801814E+03  0.33388819399E+01  0.25093237429E+03  0.30476152843E+03  0.12509150945E+03 0.  0.
          5    1    3    3  502    0 -0.58141601943E+01  0.40965429582E+02  0.12165161656E+03  0.12856344383E+03  0.41800000000E+01 0.  1.
         -5    1    3    3    0  502 -0.11357385794E+03 -0.37626547642E+02  0.12928075773E+03  0.17619808459E+03  0.41800000000E+01 0.  1.
        -11    1    1    2    0    0  0.53432802761E+02 -0.64191725490E+01 -0.45828384049E+02  0.70686002657E+02  0.00000000000E+00 0.  1.
         11    1    1    2    0    0  0.65955215375E+02  0.30802906090E+01  0.45355961321E+02  0.80104568239E+02  0.00000000000E+00 0. -1.
</event>
<event>
 7    1  0.2844572E-009  0.9794379E+02  0.7561462E-02  0.1284680E+00
          1   -1    0    0  501    0  0.00000000000E+00  0.00000000000E+00  0.45836415944E+03  0.45836415944E+03  0.00000000000E+00 0. -1.
         -1   -1    0    0    0  501 -0.00000000000E+00 -0.00000000000E+00 -0.26382418467E+02  0.26382418467E+02  0.00000000000E+00 0.  1.
         25    2    1    2    0    0  0.13134433110E+02  0.70341827822E+01  0.26075445050E+03  0.28959005890E+03  0.12509007034E+03 0.  0.
          5    1    3    3  502    0 -0.49089661028E+02  0.52272665103E+01  0.18464630549E+03  0.19117753442E+03  0.41800000000E+01 0. -1.
         -5    1    3    3    0  502  0.62224094138E+02  0.18069162719E+01  0.76108145010E+02  0.98412524480E+02  0.41800000000E+01 0. -1.
        -11    1    1    2    0    0  0.35088489833E+02  0.80271123232E+00  0.11707487317E+03  0.12222263453E+03  0.00000000000E+00 0. -1.
         11    1    1    2    0    0 -0.48222922943E+02 -0.78368940145E+01  0.54152417302E+02  0.72933884475E+02  0.00000000000E+00 0.  1.
</event>
<event>
 7    1  0.2844572E-009  0.8518839E+02  0.7561462E-02  0.1314941E+00
          2   -1    0    0  501    0  0.00000000000E+00  0.00000000000E+00  0.91544993032E+03  0.91544993032E+03  0.00000000000E+00 0. -1.
         -2   -1    0    0    0  501 -0.00000000000E+00 -0.00000000000E+00 -0.13430989582E+02  0.13430989582E+02  0.00000000000E+00 0.  1.
         25    2    1    2    0    0  0.23435427421E+01  0.15280495951E+02  0.41974013643E+03  0.43825530522E+03  0.12508774789E+03 0.  0.
          5    1    3    3  502    0 -0.36797551331E+02 -0.31774401545E+01  0.37133960586E+03  0.37319529899E+03  0.41800000000E+01 0. -1.
         -5    1    3    3    0  502  0.39141094073E+02  0.18457936106E+02  0.48400530570E+02  0.65060006225E+02  0.41800000000E+01 0. -1.
        -11    1    1    2    0    0 -0.22089463501E+02 -0.47247588456E+02  0.30233217108E+03  0.30679801284E+03  0.00000000000E+00 0.  1.
         11    1    1    2    0    0  0.19745920759E+02  0.31967092505E+02  0.17994663322E+03  0.18382760184E+03  0.00000000000E+00 0. -1.
</event>
<event>
 7    1  0.2844572E-009  0.1594176E+03  0.7561462E-02  0.1189356E+00
          1   -1    0    0  501    0  0.00000000000E+00  0.00000000000E+00  0.95924049170E+02  0.95924049170E+02  0.00000000000E+00 0. -1.
         -1   -1    0    0    0  501 -0.00000000000E+00 -0.00000000000E+00 -0.34091772515E+03  0.34091772515E+03  0.00000000000E+00 0.  1.
         25    2    1    2    0    0  0.14920303009E+02  0.14279268142E+03 -0.11077271685E+03  0.22029912463E+03  0.12509494077E+03 0.  0.
          5    1    3    3  502    0 -0.13038377002E+02  0.79710871921E+02 -0.12580218064E+03  0.14955762578E+03  0.41800000000E+01 0.  1.
         -5    1    3    3    0  502  0.27958680012E+02  0.63081809499E+02  0.15029463783E+02  0.70741498848E+02  0.41800000000E+01 0.  1.
        -11    1    1    2    0    0 -0.38440322231E+02 -0.19104742483E+02 -0.45271714944E+02  0.62387320286E+02  0.00000000000E+00 0. -1.
         11    1    1    2    0    0  0.23520019221E+02 -0.12368793894E+03 -0.88949244183E+02  0.15415532940E+03  0.00000000000E+00 0.  1.
</event>
<event>
 7    1  0.2844572E-009  0.1822512E+03  0.7561462E-02  0.1165642E+00
         -4   -1    0    0    0  501 -0.00000000000E+00  0.00000000000E+00  0.27970112103E+03  0.27970112103E+03  0.00000000000E+00 0.  1.
          4   -1    0    0  501    0  0.00000000000E+00 -0.00000000000E+00 -0.14939036833E+03  0.14939036833E+03  0.00000000000E+00 0. -1.
         25    2    1    2    0    0 -0.28211778656E+02  0.16252928790E+03  0.17286719866E+02  0.20774146624E+03  0.12508402069E+03 0.  0.
          5    1    3    3  502    0 -0.68847550303E+02  0.98097550453E+02 -0.22014783052E+02  0.12192308092E+03  0.41800000000E+01 0. -1.
         -5    1    3    3    0  502  0.40635771647E+02  0.64431737446E+02  0.39301502918E+02  0.85818385322E+02  0.41800000000E+01 0. -1.
        -11    1    1    2    0    0 -0.46729944130E+01 -0.68872294324E+02 -0.24527363064E+01  0.69074204430E+02  0.00000000000E+00 0. -1.
         11    1    1    2    0    0  0.32884773069E+02 -0.93656993576E+02  0.11547676914E+03  0.15227581868E+03  0.00000000000E+00 0.  1.
</event>
<event>
 7    1  0.2844572E-009  0.8632848E+02  0.7561462E-02  0.1311995E+00
          2   -1    0    0  501    0  0.00000000000E+00  0.00000000000E+00  0.40367885445E+03  0.40367885445E+03  0.00000000000E+00 0.  1.
         -2   -1    0    0    0  501 -0.00000000000E+00 -0.00000000000E+00 -0.40439544294E+02  0.40439544294E+02  0.00000000000E+00 0. -1.
         25    2    1    2    0    0 -0.65512985950E+02 -0.72796446475E+01  0.20883150002E+03  0.25219656606E+03  0.12509023934E+03 0.  0.
          5    1    3    3  502    0 -0.18685843952E+02  0.16888666924E+00  0.20338708438E+03  0.20428648457E+03  0.41800000000E+01 0.  1.
         -5    1    3    3    0  502 -0.46827141998E+02 -0.74485313168E+01  0.54444156365E+01  0.47910081487E+02  0.41800000000E+01 0.  1.
        -11    1    1    2    0    0  0.43929217620E+02 -0.36489350392E+02  0.11781148140E+03  0.13092285515E+03  0.00000000000E+00 0.  1.
         11    1    1    2    0    0  0.21583768330E+02  0.43768995039E+02  0.36596328741E+02  0.60998977528E+02  0.00000000000E+00 0. -1.
</event>
<event>
 7    1  0.2844572E-009  0.1461158E+03  0.7561462E-02  0.1205329E+00
         -2   -1    0    0    0  501 -0.00000000000E+00  0.00000000000E+00  0.71337453568E+03  0.71337453568E+03  0.00000000000E+00 0.  1.
          2   -1    0    0  501    0  0.00000000000E+00 -0.00000000000E+00 -0.77099481267E+02  0.77099481267E+02  0.00000000000E+00 0. -1.
         25    2    1    2    0    0  0.43793484433E+02 -0.13187234259E+03  0.58818098534E+03  0.61718081561E+03  0.12508838324E+03 0.  0.
          5    1    3    3  502    0  0.22450808453E+02 -0.12453159690E+03  0.27041083684E+03  0.29858273645E+03  0.41800000000E+01 0.  1.
         -5    1    3    3    0  502  0.21342675980E+02 -0.73407456881E+01  0.31777014850E+03  0.31859807916E+03  0.41800000000E+01 0.  1.
        -11    1    1    2    0    0 -0.98066068057E+00  0.52316776522E+02  0.62818981840E+02  0.81757148192E+02  0.00000000000E+00 0.  1.
         11    1    1    2    0    0 -0.42812823752E+02  0.79555566064E+02 -0.14724912768E+02  0.91536053145E+02  0.00000000000E+00 0. -1.
</event>
<event>
 7    1  0.2844572E-009  0.2045902E+03  0.7561462E-02  0.1145923E+00
          2   -1    0    0  501    0  0.00000000000E+00  0.00000000000E+00  0.90179348486E+03  0.90179348486E+03  0.00000000000E+00 0. -1.
         -2   -1    0    0    0  501 -0.00000000000E+00 -0.00000000000E+00 -0.52171203195E+02  0.52171203195E+02  0.00000000000E+00 0.  1.
         25    2    1    2    0    0 -0.12710627524E+03 -0.13755019468E+03  0.41782120454E+03  0.47465568453E+03  0.12508956244E+03 0.  0.
          5    1    3    3  502    0  0.94868937753E+01 -0.23121880801E+02  0.15524238734E+03  0.15729683326E+03  0.41800000000E+01 0.  1.
         -5    1    3    3    0  502 -0.13659316901E+03 -0.11442831388E+03  0.26257881719E+03  0.31735885127E+03  0.41800000000E+01 0.  1.
        -11    1    1    2    0    0  0.12891168007E+03  0.88149135625E+02  0.29389320889E+03  0.33280881839E+03  0.00000000000E+00 0.  1.
         11    1    1    2    0    0 -0.18054048353E+01  0.49401059053E+02  0.13790786824E+03  0.14650018514E+03  0.00000000000E+00 0. -1.
</event>
<event>
 7    1  0.2844572E-009  0.1019599E+03  0.7561462E-02  0.1276228E+00
         -1   -1    0    0    0  501 -0.00000000000E+00  0.00000000000E+00  0.55631447788E+02  0.55631447788E+02  0.00000000000E+00 0.  1.
          1   -1    0    0  501    0  0.00000000000E+00 -0.00000000000E+00 -0.47026087933E+03  0.47026087933E+03  0.00000000000E+00 0. -1.
         25    2    1    2    0    0 -0.68602662459E+02  0.30587884862E+02 -0.37156186813E+03  0.39918345516E+03  0.12508902840E+03 0.  0.
          5    1    3    3  502    0 -0.81740366371E+02  0.36878105463E+02 -0.13491866371E+03  0.16205554718E+03  0.41800000000E+01 0. -1.
         -5    1    3    3    0  502  0.13137703912E+02 -0.62902206009E+01 -0.23664320443E+03  0.23712790797E+03  0.41800000000E+01 0. -1.
        -11    1    1    2    0    0  0.44660516564E+02  0.15322560972E+02 -0.56090720547E+02  0.73317880124E+02  0.00000000000E+00 0. -1.
         11    1    1    2    0    0  0.23942145895E+02 -0.45910445835E+02  0.13023157140E+02  0.53390991831E+02  0.00000000000E+00 0.  1.
</event>
<event>
 7    1  0.2844572E-009  0.9418709E+02  0.7561462E-02  0.1293018E+00
         -2   -1    0    0    0  501 -0.00000000000E+00  0.00000000000E+00  0.45322420861E+02  0.45322420861E+02  0.00000000000E+00 0.  1.
          2   -1    0    0  501    0  0.00000000000E+00 -0.00000000000E+00 -0.29244773110E+03  0.29244773110E+03  0.00000000000E+00 0. -1.
         25    2    1    2    0    0  0.19144727611E+00  0.19790906365E+02 -0.19218032648E+03  0.23015527496E+03  0.12508579488E+03 0.  0.
          5    1    3    3  502    0  0.26861426140E+01  0.60718748364E+02 -0.40941228684E+02  0.73400533862E+02  0.41800000000E+01 0. -1.
         -5    1    3    3    0  502 -0.24946953379E+01 -0.40927841999E+02 -0.15123909779E+03  0.15675474110E+03  0.41800000000E+01 0. -1.
        -11    1    1    2    0    0  0.36524251917E+02 -0.30937277768E+02 -0.49504124119E+02  0.68860688630E+02  0.00000000000E+00 0. -1.
         11    1    1    2    0    0 -0.36715699194E+02  0.11146371403E+02 -0.54408596449E+01  0.38754188372E+02  0.00000000000E+00 0.  1.
</event>
<event>
 7    1  0.2844572E-009  0.6997542E+02  0.7561462E-02  0.1360177E+00
          1   -1    0    0  501    0  0.00000000000E+00  0.00000000000E+00  0.11399214628E+03  0.11399214628E+03  0.00000000000E+00 0.  1.
         -1   -1    0    0    0  501 -0.00000000000E+00 -0.00000000000E+00 -0.15129003227E+03  0.15129003227E+03  0.00000000000E+00 0. -1.
         25    2    1    2    0    0 -0.40692805264E+02 -0.98018108097E+01 -0.82725383095E+02  0.15570882208E+03  0.12509903425E+03 0.  0.
          5    1    3    3  502    0  0.13431029003E+01  0.10934466937E+02  0.30713684610E+02  0.32896341969E+02  0.41800000000E+01 0.  1.
         -5    1    3    3    0  502 -0.42035908164E+02 -0.20736277747E+02 -0.11343906770E+03  0.12281248011E+03  0.41800000000E+01 0.  1.
        -11    1    1    2    0    0  0.46384310527E+02  0.33191953293E+02  0.58897312160E+02  0.81988434588E+02  0.00000000000E+00 0.  1.
         11    1    1    2    0    0 -0.56915052634E+01 -0.23390142483E+02 -0.13469815049E+02  0.27584921877E+02  0.00000000000E+00 0. -1.
</event>
<event>
 7    1  0.2844572E-009  0.7796825E+02  0.7561462E-02  0.1334918E+00
         -2   -1    0    0    0  501 -0.00000000000E+00  0.00000000000E+00  0.18853371406E+03  0.18853371406E+03  0.00000000000E+00 0.  1.
          2   -1    0    0  501    0  0.00000000000E+00 -0.00000000000E+00 -0.10407162174E+03  0.10407162174E+03  0.00000000000E+00 0. -1.
         25    2    1    2    0    0  0.44425702488E+02 -0.54745631674E+02 -0.92744855095E+01  0.14389102452E+03  0.12509150102E+03 0.  0.
          5    1    3    3  502    0  0.29818289168E+02 -0.61629487407E+02  0.48337739684E+02  0.83912654378E+02  0.41800000000E+01 0.  1.
         -5    1    3    3    0  502  0.14607413321E+02  0.68838557334E+01 -0.57612225193E+02  0.59978370146E+02  0.41800000000E+01 0.  1.
        -11    1    1    2    0    0 -0.25099312751E+02  0.27148801945E+02  0.10646233935E+03  0.11269987865E+03  0.00000000000E+00 0.  1.
         11    1    1    2    0    0 -0.19326389737E+02  0.27596829729E+02 -0.12725761519E+02  0.36014432629E+02  0.00000000000E+00 0. -1.
</event>
<event>
 7    1  0.2844572E-009  0.1180511E+03  0.7561462E-02  0.1246347E+00
         -1   -1    0    0    0  501 -0.00000000000E+00  0.00000000000E+00  0.16105453280E+03  0.16105453280E+03  0.00000000000E+00 0.  1.
          1   -1    0    0  501    0  0.00000000000E+00 -0.00000000000E+00 -0.12248277901E+03  0.12248277901E+03  0.00000000000E+00 0. -1.
         25    2    1    2    0    0  0.95157480848E+01  0.51983008636E+02  0.93505480584E+02  0.16486613765E+03  0.12507911815E+03 0.  0.
          5    1    3    3  502    0  0.26663005660E+02  0.87682804874E+02  0.82911765904E+02  0.12365687796E+03  0.41800000000E+01 0.  1.
         -5    1    3    3    0  502 -0.17147257575E+02 -0.35699796237E+02  0.10593714680E+02  0.41209259693E+02  0.41800000000E+01 0.  1.
        -11    1    1    2    0    0 -0.49184587851E+02 -0.18244060797E+02 -0.34179945271E+02  0.62611804759E+02  0.00000000000E+00 0.  1.
         11    1    1    2    0    0  0.39668839767E+02 -0.33738947839E+02 -0.20753781526E+02  0.56059369398E+02  0.00000000000E+00 0. -1.
</event>
<event>
 7    1  0.2844572E-009  0.1309220E+03  0.7561462E-02  0.1226094E+00
          2   -1    0    0  501    0  0.00000000000E+00  0.00000000000E+00  0.71501942737E+03  0.71501942737E+03  0.00000000000E+00 0. -1.
         -2   -1    0    0    0  501 -0.00000000000E+00 -0.00000000000E+00 -0.43287303466E+02  0.43287303466E+02  0.00000000000E+00 0.  1.
         25    2    1    2    0    0 -0.92282943666E+02 -0.37484387701E+02  0.16012346343E+03  0.22629234390E+03  0.12508988909E+03 0.  0.
          5    1    3    3  502    0  0.25640765147E+02 -0.11823383905E+02  0.70053324809E+02  0.75645105335E+02  0.41800000000E+01 0.  1.
         -5    1    3    3    0  502 -0.11792370881E+03 -0.25661003796E+02  0.90070138624E+02  0.15064723857E+03  0.41800000000E+01 0.  1.
        -11    1    1    2    0    0  0.78872379647E+02  0.50663681745E+02  0.50241296150E+03  0.51108359865E+03  0.00000000000E+00 0. -1.
         11    1    1    2    0    0  0.13410564019E+02 -0.13179294043E+02  0.91956989630E+01  0.20930788284E+02  0.00000000000E+00 0.  1.
</event>
<event>
 7    1  0.2844572E-009  0.7912705E+02  0.7561462E-02  0.1331547E+00
          2   -1    0    0  501    0  0.00000000000E+00  0.00000000000E+00  0.23371409809E+03  0.23371409809E+03  0.00000000000E+00 0.  1.
         -2   -1    0    0    0  501 -0.00000000000E+00 -0.00000000000E+00 -0.63855791112E+02  0.63855791112E+02  0.00000000000E+00 0. -1.
         25    2    1    2    0    0  0.48434556175E+02 -0.64249079314E+01  0.57621106972E+02  0.14613337705E+03  0.12509031236E+03 0.  0.
          5    1    3    3  502    0  0.44103245148E+02 -0.26145071015E+02  0.92370101793E+02  0.10572780654E+03  0.41800000000E+01 0. -1.
         -5    1    3    3    0  502  0.43313110273E+01  0.19720163084E+02 -0.34748994822E+02  0.40405570512E+02  0.41800000000E+01 0. -1.
        -11    1    1    2    0    0 -0.52500534626E+02 -0.22403906505E+02  0.30605438624E+02  0.64768310431E+02  0.00000000000E+00 0. -1.
         11    1    1    2    0    0  0.40659784507E+01  0.28828814436E+02  0.81631761379E+02  0.86668201715E+02  0.00000000000E+00 0.  1.
</event>
<event>
 7    1  0.2844572E-009  0.7957932E+02  0.7561462E-02  0.1330250E+00
          3   -1    0    0  501    0  0.00000000000E+00  0.00000000000E+00  0.56279949175E+02  0.56279949175E+02  0.00000000000E+00 0. -1.
         -3   -1    0    0    0  501 -0.00000000000E+00 -0.00000000000E+00 -0.25697995703E+03  0.25697995703E+03  0.00000000000E+00 0.  1.
         25    2    1    2    0    0  0.28363053622E+02  0.41319617853E+02 -0.10304719217E+03  0.16963916606E+03  0.12508776605E+03 0.  0.
          5    1    3    3  502    0 -0.24386278843E+02  0.21478863370E+01 -0.10074704615E+03  0.10376292074E+03  0.41800000000E+01 0. -1.
         -5    1    3    3    0  502  0.52749332465E+02  0.39171731516E+02 -0.23001460221E+01  0.65876245318E+02  0.41800000000E+01 0. -1.
        -11    1    1    2    0    0 -0.37840428678E+02 -0.44571271807E+02 -0.11187001692E+03  0.12622756038E+03  0.00000000000E+00 0.  1.
         11    1    1    2    0    0  0.94773750555E+01  0.32516539540E+01  0.14217201242E+02  0.17393179770E+02  0.00000000000E+00 0. -1.
</event>
<event>
 7    1  0.2844572E-009  0.9561523E+02  0.7561462E-02  0.1289796E+00
         -2   -1    0    0    0  501 -0.00000000000E+00  0.00000000000E+00  0.47473556238E+03  0.47473556238E+03  0.00000000000E+00 0. -1.
          2   -1    0    0  501    0  0.00000000000E+00 -0.00000000000E+00 -0.36243446513E+02  0.36243446513E+02  0.00000000000E+00 0.  1.
         25    2    1    2    0    0  0.95149205760E+01 -0.36160207800E+02  0.12421787590E+03  0.18020821188E+03  0.12508726792E+03 0.  0.
          5    1    3    3  502    0 -0.23686328691E+02  0.15695839630E+02 -0.11639861915E+02  0.30989681088E+02  0.41800000000E+01 0.  1.
         -5    1    3    3    0  502  0.33201249267E+02 -0.51856047430E+02  0.13585773782E+03  0.14921853079E+03  0.41800000000E+01 0.  1.
        -11    1    1    2    0    0  0.31444079451E+02  0.48690560730E+02  0.14485127162E+03  0.15601728022E+03  0.00000000000E+00 0.  1.
         11    1    1    2    0    0 -0.40959000027E+02 -0.12530352929E+02  0.16942296834E+03  0.17475351679E+03  0.00000000000E+00 0. -1.
</event>
<event>
 7    1  0.2844572E-009  0.1597939E+03  0.7561462E-02  0.1188930E+00
          2   -1    0    0  501    0  0.00000000000E+00  0.00000000000E+00  0.74063811228E+03  0.74063811228E+03  0.00000000000E+00 0. -1.
         -2   -1    0    0    0  501 -0.00000000000E+00 -0.00000000000E+00 -0.55577867330E+02  0.55577867330E+02  0.00000000000E+00 0.  1.
         25    2    1    2    0    0 -0.34081074337E+02 -0.13357495502E+03  0.56228624400E+03  0.59229839388E+03  0.12509108271E+03 0.  0.
          5    1    3    3  502    0 -0.70061222961E+02 -0.57578361968E+02  0.39152858192E+03  0.40191534630E+03  0.41800000000E+01 0.  1.
         -5    1    3    3    0  502  0.35980148624E+02 -0.75996593049E+02  0.17075766207E+03  0.19038304758E+03  0.41800000000E+01 0.  1.
        -11    1    1    2    0    0  0.43600478959E+02  0.89857566580E+02  0.35780128117E+02  0.10609242011E+03  0.00000000000E+00 0. -1.
         11    1    1    2    0    0 -0.95194046223E+01  0.43717388436E+02  0.86993872836E+02  0.97825165613E+02  0.00000000000E+00 0.  1.
</event>
<event>
 7    1  0.2844572E-009  0.1084783E+03  0.7561462E-02  0.1263414E+00
         -2   -1    0    0    0  501 -0.00000000000E+00  0.00000000000E+00  0.16007538739E+02  0.16007538739E+02  0.00000000000E+00 0.  1.
          2   -1    0    0  501    0  0.00000000000E+00 -0.00000000000E+00 -0.89322948810E+03  0.89322948810E+03  0.00000000000E+00 0. -1.
         25    2    1    2    0    0  0.52159036291E+02  0.16207099027E+02 -0.59379944209E+03  0.60928552230E+03  0.12509130723E+03 0.  0.
          5    1    3    3  502    0  0.38667669741E+02 -0.44981460658E+02 -0.42581552644E+03  0.42994750312E+03  0.41800000000E+01 0.  1.
         -5    1    3    3    0  502  0.13491366550E+02  0.61188559685E+02 -0.16798391565E+03  0.17933801918E+03  0.41800000000E+01 0.  1.
        -11    1    1    2    0    0 -0.33225133279E+02  0.29996218877E+02 -0.17415573250E+03  0.17981630013E+03  0.00000000000E+00 0.  1.
         11    1    1    2    0    0 -0.18933903012E+02 -0.46203317904E+02 -0.10926677477E+03  0.12013520440E+03  0.00000000000E+00 0. -1.
</event>
<event>
 7    1  0.2844572E-009  0.1592746E+03  0.7561462E-02  0.1189518E+00
          2   -1    0    0  501    0  0.00000000000E+00  0.00000000000E+00  0.11983655725E+04  0.11983655725E+04  0.00000000000E+00 0. -1.
         -2   -1    0    0    0  501 -0.00000000000E+00 -0.00000000000E+00 -0.28040094532E+02  0.28040094532E+02  0.00000000000E+00 0.  1.
         25    2    1    2    0    0  0.14606042792E+03 -0.11467841040E+02  0.54211437641E+03  0.57533042048E+03  0.12510769617E+03 0.  0.
          5    1    3    3  502    0  0.58391993921E+02  0.71102732513E+01  0.41826732146E+03  0.42240407851E+03  0.41800000000E+01 0. -1.
         -5    1    3    3    0  502  0.87668433996E+02 -0.18578114291E+02  0.12384705495E+03  0.15292634197E+03  0.41800000000E+01 0. -1.
        -11    1    1    2    0    0 -0.48796794989E+02 -0.36957873106E+02  0.19119158663E+03  0.20075167342E+03  0.00000000000E+00 0. -1.
         11    1    1    2    0    0 -0.97263632927E+02  0.48425714146E+02  0.43701951493E+03  0.45032357312E+03  0.00000000000E+00 0.  1.
</event>
<event>
 7    1  0.2844572E-009  0.1081616E+03  0.7561462E-02  0.1264013E+00
         -2   -1    0    0    0  501 -0.00000000000E+00  0.00000000000E+00  0.39694540454E+03  0.39694540454E+03  0.00000000000E+00 0.  1.
          2   -1    0    0  501    0  0.00000000000E+00 -0.00000000000E+00 -0.39530528533E+02  0.39530528533E+02  0.00000000000E+00 0. -1.
         25    2    1    2    0    0 -0.21653261337E+02 -0.60866433592E+02  0.19567589319E+03  0.24106428847E+03  0.12509736023E+03 0.  0.
          5    1    3    3  502    0 -0.55773119027E+02 -0.62047009446E+02  0.18814325147E+03  0.20585389882E+03  0.41800000000E+01 0.  1.
         -5    1    3    3    0  502  0.34119857690E+02  0.11805758536E+01  0.75326417217E+01  0.35210389652E+02  0.41800000000E+01 0.  1.
        -11    1    1    2    0    0 -0.27759856969E+02  0.19127082553E+02  0.18990544711E+02  0.38692321388E+02  0.00000000000E+00 0. -1.
         11    1    1    2    0    0  0.49413118306E+02  0.41739351039E+02  0.14274843811E+03  0.15671932322E+03  0.00000000000E+00 0.  1.
</event>
<event>
 7    1  0.2844572E-009  0.1338633E+03  0.7561462E-02  0.1221833E+00
          2   -1    0    0  501    0  0.00000000000E+00  0.00000000000E+00  0.15469566953E+04  0.15469566953E+04  0.00000000000E+00 0. -1.
         -2   -1    0    0    0  501 -0.00000000000E+00 -0.00000000000E+00 -0.15603617733E+02  0.15603617733E+02  0.00000000000E+00 0.  1.
         25    2    1    2    0    0 -0.10848658969E+03  0.60353236452E+01  0.74528810192E+03  0.76348369285E+03  0.12508888483E+03 0.  0.
          5    1    3    3  502    0 -0.92501157166E+02 -0.20369523139E+02  0.25251378372E+03  0.26972590702E+03  0.41800000000E+01 0.  1.
         -5    1    3    3    0  502 -0.15985432523E+02  0.26404846784E+02  0.49277431820E+03  0.49375778582E+03  0.41800000000E+01 0.  1.
        -11    1    1    2    0    0 -0.10649590149E+02  0.17351205418E+02  0.74661775942E+02  0.77387717932E+02  0.00000000000E+00 0.  1.
         11    1    1    2    0    0  0.11913617984E+03 -0.23386529063E+02  0.71140319975E+03  0.72168890230E+03  0.00000000000E+00 0. -1.
</event>
<event>
 7    1  0.2844572E-009  0.8862412E+02  0.7561462E-02  0.1306218E+00
          1   -1    0    0  501    0  0.00000000000E+00  0.00000000000E+00  0.35427352756E+03  0.35427352756E+03  0.00000000000E+00 0. -1.
         -1   -1    0    0    0  501 -0.00000000000E+00 -0.00000000000E+00 -0.60530021103E+02  0.60530021103E+02  0.00000000000E+00 0.  1.
         25    2    1    2    0    0 -0.75941380196E+02 -0.42377351937E+02  0.22483887589E+03  0.27159428262E+03  0.12509197040E+03 0.  0.
          5    1    3    3  502    0 -0.25642235980E+02 -0.16530042753E+02  0.21098532733E+03  0.21322065409E+03  0.41800000000E+01 0. -1.
         -5    1    3    3    0  502 -0.50299144216E+02 -0.25847309185E+02  0.13853548556E+02  0.58373628537E+02  0.41800000000E+01 0. -1.
        -11    1    1    2    0    0  0.60827919818E+02  0.43208747968E+02  0.90214200547E+02  0.11707106265E+03  0.00000000000E+00 0. -1.
         11    1    1    2    0    0  0.15113460377E+02 -0.83139603034E+00 -0.21309569975E+02  0.26138203390E+02  0.00000000000E+00 0.  1.
</event>
<event>
 7    1  0.2844572E-009  0.1699746E+03  0.7561462E-02  0.1177874E+00
          3   -1    0    0  501    0  0.00000000000E+00  0.00000000000E+00  0.63095829023E+03  0.63095829023E+03  0.00000000000E+00 0. -1.
         -3   -1    0    0    0  501 -0.00000000000E+00 -0.00000000000E+00 -0.45843521646E+02  0.45843521646E+02  0.00000000000E+00 0.  1.
         25    2    1    2    0    0 -0.13073502880E+03 -0.12305058776E+02  0.31290743558E+03  0.36166446023E+03  0.12508819419E+03 0.  0.
          5    1    3    3  502    0 -0.64993164695E+02 -0.68586186764E+02  0.15641153039E+03  0.18278461563E+03  0.41800000000E+01 0.  1.
         -5    1    3    3    0  502 -0.65741864102E+02  0.56281127988E+02  0.15649590519E+03  0.17887984460E+03  0.41800000000E+01 0.  1.
        -11    1    1    2    0    0  0.65071383212E+02 -0.38583327834E+02  0.12517538636E+03  0.14625947986E+03  0.00000000000E+00 0.  1.
         11    1    1    2    0    0  0.65663645585E+02  0.50888386610E+02  0.14703194665E+03  0.16887787179E+03  0.00000000000E+00 0. -1.
</event>
<event>
 7    1  0.2844572E-009  0.2464295E+03  0.7561462E-02  0.1115582E+00
         -1   -1    0    0    0  501 -0.00000000000E+00  0.00000000000E+00  0.66078008031E+02  0.66078008031E+02  0.00000000000E+00 0.  1.
          1   -1    0    0  501    0  0.00000000000E+00 -0.00000000000E+00 -0.95360084194E+03  0.95360084194E+03  0.00000000000E+00 0. -1.
         25    2    1    2    0    0  0.21841651823E+03 -0.55494512624E+02 -0.49466598316E+03  0.55778776906E+03  0.12508934428E+03 0.  0.
          5    1    3    3  502    0  0.13138273293E+03  0.22070979610E+02 -0.19486209318E+03  0.23608739571E+03  0.41800000000E+01 0.  1.
         -5    1    3    3    0  502  0.87033785299E+02 -0.77565492235E+02 -0.29980388998E+03  0.32170037335E+03  0.41800000000E+01 0.  1.
        -11    1    1    2    0    0 -0.16695545735E+03  0.80899063042E+02 -0.29984957096E+03  0.35260253593E+03  0.00000000000E+00 0.  1.
         11    1    1    2    0    0 -0.51461060885E+02 -0.25404550417E+02 -0.93007279796E+02  0.10928854498E+03  0.00000000000E+00 0. -1.
</event>
<event>
 7    1  0.3127592E-009  0.2352412E+03  0.7561462E-02  0.1123004E+00
         -1   -1    0    0    0  501 -0.00000000000E+00  0.00000000000E+00  0.31519925703E+02  0.31519925703E+02  0.00000000000E+00 0.  1.
          1   -1    0    0  501    0  0.00000000000E+00 -0.00000000000E+00 -0.19281449933E+04  0.19281449933E+04  0.00000000000E+00 0. -1.
         25    2    1    2    0    0 -0.21621229835E+03  0.33374149491E+02 -0.10987404146E+04  0.11272707324E+04  0.12508882334E+03 0.  0.
          5    1    3    3  502    0 -0.95867029495E+02  0.77041104575E+02 -0.49190415604E+03  0.50706310285E+03  0.41800000000E+01 0.  1.
         -5    1    3    3    0  502 -0.12034526885E+03 -0.43666955084E+02 -0.60683625854E+03  0.62020762957E+03  0.41800000000E+01 0.  1.
        -11    1    1    2    0    0  0.11146606790E+03 -0.25127726355E+02 -0.57155770941E+03  0.58286731089E+03  0.00000000000E+00 0. -1.
         11    1    1    2    0    0  0.10474623044E+03 -0.82464231360E+01 -0.22632694357E+03  0.24952687565E+03  0.00000000000E+00 0.  1.
</event>
<event>
 7    1  0.2844572E-009  0.1079156E+03  0.7561462E-02  0.1264479E+00
          1   -1    0    0  501    0  0.00000000000E+00  0.00000000000E+00  0.19523532476E+03  0.19523532476E+03  0.00000000000E+00 0. -1.
         -1   -1    0    0    0  501 -0.00000000000E+00 -0.00000000000E+00 -0.72177676331E+02  0.72177676331E+02  0.00000000000E+00 0.  1.
         25    2    1    2    0    0  0.14754126575E+02 -0.43800889115E+02  0.71135809929E+02  0.15113512202E+03  0.12508125165E+03 0.  0.
          5    1    3    3  502    0 -0.34921863180E+02 -0.50776428159E+02  0.78900560694E+02  0.10020256016E+03  0.41800000000E+01 0.  1.
         -5    1    3    3    0  502  0.49675989756E+02  0.69755390436E+01 -0.77647507654E+01  0.50932561860E+02  0.41800000000E+01 0.  1.
        -11    1    1    2    0    0 -0.48672936859E+02  0.44002104535E+00  0.28889675575E+02  0.56602665625E+02  0.00000000000E+00 0. -1.
         11    1    1    2    0    0  0.33918810284E+02  0.43360868070E+02  0.23032162925E+02  0.59675213447E+02  0.00000000000E+00 0.  1.
</event>
<event>
 7    1  0.2844572E-009  0.1425481E+03  0.7561462E-02  0.1209941E+00
          3   -1    0    0  501    0  0.00000000000E+00  0.00000000000E+00  0.74208968937E+02  0.74208968937E+02  0.00000000000E+00 0. -1.
         -3   -1    0    0    0  501 -0.00000000000E+00 -0.00000000000E+00 -0.29469740550E+03  0.29469740550E+03  0.00000000000E+00 0.  1.
         25    2    1    2    0    0  0.10078293660E+03  0.57249144645E+01 -0.10926081683E+03  0.19435536701E+03  0.12508440205E+03 0.  0.
          5    1    3    3  502    0  0.11668079282E+03 -0.21909644422E+02 -0.54156408635E+02  0.13055584601E+03  0.41800000000E+01 0. -1.
         -5    1    3    3    0  502 -0.15897856214E+02  0.27634558886E+02 -0.55104408200E+02  0.63799521002E+02  0.41800000000E+01 0. -1.
        -11    1    1    2    0    0 -0.98660688864E+02  0.26258121857E+02 -0.78932657037E+02  0.12904954412E+03  0.00000000000E+00 0. -1.
         11    1    1    2    0    0 -0.21222477376E+01 -0.31983036322E+02 -0.32294962693E+02  0.45501463308E+02  0.00000000000E+00 0.  1.
</event>
<event>
 7    1  0.2844572E-009  0.9890530E+02  0.7561462E-02  0.1282615E+00
         -2   -1    0    0    0  501 -0.00000000000E+00  0.00000000000E+00  0.26001808219E+02  0.26001808219E+02  0.00000000000E+00 0.  1.
          2   -1    0    0  501    0  0.00000000000E+00 -0.00000000000E+00 -0.92370170345E+03  0.92370170345E+03  0.00000000000E+00 0. -1.
         25    2    1    2    0    0 -0.23890289823E+02  0.27957837178E+02 -0.80038020306E+03  0.81093097787E+03  0.12509274484E+03 0.  0.
          5    1    3    3  502    0 -0.66695540179E+02 -0.88960490332E+01 -0.55604887129E+03  0.56012074986E+03  0.41800000000E+01 0. -1.
         -5    1    3    3    0  502  0.42805250356E+02  0.36853886211E+02 -0.24433133177E+03  0.25081022800E+03  0.41800000000E+01 0. -1.
        -11    1    1    2    0    0  0.42910786863E+02 -0.39006675537E+01 -0.73378855631E+01  0.43708070206E+02  0.00000000000E+00 0.  1.
         11    1    1    2    0    0 -0.19020497039E+02 -0.24057169624E+02 -0.89981806615E+02  0.95064463601E+02  0.00000000000E+00 0. -1.
</event>
<event>
 7    1  0.2844572E-009  0.9711802E+02  0.7561462E-02  0.1286476E+00
          2   -1    0    0  501    0  0.00000000000E+00  0.00000000000E+00  0.51445980324E+02  0.51445980324E+02  0.00000000000E+00 0.  1.
         -2   -1    0    0    0  501 -0.00000000000E+00 -0.00000000000E+00 -0.27402732928E+03  0.27402732928E+03  0.00000000000E+00 0. -1.
         25    2    1    2    0    0 -0.11977735502E+02  0.11934331270E+01 -0.60286996317E+02  0.13938002089E+03  0.12508947945E+03 0.  0.
          5    1    3    3  502    0  0.47853400434E+02  0.31237436644E+02 -0.17903207651E+02  0.60031013863E+02  0.41800000000E+01 0.  1.
         -5    1    3    3    0  502 -0.59831135937E+02 -0.30044003517E+02 -0.42383788666E+02  0.79349007029E+02  0.41800000000E+01 0.  1.
        -11    1    1    2    0    0  0.32383780923E+02  0.21857645119E+02 -0.14624767013E+03  0.15137650722E+03  0.00000000000E+00 0. -1.
         11    1    1    2    0    0 -0.20406045420E+02 -0.23051078246E+02 -0.16046682501E+02  0.34716781494E+02  0.00000000000E+00 0.  1.
</event>
<event>
 7    1  0.2844572E-009  0.1350204E+03  0.7561462E-02  0.1220191E+00
          2   -1    0    0  501    0  0.00000000000E+00  0.00000000000E+00  0.41765660962E+02  0.41765660962E+02  0.00000000000E+00 0.  1.
         -2   -1    0    0    0  501 -0.00000000000E+00 -0.00000000000E+00 -0.64351187472E+03  0.64351187472E+03  0.00000000000E+00 0. -1.
         25    2    1    2    0    0  0.11113353739E+03 -0.40591524124E+01 -0.19766181020E+03  0.25900722901E+03  0.12508962234E+03 0.  0.
          5    1    3    3  502    0  0.73646418926E+01 -0.27033541333E+02  0.62606109112E+01  0.29012375914E+02  0.41800000000E+01 0.  1.
         -5    1    3    3    0  502  0.10376889550E+03  0.22974388921E+02 -0.20392242111E+03  0.22999485310E+03  0.41800000000E+01 0.  1.
        -11    1    1    2    0    0 -0.26112154347E+02 -0.33437548081E+02 -0.11228721066E+03  0.12003471124E+03  0.00000000000E+00 0. -1.
         11    1    1    2    0    0 -0.85021383042E+02  0.37496700493E+02 -0.29179719290E+03  0.30623559543E+03  0.00000000000E+00 0.  1.
</event>
<event>
 7    1  0.2844572E-009  0.1779836E+03  0.7561462E-02  0.1169769E+00
          4   -1    0    0  501    0  0.00000000000E+00  0.00000000000E+00  0.43209241027E+02  0.43209241027E+02  0.00000000000E+00 0. -1.
         -4   -1    0    0    0  501 -0.00000000000E+00 -0.00000000000E+00 -0.87557559466E+03  0.87557559466E+03  0.00000000000E+00 0.  1.
         25    2    1    2    0    0 -0.95825235120E+02 -0.11799759156E+03 -0.56458765494E+03  0.59792341692E+03  0.12508910863E+03 0.  0.
          5    1    3    3  502    0 -0.17600512175E+02 -0.10900011023E+03 -0.24517659407E+03  0.26892347748E+03  0.41800000000E+01 0.  1.
         -5    1    3    3    0  502 -0.78224722945E+02 -0.89974813237E+01 -0.31941106086E+03  0.32899993944E+03  0.41800000000E+01 0.  1.
        -11    1    1    2    0    0  0.32153660796E+02  0.92689062534E+02 -0.10221087658E+03  0.14167633362E+03  0.00000000000E+00 0. -1.
         11    1    1    2    0    0  0.63671574325E+02  0.25308529025E+02 -0.16556782212E+03  0.17918508515E+03  0.00000000000E+00 0.  1.
</event>
<event>
 7    1  0.2844572E-009  0.8654988E+02  0.7561462E-02  0.1311428E+00
         -2   -1    0    0    0  501 -0.00000000000E+00  0.00000000000E+00  0.37818715189E+02  0.37818715189E+02  0.00000000000E+00 0. -1.
          2   -1    0    0  501    0  0.00000000000E+00 -0.00000000000E+00 -0.45369525542E+03  0.45369525542E+03  0.00000000000E+00 0.  1.
         25    2    1    2    0    0 -0.28333701296E+02  0.40262974687E+02 -0.31070417432E+03  0.33853913287E+03  0.12509098601E+03 0.  0.
          5    1    3    3  502    0 -0.27636635831E+02 -0.64393404438E+01 -0.28221592413E+03  0.28366978862E+03  0.41800000000E+01 0.  1.
         -5    1    3    3    0  502 -0.69706546538E+00  0.46702315130E+02 -0.28488250195E+02  0.54869344246E+02  0.41800000000E+01 0.  1.
        -11    1    1    2    0    0  0.31483559721E+02  0.19920632233E+02 -0.78854847179E+02  0.87213147202E+02  0.00000000000E+00 0.  1.
         11    1    1    2    0    0 -0.31498584255E+01 -0.60183606920E+02 -0.26317518723E+02  0.65761690533E+02  0.00000000000E+00 0. -1.
</event>
<event>
 7    1  0.2844572E-009  0.1605540E+03  0.7561462E-02  0.1188073E+00
         -1   -1    0    0    0  501 -0.00000000000E+00  0.00000000000E+00  0.18482830527E+02  0.18482830527E+02  0.00000000000E+00 0.  1.
          1   -1    0    0  501    0  0.00000000000E+00 -0.00000000000E+00 -0.20439485725E+04  0.20439485725E+04  0.00000000000E+00 0. -1.
         25    2    1    2    0    0  0.62824148092E+02 -0.11249074742E+03 -0.15982872255E+04  0.16083437967E+04  0.12508665541E+03 0.  0.
          5    1    3    3  502    0 -0.16758659733E+02  0.11766051519E+02 -0.73074992907E+02  0.76004734279E+02  0.41800000000E+01 0.  1.
         -5    1    3    3    0  502  0.79582807825E+02 -0.12425679893E+03 -0.15252122326E+04  0.15323390625E+04  0.41800000000E+01 0.  1.
        -11    1    1    2    0    0 -0.45890542521E+01  0.90075706488E+02 -0.22172996146E+03  0.23937181983E+03  0.00000000000E+00 0.  1.
         11    1    1    2    0    0 -0.58235093840E+02  0.22415040928E+02 -0.20544855503E+03  0.21471578651E+03  0.00000000000E+00 0. -1.
</event>
<event>
 7    1  0.2844572E-009  0.1636200E+03  0.7561462E-02  0.1184669E+00
         -2   -1    0    0    0  501 -0.00000000000E+00  0.00000000000E+00  0.51384369887E+02  0.51384369887E+02  0.00000000000E+00 0.  1.
          2   -1    0    0  501    0  0.00000000000E+00 -0.00000000000E+00 -0.87278953467E+03  0.87278953467E+03  0.00000000000E+00 0. -1.
         25    2    1    2    0    0  0.90953137788E+02  0.10712955563E+03 -0.67310692468E+03  0.69890589777E+03  0.12508919589E+03 0.  0.
          5    1    3    3  502    0  0.74762565787E+02  0.69254145176E+00 -0.36219151390E+03  0.36985143774E+03  0.41800000000E+01 0.  1.
         -5    1    3    3    0  502  0.16190572002E+02  0.10643701418E+03 -0.31091541077E+03  0.32905446003E+03  0.41800000000E+01 0.  1.
        -11    1    1    2    0    0 -0.24981507564E+02 -0.55429509897E+02 -0.12383444712E+03  0.13795461783E+03  0.00000000000E+00 0. -1.
         11    1    1    2    0    0 -0.65971630225E+02 -0.51700045732E+02 -0.24463792986E+02  0.87313388952E+02  0.00000000000E+00 0.  1.
</event>
<event>
 7    1  0.2844572E-009  0.1061310E+03  0.7561462E-02  0.1267907E+00
          1   -1    0    0  501    0  0.00000000000E+00  0.00000000000E+00  0.91585553084E+02  0.91585553084E+02  0.00000000000E+00 0. -1.
         -1   -1    0    0    0  501 -0.00000000000E+00 -0.00000000000E+00 -0.17885149689E+03  0.17885149689E+03  0.00000000000E+00 0.  1.
         25    2    1    2    0    0  0.79137290962E+01  0.55473062821E+02 -0.88661301894E+02  0.16324168335E+03  0.12508850036E+03 0.  0.
          5    1    3    3  502    0 -0.52771848773E+02  0.38134408080E+02 -0.73341200496E+02  0.98160609171E+02  0.41800000000E+01 0.  1.
         -5    1    3    3    0  502  0.60685577869E+02  0.17338654741E+02 -0.15320101398E+02  0.65081074180E+02  0.41800000000E+01 0.  1.
        -11    1    1    2    0    0  0.19106083418E+02  0.30123796052E+01  0.30805713311E+02  0.36374562913E+02  0.00000000000E+00 0. -1.
         11    1    1    2    0    0 -0.27019812514E+02 -0.58485442426E+02 -0.29410355226E+02  0.70820803714E+02  0.00000000000E+00 0.  1.
</event>
<event>
 7    1  0.2844572E-009  0.1508221E+03  0.7561462E-02  0.1199466E+00
          1   -1    0    0  501    0  0.00000000000E+00  0.00000000000E+00  0.36419628663E+03  0.36419628663E+03  0.00000000000E+00 0. -1.
         -1   -1    0    0    0  501 -0.00000000000E+00 -0.00000000000E+00 -0.86092081105E+02  0.86092081105E+02  0.00000000000E+00 0.  1.
         25    2    1    2    0    0 -0.10036917008E+03  0.87921277932E+02  0.88949916708E+02  0.20338092443E+03  0.12509033265E+03 0.  0.
          5    1    3    3  502    0 -0.96216622331E+02  0.51741055283E+02  0.23603719376E+01  0.10935181284E+03  0.41800000000E+01 0. -1.
         -5    1    3    3    0  502 -0.41525477521E+01  0.36180222649E+02  0.86589544770E+02  0.94029111595E+02  0.41800000000E+01 0. -1.
        -11    1    1    2    0    0  0.45658714422E+02  0.69108981785E+01  0.35542783090E+02  0.58273219802E+02  0.00000000000E+00 0.  1.
         11    1    1    2    0    0  0.54710455661E+02 -0.94832176111E+02  0.15361150573E+03  0.18863422350E+03  0.00000000000E+00 0. -1.
</event>
<event>
 7    1  0.2844572E-009  0.7932892E+02  0.7561462E-02  0.1330967E+00
          2   -1    0    0  501    0  0.00000000000E+00  0.00000000000E+00  0.13742618949E+03  0.13742618949E+03  0.00000000000E+00 0. -1.
         -2   -1    0    0    0  501 -0.00000000000E+00 -0.00000000000E+00 -0.10312489423E+03  0.10312489423E+03  0.00000000000E+00 0.  1.
         25    2    1    2    0    0  0.36276639641E+02  0.81711569182E+01  0.52264831139E+01  0.13060331567E+03  0.12508855882E+03 0.  0.
          5    1    3    3  502    0 -0.53874886638E+01  0.15886270138E+02 -0.54543899909E+02  0.57218074332E+02  0.41800000000E+01 0. -1.
         -5    1    3    3    0  502  0.41664128305E+02 -0.77151132194E+01  0.59770383023E+02  0.73385241337E+02  0.41800000000E+01 0. -1.
        -11    1    1    2    0    0 -0.94941632123E+01  0.41385750100E+02  0.32561951231E+02  0.53508878837E+02  0.00000000000E+00 0. -1.
         11    1    1    2    0    0 -0.26782476429E+02 -0.49556907018E+02 -0.34871390816E+01  0.56438889215E+02  0.00000000000E+00 0.  1.
</event>
<event>
 7    1  0.2844572E-009  0.1496612E+03  0.7561462E-02  0.1200890E+00
         -2   -1    0    0    0  501 -0.00000000000E+00  0.00000000000E+00  0.28669803612E+02  0.28669803612E+02  0.00000000000E+00 0.  1.
          2   -1    0    0  501    0  0.00000000000E+00 -0.00000000000E+00 -0.12811668076E+04  0.12811668076E+04  0.00000000000E+00 0. -1.
         25    2    1    2    0    0 -0.12102631536E+03 -0.50321266779E+02 -0.96672453259E+03  0.98355643656E+03  0.12508934042E+03 0.  0.
          5    1    3    3  502    0 -0.79866501163E+02 -0.71959138973E+02 -0.37880748987E+03  0.39378847427E+03  0.41800000000E+01 0.  1.
         -5    1    3    3    0  502 -0.41159814200E+02  0.21637872193E+02 -0.58791704272E+03  0.58976796229E+03  0.41800000000E+01 0.  1.
        -11    1    1    2    0    0  0.70291059845E+02 -0.43994099767E+01 -0.75928883171E+02  0.10356342599E+03  0.00000000000E+00 0.  1.
         11    1    1    2    0    0  0.50735255518E+02  0.54720676756E+02 -0.20984358825E+03  0.22271674869E+03  0.00000000000E+00 0. -1.
</event>
<event>
 7    1  0.2844572E-009  0.1256439E+03  0.7561462E-02  0.1234066E+00
          1   -1    0    0  501    0  0.00000000000E+00  0.00000000000E+00  0.15448681762E+03  0.15448681762E+03  0.00000000000E+00 0.  1.
         -1   -1    0    0    0  501 -0.00000000000E+00 -0.00000000000E+00 -0.13335934161E+03  0.13335934161E+03  0.00000000000E+00 0. -1.
         25    2    1    2    0    0  0.50845887769E+02  0.56168706749E+02  0.78314228293E+02  0.16589415593E+03  0.12509006635E+03 0.  0.
          5    1    3    3  502    0  0.91530142782E+02  0.26847868672E+02  0.57358043797E+02  0.11138219193E+03  0.41800000000E+01 0. -1.
         -5    1    3    3    0  502 -0.40684255013E+02  0.29320838077E+02  0.20956184496E+02  0.54511964009E+02  0.41800000000E+01 0. -1.
        -11    1    1    2    0    0 -0.56676170029E+01 -0.59888153187E+02 -0.44661290768E+02  0.74922250819E+02  0.00000000000E+00 0. -1.
         11    1    1    2    0    0 -0.45178270766E+02  0.37194464383E+01 -0.12525461519E+02  0.47029752471E+02  0.00000000000E+00 0.  1.
</event>
<event>
 7    1  0.2844572E-009  0.1117095E+03  0.7561462E-02  0.1257436E+00
         -1   -1    0    0    0  501 -0.00000000000E+00  0.00000000000E+00  0.44519280171E+02  0.44519280171E+02  0.00000000000E+00 0.  1.
          1   -1    0    0  501    0  0.00000000000E+00 -0.00000000000E+00 -0.43753022240E+03  0.43753022240E+03  0.00000000000E+00 0. -1.
         25    2    1    2    0    0  0.50441420082E+02  0.38919511335E+01 -0.34439333790E+03  0.36988726278E+03  0.12510128631E+03 0.  0.
          5    1    3    3  502    0 -0.22759303437E+02 -0.33910757128E+02 -0.19458448437E+03  0.19886809522E+03  0.41800000000E+01 0. -1.
         -5    1    3    3    0  502  0.73200723518E+02  0.37802708262E+02 -0.14980885353E+03  0.17101916756E+03  0.41800000000E+01 0. -1.
        -11    1    1    2    0    0 -0.47596787654E+02  0.36126567588E+02 -0.20509491174E+02  0.63176121351E+02  0.00000000000E+00 0.  1.
         11    1    1    2    0    0 -0.28446324272E+01 -0.40018518722E+02 -0.28108113152E+02  0.48986118434E+02  0.00000000000E+00 0. -1.
</event>
<event>
 7    1  0.2844572E-009  0.1035471E+03  0.7561462E-02  0.1273009E+00
         -2   -1    0    0    0  501 -0.00000000000E+00  0.00000000000E+00  0.51434123142E+02  0.51434123142E+02  0.00000000000E+00 0.  1.
          2   -1    0    0  501    0  0.00000000000E+00 -0.00000000000E+00 -0.32166514405E+03  0.32166514405E+03  0.00000000000E+00 0. -1.
         25    2    1    2    0    0 -0.60682963611E+02  0.13310023565E+02 -0.19057521895E+03  0.23627475707E+03  0.12508904010E+03 0.  0.
          5    1    3    3  502    0  0.23426186033E+02 -0.15360474315E+02 -0.27608879040E+01  0.28457428999E+02  0.41800000000E+01 0.  1.
         -5    1    3    3    0  502 -0.84109149644E+02  0.28670497880E+02 -0.18781433104E+03  0.20781732808E+03  0.41800000000E+01 0.  1.
        -11    1    1    2    0    0  0.58957849015E+02 -0.34660504394E+02 -0.16807630447E+02  0.70426379763E+02  0.00000000000E+00 0.  1.
         11    1    1    2    0    0  0.17251145960E+01  0.21350480829E+02 -0.62848171508E+02  0.66398130349E+02  0.00000000000E+00 0. -1.
</event>
<event>
 7    1  0.2844572E-009  0.8543902E+02  0.7561462E-02  0.1314288E+00
          2   -1    0    0  501    0  0.00000000000E+00  0.00000000000E+00  0.51562254826E+03  0.51562254826E+03  0.00000000000E+00 0.  1.
         -2   -1    0    0    0  501 -0.00000000000E+00 -0.00000000000E+00 -0.31804359123E+02  0.31804359123E+02  0.00000000000E+00 0. -1.
         25    2    1    2    0    0  0.26089781740E+02  0.54229438679E+02  0.20187164453E+03  0.24499612642E+03  0.12509769128E+03 0.  0.
          5    1    3    3  502    0  0.11307003459E+02  0.33283999594E+01  0.19013695057E+03  0.19054778651E+03  0.41800000000E+01 0.  1.
         -5    1    3    3    0  502  0.14782778281E+02  0.50901038720E+02  0.11734693965E+02  0.54448339910E+02  0.41800000000E+01 0.  1.
        -11    1    1    2    0    0 -0.57606816380E+02 -0.27299633442E+02  0.20924887186E+03  0.21874392712E+03  0.00000000000E+00 0.  1.
         11    1    1    2    0    0  0.31517034640E+02 -0.26929805237E+02  0.72697672747E+02  0.83686853839E+02  0.00000000000E+00 0. -1.
</event>
<event>
 7    1  0.2844572E-009  0.1626842E+03  0.7561462E-02  0.1185699E+00
         -1   -1    0    0    0  501 -0.00000000000E+00  0.00000000000E+00  0.17961016840E+03  0.17961016840E+03  0.00000000000E+00 0.  1.
          1   -1    0    0  501    0  0.00000000000E+00 -0.00000000000E+00 -0.20308709909E+03  0.20308709909E+03  0.00000000000E+00 0. -1.
         25    2    1    2    0    0 -0.49127760860E+02 -0.13530459791E+03 -0.74251215391E+02  0.20464952073E+03  0.12508921713E+03 0.  0.
          5    1    3    3  502    0 -0.54350970306E+02 -0.38604653901E+02 -0.83896076058E+02  0.10723978391E+03  0.41800000000E+01 0. -1.
         -5    1    3    3    0  502  0.52232094461E+01 -0.96699944010E+02  0.96448606669E+01  0.97409736812E+02  0.41800000000E+01 0. -1.
        -11    1    1    2    0    0 -0.18700523164E+02  0.17009622601E+02 -0.11938967533E+02  0.27956676723E+02  0.00000000000E+00 0.  1.
         11    1    1    2    0    0  0.67828284025E+02  0.11829497531E+03  0.62713252234E+02  0.15009107003E+03  0.00000000000E+00 0. -1.
</event>
<event>
 7    1  0.2844572E-009  0.1048843E+03  0.7561462E-02  0.1270348E+00
          2   -1    0    0  501    0  0.00000000000E+00  0.00000000000E+00  0.98802491107E+03  0.98802491107E+03  0.00000000000E+00 0. -1.
         -2   -1    0    0    0  501 -0.00000000000E+00 -0.00000000000E+00 -0.18882122473E+02  0.18882122473E+02  0.00000000000E+00 0.  1.
         25    2    1    2    0    0  0.43533572089E+02  0.47243558477E+02  0.73641071147E+03  0.74971687049E+03  0.12509006440E+03 0.  0.
          5    1    3    3  502    0 -0.26258880240E+02  0.91426634330E+01  0.40720917371E+02  0.49485175534E+02  0.41800000000E+01 0. -1.
         -5    1    3    3    0  502  0.69792452330E+02  0.38100895044E+02  0.69568979410E+03  0.70023169496E+03  0.41800000000E+01 0. -1.
        -11    1    1    2    0    0 -0.56363508926E+02 -0.61110419134E+02  0.21774531988E+03  0.23307585202E+03  0.00000000000E+00 0. -1.
         11    1    1    2    0    0  0.12829936837E+02  0.13866860658E+02  0.14986757242E+02  0.24114311028E+02  0.00000000000E+00 0.  1.
</event>
<event>
 7    1  0.2844572E-009  0.7943536E+02  0.7561462E-02  0.1330661E+00
          1   -1    0    0  501    0  0.00000000000E+00  0.00000000000E+00  0.17232386543E+03  0.17232386543E+03  0.00000000000E+00 0. -1.
         -1   -1    0    0    0  501 -0.00000000000E+00 -0.00000000000E+00 -0.88413857298E+02  0.88413857298E+02  0.00000000000E+00 0.  1.
         25    2    1    2    0    0 -0.86678411101E+01  0.28571987865E+01 -0.15149324762E+02  0.12633217719E+03  0.12508805658E+03 0.  0.
          5    1    3    3  502    0 -0.37869566447E+01  0.57414570257E+02 -0.35512471797E+02  0.67744977464E+02  0.41800000000E+01 0.  1.
         -5    1    3    3    0  502 -0.48808844653E+01 -0.54557371471E+02  0.20363147035E+02  0.58587199729E+02  0.41800000000E+01 0.  1.
        -11    1    1    2    0    0 -0.11003289592E+01  0.20707223073E+02  0.10596791024E+03  0.10797776536E+03  0.00000000000E+00 0. -1.
         11    1    1    2    0    0  0.97681700692E+01 -0.23564421859E+02 -0.69085773461E+01  0.26427780175E+02  0.00000000000E+00 0.  1.
</event>
<event>
 7    1  0.2844572E-009  0.1080520E+03  0.7561462E-02  0.1264220E+00
          2   -1    0    0  501    0  0.00000000000E+00  0.00000000000E+00  0.18553878778E+03  0.18553878778E+03  0.00000000000E+00 0. -1.
         -2   -1    0    0    0  501 -0.00000000000E+00 -0.00000000000E+00 -0.67552230067E+02  0.67552230067E+02  0.00000000000E+00 0.  1.
         25    2    1    2    0    0  0.78759381017E+01 -0.68171557272E+01  0.99540131866E+02  0.16020145203E+03  0.12509102033E+03 0.  0.
          5    1    3    3  502    0 -0.33693198793E+02  0.46487037672E+02  0.40887974228E+02  0.70608605375E+02  0.41800000000E+01 0.  1.
         -5    1    3    3    0  502  0.41569136894E+02 -0.53304193400E+02  0.58652157637E+02  0.89592846654E+02  0.41800000000E+01 0.  1.
        -11    1    1    2    0    0  0.27760103346E+02 -0.29099633140E+02  0.11427992535E+02  0.41809221471E+02  0.00000000000E+00 0. -1.
         11    1    1    2    0    0 -0.35636041448E+02  0.35916788867E+02  0.70184333156E+01  0.51080344349E+02  0.00000000000E+00 0.  1.
</event>
<event>
 7    1  0.2844572E-009  0.6051405E+02  0.7561462E-02  0.1395687E+00
         -1   -1    0    0    0  501 -0.00000000000E+00  0.00000000000E+00  0.25530806504E+03  0.25530806504E+03  0.00000000000E+00 0.  1.
          1   -1    0    0  501    0  0.00000000000E+00 -0.00000000000E+00 -0.78094126521E+02  0.78094126521E+02  0.00000000000E+00 0. -1.
         25    2    1    2    0    0 -0.47132434596E+02  0.23552724814E+02  0.11136553931E+02  0.13619361874E+03  0.12509389159E+03 0.  0.
          5    1    3    3  502    0 -0.39246285566E+02  0.29734484684E+02 -0.52231142695E+02  0.71902539437E+02  0.41800000000E+01 0. -1.
         -5    1    3    3    0  502 -0.78861490300E+01 -0.61817598708E+01  0.63367696627E+02  0.64291079299E+02  0.41800000000E+01 0. -1.
        -11    1    1    2    0    0  0.42142969766E+02 -0.60737846146E+01  0.17269334060E+03  0.17786486626E+03  0.00000000000E+00 0.  1.
         11    1    1    2    0    0  0.49894648301E+01 -0.17478940199E+02 -0.66159560155E+01  0.19343706567E+02  0.00000000000E+00 0. -1.
</event>
<event>
 7    1  0.2844572E-009  0.1261551E+03  0.7561462E-02  0.1233275E+00
          1   -1    0    0  501    0  0.00000000000E+00  0.00000000000E+00  0.63178144502E+02  0.63178144502E+02  0.00000000000E+00 0. -1.
         -1   -1    0    0    0  501 -0.00000000000E+00 -0.00000000000E+00 -0.34158218682E+03  0.34158218682E+03  0.00000000000E+00 0.  1.
         25    2    1    2    0    0  0.35396954908E+01  0.99079088954E+02 -0.19134161312E+03  0.24917528652E+03  0.12509002833E+03 0.  0.
          5    1    3    3  502    0  0.47513004525E+02  0.34891669477E+01 -0.29818015104E+02  0.56358196473E+02  0.41800000000E+01 0.  1.
         -5    1    3    3    0  502 -0.43973309034E+02  0.95589922006E+02 -0.16152359802E+03  0.19281709004E+03  0.41800000000E+01 0.  1.
        -11    1    1    2    0    0 -0.40508781850E+01 -0.88110156996E+02 -0.10339417624E+03  0.13590498541E+03  0.00000000000E+00 0.  1.
         11    1    1    2    0    0  0.51118269420E+00 -0.10968931958E+02  0.16331747045E+02  0.19680059390E+02  0.00000000000E+00 0. -1.
</event>
<event>
 7    1  0.2979193E-009  0.8938166E+02  0.7561462E-02  0.1304356E+00
         -1   -1    0    0    0  501 -0.00000000000E+00  0.00000000000E+00  0.10071989024E+03  0.10071989024E+03  0.00000000000E+00 0.  1.
          1   -1    0    0  501    0  0.00000000000E+00 -0.00000000000E+00 -0.15978451635E+03  0.15978451635E+03  0.00000000000E+00 0. -1.
         25    2    1    2    0    0  0.30977623087E+02  0.25196927584E+02 -0.87613556252E+02  0.15785348279E+03  0.12508832278E+03 0.  0.
          5    1    3    3  502    0  0.56017625551E+02  0.63748240662E+02 -0.60699714935E+02  0.10442097659E+03  0.41800000000E+01 0.  1.
         -5    1    3    3    0  502 -0.25040002464E+02 -0.38551313078E+02 -0.26913841318E+02  0.53432506191E+02  0.41800000000E+01 0.  1.
        -11    1    1    2    0    0 -0.32521373476E+02 -0.12490020907E+02 -0.27985257476E+02  0.44685735878E+02  0.00000000000E+00 0. -1.
         11    1    1    2    0    0  0.15437503890E+01 -0.12706906678E+02  0.56534187616E+02  0.57965187932E+02  0.00000000000E+00 0.  1.
</event>
<event>
 7    1  0.2844572E-009  0.9263094E+02  0.7561462E-02  0.1296603E+00
          1   -1    0    0  501    0  0.00000000000E+00  0.00000000000E+00  0.45274195998E+03  0.45274195998E+03  0.00000000000E+00 0. -1.
         -1   -1    0    0    0  501 -0.00000000000E+00 -0.00000000000E+00 -0.35919510576E+02  0.35919510576E+02  0.00000000000E+00 0.  1.
         25    2    1    2    0    0  0.40165847678E+02  0.36711037421E+02  0.15984429697E+03  0.21013834688E+03  0.12508768912E+03 0.  0.
          5    1    3    3  502    0  0.42982055758E+01  0.41453513958E+02  0.16772438966E+03  0.17287513319E+03  0.41800000000E+01 0.  1.
         -5    1    3    3    0  502  0.35867642103E+02 -0.47424765370E+01 -0.78800926864E+01  0.37263213689E+02  0.41800000000E+01 0.  1.
        -11    1    1    2    0    0 -0.69887579019E+02 -0.31994118535E+02  0.17266416740E+03  0.18899950271E+03  0.00000000000E+00 0.  1.
         11    1    1    2    0    0  0.29721731341E+02 -0.47169188856E+01  0.84313985028E+02  0.89523620955E+02  0.00000000000E+00 0. -1.
</event>
<event>
 7    1  0.2844572E-009  0.1422819E+03  0.7561462E-02  0.1210291E+00
         -2   -1    0    0    0  501 -0.00000000000E+00  0.00000000000E+00  0.22014569508E+02  0.22014569508E+02  0.00000000000E+00 0.  1.
          2   -1    0    0  501    0  0.00000000000E+00 -0.00000000000E+00 -0.12769926702E+04  0.12769926702E+04  0.00000000000E+00 0. -1.
         25    2    1    2    0    0  0.15331316129E+02  0.11750551020E+03 -0.82957486560E+03  0.84728053958E+03  0.12508901204E+03 0.  0.
          5    1    3    3  502    0 -0.25641061106E+02  0.69154135505E+02 -0.68988822929E+03  0.69383211210E+03  0.41800000000E+01 0. -1.
         -5    1    3    3    0  502  0.40972377234E+02  0.48351374699E+02 -0.13968663631E+03  0.15344842747E+03  0.41800000000E+01 0. -1.
        -11    1    1    2    0    0  0.10155763626E+02  0.11693251426E+02 -0.18958134002E+02  0.24480247315E+02  0.00000000000E+00 0.  1.
         11    1    1    2    0    0 -0.25487079755E+02 -0.12919876163E+03 -0.40644510107E+03  0.42724645280E+03  0.00000000000E+00 0. -1.
</event>
<event>
 7    1  0.2844572E-009  0.1778353E+03  0.7561462E-02  0.1169915E+00
         -1   -1    0    0    0  501 -0.00000000000E+00  0.00000000000E+00  0.43517403763E+02  0.43517403763E+02  0.00000000000E+00 0.  1.
          1   -1    0    0  501    0  0.00000000000E+00 -0.00000000000E+00 -0.96221267419E+03  0.96221267419E+03  0.00000000000E+00 0. -1.
         25    2    1    2    0    0 -0.11624625827E+03  0.10337041391E+03 -0.29308618196E+03  0.35460635503E+03  0.12509005531E+03 0.  0.
          5    1    3    3  502    0 -0.12460890428E+03  0.11177436742E+03 -0.29741381342E+03  0.34131120264E+03  0.41800000000E+01 0.  1.
         -5    1    3    3    0  502  0.83626460130E+01 -0.84039535083E+01  0.43276314596E+01  0.13295152386E+02  0.41800000000E+01 0.  1.
        -11    1    1    2    0    0  0.78986185932E+02 -0.11233994579E+03 -0.41721891272E+03  0.43923877574E+03  0.00000000000E+00 0. -1.
         11    1    1    2    0    0  0.37260072336E+02  0.89695318748E+01 -0.20839017576E+03  0.21188494719E+03  0.00000000000E+00 0.  1.
</event>
<event>
 7    1  0.2844572E-009  0.1165253E+03  0.7561462E-02  0.1248942E+00
          2   -1    0    0  501    0  0.00000000000E+00  0.00000000000E+00  0.17207874498E+03  0.17207874498E+03  0.00000000000E+00 0.  1.
         -2   -1    0    0    0  501 -0.00000000000E+00 -0.00000000000E+00 -0.18213790414E+03  0.18213790414E+03  0.00000000000E+00 0. -1.
         25    2    1    2    0    0  0.77884922936E+02  0.15939681357E+02 -0.11991288189E+03  0.19065454579E+03  0.12509964799E+03 0.  0.
          5    1    3    3  502    0  0.82731607113E+02 -0.25917771105E+02 -0.30988143162E+02  0.92162829227E+02  0.41800000000E+01 0. -1.
         -5    1    3    3    0  502 -0.48466841771E+01  0.41857452462E+02 -0.88924738731E+02  0.98491716567E+02  0.41800000000E+01 0. -1.
        -11    1    1    2    0    0 -0.55958844959E+02  0.21968892728E+02  0.10296594733E+03  0.11923091414E+03  0.00000000000E+00 0.  1.
         11    1    1    2    0    0 -0.21926077977E+02 -0.37908574085E+02  0.68877754086E+01  0.44331189187E+02  0.00000000000E+00 0. -1.
</event>
<event>
 7    1  0.3530703E-009  0.1191095E+03  0.7561462E-02  0.1244573E+00
          1   -1    0    0  501    0  0.00000000000E+00  0.00000000000E+00  0.16189598327E+04  0.16189598327E+04  0.00000000000E+00 0. -1.
         -1   -1    0    0    0  501 -0.00000000000E+00 -0.00000000000E+00 -0.11902983198E+02  0.11902983198E+02  0.00000000000E+00 0.  1.
         25    2    1    2    0    0 -0.66436585055E+02 -0.42743430547E+01  0.12020882809E+04  0.12104135257E+04  0.12511026471E+03 0.  0.
          5    1    3    3  502    0 -0.83954632482E+02 -0.36572054246E+02  0.57739607589E+03  0.58462774166E+03  0.41800000000E+01 0. -1.
         -5    1    3    3    0  502  0.17518047427E+02  0.32297711191E+02  0.62469220499E+03  0.62578578404E+03  0.41800000000E+01 0. -1.
        -11    1    1    2    0    0  0.67412918984E+02  0.36952713960E+02  0.32677864401E+03  0.33569969749E+03  0.00000000000E+00 0.  1.
         11    1    1    2    0    0 -0.97633392840E+00 -0.32678370906E+02  0.78189924649E+02  0.84749592740E+02  0.00000000000E+00 0. -1.
</event>
<event>
 7    1  0.2844572E-009  0.9750959E+02  0.7561462E-02  0.1285622E+00
         -3   -1    0    0    0  501 -0.00000000000E+00  0.00000000000E+00  0.42405798020E+03  0.42405798020E+03  0.00000000000E+00 0.  1.
          3   -1    0    0  501    0  0.00000000000E+00 -0.00000000000E+00 -0.35074877276E+02  0.35074877276E+02  0.00000000000E+00 0. -1.
         25    2    1    2    0    0 -0.32406136831E+01 -0.42474919987E+02  0.29036089650E+03  0.31901715024E+03  0.12509145264E+03 0.  0.
          5    1    3    3  502    0 -0.32578234046E+02  0.35624826566E+02  0.99187780751E+02  0.11039093193E+03  0.41800000000E+01 0. -1.
         -5    1    3    3    0  502  0.29337620363E+02 -0.78099746553E+02  0.19117311575E+03  0.20862621831E+03  0.41800000000E+01 0. -1.
        -11    1    1    2    0    0  0.46596977477E+01  0.52600364147E+02  0.11167769063E+03  0.12353306309E+03  0.00000000000E+00 0.  1.
         11    1    1    2    0    0 -0.14190840646E+01 -0.10125444160E+02 -0.13055484210E+02  0.16582644149E+02  0.00000000000E+00 0. -1.
</event>
<event>
 7    1  0.2844572E-009  0.7588992E+02  0.7561462E-02  0.1341137E+00
         -1   -1    0    0    0  501 -0.00000000000E+00  0.00000000000E+00  0.15489228460E+02  0.15489228460E+02  0.00000000000E+00 0.  1.
          1   -1    0    0  501    0  0.00000000000E+00 -0.00000000000E+00 -0.13556016015E+04  0.13556016015E+04  0.00000000000E+00 0. -1.
         25    2    1    2    0    0  0.38849438339E+02 -0.47001499934E+02 -0.10655227697E+04  0.10745719307E+04  0.12509053410E+03 0.  0.
          5    1    3    3  502    0 -0.81864170542E+01 -0.26539087945E+02 -0.91618183598E+03  0.91661222423E+03  0.41800000000E+01 0.  1.
         -5    1    3    3    0  502  0.47035855393E+02 -0.20462411989E+02 -0.14934093368E+03  0.15795970647E+03  0.41800000000E+01 0.  1.
        -11    1    1    2    0    0 -0.42553359425E+02  0.23844485859E+02 -0.26765533855E+03  0.27206383104E+03  0.00000000000E+00 0. -1.
         11    1    1    2    0    0  0.37039210855E+01  0.23157014076E+02 -0.69342648026E+01  0.24455068200E+02  0.00000000000E+00 0.  1.
</event>
<event>
 7    1  0.2844572E-009  0.1162976E+03  0.7561462E-02  0.1249333E+00
         -2   -1    0    0    0  501 -0.00000000000E+00  0.00000000000E+00  0.30159690392E+02  0.30159690392E+02  0.00000000000E+00 0.  1.
          2   -1    0    0  501    0  0.00000000000E+00 -0.00000000000E+00 -0.57582317441E+03  0.57582317441E+03  0.00000000000E+00 0. -1.
         25    2    1    2    0    0  0.59585454951E+02 -0.47448754485E+02 -0.31047922245E+03  0.34328744116E+03  0.12508840450E+03 0.  0.
          5    1    3    3  502    0  0.96820643558E+02 -0.42185872489E+02 -0.25597001289E+03  0.27693321353E+03  0.41800000000E+01 0.  1.
         -5    1    3    3    0  502 -0.37235188607E+02 -0.52628819968E+01 -0.54509209563E+02  0.66354227632E+02  0.41800000000E+01 0.  1.
        -11    1    1    2    0    0  0.67694302682E+01  0.12138640243E+02  0.18571309135E+01  0.14022150632E+02  0.00000000000E+00 0. -1.
         11    1    1    2    0    0 -0.66354885220E+02  0.35310114242E+02 -0.23704139248E+03  0.24867327301E+03  0.00000000000E+00 0.  1.
</event>
<event>
 7    1  0.2844572E-009  0.1423235E+03  0.7561462E-02  0.1210236E+00
          2   -1    0    0  501    0  0.00000000000E+00  0.00000000000E+00  0.41862941110E+03  0.41862941110E+03  0.00000000000E+00 0. -1.
         -2   -1    0    0    0  501 -0.00000000000E+00 -0.00000000000E+00 -0.67037919282E+02  0.67037919282E+02  0.00000000000E+00 0.  1.
         25    2    1    2    0    0  0.14945786784E+02 -0.10298601709E+03  0.29395268253E+03  0.33598250659E+03  0.12508624588E+03 0.  0.
          5    1    3    3  502    0  0.66370624532E+02 -0.32758480465E+02  0.11310681286E+03  0.13523609488E+03  0.41800000000E+01 0. -1.
         -5    1    3    3    0  502 -0.51424837747E+02 -0.70227536623E+02  0.18084586967E+03  0.20074641171E+03  0.41800000000E+01 0. -1.
        -11    1    1    2    0    0  0.25013956057E+02  0.23100128910E+02 -0.12338308913E+02  0.36215298150E+02  0.00000000000E+00 0.  1.
         11    1    1    2    0    0 -0.39959742841E+02  0.79885888178E+02  0.69977118203E+02  0.11346952564E+03  0.00000000000E+00 0. -1.
</event>
<event>
 7    1  0.2844572E-009  0.1224058E+03  0.7561462E-02  0.1239180E+00
         -2   -1    0    0    0  501 -0.00000000000E+00  0.00000000000E+00  0.13948493878E+03  0.13948493878E+03  0.00000000000E+00 0.  1.
          2   -1    0    0  501    0  0.00000000000E+00 -0.00000000000E+00 -0.14307771050E+03  0.14307771050E+03  0.00000000000E+00 0. -1.
         25    2    1    2    0    0  0.60899678201E+02  0.46473733692E+01  0.64347703541E+02  0.15334916510E+03  0.12507985690E+03 0.  0.
          5    1    3    3  502    0  0.93151723446E+02  0.29965927393E+02  0.43648477156E+02  0.10722808561E+03  0.41800000000E+01 0.  1.
         -5    1    3    3    0  502 -0.32252045245E+02 -0.25318554024E+02  0.20699226384E+02  0.46121079489E+02  0.41800000000E+01 0.  1.
        -11    1    1    2    0    0 -0.83162286767E+02 -0.57789476527E+01 -0.66917603829E+02  0.10689868043E+03  0.00000000000E+00 0. -1.
         11    1    1    2    0    0  0.22262608566E+02  0.11315742835E+01 -0.10228714280E+01  0.22314803752E+02  0.00000000000E+00 0.  1.
</event>
<event>
 7    1  0.2844572E-009  0.1013755E+03  0.7561462E-02  0.1277430E+00
          1   -1    0    0  501    0  0.00000000000E+00  0.00000000000E+00  0.83195691093E+02  0.83195691093E+02  0.00000000000E+00 0. -1.
         -1   -1    0    0    0  501 -0.00000000000E+00 -0.00000000000E+00 -0.15693858056E+03  0.15693858056E+03  0.00000000000E+00 0.  1.
         25    2    1    2    0    0 -0.10076672299E+02 -0.27909379351E+02 -0.36653172570E+02  0.13367435090E+03  0.12507959165E+03 0.  0.
          5    1    3    3  502    0 -0.53734029019E+02  0.16831013652E+02 -0.42615642312E+02  0.70740329833E+02  0.41800000000E+01 0.  1.
         -5    1    3    3    0  502  0.43657356720E+02 -0.44740393002E+02  0.59624697418E+01  0.62934021064E+02  0.41800000000E+01 0.  1.
        -11    1    1    2    0    0  0.43358067902E+02  0.25425133132E+02  0.74412609246E+01  0.50810745036E+02  0.00000000000E+00 0.  1.
         11    1    1    2    0    0 -0.33281395604E+02  0.24842462191E+01 -0.44530977817E+02  0.55649175716E+02  0.00000000000E+00 0. -1.
</event>
<event>
 7    1  0.2844572E-009  0.1439356E+03  0.7561462E-02  0.1208129E+00
         -2   -1    0    0    0  501 -0.00000000000E+00  0.00000000000E+00  0.41941262086E+03  0.41941262086E+03  0.00000000000E+00 0.  1.
          2   -1    0    0  501    0  0.00000000000E+00 -0.00000000000E+00 -0.67140305018E+02  0.67140305018E+02  0.00000000000E+00 0. -1.
         25    2    1    2    0    0 -0.96471085601E+02  0.58521924007E+02  0.10061710329E+03  0.19622177418E+03  0.12509075601E+03 0.  0.
          5    1    3    3  502    0 -0.87796228680E+02  0.82349072676E+02  0.34504674143E+02  0.12529003344E+03  0.41800000000E+01 0.  1.
         -5    1    3    3    0  502 -0.86748569207E+01 -0.23827148669E+02  0.66112429150E+02  0.70931740740E+02  0.41800000000E+01 0.  1.
        -11    1    1    2    0    0 -0.18553952116E+01 -0.41976889735E+02  0.10395617106E+03  0.11212665724E+03  0.00000000000E+00 0.  1.
         11    1    1    2    0    0  0.98326480812E+02 -0.16545034272E+02  0.14769904149E+03  0.17820449446E+03  0.00000000000E+00 0. -1.
</event>
<event>
 7    1  0.2844572E-009  0.1192490E+03  0.7561462E-02  0.1244341E+00
         -2   -1    0    0    0  501 -0.00000000000E+00  0.00000000000E+00  0.19346769343E+02  0.19346769343E+02  0.00000000000E+00 0.  1.
          2   -1    0    0  501    0  0.00000000000E+00 -0.00000000000E+00 -0.13432928827E+04  0.13432928827E+04  0.00000000000E+00 0. -1.
         25    2    1    2    0    0  0.93580558916E+02 -0.27240149517E+02 -0.98325873336E+03  0.99596392485E+03  0.12508819340E+03 0.  0.
          5    1    3    3  502    0  0.47610284070E+02 -0.30447200417E+02 -0.13457086988E+03  0.14601562445E+03  0.41800000000E+01 0.  1.
         -5    1    3    3    0  502  0.45970274846E+02  0.32070509006E+01 -0.84868786348E+03  0.84994830040E+03  0.41800000000E+01 0.  1.
        -11    1    1    2    0    0 -0.10555386930E+03 -0.27211046226E+00 -0.26820675447E+03  0.28823004096E+03  0.00000000000E+00 0. -1.
         11    1    1    2    0    0  0.11973310385E+02  0.27512259979E+02 -0.72480625497E+02  0.78445686199E+02  0.00000000000E+00 0.  1.
</event>
<event>
 7    1  0.2844572E-009  0.7562581E+02  0.7561462E-02  0.1341944E+00
          1   -1    0    0  501    0  0.00000000000E+00  0.00000000000E+00  0.35208420855E+03  0.35208420855E+03  0.00000000000E+00 0. -1.
         -1   -1    0    0    0  501 -0.00000000000E+00 -0.00000000000E+00 -0.85836107977E+02  0.85836107977E+02  0.00000000000E+00 0.  1.
         25    2    1    2    0    0  0.30685281580E+02 -0.48840794409E+02  0.29510524274E+03  0.32567063105E+03  0.12508895209E+03 0.  0.
          5    1    3    3  502    0  0.24031594712E+01  0.26141163265E+01 -0.11884162287E+02  0.13088716242E+02  0.41800000000E+01 0.  1.
         -5    1    3    3    0  502  0.28282122108E+02 -0.51454910735E+02  0.30698940503E+03  0.31258191481E+03  0.41800000000E+01 0.  1.
        -11    1    1    2    0    0 -0.33322020619E+02 -0.43874132036E+01 -0.45364391851E+02  0.56458254497E+02  0.00000000000E+00 0.  1.
         11    1    1    2    0    0  0.26367390395E+01  0.53228207612E+02  0.16507249688E+02  0.55791430979E+02  0.00000000000E+00 0. -1.
</event>
<event>
 7    1  0.2844572E-009  0.1320499E+03  0.7561462E-02  0.1224445E+00
         -1   -1    0    0    0  501 -0.00000000000E+00  0.00000000000E+00  0.54447609597E+02  0.54447609597E+02  0.00000000000E+00 0.  1.
          1   -1    0    0  501    0  0.00000000000E+00 -0.00000000000E+00 -0.41312170925E+03  0.41312170925E+03  0.00000000000E+00 0. -1.
         25    2    1    2    0    0  0.44114107676E+02  0.88293290940E+02 -0.14874533017E+03  0.21797894078E+03  0.12509150912E+03 0.  0.
          5    1    3    3  502    0  0.36496931820E+02  0.10745531007E+03 -0.15834130305E+03  0.19485407449E+03  0.41800000000E+01 0.  1.
         -5    1    3    3    0  502  0.76171758556E+01 -0.19162019132E+02  0.95959728782E+01  0.23124866285E+02  0.41800000000E+01 0.  1.
        -11    1    1    2    0    0 -0.69322187097E+02 -0.60918927951E+02 -0.11384187527E+03  0.14654915207E+03  0.00000000000E+00 0.  1.
         11    1    1    2    0    0  0.25208079421E+02 -0.27374362989E+02 -0.96086894211E+02  0.10304122600E+03  0.00000000000E+00 0. -1.
</event>
<event>
 7    1  0.2844572E-009  0.1149382E+03  0.7561462E-02  0.1251689E+00
         -1   -1    0    0    0  501 -0.00000000000E+00  0.00000000000E+00  0.37453262610E+02  0.37453262610E+02  0.00000000000E+00 0.  1.
          1   -1    0    0  501    0  0.00000000000E+00 -0.00000000000E+00 -0.44367352411E+03  0.44367352411E+03  0.00000000000E+00 0. -1.
         25    2    1    2    0    0 -0.40801363503E+02  0.25628353621E+02 -0.32236441104E+03  0.34912533009E+03  0.12509244115E+03 0.  0.
          5    1    3    3  502    0 -0.40749646890E+02 -0.43700775796E+02 -0.10440105152E+03  0.12036338100E+03  0.41800000000E+01 0. -1.
         -5    1    3    3    0  502 -0.51716613495E-01  0.69329129417E+02 -0.21796335951E+03  0.22876194909E+03  0.41800000000E+01 0. -1.
        -11    1    1    2    0    0  0.22026334951E+02 -0.58587825943E+02 -0.41274648562E+02  0.74975258545E+02  0.00000000000E+00 0.  1.
         11    1    1    2    0    0  0.18775028552E+02  0.32959472322E+02 -0.42581201904E+02  0.57026198089E+02  0.00000000000E+00 0. -1.
</event>
<event>
 7    1  0.2844572E-009  0.1426014E+03  0.7561462E-02  0.1209871E+00
         -1   -1    0    0    0  501 -0.00000000000E+00  0.00000000000E+00  0.16454385219E+03  0.16454385219E+03  0.00000000000E+00 0.  1.
          1   -1    0    0  501    0  0.00000000000E+00 -0.00000000000E+00 -0.13358109542E+03  0.13358109542E+03  0.00000000000E+00 0. -1.
         25    2    1    2    0    0 -0.69582683030E+02  0.69879744088E+02  0.64864662702E+00  0.15928720082E+03  0.12508822163E+03 0.  0.
          5    1    3    3  502    0 -0.25772651549E+02  0.10107485196E+03 -0.78096431162E+01  0.10468437416E+03  0.41800000000E+01 0.  1.
         -5    1    3    3    0  502 -0.43810031480E+02 -0.31195107876E+02  0.84582897432E+01  0.54602826658E+02  0.41800000000E+01 0.  1.
        -11    1    1    2    0    0  0.52885737307E+02  0.21474399428E+01 -0.11116354544E+02  0.54084064632E+02  0.00000000000E+00 0.  1.
         11    1    1    2    0    0  0.16696945723E+02 -0.72027184030E+02  0.41430464691E+02  0.84753682164E+02  0.00000000000E+00 0. -1.
</event>
<event>
 7    1  0.2844572E-009  0.1415620E+03  0.7561462E-02  0.1211242E+00
          2   -1    0    0  501    0  0.00000000000E+00  0.00000000000E+00  0.44346619428E+02  0.44346619428E+02  0.00000000000E+00 0. -1.
         -2   -1    0    0    0  501 -0.00000000000E+00 -0.00000000000E+00 -0.58639095852E+03  0.58639095852E+03  0.00000000000E+00 0.  1.
         25    2    1    2    0    0 -0.10382737888E+03  0.21142524633E+02 -0.18520660034E+03  0.24734180300E+03  0.12509736908E+03 0.  0.
          5    1    3    3  502    0 -0.27701631642E+02 -0.48806509498E+02 -0.39999319432E+02  0.69042550069E+02  0.41800000000E+01 0.  1.
         -5    1    3    3    0  502 -0.76125747241E+02  0.69949034131E+02 -0.14520728090E+03  0.17829925293E+03  0.41800000000E+01 0.  1.
        -11    1    1    2    0    0  0.34561320577E+02  0.22752211910E+02 -0.45771988832E+02  0.61702698389E+02  0.00000000000E+00 0.  1.
         11    1    1    2    0    0  0.69266058306E+02 -0.43894736543E+02 -0.31106574992E+03  0.32169307655E+03  0.00000000000E+00 0. -1.
</event>
<event>
 7    1  0.2844572E-009  0.1461144E+03  0.7561462E-02  0.1205331E+00
         -1   -1    0    0    0  501 -0.00000000000E+00  0.00000000000E+00  0.77074897529E+02  0.77074897529E+02  0.00000000000E+00 0.  1.
          1   -1    0    0  501    0  0.00000000000E+00 -0.00000000000E+00 -0.40608680468E+03  0.40608680468E+03  0.00000000000E+00 0. -1.
         25    2    1    2    0    0  0.98119616652E+02 -0.69439859781E+02 -0.74919905054E+02  0.18896951322E+03  0.12508849450E+03 0.  0.
          5    1    3    3  502    0  0.89346978707E+02  0.95155221793E+01 -0.59747125678E+02  0.10798434698E+03  0.41800000000E+01 0.  1.
         -5    1    3    3    0  502  0.87726379444E+01 -0.78955381960E+02 -0.15172779376E+02  0.80985166240E+02  0.41800000000E+01 0.  1.
        -11    1    1    2    0    0 -0.23694832364E+02  0.30832494633E+02 -0.16501250503E+02  0.42241911346E+02  0.00000000000E+00 0.  1.
         11    1    1    2    0    0 -0.74424784288E+02  0.38607365148E+02 -0.23759075160E+03  0.25195027764E+03  0.00000000000E+00 0. -1.
</event>
<event>
 7    1  0.2844572E-009  0.1495271E+03  0.7561462E-02  0.1201055E+00
          2   -1    0    0  501    0  0.00000000000E+00  0.00000000000E+00  0.41947027485E+03  0.41947027485E+03  0.00000000000E+00 0. -1.
         -2   -1    0    0    0  501 -0.00000000000E+00 -0.00000000000E+00 -0.11161618841E+03  0.11161618841E+03  0.00000000000E+00 0.  1.
         25    2    1    2    0    0 -0.82758757259E+02  0.62900681186E+02  0.35071072018E+03  0.38658430409E+03  0.12507560643E+03 0.  0.
          5    1    3    3  502    0 -0.11538274635E+03  0.40647051191E+02  0.27749009851E+03  0.30328796234E+03  0.41800000000E+01 0.  1.
         -5    1    3    3    0  502  0.32623989091E+02  0.22253629995E+02  0.73220621663E+02  0.83296341750E+02  0.41800000000E+01 0.  1.
        -11    1    1    2    0    0  0.21479075118E+02  0.22967596313E+02 -0.24679928285E+01  0.31542861901E+02  0.00000000000E+00 0. -1.
         11    1    1    2    0    0  0.61279682141E+02 -0.85868277498E+02 -0.40388640911E+02  0.11295929726E+03  0.00000000000E+00 0.  1.
</event>
<event>
 7    1  0.2844572E-009  0.1277014E+03  0.7561462E-02  0.1230907E+00
         -1   -1    0    0    0  501 -0.00000000000E+00  0.00000000000E+00  0.78447953738E+02  0.78447953738E+02  0.00000000000E+00 0.  1.
          1   -1    0    0  501    0  0.00000000000E+00 -0.00000000000E+00 -0.35869262570E+03  0.35869262570E+03  0.00000000000E+00 0. -1.
         25    2    1    2    0    0 -0.11428568143E+03  0.49222908316E+01 -0.74820521819E+02  0.18528576207E+03  0.12508899717E+03 0.  0.
          5    1    3    3  502    0 -0.28919173810E+02  0.28860152412E+02  0.27809564083E+02  0.49599105492E+02  0.41800000000E+01 0. -1.
         -5    1    3    3    0  502 -0.85366507624E+02 -0.23937861581E+02 -0.10263008590E+03  0.13568665658E+03  0.41800000000E+01 0. -1.
        -11    1    1    2    0    0  0.80554294659E+02 -0.27347838400E+02 -0.68971224924E+02  0.10951679561E+03  0.00000000000E+00 0.  1.
         11    1    1    2    0    0  0.33731386775E+02  0.22425547569E+02 -0.13645292521E+03  0.14233802175E+03  0.00000000000E+00 0. -1.
</event>
<event>
 7    1  0.2844572E-009  0.9719036E+02  0.7561462E-02  0.1286318E+00
          4   -1    0    0  501    0  0.00000000000E+00  0.00000000000E+00  0.11782841724E+03  0.11782841724E+03  0.00000000000E+00 0. -1.
         -4   -1    0    0    0  501 -0.00000000000E+00 -0.00000000000E+00 -0.14487205376E+03  0.14487205376E+03  0.00000000000E+00 0.  1.
         25    2    1    2    0    0  0.18479616206E+02 -0.25066899987E+02  0.50534531608E+02  0.13845824997E+03  0.12508837840E+03 0.  0.
          5    1    3    3  502    0  0.22910561859E+02  0.47653974586E+02  0.35851261519E+02  0.64020156912E+02  0.41800000000E+01 0.  1.
         -5    1    3    3    0  502 -0.44309456534E+01 -0.72720874572E+02  0.14683270089E+02  0.74438093060E+02  0.41800000000E+01 0.  1.
        -11    1    1    2    0    0 -0.15339821960E+02  0.45332490373E+02 -0.88792774641E+02  0.10086873475E+03  0.00000000000E+00 0.  1.
         11    1    1    2    0    0 -0.31397942454E+01 -0.20265590386E+02  0.11214606518E+02  0.23373486281E+02  0.00000000000E+00 0. -1.
</event>
<event>
 7    1  0.5274205E-009  0.1242629E+03  0.7561462E-02  0.1236226E+00
         -1   -1    0    0    0  501 -0.00000000000E+00  0.00000000000E+00  0.37426212297E+02  0.37426212297E+02  0.00000000000E+00 0. -1.
          1   -1    0    0  501    0  0.00000000000E+00 -0.00000000000E+00 -0.56644917425E+03  0.56644917425E+03  0.00000000000E+00 0.  1.
         25    2    1    2    0    0 -0.92624928391E+01 -0.93015330186E+02 -0.33951399178E+03  0.37370449470E+03  0.12509058047E+03 0.  0.
          5    1    3    3  502    0 -0.16136762467E+02 -0.12235036341E+03 -0.29488970484E+03  0.31969894738E+03  0.41800000000E+01 0. -1.
         -5    1    3    3    0  502  0.68742696284E+01  0.29335033227E+02 -0.44624286939E+02  0.54005547328E+02  0.41800000000E+01 0. -1.
        -11    1    1    2    0    0 -0.40261774044E+01  0.18141924909E+02  0.66899011856E+01  0.19750805598E+02  0.00000000000E+00 0. -1.
         11    1    1    2    0    0  0.13288670244E+02  0.74873405277E+02 -0.19619887136E+03  0.21042008625E+03  0.00000000000E+00 0.  1.
</event>
<event>
 7    1  0.2844572E-009  0.9045869E+02  0.7561462E-02  0.1301745E+00
          3   -1    0    0  501    0  0.00000000000E+00  0.00000000000E+00  0.24799261290E+03  0.24799261290E+03  0.00000000000E+00 0. -1.
         -3   -1    0    0    0  501 -0.00000000000E+00 -0.00000000000E+00 -0.72733048117E+02  0.72733048117E+02  0.00000000000E+00 0.  1.
         25    2    1    2    0    0 -0.61183088385E+02 -0.34686878040E+02  0.13924541867E+03  0.19995794342E+03  0.12508933888E+03 0.  0.
          5    1    3    3  502    0 -0.35032943678E+02 -0.59358971137E+02  0.14747425826E+03  0.16284017884E+03  0.41800000000E+01 0. -1.
         -5    1    3    3    0  502 -0.26150144707E+02  0.24672093097E+02 -0.82288395866E+01  0.37117764574E+02  0.41800000000E+01 0. -1.
        -11    1    1    2    0    0  0.54181303659E+02  0.17218879346E+02 -0.21093962430E+02  0.60638755950E+02  0.00000000000E+00 0.  1.
         11    1    1    2    0    0  0.70017847261E+01  0.17467998694E+02  0.57108108540E+02  0.60128961647E+02  0.00000000000E+00 0. -1.
</event>
<event>
 7    1  0.2844572E-009  0.1024504E+03  0.7561462E-02  0.1275226E+00
          4   -1    0    0  501    0  0.00000000000E+00  0.00000000000E+00  0.26554022242E+03  0.26554022242E+03  0.00000000000E+00 0.  1.
         -4   -1    0    0    0  501 -0.00000000000E+00 -0.00000000000E+00 -0.75991135224E+02  0.75991135224E+02  0.00000000000E+00 0. -1.
         25    2    1    2    0    0  0.65140941933E+02  0.16807876466E+02  0.27972759758E+02  0.14476479737E+03  0.12509406158E+03 0.  0.
          5    1    3    3  502    0 -0.29931751960E+02  0.19406839456E+02  0.33889311689E+02  0.49381100026E+02  0.41800000000E+01 0.  1.
         -5    1    3    3    0  502  0.95072693893E+02 -0.25989629899E+01 -0.59165519311E+01  0.95383697346E+02  0.41800000000E+01 0.  1.
        -11    1    1    2    0    0 -0.47784883917E+02  0.24644673077E+01  0.16388618290E+03  0.17072829196E+03  0.00000000000E+00 0.  1.
         11    1    1    2    0    0 -0.17356058017E+02 -0.19272343774E+02 -0.23098554628E+01  0.26038268312E+02  0.00000000000E+00 0. -1.
</event>
<event>
 7    1  0.2844572E-009  0.1085513E+03  0.7561462E-02  0.1263276E+00
          1   -1    0    0  501    0  0.00000000000E+00  0.00000000000E+00  0.42636872586E+02  0.42636872586E+02  0.00000000000E+00 0. -1.
         -1   -1    0    0    0  501 -0.00000000000E+00 -0.00000000000E+00 -0.32861232752E+03  0.32861232752E+03  0.00000000000E+00 0.  1.
         25    2    1    2    0    0  0.29508933835E+02  0.18874980726E+02 -0.99438715298E+02  0.16357857104E+03  0.12507137454E+03 0.  0.
          5    1    3    3  502    0 -0.49205502366E+02  0.10390203122E+02 -0.42395651631E+02  0.65909039298E+02  0.41800000000E+01 0.  1.
         -5    1    3    3    0  502  0.78714436201E+02  0.84847776038E+01 -0.57043063668E+02  0.97669531738E+02  0.41800000000E+01 0.  1.
        -11    1    1    2    0    0 -0.53666857978E+02  0.43548612141E+01 -0.14248619251E+03  0.15232009558E+03  0.00000000000E+00 0.  1.
         11    1    1    2    0    0  0.24157924144E+02 -0.23229841940E+02 -0.44050547127E+02  0.55350533490E+02  0.00000000000E+00 0. -1.
</event>
<event>
 7    1  0.2844572E-009  0.1579193E+03  0.7561462E-02  0.1191066E+00
          2   -1    0    0  501    0  0.00000000000E+00  0.00000000000E+00  0.10249070264E+04  0.10249070264E+04  0.00000000000E+00 0. -1.
         -2   -1    0    0    0  501 -0.00000000000E+00 -0.00000000000E+00 -0.28469863418E+02  0.28469863418E+02  0.00000000000E+00 0.  1.
         25    2    1    2    0    0 -0.19785548058E+02  0.12446118487E+03  0.63956845436E+03  0.66375999292E+03  0.12508983146E+03 0.  0.
          5    1    3    3  502    0  0.18762082299E+02 -0.92811524645E+01  0.23361187263E+03  0.23458502714E+03  0.41800000000E+01 0. -1.
         -5    1    3    3    0  502 -0.38547630357E+02  0.13374233734E+03  0.40595658173E+03  0.42917496578E+03  0.41800000000E+01 0. -1.
        -11    1    1    2    0    0 -0.32034252180E+02 -0.82710632946E+02  0.18061087899E+03  0.20121513791E+03  0.00000000000E+00 0.  1.
         11    1    1    2    0    0  0.51819800238E+02 -0.41750551928E+02  0.17625782961E+03  0.18840175897E+03  0.00000000000E+00 0. -1.
</event>
<event>
 7    1  0.2844572E-009  0.1294395E+03  0.7561462E-02  0.1228290E+00
          2   -1    0    0  501    0  0.00000000000E+00  0.00000000000E+00  0.36288808343E+03  0.36288808343E+03  0.00000000000E+00 0. -1.
         -2   -1    0    0    0  501 -0.00000000000E+00 -0.00000000000E+00 -0.59710405463E+02  0.59710405463E+02  0.00000000000E+00 0.  1.
         25    2    1    2    0    0 -0.21673673873E+01 -0.99106869453E+02  0.18719527968E+03  0.24599220755E+03  0.12507287630E+03 0.  0.
          5    1    3    3  502    0 -0.39393028156E+02  0.12662691281E+02  0.53163135195E+02  0.67497746344E+02  0.41800000000E+01 0.  1.
         -5    1    3    3    0  502  0.37225660768E+02 -0.11176956073E+03  0.13403214448E+03  0.17849446121E+03  0.41800000000E+01 0.  1.
        -11    1    1    2    0    0  0.49252954196E+01  0.56407122808E+02  0.40410051782E+01  0.56765762228E+02  0.00000000000E+00 0.  1.
         11    1    1    2    0    0 -0.27579280323E+01  0.42699746645E+02  0.11194139311E+03  0.11984051912E+03  0.00000000000E+00 0. -1.
</event>
<event>
 7    1  0.2844572E-009  0.1110168E+03  0.7561462E-02  0.1258699E+00
          2   -1    0    0  501    0  0.00000000000E+00  0.00000000000E+00  0.60587710892E+02  0.60587710892E+02  0.00000000000E+00 0. -1.
         -2   -1    0    0    0  501 -0.00000000000E+00 -0.00000000000E+00 -0.24571163722E+03  0.24571163722E+03  0.00000000000E+00 0.  1.
         25    2    1    2    0    0 -0.21748809281E+02  0.50828574681E+02 -0.12592941088E+03  0.18592768738E+03  0.12511727978E+03 0.  0.
          5    1    3    3  502    0 -0.32887715607E+02 -0.24785983638E+02 -0.35027424863E+01  0.41541406183E+02  0.41800000000E+01 0.  1.
         -5    1    3    3    0  502  0.11138906326E+02  0.75614558318E+02 -0.12242666839E+03  0.14438628119E+03  0.41800000000E+01 0.  1.
        -11    1    1    2    0    0 -0.34129804349E+02 -0.26215799426E+02 -0.31459862608E+02  0.53308860800E+02  0.00000000000E+00 0.  1.
         11    1    1    2    0    0  0.55878613630E+02 -0.24612775255E+02 -0.27734652844E+02  0.67062799937E+02  0.00000000000E+00 0. -1.
</event>
<event>
 7    1  0.2844572E-009  0.1492337E+03  0.7561462E-02  0.1201418E+00
         -4   -1    0    0    0  501 -0.00000000000E+00  0.00000000000E+00  0.16627243246E+03  0.16627243246E+03  0.00000000000E+00 0.  1.
          4   -1    0    0  501    0  0.00000000000E+00 -0.00000000000E+00 -0.15436701899E+03  0.15436701899E+03  0.00000000000E+00 0. -1.
         25    2    1    2    0    0 -0.61399020953E+01 -0.10532944253E+03  0.59017000019E+02  0.17395942759E+03  0.12508751455E+03 0.  0.
          5    1    3    3  502    0  0.25480882208E+02  0.18866946145E+02 -0.18220704091E+01  0.32031692985E+02  0.41800000000E+01 0.  1.
         -5    1    3    3    0  502 -0.31620784303E+02 -0.12419638868E+03  0.60839070428E+02  0.14192773461E+03  0.41800000000E+01 0.  1.
        -11    1    1    2    0    0  0.45572777216E+02  0.77814032008E+02 -0.23920098473E+02  0.93295620002E+02  0.00000000000E+00 0. -1.
         11    1    1    2    0    0 -0.39432875120E+02  0.27515410524E+02 -0.23191488075E+02  0.53384403862E+02  0.00000000000E+00 0.  1.
</event>
<event>
 7    1  0.2844572E-009  0.7822870E+02  0.7561462E-02  0.1334155E+00
         -2   -1    0    0    0  501 -0.00000000000E+00  0.00000000000E+00  0.51204882466E+03  0.51204882466E+03  0.00000000000E+00 0. -1.
          2   -1    0    0  501    0  0.00000000000E+00 -0.00000000000E+00 -0.30089765625E+02  0.30089765625E+02  0.00000000000E+00 0.  1.
         25    2    1    2    0    0 -0.31441133116E+02  0.15073555229E+02  0.24671933831E+03  0.27880478342E+03  0.12508364578E+03 0.  0.
          5    1    3    3  502    0 -0.10760102700E+02 -0.17730357651E+02  0.23787121120E+03  0.23881024038E+03  0.41800000000E+01 0. -1.
         -5    1    3    3    0  502 -0.20681030416E+02  0.32803912880E+02  0.88481271068E+01  0.39994543036E+02  0.41800000000E+01 0. -1.
        -11    1    1    2    0    0 -0.27784771628E+02  0.13092161053E+02  0.16278063794E+02  0.34761668204E+02  0.00000000000E+00 0.  1.
         11    1    1    2    0    0  0.59225904744E+02 -0.28165716282E+02  0.21896165693E+03  0.22857213866E+03  0.00000000000E+00 0. -1.
</event>
<event>
 7    1  0.2844572E-009  0.1260895E+03  0.7561462E-02  0.1233376E+00
         -2   -1    0    0    0  501 -0.00000000000E+00  0.00000000000E+00  0.84490158811E+02  0.84490158811E+02  0.00000000000E+00 0.  1.
          2   -1    0    0  501    0  0.00000000000E+00 -0.00000000000E+00 -0.22282408920E+03  0.22282408920E+03  0.00000000000E+00 0. -1.
         25    2    1    2    0    0  0.19036995300E+02 -0.71421443043E+02 -0.12152557212E+03  0.18941678031E+03  0.12508725862E+03 0.  0.
          5    1    3    3  502    0  0.71831100859E+02 -0.37442783761E+02 -0.80648142284E+02  0.11438209808E+03  0.41800000000E+01 0.  1.
         -5    1    3    3    0  502 -0.52794105559E+02 -0.33978659282E+02 -0.40877429833E+02  0.75034682235E+02  0.41800000000E+01 0.  1.
        -11    1    1    2    0    0 -0.39222375243E+01  0.86620614292E+02 -0.31118681191E+02  0.92124302367E+02  0.00000000000E+00 0. -1.
         11    1    1    2    0    0 -0.15114757775E+02 -0.15199171249E+02  0.14310322920E+02  0.25773165334E+02  0.00000000000E+00 0.  1.
</event>
<event>
 7    1  0.3126976E-009  0.2148419E+03  0.7561462E-02  0.1137788E+00
         -2   -1    0    0    0  501 -0.00000000000E+00  0.00000000000E+00  0.77703664140E+02  0.77703664140E+02  0.00000000000E+00 0.  1.
          2   -1    0    0  501    0  0.00000000000E+00 -0.00000000000E+00 -0.68033723080E+03  0.68033723080E+03  0.00000000000E+00 0. -1.
         25    2    1    2    0    0 -0.18527449866E+03  0.25654667626E+02 -0.43925916641E+03  0.49353960741E+03  0.12509167434E+03 0.  0.
          5    1    3    3  502    0 -0.12455041142E+03  0.73832865158E+02 -0.24922073740E+03  0.28825777580E+03  0.41800000000E+01 0.  1.
         -5    1    3    3    0  502 -0.60724087236E+02 -0.48178197532E+02 -0.19003842901E+03  0.20528183161E+03  0.41800000000E+01 0.  1.
        -11    1    1    2    0    0  0.58568060417E+02 -0.51384287399E+02 -0.50307867483E+02  0.92743971358E+02  0.00000000000E+00 0. -1.
         11    1    1    2    0    0  0.12670643824E+03  0.25729619773E+02 -0.11306653277E+03  0.17175731617E+03  0.00000000000E+00 0.  1.
</event>
<event>
 7    1  0.2844572E-009  0.1200401E+03  0.7561462E-02  0.1243031E+00
          1   -1    0    0  501    0  0.00000000000E+00  0.00000000000E+00  0.92291240756E+03  0.92291240756E+03  0.00000000000E+00 0. -1.
         -1   -1    0    0    0  501 -0.00000000000E+00 -0.00000000000E+00 -0.16638750879E+02  0.16638750879E+02  0.00000000000E+00 0.  1.
         25    2    1    2    0    0  0.12571898255E+01  0.59383871515E+02  0.53836954214E+03  0.55589318663E+03  0.12508975306E+03 0.  0.
          5    1    3    3  502    0 -0.60459870418E+02  0.35103445079E+02  0.32293899687E+03  0.33044623751E+03  0.41800000000E+01 0. -1.
         -5    1    3    3    0  502  0.61717060244E+02  0.24280426436E+02  0.21543054527E+03  0.22544694912E+03  0.41800000000E+01 0. -1.
        -11    1    1    2    0    0 -0.43047024395E+02 -0.28484264746E+02  0.24208867501E+03  0.24753045513E+03  0.00000000000E+00 0.  1.
         11    1    1    2    0    0  0.41789834570E+02 -0.30899606770E+02  0.12581543953E+03  0.13612751668E+03  0.00000000000E+00 0. -1.
</event>
<event>
 7    1  0.2844572E-009  0.1174484E+03  0.7561462E-02  0.1247367E+00
          2   -1    0    0  501    0  0.00000000000E+00  0.00000000000E+00  0.21537022954E+03  0.21537022954E+03  0.00000000000E+00 0. -1.
         -2   -1    0    0    0  501 -0.00000000000E+00 -0.00000000000E+00 -0.70335399419E+02  0.70335399419E+02  0.00000000000E+00 0.  1.
         25    2    1    2    0    0 -0.36054433182E+02  0.44211076167E+02  0.70698116702E+02  0.15459781519E+03  0.12509084438E+03 0.  0.
          5    1    3    3  502    0  0.44705904243E+02 -0.12673634725E+00  0.28453762101E+02  0.53157529232E+02  0.41800000000E+01 0.  1.
         -5    1    3    3    0  502 -0.80760337425E+02  0.44337812514E+02  0.42244354601E+02  0.10144028596E+03  0.41800000000E+01 0.  1.
        -11    1    1    2    0    0  0.43448007419E+02 -0.63597477466E+02  0.30935846252E+02  0.83002379918E+02  0.00000000000E+00 0.  1.
         11    1    1    2    0    0 -0.73935742376E+01  0.19386401298E+02  0.43400867172E+02  0.48105433857E+02  0.00000000000E+00 0. -1.
</event>
<event>
 7    1  0.2844572E-009  0.8691107E+02  0.7561462E-02  0.1310509E+00
         -2   -1    0    0    0  501 -0.00000000000E+00  0.00000000000E+00  0.14923868590E+02  0.14923868590E+02  0.00000000000E+00 0.  1.
          2   -1    0    0  501    0  0.00000000000E+00 -0.00000000000E+00 -0.94774830196E+03  0.94774830196E+03  0.00000000000E+00 0. -1.
         25    2    1    2    0    0  0.25434926001E+02  0.40767025807E+02 -0.45906237468E+03  0.47822010190E+03  0.12508923277E+03 0.  0.
          5    1    3    3  502    0  0.34010469677E+02  0.37253443187E+01 -0.25256588235E+02  0.42731228478E+02  0.41800000000E+01 0.  1.
         -5    1    3    3    0  502 -0.85755436761E+01  0.37041681488E+02 -0.43380578645E+03  0.43548887342E+03  0.41800000000E+01 0.  1.
        -11    1    1    2    0    0 -0.53318415269E+02 -0.48595953497E+02 -0.32781926999E+03  0.33566336392E+03  0.00000000000E+00 0.  1.
         11    1    1    2    0    0  0.27883489268E+02  0.78289276901E+01 -0.14594278870E+03  0.14878870473E+03  0.00000000000E+00 0. -1.
</event>
<event>
 7    1  0.2844572E-009  0.8531581E+02  0.7561462E-02  0.1314609E+00
          1   -1    0    0  501    0  0.00000000000E+00  0.00000000000E+00  0.36311705863E+03  0.36311705863E+03  0.00000000000E+00 0. -1.
         -1   -1    0    0    0  501 -0.00000000000E+00 -0.00000000000E+00 -0.37443917724E+02  0.37443917724E+02  0.00000000000E+00 0.  1.
         25    2    1    2    0    0 -0.45145927086E+02 -0.14985836145E+02  0.15093734759E+03  0.20172538239E+03  0.12509323317E+03 0.  0.
          5    1    3    3  502    0 -0.60544493624E+02 -0.26619141582E+02  0.19878080131E+02  0.69186883702E+02  0.41800000000E+01 0.  1.
         -5    1    3    3    0  502  0.15398566538E+02  0.11633305437E+02  0.13105926746E+03  0.13253849868E+03  0.41800000000E+01 0.  1.
        -11    1    1    2    0    0  0.54114653867E+02 -0.12639055782E+02  0.65959330973E+02  0.86248332370E+02  0.00000000000E+00 0.  1.
         11    1    1    2    0    0 -0.89687267811E+01  0.27624891926E+02  0.10877646235E+03  0.11258726160E+03  0.00000000000E+00 0. -1.
</event>
<event>
 7    1  0.2844572E-009  0.1182578E+03  0.7561462E-02  0.1245999E+00
          1   -1    0    0  501    0  0.00000000000E+00  0.00000000000E+00  0.60764971689E+02  0.60764971689E+02  0.00000000000E+00 0.  1.
         -1   -1    0    0    0  501 -0.00000000000E+00 -0.00000000000E+00 -0.60204412700E+03  0.60204412700E+03  0.00000000000E+00 0. -1.
         25    2    1    2    0    0  0.95080357939E+02 -0.30624063902E+02 -0.49579246197E+03  0.52099532758E+03  0.12509139964E+03 0.  0.
          5    1    3    3  502    0  0.83239694787E+02 -0.32634023585E+02 -0.49973051179E+03  0.50768285681E+03  0.41800000000E+01 0. -1.
         -5    1    3    3    0  502  0.11840663152E+02  0.20099596831E+01  0.39380498195E+01  0.13312470777E+02  0.41800000000E+01 0. -1.
        -11    1    1    2    0    0 -0.92090145914E+02  0.56634450366E+02 -0.35467834879E+02  0.11378059261E+03  0.00000000000E+00 0. -1.
         11    1    1    2    0    0 -0.29902120246E+01 -0.26010386464E+02 -0.10018858467E+02  0.28033178502E+02  0.00000000000E+00 0.  1.
</event>
<event>
 7    1  0.2844572E-009  0.1244625E+03  0.7561462E-02  0.1235912E+00
         -1   -1    0    0    0  501 -0.00000000000E+00  0.00000000000E+00  0.89726329224E+02  0.89726329224E+02  0.00000000000E+00 0.  1.
          1   -1    0    0  501    0  0.00000000000E+00 -0.00000000000E+00 -0.20261145114E+03  0.20261145114E+03  0.00000000000E+00 0. -1.
         25    2    1    2    0    0 -0.14983891042E+02  0.62894039243E+02 -0.99044478168E+01  0.14116593370E+03  0.12509814382E+03 0.  0.
          5    1    3    3  502    0 -0.44632996758E+02  0.88901688098E+02  0.25467456222E+01  0.99597052465E+02  0.41800000000E+01 0.  1.
         -5    1    3    3    0  502  0.29649105716E+02 -0.26007648855E+02 -0.12451193439E+02  0.41568881231E+02  0.41800000000E+01 0.  1.
        -11    1    1    2    0    0 -0.37421060777E+02 -0.24329559988E+02 -0.51882871478E+02  0.68440453182E+02  0.00000000000E+00 0.  1.
         11    1    1    2    0    0  0.52404951819E+02 -0.38564479255E+02 -0.51097802621E+02  0.82731393486E+02  0.00000000000E+00 0. -1.
</event>
<event>
 6    1  0.2844572E-009  0.1666570E+03  0.7561462E-02  0.1181380E+00
          3   -1    0    0  501    0  0.00000000000E+00  0.00000000000E+00  0.58309474886E+02  0.58309474886E+02  0.00000000000E+00 0. -1.
         -3   -1    0    0    0  501 -0.00000000000E+00 -0.00000000000E+00 -0.50786980133E+03  0.50786980133E+03  0.00000000000E+00 0.  1.
          5    1    1    2  502    0 -0.15441933581E+02  0.18952793247E+02 -0.55207216910E+02  0.60522482463E+02  0.41800000000E+01 0. -1.
         -5    1    1    2    0  502  0.14371126287E+03 -0.46145939880E+02 -0.14206329644E+03  0.20732059097E+03  0.41800000000E+01 0. -1.
        -11    1    1    2    0    0 -0.12868882739E+03  0.47521897873E+02 -0.23254871519E+03  0.26999638888E+03  0.00000000000E+00 0.  1.
         11    1    1    2    0    0  0.41949809666E+00 -0.20328751241E+02 -0.19741097898E+02  0.28339813900E+02  0.00000000000E+00 0. -1.
</event>
<event>
 7    1  0.2844572E-009  0.1843381E+03  0.7561462E-02  0.1163669E+00
          4   -1    0    0  501    0  0.00000000000E+00  0.00000000000E+00  0.33500063678E+02  0.33500063678E+02  0.00000000000E+00 0.  1.
         -4   -1    0    0    0  501 -0.00000000000E+00 -0.00000000000E+00 -0.13106558998E+04  0.13106558998E+04  0.00000000000E+00 0. -1.
         25    2    1    2    0    0  0.68914771386E+02 -0.13692407809E+03 -0.36915251019E+03  0.41883043480E+03  0.12509160027E+03 0.  0.
          5    1    3    3  502    0 -0.47370323715E+01 -0.11645045435E+03 -0.26536938048E+03  0.28986467237E+03  0.41800000000E+01 0.  1.
         -5    1    3    3    0  502  0.73651803757E+02 -0.20473623739E+02 -0.10378312971E+03  0.12896576243E+03  0.41800000000E+01 0.  1.
        -11    1    1    2    0    0 -0.62130139272E+02  0.31144884872E+02 -0.28376033542E+03  0.29214737037E+03  0.00000000000E+00 0. -1.
         11    1    1    2    0    0 -0.67846321134E+01  0.10577919321E+03 -0.62424299056E+03  0.63317815835E+03  0.00000000000E+00 0.  1.
</event>
<event>
 7    1  0.2844572E-009  0.1247491E+03  0.7561462E-02  0.1235462E+00
          1   -1    0    0  501    0  0.00000000000E+00  0.00000000000E+00  0.25082719301E+03  0.25082719301E+03  0.00000000000E+00 0. -1.
         -1   -1    0    0    0  501 -0.00000000000E+00 -0.00000000000E+00 -0.10849472883E+03  0.10849472883E+03  0.00000000000E+00 0.  1.
         25    2    1    2    0    0  0.15797333517E+02 -0.85207407427E+02  0.16719479328E+03  0.22608032124E+03  0.12509338401E+03 0.  0.
          5    1    3    3  502    0  0.46482498065E+02  0.12965895157E+02  0.43015122956E+02  0.64780477511E+02  0.41800000000E+01 0.  1.
         -5    1    3    3    0  502 -0.30685164548E+02 -0.98173302584E+02  0.12417967033E+03  0.16129984372E+03  0.41800000000E+01 0.  1.
        -11    1    1    2    0    0  0.15211981257E+02  0.43942498330E+02  0.31998017738E+02  0.56446617900E+02  0.00000000000E+00 0. -1.
         11    1    1    2    0    0 -0.31009314774E+02  0.41264909097E+02 -0.56860346843E+02  0.76794982705E+02  0.00000000000E+00 0.  1.
</event>
<event>
 7    1  0.2844572E-009  0.1118366E+03  0.7561462E-02  0.1257206E+00
          2   -1    0    0  501    0  0.00000000000E+00  0.00000000000E+00  0.12483229988E+03  0.12483229988E+03  0.00000000000E+00 0. -1.
         -2   -1    0    0    0  501 -0.00000000000E+00 -0.00000000000E+00 -0.14816882409E+03  0.14816882409E+03  0.00000000000E+00 0.  1.
         25    2    1    2    0    0  0.74200078964E+02 -0.12143465276E+02  0.44153040577E+02  0.15247743400E+03  0.12508701540E+03 0.  0.
          5    1    3    3  502    0  0.54822894076E+02  0.50254363358E+02  0.18163167099E+01  0.74510550647E+02  0.41800000000E+01 0. -1.
         -5    1    3    3    0  502  0.19377184888E+02 -0.62397828634E+02  0.42336723868E+02  0.77966883356E+02  0.41800000000E+01 0. -1.
        -11    1    1    2    0    0 -0.39078303627E+02 -0.12248430575E+02 -0.38725680932E+00  0.40954704659E+02  0.00000000000E+00 0.  1.
         11    1    1    2    0    0 -0.35121775337E+02  0.24391895851E+02 -0.67102307977E+02  0.79568985301E+02  0.00000000000E+00 0. -1.
</event>
<event>
 7    1  0.2844572E-009  0.1080051E+03  0.7561462E-02  0.1264309E+00
          1   -1    0    0  501    0  0.00000000000E+00  0.00000000000E+00  0.20913884655E+02  0.20913884655E+02  0.00000000000E+00 0. -1.
         -1   -1    0    0    0  501 -0.00000000000E+00 -0.00000000000E+00 -0.10917883188E+04  0.10917883188E+04  0.00000000000E+00 0.  1.
         25    2    1    2    0    0 -0.16967275909E+02  0.93931820046E+02 -0.73312596045E+03  0.74982211455E+03  0.12509378205E+03 0.  0.
          5    1    3    3  502    0 -0.24480452760E+02 -0.69961787716E+00 -0.45941908169E+03  0.46009036836E+03  0.41800000000E+01 0.  1.
         -5    1    3    3    0  502  0.75131768511E+01  0.94631437923E+02 -0.27370687876E+03  0.28973174619E+03  0.41800000000E+01 0.  1.
        -11    1    1    2    0    0 -0.64365312566E+00 -0.24678540941E+02 -0.87202632928E+01  0.26181819345E+02  0.00000000000E+00 0. -1.
         11    1    1    2    0    0  0.17610929035E+02 -0.69253279104E+02 -0.32902821043E+03  0.33669826960E+03  0.00000000000E+00 0.  1.
</event>
<event>
 7    1  0.2844572E-009  0.1403023E+03  0.7561462E-02  0.1212923E+00
         -1   -1    0    0    0  501 -0.00000000000E+00  0.00000000000E+00  0.15117036000E+03  0.15117036000E+03  0.00000000000E+00 0.  1.
          1   -1    0    0  501    0  0.00000000000E+00 -0.00000000000E+00 -0.16385591828E+03  0.16385591828E+03  0.00000000000E+00 0. -1.
         25    2    1    2    0    0 -0.64717196702E+02 -0.89270620788E+02  0.22272728683E+02  0.16822207203E+03  0.12508010150E+03 0.  0.
          5    1    3    3  502    0 -0.45628207970E+02  0.92039082537E+00 -0.36693371219E+02  0.58708230881E+02  0.41800000000E+01 0. -1.
         -5    1    3    3    0  502 -0.19088988732E+02 -0.90191011613E+02  0.58966099902E+02  0.10951384115E+03  0.41800000000E+01 0. -1.
        -11    1    1    2    0    0  0.32824442603E+02  0.10275175099E+03 -0.24229393624E+02  0.11055509884E+03  0.00000000000E+00 0.  1.
         11    1    1    2    0    0  0.31892754098E+02 -0.13481130205E+02 -0.10728893335E+02  0.36249107407E+02  0.00000000000E+00 0. -1.
</event>
<event>
 7    1  0.2844572E-009  0.1336981E+03  0.7561462E-02  0.1222069E+00
          4   -1    0    0  501    0  0.00000000000E+00  0.00000000000E+00  0.23110207022E+03  0.23110207022E+03  0.00000000000E+00 0. -1.
         -4   -1    0    0    0  501 -0.00000000000E+00 -0.00000000000E+00 -0.89596448521E+02  0.89596448521E+02  0.00000000000E+00 0.  1.
         25    2    1    2    0    0 -0.52950455580E+02  0.75989995469E+02  0.10071519563E+03  0.18538915789E+03  0.12508940433E+03 0.  0.
          5    1    3    3  502    0 -0.49293346910E+02 -0.12889950681E+02  0.23115761187E+00  0.51122506902E+02  0.41800000000E+01 0. -1.
         -5    1    3    3    0  502 -0.36571086699E+01  0.88879946150E+02  0.10048403802E+03  0.13426665099E+03  0.41800000000E+01 0. -1.
        -11    1    1    2    0    0  0.31758940469E+02 -0.94119010495E+02  0.22171437357E+02  0.10177716380E+03  0.00000000000E+00 0.  1.
         11    1    1    2    0    0  0.21191515111E+02  0.18129015026E+02  0.18618988713E+02  0.33532197053E+02  0.00000000000E+00 0. -1.
</event>
<event>
 7    1  0.2844572E-009  0.1974030E+03  0.7561462E-02  0.1151949E+00
         -2   -1    0    0    0  501 -0.00000000000E+00  0.00000000000E+00  0.20624169861E+03  0.20624169861E+03  0.00000000000E+00 0. -1.
          2   -1    0    0  501    0  0.00000000000E+00 -0.00000000000E+00 -0.20227477329E+03  0.20227477329E+03  0.00000000000E+00 0.  1.
         25    2    1    2    0    0 -0.84511078935E+02  0.15005367042E+03  0.10409481349E+02  0.21310493996E+03  0.12508849533E+03 0.  0.
          5    1    3    3  502    0  0.12433676400E+02  0.10087533261E+03  0.20783215187E+02  0.10382602502E+03  0.41800000000E+01 0. -1.
         -5    1    3    3    0  502 -0.96944755334E+02  0.49178337816E+02 -0.10373733838E+02  0.10927891494E+03  0.41800000000E+01 0. -1.
        -11    1    1    2    0    0  0.17719008816E+01 -0.67133799116E+02 -0.33707298735E+02  0.75141656918E+02  0.00000000000E+00 0.  1.
         11    1    1    2    0    0  0.82739178053E+02 -0.82919871309E+02  0.27264742699E+02  0.12026987502E+03  0.00000000000E+00 0. -1.
</event>
<event>
 7    1  0.2844572E-009  0.1113716E+03  0.7561462E-02  0.1258051E+00
         -2   -1    0    0    0  501 -0.00000000000E+00  0.00000000000E+00  0.17540473227E+02  0.17540473227E+02  0.00000000000E+00 0.  1.
          2   -1    0    0  501    0  0.00000000000E+00 -0.00000000000E+00 -0.10865243834E+04  0.10865243834E+04  0.00000000000E+00 0. -1.
         25    2    1    2    0    0 -0.30649053579E+02 -0.42385592334E+02 -0.84968414568E+03  0.86043418060E+03  0.12509168160E+03 0.  0.
          5    1    3    3  502    0 -0.70073608685E+02 -0.45339289772E+02 -0.38049180495E+03  0.38956058305E+03  0.41800000000E+01 0.  1.
         -5    1    3    3    0  502  0.39424555105E+02  0.29536974382E+01 -0.46919234073E+03  0.47087359755E+03  0.41800000000E+01 0.  1.
        -11    1    1    2    0    0  0.51096420583E+02 -0.13791977020E+01 -0.15497740259E+03  0.16318928181E+03  0.00000000000E+00 0. -1.
         11    1    1    2    0    0 -0.20447367004E+02  0.43764790036E+02 -0.64322361940E+02  0.80441394256E+02  0.00000000000E+00 0.  1.
</event>
<event>
 7    1  0.2844572E-009  0.1010073E+03  0.7561462E-02  0.1278192E+00
          2   -1    0    0  501    0  0.00000000000E+00  0.00000000000E+00  0.26375861836E+03  0.26375861836E+03  0.00000000000E+00 0. -1.
         -2   -1    0    0    0  501 -0.00000000000E+00 -0.00000000000E+00 -0.58511330398E+02  0.58511330398E+02  0.00000000000E+00 0.  1.
         25    2    1    2    0    0 -0.47288352217E+02  0.36492055531E+02  0.10562328491E+03  0.17427485445E+03  0.12509032019E+03 0.  0.
          5    1    3    3  502    0 -0.49830931709E+02  0.55501989376E+02  0.85008577072E+01  0.75188626543E+02  0.41800000000E+01 0.  1.
         -5    1    3    3    0  502  0.25425794922E+01 -0.19009933845E+02  0.97122427202E+02  0.99086227907E+02  0.41800000000E+01 0.  1.
        -11    1    1    2    0    0  0.52436421788E+02  0.16086701501E+02  0.63944086802E+02  0.84244919918E+02  0.00000000000E+00 0. -1.
         11    1    1    2    0    0 -0.51480695708E+01 -0.52578757032E+02  0.35679916256E+02  0.63750174395E+02  0.00000000000E+00 0.  1.
</event>
<event>
 7    1  0.2844572E-009  0.4840044E+02  0.7561462E-02  0.1454165E+00
         -1   -1    0    0    0  501 -0.00000000000E+00  0.00000000000E+00  0.64857889211E+02  0.64857889211E+02  0.00000000000E+00 0.  1.
          1   -1    0    0  501    0  0.00000000000E+00 -0.00000000000E+00 -0.19058571342E+03  0.19058571342E+03  0.00000000000E+00 0. -1.
         25    2    1    2    0    0  0.13648725883E+02 -0.10117053599E+02 -0.50341036750E+02  0.13590610378E+03  0.12509039360E+03 0.  0.
          5    1    3    3  502    0 -0.16894069144E+02 -0.18197253693E+02 -0.85101063487E+02  0.88748031081E+02  0.41800000000E+01 0. -1.
         -5    1    3    3    0  502  0.30542795027E+02  0.80802000938E+01  0.34760026737E+02  0.47158072695E+02  0.41800000000E+01 0. -1.
        -11    1    1    2    0    0  0.89592154587E+01  0.14188704402E+02  0.17267463744E+02  0.24078043492E+02  0.00000000000E+00 0.  1.
         11    1    1    2    0    0 -0.22607941342E+02 -0.40716508024E+01 -0.92654251204E+02  0.95459455363E+02  0.00000000000E+00 0. -1.
</event>
<event>
 7    1  0.2844572E-009  0.1227157E+03  0.7561462E-02  0.1238683E+00
          2   -1    0    0  501    0  0.00000000000E+00  0.00000000000E+00  0.47366827884E+03  0.47366827884E+03  0.00000000000E+00 0. -1.
         -2   -1    0    0    0  501 -0.00000000000E+00 -0.00000000000E+00 -0.72884970238E+02  0.72884970238E+02  0.00000000000E+00 0.  1.
         25    2    1    2    0    0 -0.65839526055E+02  0.74525521793E+02  0.37995577804E+03  0.41219288250E+03  0.12509069719E+03 0.  0.
          5    1    3    3  502    0 -0.59471459962E+02 -0.21465951037E+01  0.66197391752E+02  0.89112454210E+02  0.41800000000E+01 0. -1.
         -5    1    3    3    0  502 -0.63680660926E+01  0.76672116897E+02  0.31375838629E+03  0.32308042829E+03  0.41800000000E+01 0. -1.
        -11    1    1    2    0    0  0.20897832763E+02 -0.56609714144E+02  0.49563180327E+02  0.78088974854E+02  0.00000000000E+00 0. -1.
         11    1    1    2    0    0  0.44941693292E+02 -0.17915807649E+02 -0.28735649765E+02  0.56271391729E+02  0.00000000000E+00 0.  1.
</event>
<event>
 7    1  0.2844572E-009  0.1363122E+03  0.7561462E-02  0.1218379E+00
          1   -1    0    0  501    0  0.00000000000E+00  0.00000000000E+00  0.68122563874E+02  0.68122563874E+02  0.00000000000E+00 0. -1.
         -1   -1    0    0    0  501 -0.00000000000E+00 -0.00000000000E+00 -0.36401320762E+03  0.36401320762E+03  0.00000000000E+00 0.  1.
         25    2    1    2    0    0  0.99755064344E+02 -0.37974795813E+02 -0.10348558708E+03  0.19429615926E+03  0.12509425562E+03 0.  0.
          5    1    3    3  502    0  0.41559955904E+02  0.30848422324E+02  0.61708286503E+01  0.52291554011E+02  0.41800000000E+01 0. -1.
         -5    1    3    3    0  502  0.58195108440E+02 -0.68823218138E+02 -0.10965641573E+03  0.14200460525E+03  0.41800000000E+01 0. -1.
        -11    1    1    2    0    0  0.69525251611E+01  0.21379457426E+02 -0.75112686165E+02  0.78404938804E+02  0.00000000000E+00 0.  1.
         11    1    1    2    0    0 -0.10670758950E+03  0.16595338387E+02 -0.11729237050E+03  0.15943467343E+03  0.00000000000E+00 0. -1.
</event>
<event>
 7    1  0.2844572E-009  0.2961341E+03  0.7561462E-02  0.1087189E+00
         -1   -1    0    0    0  501 -0.00000000000E+00  0.00000000000E+00  0.19866860772E+03  0.19866860772E+03  0.00000000000E+00 0.  1.
          1   -1    0    0  501    0  0.00000000000E+00 -0.00000000000E+00 -0.60035760890E+03  0.60035760890E+03  0.00000000000E+00 0. -1.
         25    2    1    2    0    0 -0.14279270567E+03 -0.25670283027E+03 -0.37172485664E+03  0.49001361918E+03  0.12509147883E+03 0.  0.
          5    1    3    3  502    0 -0.24053686603E+02 -0.28116201929E+02  0.61115902818E+00  0.37241731505E+02  0.41800000000E+01 0.  1.
         -5    1    3    3    0  502 -0.11873901907E+03 -0.22858662834E+03 -0.37233601566E+03  0.45277188767E+03  0.41800000000E+01 0.  1.
        -11    1    1    2    0    0  0.64715870442E+02  0.71584328437E+02  0.26955710199E+02  0.10019516095E+03  0.00000000000E+00 0.  1.
         11    1    1    2    0    0  0.78076835227E+02  0.18511850183E+03 -0.56919854748E+02  0.20881743650E+03  0.00000000000E+00 0. -1.
</event>
<event>
 7    1  0.2844572E-009  0.1039772E+03  0.7561462E-02  0.1272148E+00
         -1   -1    0    0    0  501 -0.00000000000E+00  0.00000000000E+00  0.16581839756E+03  0.16581839756E+03  0.00000000000E+00 0.  1.
          1   -1    0    0  501    0  0.00000000000E+00 -0.00000000000E+00 -0.84262979894E+02  0.84262979894E+02  0.00000000000E+00 0. -1.
         25    2    1    2    0    0 -0.30795878300E+02  0.41570022247E+02  0.75617852886E+02  0.15504030903E+03  0.12507191883E+03 0.  0.
          5    1    3    3  502    0  0.25507092194E+02 -0.22569375719E+02 -0.82700528778E+01  0.35296666233E+02  0.41800000000E+01 0.  1.
         -5    1    3    3    0  502 -0.56302970494E+02  0.64139397966E+02  0.83887905764E+02  0.11974364280E+03  0.41800000000E+01 0.  1.
        -11    1    1    2    0    0 -0.12764041995E+02 -0.42751597137E+02  0.20494049744E+02  0.49098125226E+02  0.00000000000E+00 0.  1.
         11    1    1    2    0    0  0.43559920295E+02  0.11815748894E+01 -0.14556484960E+02  0.45942943198E+02  0.00000000000E+00 0. -1.
</event>
<event>
 7    1  0.2844572E-009  0.1922169E+03  0.7561462E-02  0.1156477E+00
         -2   -1    0    0    0  501 -0.00000000000E+00  0.00000000000E+00  0.45765213401E+02  0.45765213401E+02  0.00000000000E+00 0.  1.
          2   -1    0    0  501    0  0.00000000000E+00 -0.00000000000E+00 -0.88796572438E+03  0.88796572438E+03  0.00000000000E+00 0. -1.
         25    2    1    2    0    0 -0.56245962986E+02 -0.15444384455E+03 -0.54677871101E+03  0.58449084526E+03  0.12508429121E+03 0.  0.
          5    1    3    3  502    0 -0.23449613058E+02 -0.16461009484E+03 -0.49521732828E+03  0.52240218444E+03  0.41800000000E+01 0.  1.
         -5    1    3    3    0  502 -0.32796349928E+02  0.10166250296E+02 -0.51561382729E+02  0.62088660822E+02  0.41800000000E+01 0.  1.
        -11    1    1    2    0    0 -0.20715890638E+02  0.46931453735E+02 -0.57583735328E+02  0.77120659028E+02  0.00000000000E+00 0.  1.
         11    1    1    2    0    0  0.76961853624E+02  0.10751239081E+03 -0.23783806464E+03  0.27211943349E+03  0.00000000000E+00 0. -1.
</event>
<event>
 7    1  0.2844572E-009  0.1399296E+03  0.7561462E-02  0.1213424E+00
          1   -1    0    0  501    0  0.00000000000E+00  0.00000000000E+00  0.51059043627E+03  0.51059043627E+03  0.00000000000E+00 0. -1.
         -1   -1    0    0    0  501 -0.00000000000E+00 -0.00000000000E+00 -0.61033572269E+02  0.61033572269E+02  0.00000000000E+00 0.  1.
         25    2    1    2    0    0 -0.11484124924E+03  0.64280543120E+02  0.31091531150E+03  0.36005110267E+03  0.12509182570E+03 0.  0.
          5    1    3    3  502    0  0.25356703638E+01  0.68448023214E+01 -0.10269971955E+02  0.13275001581E+02  0.41800000000E+01 0.  1.
         -5    1    3    3    0  502 -0.11737691960E+03  0.57435740798E+02  0.32118528345E+03  0.34677610109E+03  0.41800000000E+01 0.  1.
        -11    1    1    2    0    0  0.38115034966E+02  0.35690752814E+01 -0.11212616471E+01  0.38298190773E+02  0.00000000000E+00 0.  1.
         11    1    1    2    0    0  0.76726214274E+02 -0.67849618401E+02  0.13976281415E+03  0.17327471510E+03  0.00000000000E+00 0. -1.
</event>
<event>
 7    1  0.2844572E-009  0.9565808E+02  0.7561462E-02  0.1289701E+00
          2   -1    0    0  501    0  0.00000000000E+00  0.00000000000E+00  0.48375520790E+03  0.48375520790E+03  0.00000000000E+00 0.  1.
         -2   -1    0    0    0  501 -0.00000000000E+00 -0.00000000000E+00 -0.29890906164E+02  0.29890906164E+02  0.00000000000E+00 0. -1.
         25    2    1    2    0    0 -0.95671029809E+01  0.15211688982E+02  0.35007773459E+03  0.37218911370E+03  0.12508953257E+03 0.  0.
          5    1    3    3  502    0  0.61549852097E+01  0.55714129271E+02  0.75295313764E+02  0.93961719429E+02  0.41800000000E+01 0.  1.
         -5    1    3    3    0  502 -0.15722088191E+02 -0.40502440289E+02  0.27478242083E+03  0.27822739427E+03  0.41800000000E+01 0.  1.
        -11    1    1    2    0    0  0.47684620050E+01  0.37866354887E+02  0.22643441716E+02  0.44377071952E+02  0.00000000000E+00 0. -1.
         11    1    1    2    0    0  0.47986409759E+01 -0.53078043869E+02  0.81143125425E+02  0.97079928409E+02  0.00000000000E+00 0.  1.
</event>
<event>
 7    1  0.2844572E-009  0.9645031E+02  0.7561462E-02  0.1287943E+00
         -1   -1    0    0    0  501 -0.00000000000E+00  0.00000000000E+00  0.12684510172E+04  0.12684510172E+04  0.00000000000E+00 0.  1.
          1   -1    0    0  501    0  0.00000000000E+00 -0.00000000000E+00 -0.86585990860E+01  0.86585990860E+01  0.00000000000E+00 0. -1.
         25    2    1    2    0    0  0.36183023424E+02 -0.34626994553E+01  0.85095059978E+03  0.86086392736E+03  0.12509427124E+03 0.  0.
          5    1    3    3  502    0  0.72906213950E+02  0.13542259472E+02  0.32664948797E+03  0.33498667021E+03  0.41800000000E+01 0. -1.
         -5    1    3    3    0  502 -0.36723190526E+02 -0.17004958927E+02  0.52430111181E+03  0.52587725715E+03  0.41800000000E+01 0. -1.
        -11    1    1    2    0    0 -0.56225107484E+02 -0.44423745680E+01  0.28155837319E+03  0.28715172804E+03  0.00000000000E+00 0. -1.
         11    1    1    2    0    0  0.20042084060E+02  0.79050740233E+01  0.12728344519E+03  0.12909396093E+03  0.00000000000E+00 0.  1.
</event>
<event>
 7    1  0.2844572E-009  0.2377363E+03  0.7561462E-02  0.1121310E+00
         -1   -1    0    0    0  501 -0.00000000000E+00  0.00000000000E+00  0.30311263844E+03  0.30311263844E+03  0.00000000000E+00 0.  1.
          1   -1    0    0  501    0  0.00000000000E+00 -0.00000000000E+00 -0.29197381703E+03  0.29197381703E+03  0.00000000000E+00 0. -1.
         25    2    1    2    0    0  0.12929792808E+03 -0.19728102141E+03 -0.13924500500E+03  0.30112405054E+03  0.12509503099E+03 0.  0.
          5    1    3    3  502    0  0.12452711263E+03 -0.16904905480E+03 -0.62504096382E+02  0.21910914900E+03  0.41800000000E+01 0.  1.
         -5    1    3    3    0  502  0.47708154501E+01 -0.28231966611E+02 -0.76740908621E+02  0.82014901541E+02  0.41800000000E+01 0.  1.
        -11    1    1    2    0    0 -0.43919731937E+02  0.82707828845E+02  0.11203731118E+03  0.14602015923E+03  0.00000000000E+00 0.  1.
         11    1    1    2    0    0 -0.85378196147E+02  0.11457319257E+03  0.38346515236E+02  0.14794224570E+03  0.00000000000E+00 0. -1.
</event>
<event>
 7    1  0.2844572E-009  0.9371685E+02  0.7561462E-02  0.1294092E+00
          2   -1    0    0  501    0  0.00000000000E+00  0.00000000000E+00  0.42750508874E+03  0.42750508874E+03  0.00000000000E+00 0. -1.
         -2   -1    0    0    0  501 -0.00000000000E+00 -0.00000000000E+00 -0.38140346181E+02  0.38140346181E+02  0.00000000000E+00 0.  1.
         25    2    1    2    0    0  0.62247777956E+02  0.19411434808E+02  0.20995639028E+03  0.25294131645E+03  0.12508410805E+03 0.  0.
          5    1    3    3  502    0  0.20306528176E+02 -0.33522856398E+02  0.83607504149E+01  0.40292822377E+02  0.41800000000E+01 0. -1.
         -5    1    3    3    0  502  0.41941249780E+02  0.52934291206E+02  0.20159563986E+03  0.21264849407E+03  0.41800000000E+01 0. -1.
        -11    1    1    2    0    0 -0.24485098477E+02 -0.32228022404E+02  0.14422361009E+02  0.42967080102E+02  0.00000000000E+00 0.  1.
         11    1    1    2    0    0 -0.37762679479E+02  0.12816587596E+02  0.16498599127E+03  0.16973703837E+03  0.00000000000E+00 0. -1.
</event>
<event>
 7    1  0.2844572E-009  0.1072987E+03  0.7561462E-02  0.1265656E+00
          4   -1    0    0  501    0  0.00000000000E+00  0.00000000000E+00  0.14304512341E+03  0.14304512341E+03  0.00000000000E+00 0. -1.
         -4   -1    0    0    0  501 -0.00000000000E+00 -0.00000000000E+00 -0.10290621731E+03  0.10290621731E+03  0.00000000000E+00 0.  1.
         25    2    1    2    0    0  0.12037496544E+02 -0.38762517025E+02 -0.11132773929E+02  0.13197776488E+03  0.12508700060E+03 0.  0.
          5    1    3    3  502    0  0.60166499810E+02 -0.26924171909E+02  0.24870110058E+02  0.70575587186E+02  0.41800000000E+01 0.  1.
         -5    1    3    3    0  502 -0.48129003266E+02 -0.11838345115E+02 -0.36002883987E+02  0.61402177696E+02  0.41800000000E+01 0.  1.
        -11    1    1    2    0    0  0.38715715396E+02  0.82321893426E+01  0.34264188258E+02  0.52351792300E+02  0.00000000000E+00 0. -1.
         11    1    1    2    0    0 -0.50753211940E+02  0.30530327682E+02  0.17007491773E+02  0.61621783543E+02  0.00000000000E+00 0.  1.
</event>
<event>
 7    1  0.2844572E-009  0.9615513E+02  0.7561462E-02  0.1288595E+00
         -2   -1    0    0    0  501 -0.00000000000E+00  0.00000000000E+00  0.29895962515E+02  0.29895962515E+02  0.00000000000E+00 0. -1.
          2   -1    0    0  501    0  0.00000000000E+00 -0.00000000000E+00 -0.43113886756E+03  0.43113886756E+03  0.00000000000E+00 0.  1.
         25    2    1    2    0    0  0.33212075600E+01 -0.23095015011E+02 -0.27513947572E+03  0.30314004345E+03  0.12509094574E+03 0.  0.
          5    1    3    3  502    0  0.25624963447E+02 -0.70259640058E+02 -0.16059394590E+03  0.17720311406E+03  0.41800000000E+01 0.  1.
         -5    1    3    3    0  502 -0.22303755887E+02  0.47164625047E+02 -0.11454552982E+03  0.12593692939E+03  0.41800000000E+01 0.  1.
        -11    1    1    2    0    0  0.23311240139E+02 -0.75154208268E+01 -0.11244731843E+03  0.11508386025E+03  0.00000000000E+00 0.  1.
         11    1    1    2    0    0 -0.26632447699E+02  0.30610435838E+02 -0.13656110895E+02  0.42810926378E+02  0.00000000000E+00 0. -1.
</event>
<event>
 7    1  0.2844572E-009  0.1870642E+03  0.7561462E-02  0.1161136E+00
         -2   -1    0    0    0  501 -0.00000000000E+00  0.00000000000E+00  0.32654261857E+03  0.32654261857E+03  0.00000000000E+00 0.  1.
          2   -1    0    0  501    0  0.00000000000E+00 -0.00000000000E+00 -0.26971027537E+03  0.26971027537E+03  0.00000000000E+00 0. -1.
         25    2    1    2    0    0 -0.11011688727E+03  0.11819443615E+03 -0.19574982914E+03  0.28295164774E+03  0.12509190923E+03 0.  0.
          5    1    3    3  502    0  0.11646403076E+02  0.72099692097E+02 -0.83341810551E+02  0.11089334557E+03  0.41800000000E+01 0.  1.
         -5    1    3    3    0  502 -0.12176329035E+03  0.46094744056E+02 -0.11240801859E+03  0.17205830218E+03  0.41800000000E+01 0.  1.
        -11    1    1    2    0    0  0.10044473628E+03 -0.72175284423E+02  0.11881496459E+03  0.17150921998E+03  0.00000000000E+00 0. -1.
         11    1    1    2    0    0  0.96721509902E+01 -0.46019151730E+02  0.13376720775E+03  0.14179202622E+03  0.00000000000E+00 0.  1.
</event>
<event>
 7    1  0.2844572E-009  0.9044296E+02  0.7561462E-02  0.1301783E+00
          1   -1    0    0  501    0  0.00000000000E+00  0.00000000000E+00  0.19284379152E+03  0.19284379152E+03  0.00000000000E+00 0. -1.
         -1   -1    0    0    0  501 -0.00000000000E+00 -0.00000000000E+00 -0.70657492240E+02  0.70657492240E+02  0.00000000000E+00 0.  1.
         25    2    1    2    0    0 -0.19406245069E+02 -0.35712036974E+02  0.43211376367E+02  0.13844393692E+03  0.12509016224E+03 0.  0.
          5    1    3    3  502    0  0.25947244831E+02 -0.28603358529E+00  0.70041113624E+02  0.74810235445E+02  0.41800000000E+01 0.  1.
         -5    1    3    3    0  502 -0.45353489901E+02 -0.35426003388E+02 -0.26829737257E+02  0.63633701476E+02  0.41800000000E+01 0.  1.
        -11    1    1    2    0    0  0.46914680606E+02  0.47690514987E+02  0.56602003029E+02  0.87630812064E+02  0.00000000000E+00 0.  1.
         11    1    1    2    0    0 -0.27508435536E+02 -0.11978478014E+02  0.22372919886E+02  0.37426534777E+02  0.00000000000E+00 0. -1.
</event>
<event>
 6    1  0.2844572E-009  0.1033002E+03  0.7561462E-02  0.1273505E+00
         -2   -1    0    0    0  501 -0.00000000000E+00  0.00000000000E+00  0.61846414682E+02  0.61846414682E+02  0.00000000000E+00 0. -1.
          2   -1    0    0  501    0  0.00000000000E+00 -0.00000000000E+00 -0.27767431383E+03  0.27767431383E+03  0.00000000000E+00 0.  1.
          5    1    1    2  502    0  0.19166044439E+02 -0.17082713301E+02  0.45246583834E+01  0.26402675748E+02  0.41800000000E+01 0.  1.
         -5    1    1    2    0  502 -0.32417143370E+02  0.79257758914E+02 -0.17158159425E+03  0.19180818392E+03  0.41800000000E+01 0.  1.
        -11    1    1    2    0    0 -0.28745737223E+02 -0.18068405828E+02  0.11283179228E+02  0.35778412921E+02  0.00000000000E+00 0. -1.
         11    1    1    2    0    0  0.41996836155E+02 -0.44106639785E+02 -0.60054142511E+02  0.85531455926E+02  0.00000000000E+00 0.  1.
</event>
<event>
 7    1  0.2844572E-009  0.5161023E+02  0.7561462E-02  0.1436845E+00
          1   -1    0    0  501    0  0.00000000000E+00  0.00000000000E+00  0.10202760752E+03  0.10202760752E+03  0.00000000000E+00 0. -1.
         -1   -1    0    0    0  501 -0.00000000000E+00 -0.00000000000E+00 -0.12183194820E+03  0.12183194820E+03  0.00000000000E+00 0.  1.
         25    2    1    2    0    0 -0.13003319856E+02  0.45984198162E+01 -0.18532557163E+02  0.12717871923E+03  0.12506294078E+03 0.  0.
          5    1    3    3  502    0 -0.68398572560E+01  0.14472017216E+01 -0.72324805277E+02  0.72782057531E+02  0.41800000000E+01 0. -1.
         -5    1    3    3    0  502 -0.61634626005E+01  0.31512180946E+01  0.53792248114E+02  0.54396661698E+02  0.41800000000E+01 0. -1.
        -11    1    1    2    0    0 -0.21486216499E+02 -0.34962712716E+02 -0.21667978570E+02  0.46406358134E+02  0.00000000000E+00 0.  1.
         11    1    1    2    0    0  0.34489536356E+02  0.30364292900E+02  0.20396195047E+02  0.50274478354E+02  0.00000000000E+00 0. -1.
</event>
<event>
 7    1  0.2844572E-009  0.1226912E+03  0.7561462E-02  0.1238722E+00
         -2   -1    0    0    0  501 -0.00000000000E+00  0.00000000000E+00  0.20994572962E+03  0.20994572962E+03  0.00000000000E+00 0.  1.
          2   -1    0    0  501    0  0.00000000000E+00 -0.00000000000E+00 -0.96824714199E+02  0.96824714199E+02  0.00000000000E+00 0. -1.
         25    2    1    2    0    0  0.85964447663E+02  0.15544602325E+02  0.28084767492E+02  0.15509924746E+03  0.12504199884E+03 0.  0.
          5    1    3    3  502    0 -0.32496013158E+02  0.79940181489E+01  0.76132794576E+01  0.34573539325E+02  0.41800000000E+01 0. -1.
         -5    1    3    3    0  502  0.11846046082E+03  0.75505841759E+01  0.20471488035E+02  0.12052570814E+03  0.41800000000E+01 0. -1.
        -11    1    1    2    0    0 -0.54026766244E+02  0.59985396785E+01  0.97118765619E+02  0.11129657939E+03  0.00000000000E+00 0.  1.
         11    1    1    2    0    0 -0.31937681419E+02 -0.21543142003E+02 -0.12082517687E+02  0.40374616970E+02  0.00000000000E+00 0. -1.
</event>
<event>
 7    1  0.2844572E-009  0.1129911E+03  0.7561462E-02  0.1255129E+00
         -2   -1    0    0    0  501 -0.00000000000E+00  0.00000000000E+00  0.23810567441E+02  0.23810567441E+02  0.00000000000E+00 0.  1.
          2   -1    0    0  501    0  0.00000000000E+00 -0.00000000000E+00 -0.61346602808E+03  0.61346602808E+03  0.00000000000E+00 0. -1.
         25    2    1    2    0    0 -0.18815241307E+02  0.50671629476E+02 -0.35902722955E+03  0.38401796705E+03  0.12509044774E+03 0.  0.
          5    1    3    3  502    0  0.48913933386E+02  0.30182737429E+02 -0.22659995688E+03  0.23381313773E+03  0.41800000000E+01 0. -1.
         -5    1    3    3    0  502 -0.67729174692E+02  0.20488892046E+02 -0.13242727267E+03  0.15020482931E+03  0.41800000000E+01 0. -1.
        -11    1    1    2    0    0  0.49469764838E+02 -0.17932755581E+02 -0.16924310009E+03  0.17723450083E+03  0.00000000000E+00 0.  1.
         11    1    1    2    0    0 -0.30654523531E+02 -0.32738873894E+02 -0.61385130993E+02  0.76024127643E+02  0.00000000000E+00 0. -1.
</event>
<event>
 7    1  0.2844572E-009  0.1102525E+03  0.7561462E-02  0.1260103E+00
          1   -1    0    0  501    0  0.00000000000E+00  0.00000000000E+00  0.98126163860E+02  0.98126163860E+02  0.00000000000E+00 0. -1.
         -1   -1    0    0    0  501 -0.00000000000E+00 -0.00000000000E+00 -0.13193546280E+03  0.13193546280E+03  0.00000000000E+00 0.  1.
         25    2    1    2    0    0  0.32961164493E+02  0.15754048359E+01 -0.36689912805E+02  0.13447433388E+03  0.12509307137E+03 0.  0.
          5    1    3    3  502    0 -0.22876418292E+02  0.47348600045E+02 -0.32653020466E+02  0.62039604977E+02  0.41800000000E+01 0. -1.
         -5    1    3    3    0  502  0.55837582785E+02 -0.45773195210E+02 -0.40368923389E+01  0.72434728900E+02  0.41800000000E+01 0. -1.
        -11    1    1    2    0    0 -0.62670152126E+02 -0.12263085063E+02  0.41063295073E+01  0.63990570905E+02  0.00000000000E+00 0. -1.
         11    1    1    2    0    0  0.29708987633E+02  0.10687680228E+02 -0.12257156458E+01  0.31596721881E+02  0.00000000000E+00 0.  1.
</event>
<event>
 7    1  0.2844572E-009  0.1305709E+03  0.7561462E-02  0.1226611E+00
         -3   -1    0    0    0  501 -0.00000000000E+00  0.00000000000E+00  0.15589160684E+03  0.15589160684E+03  0.00000000000E+00 0.  1.
          3   -1    0    0  501    0  0.00000000000E+00 -0.00000000000E+00 -0.15868726619E+03  0.15868726619E+03  0.00000000000E+00 0. -1.
         25    2    1    2    0    0 -0.96956369717E+02  0.33922733627E+02 -0.49395482431E+02  0.16923106994E+03  0.12509177376E+03 0.  0.
          5    1    3    3  502    0 -0.76021375347E+02  0.78271428796E+02 -0.17515419073E+02  0.11058900660E+03  0.41800000000E+01 0.  1.
         -5    1    3    3    0  502 -0.20934994371E+02 -0.44348695169E+02 -0.31880063359E+02  0.58642063336E+02  0.41800000000E+01 0.  1.
        -11    1    1    2    0    0  0.28949069458E+02 -0.94457111275E+01 -0.28078082037E+02  0.41420390776E+02  0.00000000000E+00 0. -1.
         11    1    1    2    0    0  0.68007300260E+02 -0.24477022499E+02  0.74677905120E+02  0.10392741232E+03  0.00000000000E+00 0.  1.
</event>
<event>
 7    1  0.2844572E-009  0.1277598E+03  0.7561462E-02  0.1230818E+00
         -1   -1    0    0    0  501 -0.00000000000E+00  0.00000000000E+00  0.51758577203E+02  0.51758577203E+02  0.00000000000E+00 0.  1.
          1   -1    0    0  501    0  0.00000000000E+00 -0.00000000000E+00 -0.38286577290E+03  0.38286577290E+03  0.00000000000E+00 0. -1.
         25    2    1    2    0    0 -0.65060257794E+02 -0.61820556738E+02 -0.17823759204E+03  0.23550879309E+03  0.12506451945E+03 0.  0.
          5    1    3    3  502    0 -0.10198283892E+03 -0.54713288717E+02 -0.14044924550E+03  0.18203710160E+03  0.41800000000E+01 0. -1.
         -5    1    3    3    0  502  0.36922581131E+02 -0.71072680207E+01 -0.37788346543E+02  0.53471691488E+02  0.41800000000E+01 0. -1.
        -11    1    1    2    0    0  0.52987900143E+02  0.17283778338E+02 -0.21262693950E+02  0.59653572477E+02  0.00000000000E+00 0. -1.
         11    1    1    2    0    0  0.12072357650E+02  0.44536778400E+02 -0.13160690971E+03  0.13946198454E+03  0.00000000000E+00 0.  1.
</event>
<event>
 7    1  0.2844572E-009  0.1237683E+03  0.7561462E-02  0.1237007E+00
         -2   -1    0    0    0  501 -0.00000000000E+00  0.00000000000E+00  0.26086788521E+02  0.26086788521E+02  0.00000000000E+00 0.  1.
          2   -1    0    0  501    0  0.00000000000E+00 -0.00000000000E+00 -0.13236942148E+04  0.13236942148E+04  0.00000000000E+00 0. -1.
         25    2    1    2    0    0 -0.78054920327E+02 -0.73019068042E+02 -0.10677591747E+04  0.10803606702E+04  0.12508064469E+03 0.  0.
          5    1    3    3  502    0  0.15598040484E+02 -0.36397797052E+02 -0.62671526590E+03  0.62797897689E+03  0.41800000000E+01 0.  1.
         -5    1    3    3    0  502 -0.93652960811E+02 -0.36621270990E+02 -0.44104390880E+03  0.45238169332E+03  0.41800000000E+01 0.  1.
        -11    1    1    2    0    0  0.27371035427E+02  0.29808541707E+02 -0.12894607572E+02  0.42473446334E+02  0.00000000000E+00 0.  1.
         11    1    1    2    0    0  0.50683884901E+02  0.43210526335E+02 -0.21695364403E+03  0.22694688681E+03  0.00000000000E+00 0. -1.
</event>
<event>
 7    1  0.2844572E-009  0.1359419E+03  0.7561462E-02  0.1218896E+00
          1   -1    0    0  501    0  0.00000000000E+00  0.00000000000E+00  0.32013689551E+03  0.32013689551E+03  0.00000000000E+00 0. -1.
         -1   -1    0    0    0  501 -0.00000000000E+00 -0.00000000000E+00 -0.64405322854E+02  0.64405322854E+02  0.00000000000E+00 0.  1.
         25    2    1    2    0    0  0.71569291647E+02 -0.60652216195E+02  0.12807797588E+03  0.20211972713E+03  0.12509021286E+03 0.  0.
          5    1    3    3  502    0 -0.71514988008E+00 -0.68601890376E+02  0.19631439794E+02  0.71481442563E+02  0.41800000000E+01 0.  1.
         -5    1    3    3    0  502  0.72284441527E+02  0.79496741806E+01  0.10844653608E+03  0.13063828457E+03  0.41800000000E+01 0.  1.
        -11    1    1    2    0    0  0.60735318133E+01  0.51811269611E+02  0.50215737952E+02  0.72407981504E+02  0.00000000000E+00 0. -1.
         11    1    1    2    0    0 -0.77642823460E+02  0.88409465840E+01  0.77437858825E+02  0.11001450973E+03  0.00000000000E+00 0.  1.
</event>
<event>
 7    1  0.2844572E-009  0.1243849E+03  0.7561462E-02  0.1236034E+00
          2   -1    0    0  501    0  0.00000000000E+00  0.00000000000E+00  0.22317532623E+03  0.22317532623E+03  0.00000000000E+00 0. -1.
         -2   -1    0    0    0  501 -0.00000000000E+00 -0.00000000000E+00 -0.10230132928E+03  0.10230132928E+03  0.00000000000E+00 0.  1.
         25    2    1    2    0    0  0.53820698778E+01 -0.94132243130E+02  0.17190375183E+02  0.15758422784E+03  0.12508970378E+03 0.  0.
          5    1    3    3  502    0 -0.47542910282E+02 -0.81634071939E+02  0.34036478884E+02  0.10050076773E+03  0.41800000000E+01 0. -1.
         -5    1    3    3    0  502  0.52924980159E+02 -0.12498171192E+02 -0.16846103702E+02  0.57083460108E+02  0.41800000000E+01 0. -1.
        -11    1    1    2    0    0 -0.18173117333E+02  0.70392660746E+02  0.13732633964E+02  0.73986310329E+02  0.00000000000E+00 0.  1.
         11    1    1    2    0    0  0.12791047455E+02  0.23739582384E+02  0.89950987801E+02  0.93906117336E+02  0.00000000000E+00 0. -1.
</event>
<event>
 7    1  0.2844572E-009  0.1225410E+03  0.7561462E-02  0.1238963E+00
          1   -1    0    0  501    0  0.00000000000E+00  0.00000000000E+00  0.35050111063E+03  0.35050111063E+03  0.00000000000E+00 0. -1.
         -1   -1    0    0    0  501 -0.00000000000E+00 -0.00000000000E+00 -0.57225175104E+02  0.57225175104E+02  0.00000000000E+00 0.  1.
         25    2    1    2    0    0  0.73188683927E+02  0.28348788455E+02  0.22086867828E+03  0.26568735119E+03  0.12508620338E+03 0.  0.
          5    1    3    3  502    0  0.10095238948E+02 -0.45045091017E+02  0.10418032226E+03  0.11402625146E+03  0.41800000000E+01 0.  1.
         -5    1    3    3    0  502  0.63093444979E+02  0.73393879473E+02  0.11668835602E+03  0.15166109974E+03  0.41800000000E+01 0.  1.
        -11    1    1    2    0    0 -0.39166397766E+02 -0.48478940622E+02  0.32838838489E+01  0.62409921414E+02  0.00000000000E+00 0.  1.
         11    1    1    2    0    0 -0.34022286161E+02  0.20130152167E+02  0.69123373392E+02  0.79629013123E+02  0.00000000000E+00 0. -1.
</event>
<event>
 7    1  0.2844572E-009  0.9057585E+02  0.7561462E-02  0.1301463E+00
          2   -1    0    0  501    0  0.00000000000E+00  0.00000000000E+00  0.19980578016E+03  0.19980578016E+03  0.00000000000E+00 0.  1.
         -2   -1    0    0    0  501 -0.00000000000E+00 -0.00000000000E+00 -0.72542784073E+02  0.72542784073E+02  0.00000000000E+00 0. -1.
         25    2    1    2    0    0  0.45188255639E+02  0.14562660062E+02  0.51797300454E+02  0.14347717170E+03  0.12509471991E+03 0.  0.
          5    1    3    3  502    0  0.72379076558E+02 -0.31975673659E+02  0.24656929886E+02  0.82985607310E+02  0.41800000000E+01 0. -1.
         -5    1    3    3    0  502 -0.27190820918E+02  0.46538333721E+02  0.27140370568E+02  0.60491564390E+02  0.41800000000E+01 0. -1.
        -11    1    1    2    0    0 -0.19610710350E+02 -0.32225805561E+01  0.93496915305E+02  0.95585763362E+02  0.00000000000E+00 0.  1.
         11    1    1    2    0    0 -0.25577545290E+02 -0.11340079506E+02 -0.18031219674E+02  0.33285629169E+02  0.00000000000E+00 0. -1.
</event>
<event>
 7    1  0.2844572E-009  0.1116371E+03  0.7561462E-02  0.1257568E+00
         -1   -1    0    0    0  501 -0.00000000000E+00  0.00000000000E+00  0.89312960899E+01  0.89312960899E+01  0.00000000000E+00 0.  1.
          1   -1    0    0  501    0  0.00000000000E+00 -0.00000000000E+00 -0.19208056563E+04  0.19208056563E+04  0.00000000000E+00 0. -1.
         25    2    1    2    0    0  0.30369391148E+02  0.34326310870E+02 -0.14901106006E+04  0.14960529138E+04  0.12507647013E+03 0.  0.
          5    1    3    3  502    0 -0.13206411350E+01  0.76590275094E+02 -0.70656368079E+03  0.71071620338E+03  0.41800000000E+01 0.  1.
         -5    1    3    3    0  502  0.31690032283E+02 -0.42263964223E+02 -0.78354691980E+03  0.78533671042E+03  0.41800000000E+01 0.  1.
        -11    1    1    2    0    0 -0.14873668630E+02  0.26722850947E+02 -0.70948377249E+02  0.77259361993E+02  0.00000000000E+00 0.  1.
         11    1    1    2    0    0 -0.15495722518E+02 -0.61049161817E+02 -0.35081538232E+03  0.35642467654E+03  0.00000000000E+00 0. -1.
</event>
<event>
 7    1  0.2844572E-009  0.9266279E+02  0.7561462E-02  0.1296529E+00
          2   -1    0    0  501    0  0.00000000000E+00  0.00000000000E+00  0.59270989655E+03  0.59270989655E+03  0.00000000000E+00 0.  1.
         -2   -1    0    0    0  501 -0.00000000000E+00 -0.00000000000E+00 -0.27699253482E+02  0.27699253482E+02  0.00000000000E+00 0. -1.
         25    2    1    2    0    0  0.55592208374E+02 -0.38225538252E+02  0.30922692767E+03  0.34032430268E+03  0.12509057836E+03 0.  0.
          5    1    3    3  502    0  0.48533638722E+02 -0.14086150436E+02  0.27964484241E+02  0.57908708331E+02  0.41800000000E+01 0.  1.
         -5    1    3    3    0  502  0.70585696523E+01 -0.24139387816E+02  0.28126244343E+03  0.28241559435E+03  0.41800000000E+01 0.  1.
        -11    1    1    2    0    0 -0.11920544646E+02 -0.27635419093E+02  0.38440153231E+02  0.48820704148E+02  0.00000000000E+00 0. -1.
         11    1    1    2    0    0 -0.43671663728E+02  0.65860957344E+02  0.21734356217E+03  0.23126414320E+03  0.00000000000E+00 0.  1.
</event>
<event>
 7    1  0.2844572E-009  0.9329422E+02  0.7561462E-02  0.1295065E+00
         -2   -1    0    0    0  501 -0.00000000000E+00  0.00000000000E+00  0.26975208696E+03  0.26975208696E+03  0.00000000000E+00 0. -1.
          2   -1    0    0  501    0  0.00000000000E+00 -0.00000000000E+00 -0.62406162341E+02  0.62406162341E+02  0.00000000000E+00 0.  1.
         25    2    1    2    0    0 -0.15213941621E+02  0.51486652096E+02  0.17634755071E+03  0.22275698820E+03  0.12505949699E+03 0.  0.
          5    1    3    3  502    0  0.18691372393E+02 -0.34968006289E+02  0.76940143361E+02  0.86656718875E+02  0.41800000000E+01 0. -1.
         -5    1    3    3    0  502 -0.33905314014E+02  0.86454658385E+02  0.99407407347E+02  0.13610026932E+03  0.41800000000E+01 0. -1.
        -11    1    1    2    0    0  0.29468836747E+01 -0.14334393511E+02 -0.32031106709E+02  0.35215774274E+02  0.00000000000E+00 0.  1.
         11    1    1    2    0    0  0.12267057947E+02 -0.37152258585E+02  0.63029480616E+02  0.74185486824E+02  0.00000000000E+00 0. -1.
</event>
<event>
 7    1  0.2844572E-009  0.1025387E+03  0.7561462E-02  0.1275046E+00
          2   -1    0    0  501    0  0.00000000000E+00  0.00000000000E+00  0.89453534902E+03  0.89453534902E+03  0.00000000000E+00 0. -1.
         -2   -1    0    0    0  501 -0.00000000000E+00 -0.00000000000E+00 -0.18120595564E+02  0.18120595564E+02  0.00000000000E+00 0.  1.
         25    2    1    2    0    0 -0.13860360074E+02 -0.66418728611E+02  0.50586688054E+03  0.52549931370E+03  0.12507865836E+03 0.  0.
          5    1    3    3  502    0 -0.35624328055E+02 -0.60681234907E+02  0.12161910662E+03  0.14057021204E+03  0.41800000000E+01 0. -1.
         -5    1    3    3    0  502  0.21763967981E+02 -0.57374937038E+01  0.38424777393E+03  0.38492910166E+03  0.41800000000E+01 0. -1.
        -11    1    1    2    0    0 -0.20819448705E+02  0.73421065520E+02  0.23584381322E+03  0.24788385696E+03  0.00000000000E+00 0.  1.
         11    1    1    2    0    0  0.34679808779E+02 -0.70023369091E+01  0.13470405970E+03  0.13927277393E+03  0.00000000000E+00 0. -1.
</event>
<event>
 7    1  0.2844572E-009  0.9905009E+02  0.7561462E-02  0.1282306E+00
          1   -1    0    0  501    0  0.00000000000E+00  0.00000000000E+00  0.15320943248E+03  0.15320943248E+03  0.00000000000E+00 0. -1.
         -1   -1    0    0    0  501 -0.00000000000E+00 -0.00000000000E+00 -0.92601468370E+02  0.92601468370E+02  0.00000000000E+00 0.  1.
         25    2    1    2    0    0 -0.23112965044E+02 -0.30980061416E+02  0.64947918412E+02  0.14615108758E+03  0.12509170610E+03 0.  0.
          5    1    3    3  502    0 -0.13616860884E+02  0.47379532794E+02  0.38868597863E+02  0.62916447198E+02  0.41800000000E+01 0. -1.
         -5    1    3    3    0  502 -0.94961041601E+01 -0.78359594211E+02  0.26079320549E+02  0.83234640381E+02  0.41800000000E+01 0. -1.
        -11    1    1    2    0    0  0.42708748866E+02  0.21087062757E+02  0.31874246966E+02  0.57312032463E+02  0.00000000000E+00 0. -1.
         11    1    1    2    0    0 -0.19595783822E+02  0.98929986593E+01 -0.36214201267E+02  0.42347780809E+02  0.00000000000E+00 0.  1.
</event>
<event>
 7    1  0.2844572E-009  0.2087991E+03  0.7561462E-02  0.1142520E+00
          1   -1    0    0  501    0  0.00000000000E+00  0.00000000000E+00  0.10023806642E+04  0.10023806642E+04  0.00000000000E+00 0. -1.
         -1   -1    0    0    0  501 -0.00000000000E+00 -0.00000000000E+00 -0.50049509179E+02  0.50049509179E+02  0.00000000000E+00 0.  1.
         25    2    1    2    0    0  0.12861914675E+03 -0.14632773498E+03  0.44342544238E+03  0.50022857917E+03  0.12509123685E+03 0.  0.
          5    1    3    3  502    0  0.14044619592E+02  0.17110459287E+02  0.10427598278E+03  0.10668163920E+03  0.41800000000E+01 0.  1.
         -5    1    3    3    0  502  0.11457452716E+03 -0.16343819426E+03  0.33914945959E+03  0.39354693997E+03  0.41800000000E+01 0.  1.
        -11    1    1    2    0    0 -0.33630857379E+02  0.49000005820E+02  0.27748839790E+03  0.28378133502E+03  0.00000000000E+00 0. -1.
         11    1    1    2    0    0 -0.94988289371E+02  0.97327729157E+02  0.23141731477E+03  0.26842025921E+03  0.00000000000E+00 0.  1.
</event>
<event>
 7    1  0.2844572E-009  0.1273953E+03  0.7561462E-02  0.1231373E+00
         -1   -1    0    0    0  501 -0.00000000000E+00  0.00000000000E+00  0.33287450259E+03  0.33287450259E+03  0.00000000000E+00 0.  1.
          1   -1    0    0  501    0  0.00000000000E+00 -0.00000000000E+00 -0.75759357373E+02  0.75759357373E+02  0.00000000000E+00 0. -1.
         25    2    1    2    0    0 -0.66747311132E+02  0.28730922838E+00  0.17186518474E+02  0.14282227605E+03  0.12509012762E+03 0.  0.
          5    1    3    3  502    0 -0.93264373681E+02 -0.31925968561E+02  0.20450365093E+02  0.10076309195E+03  0.41800000000E+01 0. -1.
         -5    1    3    3    0  502  0.26517062549E+02  0.32213277789E+02 -0.32638466193E+01  0.42059184097E+02  0.41800000000E+01 0. -1.
        -11    1    1    2    0    0  0.63282062667E+02 -0.39649817444E+02  0.14893176941E+03  0.16660552037E+03  0.00000000000E+00 0. -1.
         11    1    1    2    0    0  0.34652484650E+01  0.39362508216E+02  0.90996857337E+02  0.99206063550E+02  0.00000000000E+00 0.  1.
</event>
<event>
 7    1  0.2844572E-009  0.9679491E+02  0.7561462E-02  0.1287184E+00
         -2   -1    0    0    0  501 -0.00000000000E+00  0.00000000000E+00  0.99239444645E+01  0.99239444645E+01  0.00000000000E+00 0.  1.
          2   -1    0    0  501    0  0.00000000000E+00 -0.00000000000E+00 -0.17101268090E+04  0.17101268090E+04  0.00000000000E+00 0. -1.
         25    2    1    2    0    0  0.27427732958E+02 -0.54211784468E+02 -0.12167798360E+04  0.12247007759E+04  0.12509045934E+03 0.  0.
          5    1    3    3  502    0 -0.13817104236E+02  0.38416764863E+01 -0.89431260478E+03  0.89443735293E+03  0.41800000000E+01 0.  1.
         -5    1    3    3    0  502  0.41244837194E+02 -0.58053460954E+02 -0.32246723123E+03  0.33026342295E+03  0.41800000000E+01 0.  1.
        -11    1    1    2    0    0 -0.59939656561E+02  0.38174564803E+02 -0.34626125326E+03  0.35347830957E+03  0.00000000000E+00 0. -1.
         11    1    1    2    0    0  0.32511923603E+02  0.16037219665E+02 -0.13716177530E+03  0.14187166805E+03  0.00000000000E+00 0.  1.
</event>
<event>
 7    1  0.2844572E-009  0.7659613E+02  0.7561462E-02  0.1338998E+00
         -1   -1    0    0    0  501 -0.00000000000E+00  0.00000000000E+00  0.56648117433E+02  0.56648117433E+02  0.00000000000E+00 0.  1.
          1   -1    0    0  501    0  0.00000000000E+00 -0.00000000000E+00 -0.24953764037E+03  0.24953764037E+03  0.00000000000E+00 0. -1.
         25    2    1    2    0    0  0.40475565238E+02  0.42731844201E+01 -0.73783253898E+02  0.15082422100E+03  0.12508975017E+03 0.  0.
          5    1    3    3  502    0  0.27386600100E+00  0.24252901961E+02 -0.97025944739E+02  0.10009887416E+03  0.41800000000E+01 0. -1.
         -5    1    3    3    0  502  0.40201699237E+02 -0.19979717540E+02  0.23242690840E+02  0.50725346840E+02  0.41800000000E+01 0. -1.
        -11    1    1    2    0    0  0.21137269101E+02  0.33839732204E+01 -0.78038932311E+02  0.80921631076E+02  0.00000000000E+00 0. -1.
         11    1    1    2    0    0 -0.61612834339E+02 -0.76571576405E+01 -0.41067336725E+02  0.74439905723E+02  0.00000000000E+00 0.  1.
</event>
<event>
 7    1  0.2844572E-009  0.8896960E+02  0.7561462E-02  0.1305366E+00
          4   -1    0    0  501    0  0.00000000000E+00  0.00000000000E+00  0.12192993222E+03  0.12192993222E+03  0.00000000000E+00 0. -1.
         -4   -1    0    0    0  501 -0.00000000000E+00 -0.00000000000E+00 -0.14471645046E+03  0.14471645046E+03  0.00000000000E+00 0.  1.
         25    2    1    2    0    0 -0.54503065080E+02  0.34571248546E+02  0.24879001655E+02  0.14294061208E+03  0.12508916232E+03 0.  0.
          5    1    3    3  502    0 -0.29606587108E+02  0.33792523088E+02  0.74593152538E+02  0.87178526154E+02  0.41800000000E+01 0.  1.
         -5    1    3    3    0  502 -0.24896477972E+02  0.77872545822E+00 -0.49714150882E+02  0.55762085925E+02  0.41800000000E+01 0.  1.
        -11    1    1    2    0    0 -0.19949880881E+02 -0.25769389758E+02 -0.34731127959E+02  0.47626782853E+02  0.00000000000E+00 0.  1.
         11    1    1    2    0    0  0.74452945962E+02 -0.88018587884E+01 -0.12934391936E+02  0.76078987738E+02  0.00000000000E+00 0. -1.
</event>
<event>
 7    1  0.2844572E-009  0.1443669E+03  0.7561462E-02  0.1207571E+00
         -1   -1    0    0    0  501 -0.00000000000E+00  0.00000000000E+00  0.44784771214E+02  0.44784771214E+02  0.00000000000E+00 0. -1.
          1   -1    0    0  501    0  0.00000000000E+00 -0.00000000000E+00 -0.60746764388E+03  0.60746764388E+03  0.00000000000E+00 0.  1.
         25    2    1    2    0    0  0.12212442353E+03  0.15562107517E+02 -0.29452305143E+03  0.34285258040E+03  0.12509000778E+03 0.  0.
          5    1    3    3  502    0  0.76789164517E+02  0.35926858599E+02 -0.62186996960E+02  0.10522361877E+03  0.41800000000E+01 0. -1.
         -5    1    3    3    0  502  0.45335259015E+02 -0.20364751082E+02 -0.23233605447E+03  0.23762896163E+03  0.41800000000E+01 0. -1.
        -11    1    1    2    0    0 -0.88420928520E+01  0.30450069884E+02 -0.64068779864E+02  0.71485648316E+02  0.00000000000E+00 0. -1.
         11    1    1    2    0    0 -0.11328233068E+03 -0.46012177401E+02 -0.20409104137E+03  0.23791418638E+03  0.00000000000E+00 0.  1.
</event>
<event>
 7    1  0.2844572E-009  0.1358539E+03  0.7561462E-02  0.1219019E+00
          1   -1    0    0  501    0  0.00000000000E+00  0.00000000000E+00  0.10356725735E+04  0.10356725735E+04  0.00000000000E+00 0. -1.
         -1   -1    0    0    0  501 -0.00000000000E+00 -0.00000000000E+00 -0.20829034317E+02  0.20829034317E+02  0.00000000000E+00 0.  1.
         25    2    1    2    0    0 -0.85294466989E+02  0.45899392339E+02  0.56340709189E+03  0.58519918999E+03  0.12509452605E+03 0.  0.
          5    1    3    3  502    0 -0.10760011144E+03  0.54705521749E+02  0.53158842824E+03  0.54513687046E+03  0.41800000000E+01 0.  1.
         -5    1    3    3    0  502  0.22305644447E+02 -0.88061294101E+01  0.31818663650E+02  0.40062319527E+02  0.41800000000E+01 0.  1.
        -11    1    1    2    0    0  0.78502347501E+02 -0.67754647379E+02  0.41875947224E+03  0.43140793502E+03  0.00000000000E+00 0.  1.
         11    1    1    2    0    0  0.67921194880E+01  0.21855255040E+02  0.32676975005E+02  0.39894482770E+02  0.00000000000E+00 0. -1.
</event>
<event>
 7    1  0.2844572E-009  0.1152359E+03  0.7561462E-02  0.1251170E+00
          2   -1    0    0  501    0  0.00000000000E+00  0.00000000000E+00  0.34033845463E+03  0.34033845463E+03  0.00000000000E+00 0. -1.
         -2   -1    0    0    0  501 -0.00000000000E+00 -0.00000000000E+00 -0.67272061945E+02  0.67272061945E+02  0.00000000000E+00 0.  1.
         25    2    1    2    0    0 -0.13611474984E+02 -0.45960067370E+02  0.26825718568E+03  0.29984239924E+03  0.12508375862E+03 0.  0.
          5    1    3    3  502    0 -0.67136018586E+02 -0.70207958609E+01  0.13555773196E+03  0.15149226930E+03  0.41800000000E+01 0. -1.
         -5    1    3    3    0  502  0.53524543601E+02 -0.38939271509E+02  0.13269945372E+03  0.14835012994E+03  0.41800000000E+01 0. -1.
        -11    1    1    2    0    0 -0.63553479116E+01 -0.23448658640E+02 -0.19931574620E+02  0.31424476223E+02  0.00000000000E+00 0.  1.
         11    1    1    2    0    0  0.19966822896E+02  0.69408726010E+02  0.24740781628E+02  0.76343641113E+02  0.00000000000E+00 0. -1.
</event>
<event>
 7    1  0.2844572E-009  0.1386330E+03  0.7561462E-02  0.1215180E+00
          3   -1    0    0  501    0  0.00000000000E+00  0.00000000000E+00  0.86138830189E+02  0.86138830189E+02  0.00000000000E+00 0. -1.
         -3   -1    0    0    0  501 -0.00000000000E+00 -0.00000000000E+00 -0.23465720280E+03  0.23465720280E+03  0.00000000000E+00 0.  1.
         25    2    1    2    0    0  0.43162065642E+02 -0.74523947649E+02 -0.49044663039E+02  0.15959200155E+03  0.12508974899E+03 0.  0.
          5    1    3    3  502    0  0.85263534916E+02 -0.30102972696E+02 -0.28547059307E+02  0.94912940880E+02  0.41800000000E+01 0. -1.
         -5    1    3    3    0  502 -0.42101469273E+02 -0.44420974954E+02 -0.20497603731E+02  0.64679060673E+02  0.41800000000E+01 0. -1.
        -11    1    1    2    0    0 -0.36451198236E+02  0.96113890276E+02 -0.71398637374E+02  0.12515724180E+03  0.00000000000E+00 0.  1.
         11    1    1    2    0    0 -0.67108674067E+01 -0.21589942627E+02 -0.28075072201E+02  0.36046789636E+02  0.00000000000E+00 0. -1.
</event>
<event>
 7    1  0.2844572E-009  0.5736247E+02  0.7561462E-02  0.1409246E+00
         -2   -1    0    0    0  501 -0.00000000000E+00  0.00000000000E+00  0.11493291306E+03  0.11493291306E+03  0.00000000000E+00 0. -1.
          2   -1    0    0  501    0  0.00000000000E+00 -0.00000000000E+00 -0.11142369431E+03  0.11142369431E+03  0.00000000000E+00 0.  1.
         25    2    1    2    0    0  0.18392069425E+02 -0.25083226400E+02 -0.75393056348E+01  0.12911975046E+03  0.12509049670E+03 0.  0.
          5    1    3    3  502    0  0.66420036907E+01  0.62129450243E+01  0.56168086129E+02  0.57052985884E+02  0.41800000000E+01 0. -1.
         -5    1    3    3    0  502  0.11750065734E+02 -0.31296171425E+02 -0.63707391764E+02  0.72066764573E+02  0.41800000000E+01 0. -1.
        -11    1    1    2    0    0  0.23118699552E+02  0.17097190414E+02  0.37587540700E+02  0.47324532802E+02  0.00000000000E+00 0. -1.
         11    1    1    2    0    0 -0.41510768977E+02  0.79860359866E+01 -0.26539016311E+02  0.49912324115E+02  0.00000000000E+00 0.  1.
</event>
<event>
 7    1  0.2844572E-009  0.1646039E+03  0.7561462E-02  0.1183595E+00
          2   -1    0    0  501    0  0.00000000000E+00  0.00000000000E+00  0.26564501725E+03  0.26564501725E+03  0.00000000000E+00 0. -1.
         -2   -1    0    0    0  501 -0.00000000000E+00 -0.00000000000E+00 -0.15177921365E+03  0.15177921365E+03  0.00000000000E+00 0.  1.
         25    2    1    2    0    0  0.51383713287E+02 -0.14309637175E+03  0.13591712390E+03  0.23924325458E+03  0.12508801979E+03 0.  0.
          5    1    3    3  502    0  0.22373878936E+01 -0.11810959282E+01  0.78111487861E+02  0.78264154170E+02  0.41800000000E+01 0.  1.
         -5    1    3    3    0  502  0.49146325393E+02 -0.14191527582E+03  0.57805636041E+02  0.16097910041E+03  0.41800000000E+01 0.  1.
        -11    1    1    2    0    0 -0.57905743085E+02  0.39081362875E+02  0.63868426856E+01  0.70151406015E+02  0.00000000000E+00 0.  1.
         11    1    1    2    0    0  0.65220297986E+01  0.10401500888E+03 -0.28438162990E+02  0.10802957030E+03  0.00000000000E+00 0. -1.
</event>
<event>
 7    1  0.2844572E-009  0.1879983E+03  0.7561462E-02  0.1160279E+00
          1   -1    0    0  501    0  0.00000000000E+00  0.00000000000E+00  0.75589891214E+03  0.75589891214E+03  0.00000000000E+00 0. -1.
         -1   -1    0    0    0  501 -0.00000000000E+00 -0.00000000000E+00 -0.49198941068E+02  0.49198941068E+02  0.00000000000E+00 0.  1.
         25    2    1    2    0    0 -0.14487647712E+02  0.15681770641E+03  0.34013234756E+03  0.39514500495E+03  0.12509147094E+03 0.  0.
          5    1    3    3  502    0 -0.36247400268E+02  0.21007079467E+01  0.11804561730E+03  0.12357397446E+03  0.41800000000E+01 0. -1.
         -5    1    3    3    0  502  0.21759752555E+02  0.15471699847E+03  0.22208673026E+03  0.27157103049E+03  0.41800000000E+01 0. -1.
        -11    1    1    2    0    0 -0.36360292773E+02 -0.10245791222E+03  0.20425656666E+03  0.23138807162E+03  0.00000000000E+00 0.  1.
         11    1    1    2    0    0  0.50847940485E+02 -0.54359794190E+02  0.16231105686E+03  0.17856477664E+03  0.00000000000E+00 0. -1.
</event>
<event>
 7    1  0.2844572E-009  0.1388559E+03  0.7561462E-02  0.1214877E+00
         -3   -1    0    0    0  501 -0.00000000000E+00  0.00000000000E+00  0.16047212716E+02  0.16047212716E+02  0.00000000000E+00 0.  1.
          3   -1    0    0  501    0  0.00000000000E+00 -0.00000000000E+00 -0.15251378824E+04  0.15251378824E+04  0.00000000000E+00 0. -1.
         25    2    1    2    0    0  0.77565117477E+02 -0.48907713172E+02 -0.11313018211E+04  0.11418844738E+04  0.12509208231E+03 0.  0.
          5    1    3    3  502    0  0.10205516418E+03 -0.65147579557E+02 -0.78257552759E+03  0.79189733706E+03  0.41800000000E+01 0. -1.
         -5    1    3    3    0  502 -0.24490046702E+02  0.16239866385E+02 -0.34872629355E+03  0.34998713671E+03  0.41800000000E+01 0. -1.
        -11    1    1    2    0    0  0.30536852472E+01  0.46114115769E+02 -0.17648208433E+03  0.18243289933E+03  0.00000000000E+00 0.  1.
         11    1    1    2    0    0 -0.80618802724E+02  0.27935974031E+01 -0.20130676426E+03  0.21686772207E+03  0.00000000000E+00 0. -1.
</event>
<event>
 7    1  0.2844572E-009  0.1007694E+03  0.7561462E-02  0.1278686E+00
          4   -1    0    0  501    0  0.00000000000E+00  0.00000000000E+00  0.64147381825E+03  0.64147381825E+03  0.00000000000E+00 0.  1.
         -4   -1    0    0    0  501 -0.00000000000E+00 -0.00000000000E+00 -0.22415577121E+02  0.22415577121E+02  0.00000000000E+00 0. -1.
         25    2    1    2    0    0  0.19677619217E+02 -0.43122949848E+02  0.38069086638E+03  0.40350918952E+03  0.12508929923E+03 0.  0.
          5    1    3    3  502    0  0.20525089870E+02 -0.68485563325E+02  0.10787504966E+03  0.12948378445E+03  0.41800000000E+01 0.  1.
         -5    1    3    3    0  502 -0.84747065315E+00  0.25362613477E+02  0.27281581672E+03  0.27402540507E+03  0.41800000000E+01 0.  1.
        -11    1    1    2    0    0  0.24184447655E+02 -0.17158171535E+02  0.56065772737E+02  0.63424452945E+02  0.00000000000E+00 0.  1.
         11    1    1    2    0    0 -0.43862066872E+02  0.60281121383E+02  0.18230160201E+03  0.19695575290E+03  0.00000000000E+00 0. -1.
</event>
<event>
 7    1  0.2844572E-009  0.9161361E+02  0.7561462E-02  0.1298990E+00
         -1   -1    0    0    0  501 -0.00000000000E+00  0.00000000000E+00  0.17041375141E+03  0.17041375141E+03  0.00000000000E+00 0.  1.
          1   -1    0    0  501    0  0.00000000000E+00 -0.00000000000E+00 -0.12143764209E+03  0.12143764209E+03  0.00000000000E+00 0. -1.
         25    2    1    2    0    0 -0.18308569285E+02 -0.89101134103E+02  0.51487831733E+02  0.16301125186E+03  0.12508979018E+03 0.  0.
          5    1    3    3  502    0 -0.15568861106E+02 -0.80259133647E+02 -0.25200611757E+02  0.85653144734E+02  0.41800000000E+01 0. -1.
         -5    1    3    3    0  502 -0.27397081789E+01 -0.88420004556E+01  0.76688443490E+02  0.77358107125E+02  0.41800000000E+01 0. -1.
        -11    1    1    2    0    0  0.14817305563E+02  0.56123335726E+02  0.43206247410E+02  0.72361323733E+02  0.00000000000E+00 0.  1.
         11    1    1    2    0    0  0.34912637218E+01  0.32977798377E+02 -0.45717969821E+02  0.56478817912E+02  0.00000000000E+00 0. -1.
</event>
<event>
 7    1  0.2844572E-009  0.1140066E+03  0.7561462E-02  0.1253325E+00
         -4   -1    0    0    0  501 -0.00000000000E+00  0.00000000000E+00  0.52591025963E+02  0.52591025963E+02  0.00000000000E+00 0.  1.
          4   -1    0    0  501    0  0.00000000000E+00 -0.00000000000E+00 -0.48227430959E+03  0.48227430959E+03  0.00000000000E+00 0. -1.
         25    2    1    2    0    0 -0.95942233996E+02 -0.38292666117E+02 -0.13826743554E+03  0.21315842495E+03  0.12508952736E+03 0.  0.
          5    1    3    3  502    0 -0.10230673420E+03 -0.31037672033E+02 -0.39838367963E+02  0.11416905408E+03  0.41800000000E+01 0. -1.
         -5    1    3    3    0  502  0.63645002044E+01 -0.72549940838E+01 -0.98429067572E+02  0.98989370870E+02  0.41800000000E+01 0. -1.
        -11    1    1    2    0    0  0.34377630031E+02  0.34681440980E+02 -0.22829852048E+03  0.23346271276E+03  0.00000000000E+00 0. -1.
         11    1    1    2    0    0  0.61564603965E+02  0.36112251367E+01 -0.63117327613E+02  0.88244197845E+02  0.00000000000E+00 0.  1.
</event>
<event>
 7    1  0.2844572E-009  0.1668484E+03  0.7561462E-02  0.1181175E+00
          2   -1    0    0  501    0  0.00000000000E+00  0.00000000000E+00  0.93136236597E+03  0.93136236597E+03  0.00000000000E+00 0. -1.
         -2   -1    0    0    0  501 -0.00000000000E+00 -0.00000000000E+00 -0.31582063307E+02  0.31582063307E+02  0.00000000000E+00 0.  1.
         25    2    1    2    0    0 -0.11879736084E+03  0.64801373889E+02  0.46076476359E+03  0.49624969442E+03  0.12509021083E+03 0.  0.
          5    1    3    3  502    0 -0.28541177161E+02  0.85430047034E+02  0.19636950364E+03  0.21608180417E+03  0.41800000000E+01 0. -1.
         -5    1    3    3    0  502 -0.90256183683E+02 -0.20628673145E+02  0.26439525994E+03  0.28016789025E+03  0.41800000000E+01 0. -1.
        -11    1    1    2    0    0  0.30260091809E+02 -0.53674474176E+02  0.25282975926E+03  0.26022972448E+03  0.00000000000E+00 0. -1.
         11    1    1    2    0    0  0.88537269035E+02 -0.11126899714E+02  0.18618577981E+03  0.20646501038E+03  0.00000000000E+00 0.  1.
</event>
<event>
 7    1  0.2844572E-009  0.1121772E+03  0.7561462E-02  0.1256590E+00
         -1   -1    0    0    0  501 -0.00000000000E+00  0.00000000000E+00  0.33794900494E+03  0.33794900494E+03  0.00000000000E+00 0.  1.
          1   -1    0    0  501    0  0.00000000000E+00 -0.00000000000E+00 -0.41623214331E+02  0.41623214331E+02  0.00000000000E+00 0. -1.
         25    2    1    2    0    0  0.34495308816E+02  0.26758108804E+02  0.20253526055E+03  0.24201980786E+03  0.12508850032E+03 0.  0.
          5    1    3    3  502    0 -0.41553385538E+02  0.36448341293E+02  0.92734230524E+02  0.10803830498E+03  0.41800000000E+01 0.  1.
         -5    1    3    3    0  502  0.76048694354E+02 -0.96902324885E+01  0.10980103003E+03  0.13398150288E+03  0.41800000000E+01 0.  1.
        -11    1    1    2    0    0 -0.43084797748E+01 -0.52376455981E+02  0.79820910674E+02  0.95567954461E+02  0.00000000000E+00 0.  1.
         11    1    1    2    0    0 -0.30186829041E+02  0.25618347176E+02  0.13969619383E+02  0.41984456949E+02  0.00000000000E+00 0. -1.
</event>
<event>
 7    1  0.2844572E-009  0.9009342E+02  0.7561462E-02  0.1302626E+00
         -2   -1    0    0    0  501 -0.00000000000E+00  0.00000000000E+00  0.80617216068E+02  0.80617216068E+02  0.00000000000E+00 0.  1.
          2   -1    0    0  501    0  0.00000000000E+00 -0.00000000000E+00 -0.24774988137E+03  0.24774988137E+03  0.00000000000E+00 0. -1.
         25    2    1    2    0    0 -0.23055220678E+02 -0.22236298255E+02 -0.18944769160E+03  0.22926565511E+03  0.12508523733E+03 0.  0.
          5    1    3    3  502    0 -0.38290652529E+02  0.44085749197E+02 -0.10973014785E+03  0.12437003297E+03  0.41800000000E+01 0. -1.
         -5    1    3    3    0  502  0.15235431851E+02 -0.66322047453E+02 -0.79717543749E+02  0.10489562214E+03  0.41800000000E+01 0. -1.
        -11    1    1    2    0    0 -0.43947550933E+01  0.25452434848E+02  0.52295027154E+02  0.58325896281E+02  0.00000000000E+00 0.  1.
         11    1    1    2    0    0  0.27449975771E+02 -0.32161365930E+01 -0.29980000857E+02  0.40775546052E+02  0.00000000000E+00 0. -1.
</event>
<event>
 7    1  0.2844572E-009  0.1189854E+03  0.7561462E-02  0.1244780E+00
          3   -1    0    0  501    0  0.00000000000E+00  0.00000000000E+00  0.12794527776E+03  0.12794527776E+03  0.00000000000E+00 0. -1.
         -3   -1    0    0    0  501 -0.00000000000E+00 -0.00000000000E+00 -0.17051154344E+03  0.17051154344E+03  0.00000000000E+00 0.  1.
         25    2    1    2    0    0 -0.41637276015E+01  0.57812298594E+02 -0.10620492489E+03  0.17403579114E+03  0.12509745013E+03 0.  0.
          5    1    3    3  502    0  0.49639047730E+02  0.59055242992E+02 -0.87922783284E+02  0.11704462826E+03  0.41800000000E+01 0. -1.
         -5    1    3    3    0  502 -0.53802775331E+02 -0.12429443974E+01 -0.18282141606E+02  0.56991162875E+02  0.41800000000E+01 0. -1.
        -11    1    1    2    0    0 -0.41712724690E+02 -0.16050402918E+02  0.23081762116E+02  0.50302431127E+02  0.00000000000E+00 0. -1.
         11    1    1    2    0    0  0.45876452292E+02 -0.41761895677E+02  0.40556897096E+02  0.74118598931E+02  0.00000000000E+00 0.  1.
</event>
<event>
 7    1  0.2844572E-009  0.1133138E+03  0.7561462E-02  0.1254553E+00
         -1   -1    0    0    0  501 -0.00000000000E+00  0.00000000000E+00  0.77535109670E+02  0.77535109670E+02  0.00000000000E+00 0.  1.
          1   -1    0    0  501    0  0.00000000000E+00 -0.00000000000E+00 -0.17658710299E+03  0.17658710299E+03  0.00000000000E+00 0. -1.
         25    2    1    2    0    0 -0.43908917836E+02 -0.13994654350E+02 -0.51682923145E+02  0.14297470843E+03  0.12508716677E+03 0.  0.
          5    1    3    3  502    0 -0.52961232326E+02  0.43822658388E+02 -0.69929033197E+01  0.69222038503E+02  0.41800000000E+01 0. -1.
         -5    1    3    3    0  502  0.90523144904E+01 -0.57817312738E+02 -0.44690019825E+02  0.73752669931E+02  0.41800000000E+01 0. -1.
        -11    1    1    2    0    0  0.41295619521E+02  0.48946356153E+02 -0.39447440167E+02  0.75214190868E+02  0.00000000000E+00 0. -1.
         11    1    1    2    0    0  0.26132983152E+01 -0.34951701803E+02 -0.79216300116E+01  0.35933313360E+02  0.00000000000E+00 0.  1.
</event>
<event>
 7    1  0.2844572E-009  0.1249742E+03  0.7561462E-02  0.1235110E+00
          1   -1    0    0  501    0  0.00000000000E+00  0.00000000000E+00  0.15606301499E+03  0.15606301499E+03  0.00000000000E+00 0. -1.
         -1   -1    0    0    0  501 -0.00000000000E+00 -0.00000000000E+00 -0.26256746561E+03  0.26256746561E+03  0.00000000000E+00 0.  1.
         25    2    1    2    0    0  0.61829846073E+02  0.86875971394E+02 -0.19338575068E+03  0.25380271501E+03  0.12508958913E+03 0.  0.
          5    1    3    3  502    0  0.47798107593E+02  0.10131256211E+03 -0.77920397280E+02  0.13652089599E+03  0.41800000000E+01 0. -1.
         -5    1    3    3    0  502  0.14031738480E+02 -0.14436590714E+02 -0.11546535340E+03  0.11728181902E+03  0.41800000000E+01 0. -1.
        -11    1    1    2    0    0 -0.68664341131E+02 -0.65690948079E+02  0.10083469379E+03  0.13855586553E+03  0.00000000000E+00 0. -1.
         11    1    1    2    0    0  0.68344950581E+01 -0.21185023315E+02 -0.13953393727E+02  0.26271900047E+02  0.00000000000E+00 0.  1.
</event>
<event>
 7    1  0.2844572E-009  0.1173591E+03  0.7561462E-02  0.1247518E+00
          1   -1    0    0  501    0  0.00000000000E+00  0.00000000000E+00  0.37802231834E+02  0.37802231834E+02  0.00000000000E+00 0. -1.
         -1   -1    0    0    0  501 -0.00000000000E+00 -0.00000000000E+00 -0.44456832209E+03  0.44456832209E+03  0.00000000000E+00 0.  1.
         25    2    1    2    0    0  0.62795554261E+02  0.10511845148E+02 -0.17576180438E+03  0.22492976363E+03  0.12508959255E+03 0.  0.
          5    1    3    3  502    0 -0.93202003929E+00 -0.39649080318E+02 -0.11202165461E+02  0.41423171564E+02  0.41800000000E+01 0. -1.
         -5    1    3    3    0  502  0.63727574300E+02  0.50160925466E+02 -0.16455963892E+03  0.18350659207E+03  0.41800000000E+01 0. -1.
        -11    1    1    2    0    0  0.17818976626E+02 -0.26020869815E+02 -0.63116768788E+02  0.70557268203E+02  0.00000000000E+00 0. -1.
         11    1    1    2    0    0 -0.80614530887E+02  0.15509024667E+02 -0.16788751709E+03  0.18688352209E+03  0.00000000000E+00 0.  1.
</event>
<event>
 7    1  0.2844572E-009  0.1525706E+03  0.7561462E-02  0.1197349E+00
          1   -1    0    0  501    0  0.00000000000E+00  0.00000000000E+00  0.52455297075E+03  0.52455297075E+03  0.00000000000E+00 0. -1.
         -1   -1    0    0    0  501 -0.00000000000E+00 -0.00000000000E+00 -0.59430011181E+02  0.59430011181E+02  0.00000000000E+00 0.  1.
         25    2    1    2    0    0  0.80011687192E+02 -0.11033523348E+03  0.29121099210E+03  0.34500516515E+03  0.12509591611E+03 0.  0.
          5    1    3    3  502    0  0.12586755621E+02 -0.50250125481E+02  0.14583305663E+02  0.53978206083E+02  0.41800000000E+01 0.  1.
         -5    1    3    3    0  502  0.67424931572E+02 -0.60085107998E+02  0.27662768643E+03  0.29102695907E+03  0.41800000000E+01 0.  1.
        -11    1    1    2    0    0 -0.51900100744E+02  0.12180380296E+03  0.12968131955E+03  0.18532952143E+03  0.00000000000E+00 0. -1.
         11    1    1    2    0    0 -0.28111586448E+02 -0.11468569483E+02  0.44230647926E+02  0.53648295356E+02  0.00000000000E+00 0.  1.
</event>
<event>
 7    1  0.2844572E-009  0.2111806E+03  0.7561462E-02  0.1140634E+00
          3   -1    0    0  501    0  0.00000000000E+00  0.00000000000E+00  0.88344131113E+02  0.88344131113E+02  0.00000000000E+00 0. -1.
         -3   -1    0    0    0  501 -0.00000000000E+00 -0.00000000000E+00 -0.67954011675E+03  0.67954011675E+03  0.00000000000E+00 0.  1.
         25    2    1    2    0    0  0.92084379810E+02  0.90808467110E+02 -0.75365678688E+02  0.19507167285E+03  0.12508901359E+03 0.  0.
          5    1    3    3  502    0  0.10997309898E+03  0.10770000121E+03 -0.71663380435E+02  0.16984253076E+03  0.41800000000E+01 0. -1.
         -5    1    3    3    0  502 -0.17888719172E+02 -0.16891534103E+02 -0.37022982528E+01  0.25229142084E+02  0.41800000000E+01 0. -1.
        -11    1    1    2    0    0 -0.68047103886E+02 -0.15801611674E+03 -0.30435004524E+03  0.34961185840E+03  0.00000000000E+00 0. -1.
         11    1    1    2    0    0 -0.24037275924E+02  0.67207649633E+02 -0.21148026171E+03  0.22320071661E+03  0.00000000000E+00 0.  1.
</event>
<event>
 7    1  0.2844572E-009  0.1097844E+03  0.7561462E-02  0.1260970E+00
          1   -1    0    0  501    0  0.00000000000E+00  0.00000000000E+00  0.59462580934E+03  0.59462580934E+03  0.00000000000E+00 0. -1.
         -1   -1    0    0    0  501 -0.00000000000E+00 -0.00000000000E+00 -0.21143656026E+02  0.21143656026E+02  0.00000000000E+00 0.  1.
         25    2    1    2    0    0 -0.12324413189E+02  0.23444779086E+02  0.36080277393E+03  0.38278924158E+03  0.12508961975E+03 0.  0.
          5    1    3    3  502    0 -0.65879660856E+02  0.31917487369E+02  0.19770324883E+03  0.21086228376E+03  0.41800000000E+01 0.  1.
         -5    1    3    3    0  502  0.53555247666E+02 -0.84727082828E+01  0.16309952510E+03  0.17192695782E+03  0.41800000000E+01 0.  1.
        -11    1    1    2    0    0 -0.20071250310E+02 -0.47464677374E+02  0.14843705748E+03  0.15712832565E+03  0.00000000000E+00 0. -1.
         11    1    1    2    0    0  0.32395663500E+02  0.24019898288E+02  0.64242321898E+02  0.75851898132E+02  0.00000000000E+00 0.  1.
</event>
<event>
 7    1  0.2844572E-009  0.1137164E+03  0.7561462E-02  0.1253838E+00
          2   -1    0    0  501    0  0.00000000000E+00  0.00000000000E+00  0.40529268450E+03  0.40529268450E+03  0.00000000000E+00 0. -1.
         -2   -1    0    0    0  501 -0.00000000000E+00 -0.00000000000E+00 -0.36690283827E+02  0.36690283827E+02  0.00000000000E+00 0.  1.
         25    2    1    2    0    0  0.20000911583E+02  0.50479475137E+02  0.20438489726E+03  0.24570409006E+03  0.12509636194E+03 0.  0.
          5    1    3    3  502    0 -0.10940503134E+02 -0.33312491943E+02  0.11069485581E+03  0.11619053417E+03  0.41800000000E+01 0. -1.
         -5    1    3    3    0  502  0.30941414717E+02  0.83791967080E+02  0.93690041451E+02  0.12951355589E+03  0.41800000000E+01 0. -1.
        -11    1    1    2    0    0 -0.53689906273E+02 -0.41435736812E+02  0.78518983930E+02  0.10375334770E+03  0.00000000000E+00 0.  1.
         11    1    1    2    0    0  0.33688994690E+02 -0.90437383252E+01  0.85698519486E+02  0.92525530575E+02  0.00000000000E+00 0. -1.
</event>
<event>
 7    1  0.2844572E-009  0.1290119E+03  0.7561462E-02  0.1228929E+00
         -3   -1    0    0    0  501 -0.00000000000E+00  0.00000000000E+00  0.12351258422E+03  0.12351258422E+03  0.00000000000E+00 0.  1.
          3   -1    0    0  501    0  0.00000000000E+00 -0.00000000000E+00 -0.18298995159E+03  0.18298995159E+03  0.00000000000E+00 0. -1.
         25    2    1    2    0    0  0.10201721712E+03 -0.15497777103E+02 -0.48795210578E+02  0.16934839629E+03  0.12510081161E+03 0.  0.
          5    1    3    3  502    0  0.93235687979E+01  0.33286617242E+02  0.23498409019E+02  0.42006850025E+02  0.41800000000E+01 0.  1.
         -5    1    3    3    0  502  0.92693648324E+02 -0.48784394345E+02 -0.72293619597E+02  0.12734154627E+03  0.41800000000E+01 0.  1.
        -11    1    1    2    0    0 -0.86614195764E+02 -0.11416432719E+02  0.24029885063E+02  0.90607887184E+02  0.00000000000E+00 0.  1.
         11    1    1    2    0    0 -0.15403021358E+02  0.26914209823E+02 -0.34712041849E+02  0.46546252337E+02  0.00000000000E+00 0. -1.
</event>
<event>
 7    1  0.5365171E-009  0.1013713E+03  0.7561462E-02  0.1277438E+00
         -2   -1    0    0    0  501 -0.00000000000E+00  0.00000000000E+00  0.14916493429E+02  0.14916493429E+02  0.00000000000E+00 0.  1.
          2   -1    0    0  501    0  0.00000000000E+00 -0.00000000000E+00 -0.10189533781E+04  0.10189533781E+04  0.00000000000E+00 0. -1.
         25    2    1    2    0    0  0.48759055539E+01  0.49356539959E+01 -0.80238691407E+03  0.81210875979E+03  0.12509093783E+03 0.  0.
          5    1    3    3  502    0  0.38329573963E+02  0.53631432839E+02 -0.42584075677E+03  0.43093306830E+03  0.41800000000E+01 0. -1.
         -5    1    3    3    0  502 -0.33453668409E+02 -0.48695778843E+02 -0.37654615730E+03  0.38117569149E+03  0.41800000000E+01 0. -1.
        -11    1    1    2    0    0  0.33524094968E+02 -0.16492207963E+02 -0.38080788554E+02  0.53347955198E+02  0.00000000000E+00 0.  1.
         11    1    1    2    0    0 -0.38400000522E+02  0.11556553967E+02 -0.16356918206E+03  0.16841315655E+03  0.00000000000E+00 0. -1.
</event>
<event>
 7    1  0.2844572E-009  0.9106116E+02  0.7561462E-02  0.1300302E+00
          2   -1    0    0  501    0  0.00000000000E+00  0.00000000000E+00  0.14358102966E+04  0.14358102966E+04  0.00000000000E+00 0. -1.
         -2   -1    0    0    0  501 -0.00000000000E+00 -0.00000000000E+00 -0.14781903694E+02  0.14781903694E+02  0.00000000000E+00 0.  1.
         25    2    1    2    0    0 -0.87000410657E+01  0.69521545122E+02  0.11078267119E+04  0.11170620289E+04  0.12505445520E+03 0.  0.
          5    1    3    3  502    0 -0.11751207863E+02  0.54673538848E+02  0.10958813161E+04  0.10973151864E+04  0.41800000000E+01 0.  1.
         -5    1    3    3    0  502  0.30511667974E+01  0.14848006274E+02  0.11945395766E+02  0.19746842511E+02  0.41800000000E+01 0.  1.
        -11    1    1    2    0    0  0.38360771516E+02 -0.70916183776E+02  0.26425080846E+03  0.27627729491E+03  0.00000000000E+00 0. -1.
         11    1    1    2    0    0 -0.29660730450E+02  0.13946386544E+01  0.48950872583E+02  0.57252876561E+02  0.00000000000E+00 0.  1.
</event>
<event>
 7    1  0.2844572E-009  0.1238552E+03  0.7561462E-02  0.1236869E+00
          1   -1    0    0  501    0  0.00000000000E+00  0.00000000000E+00  0.72410897985E+03  0.72410897985E+03  0.00000000000E+00 0. -1.
         -1   -1    0    0    0  501 -0.00000000000E+00 -0.00000000000E+00 -0.28570037761E+02  0.28570037761E+02  0.00000000000E+00 0.  1.
         25    2    1    2    0    0 -0.84945195727E+02 -0.15889783243E+01  0.26284446863E+03  0.30324366159E+03  0.12510512569E+03 0.  0.
          5    1    3    3  502    0 -0.99599272700E+02  0.33515012686E+02  0.14349458985E+03  0.17790851839E+03  0.41800000000E+01 0. -1.
         -5    1    3    3    0  502  0.14654076973E+02 -0.35103991010E+02  0.11934987878E+03  0.12533514320E+03  0.41800000000E+01 0. -1.
        -11    1    1    2    0    0  0.10167761080E+02  0.24118284364E+02  0.32685553022E+02  0.41873862759E+02  0.00000000000E+00 0.  1.
         11    1    1    2    0    0  0.74777434648E+02 -0.22529306039E+02  0.40000892043E+03  0.40756149326E+03  0.00000000000E+00 0. -1.
</event>
<event>
 7    1  0.2844572E-009  0.1010346E+03  0.7561462E-02  0.1278135E+00
         -3   -1    0    0    0  501 -0.00000000000E+00  0.00000000000E+00  0.51009633880E+02  0.51009633880E+02  0.00000000000E+00 0.  1.
          3   -1    0    0  501    0  0.00000000000E+00 -0.00000000000E+00 -0.28408880258E+03  0.28408880258E+03  0.00000000000E+00 0. -1.
         25    2    1    2    0    0 -0.75253991566E+01  0.72376566761E+00 -0.20170418198E+03  0.23746528288E+03  0.12509207840E+03 0.  0.
          5    1    3    3  502    0  0.35116183049E+02  0.39421521269E+02 -0.15308274984E+03  0.16198457750E+03  0.41800000000E+01 0.  1.
         -5    1    3    3    0  502 -0.42641582205E+02 -0.38697755601E+02 -0.48621432140E+02  0.75480705381E+02  0.41800000000E+01 0.  1.
        -11    1    1    2    0    0  0.49124574557E+02 -0.58077058901E+01 -0.24366968207E+02  0.55142564438E+02  0.00000000000E+00 0.  1.
         11    1    1    2    0    0 -0.41599175400E+02  0.50839402225E+01 -0.70080185225E+01  0.42490589144E+02  0.00000000000E+00 0. -1.
</event>
<event>
 7    1  0.2844572E-009  0.1159534E+03  0.7561462E-02  0.1249926E+00
         -2   -1    0    0    0  501 -0.00000000000E+00  0.00000000000E+00  0.43233680351E+02  0.43233680351E+02  0.00000000000E+00 0. -1.
          2   -1    0    0  501    0  0.00000000000E+00 -0.00000000000E+00 -0.41233408673E+03  0.41233408673E+03  0.00000000000E+00 0.  1.
         25    2    1    2    0    0 -0.75808197376E+02  0.14074149587E+02 -0.20501401599E+03  0.25223908971E+03  0.12509535222E+03 0.  0.
          5    1    3    3  502    0  0.28165079536E+02  0.27307167113E+02 -0.78817251904E+02  0.88139574986E+02  0.41800000000E+01 0. -1.
         -5    1    3    3    0  502 -0.10397327691E+03 -0.13233017526E+02 -0.12619676409E+03  0.16409951472E+03  0.41800000000E+01 0. -1.
        -11    1    1    2    0    0  0.34963154287E+02  0.14354792687E+02 -0.68576820917E+01  0.38412368248E+02  0.00000000000E+00 0. -1.
         11    1    1    2    0    0  0.40845043090E+02 -0.28428942275E+02 -0.15722870830E+03  0.16491630913E+03  0.00000000000E+00 0.  1.
</event>
<event>
 7    1  0.2844572E-009  0.7421376E+02  0.7561462E-02  0.1346323E+00
         -1   -1    0    0    0  501 -0.00000000000E+00  0.00000000000E+00  0.43602895513E+02  0.43602895513E+02  0.00000000000E+00 0.  1.
          1   -1    0    0  501    0  0.00000000000E+00 -0.00000000000E+00 -0.28502087466E+03  0.28502087466E+03  0.00000000000E+00 0. -1.
         25    2    1    2    0    0  0.91031210555E+00 -0.13321144112E+02 -0.11939248565E+03  0.17343528331E+03  0.12508777046E+03 0.  0.
          5    1    3    3  502    0  0.25446482131E+02 -0.29213558897E+01  0.19174233886E+02  0.32267342906E+02  0.41800000000E+01 0.  1.
         -5    1    3    3    0  502 -0.24536170026E+02 -0.10399788223E+02 -0.13856671953E+03  0.14116794040E+03  0.41800000000E+01 0.  1.
        -11    1    1    2    0    0  0.46572861978E+01  0.54121520487E+02 -0.62494238266E+02  0.82803134669E+02  0.00000000000E+00 0. -1.
         11    1    1    2    0    0 -0.55675983034E+01 -0.40800376375E+02 -0.59531255234E+02  0.72385352199E+02  0.00000000000E+00 0.  1.
</event>
<event>
 7    1  0.2844572E-009  0.9829503E+02  0.7561462E-02  0.1283923E+00
          3   -1    0    0  501    0  0.00000000000E+00  0.00000000000E+00  0.64510652783E+02  0.64510652783E+02  0.00000000000E+00 0. -1.
         -3   -1    0    0    0  501 -0.00000000000E+00 -0.00000000000E+00 -0.24743964269E+03  0.24743964269E+03  0.00000000000E+00 0.  1.
         25    2    1    2    0    0  0.71607902046E+02 -0.40886912570E+01 -0.10299494246E+03  0.17720854547E+03  0.12510196395E+03 0.  0.
          5    1    3    3  502    0  0.85280581186E+02  0.15843528201E+01 -0.12437487265E+03  0.15087037167E+03  0.41800000000E+01 0. -1.
         -5    1    3    3    0  502 -0.13672679139E+02 -0.56730440771E+01  0.21379930196E+02  0.26338173801E+02  0.41800000000E+01 0. -1.
        -11    1    1    2    0    0 -0.71620044687E+02 -0.17899139175E+02 -0.29091108062E+02  0.79347983922E+02  0.00000000000E+00 0. -1.
         11    1    1    2    0    0  0.12142640618E-01  0.21987830432E+02 -0.50842939386E+02  0.55393766075E+02  0.00000000000E+00 0.  1.
</event>
<event>
 7    1  0.2844572E-009  0.1382881E+03  0.7561462E-02  0.1215651E+00
          1   -1    0    0  501    0  0.00000000000E+00  0.00000000000E+00  0.27216687655E+03  0.27216687655E+03  0.00000000000E+00 0. -1.
         -1   -1    0    0    0  501 -0.00000000000E+00 -0.00000000000E+00 -0.25630246032E+03  0.25630246032E+03  0.00000000000E+00 0.  1.
         25    2    1    2    0    0 -0.10746990317E+03 -0.84719564094E+02  0.20558221782E+03  0.27683060057E+03  0.12507577104E+03 0.  0.
          5    1    3    3  502    0 -0.45233758195E+02 -0.25030490864E+02  0.17920070501E+03  0.18655557732E+03  0.41800000000E+01 0. -1.
         -5    1    3    3    0  502 -0.62236144974E+02 -0.59689073230E+02  0.26381512809E+02  0.90275023248E+02  0.41800000000E+01 0. -1.
        -11    1    1    2    0    0  0.85154828720E+02  0.55640074977E+02 -0.18939453157E+03  0.21498244437E+03  0.00000000000E+00 0.  1.
         11    1    1    2    0    0  0.22315074448E+02  0.29079489118E+02 -0.32327002075E+00  0.36656291936E+02  0.00000000000E+00 0. -1.
</event>
<event>
 7    1  0.2944542E-009  0.8606003E+02  0.7561462E-02  0.1312683E+00
          1   -1    0    0  501    0  0.00000000000E+00  0.00000000000E+00  0.92484785464E+03  0.92484785464E+03  0.00000000000E+00 0. -1.
         -1   -1    0    0    0  501 -0.00000000000E+00 -0.00000000000E+00 -0.20903138170E+02  0.20903138170E+02  0.00000000000E+00 0.  1.
         25    2    1    2    0    0 -0.87617454146E+01 -0.47638948726E+02  0.73936059287E+03  0.75143059129E+03  0.12509040580E+03 0.  0.
          5    1    3    3  502    0  0.63074769285E+01 -0.66388020795E+02  0.71047110843E+03  0.71360620925E+03  0.41800000000E+01 0. -1.
         -5    1    3    3    0  502 -0.15069222343E+02  0.18749072069E+02  0.28889484441E+02  0.37824382040E+02  0.41800000000E+01 0. -1.
        -11    1    1    2    0    0 -0.27905106740E+02  0.14420456605E+02  0.11517142831E+02  0.33455778721E+02  0.00000000000E+00 0.  1.
         11    1    1    2    0    0  0.36666852155E+02  0.33218492121E+02  0.15306698077E+03  0.16086462280E+03  0.00000000000E+00 0. -1.
</event>
<event>
 7    1  0.2844572E-009  0.1045088E+03  0.7561462E-02  0.1271091E+00
          2   -1    0    0  501    0  0.00000000000E+00  0.00000000000E+00  0.17882328013E+03  0.17882328013E+03  0.00000000000E+00 0. -1.
         -2   -1    0    0    0  501 -0.00000000000E+00 -0.00000000000E+00 -0.87467671184E+02  0.87467671184E+02  0.00000000000E+00 0.  1.
         25    2    1    2    0    0  0.11390663311E+02 -0.52124779805E+02  0.84225976519E+02  0.15996533700E+03  0.12509258187E+03 0.  0.
          5    1    3    3  502    0  0.89213420374E+01 -0.90485849773E+02  0.35351305094E+02  0.97644592911E+02  0.41800000000E+01 0. -1.
         -5    1    3    3    0  502  0.24693212737E+01  0.38361069968E+02  0.48874671424E+02  0.62320744086E+02  0.41800000000E+01 0. -1.
        -11    1    1    2    0    0  0.24194470596E+02  0.22155940635E+02  0.38220743513E+02  0.50369468406E+02  0.00000000000E+00 0. -1.
         11    1    1    2    0    0 -0.35585133907E+02  0.29968839170E+02 -0.31091111087E+02  0.55956145909E+02  0.00000000000E+00 0.  1.
</event>
<event>
 7    1  0.2844572E-009  0.8698595E+02  0.7561462E-02  0.1310319E+00
         -2   -1    0    0    0  501 -0.00000000000E+00  0.00000000000E+00  0.49873575085E+02  0.49873575085E+02  0.00000000000E+00 0.  1.
          2   -1    0    0  501    0  0.00000000000E+00 -0.00000000000E+00 -0.38096284651E+03  0.38096284651E+03  0.00000000000E+00 0. -1.
         25    2    1    2    0    0 -0.25873085224E+02  0.41761009755E+02 -0.81612491109E+02  0.15722783085E+03  0.12508634463E+03 0.  0.
          5    1    3    3  502    0  0.30818605190E+02  0.97289762321E+01  0.18692557849E+02  0.37567586073E+02  0.41800000000E+01 0.  1.
         -5    1    3    3    0  502 -0.56691690414E+02  0.32032033523E+02 -0.10030504896E+03  0.11966024478E+03  0.41800000000E+01 0.  1.
        -11    1    1    2    0    0 -0.15759103015E+01 -0.47967754232E+02 -0.23869464636E+03  0.24347181180E+03  0.00000000000E+00 0. -1.
         11    1    1    2    0    0  0.27448995525E+02  0.62067444772E+01 -0.10782133950E+02  0.30136778940E+02  0.00000000000E+00 0.  1.
</event>
<event>
 7    1  0.2844572E-009  0.1086164E+03  0.7561462E-02  0.1263154E+00
         -1   -1    0    0    0  501 -0.00000000000E+00  0.00000000000E+00  0.17699226269E+03  0.17699226269E+03  0.00000000000E+00 0.  1.
          1   -1    0    0  501    0  0.00000000000E+00 -0.00000000000E+00 -0.15241425610E+03  0.15241425610E+03  0.00000000000E+00 0. -1.
         25    2    1    2    0    0  0.46231781269E+02  0.43278417762E+01  0.12694224135E+03  0.18417493189E+03  0.12509982048E+03 0.  0.
          5    1    3    3  502    0 -0.16205719016E+02 -0.47290051691E+02  0.65022279042E+02  0.82123951985E+02  0.41800000000E+01 0.  1.
         -5    1    3    3    0  502  0.62437500285E+02  0.51617893467E+02  0.61919962310E+02  0.10205097991E+03  0.41800000000E+01 0.  1.
        -11    1    1    2    0    0 -0.51387628140E+02 -0.30175692186E+02 -0.27060930117E+02  0.65448870605E+02  0.00000000000E+00 0.  1.
         11    1    1    2    0    0  0.51558468710E+01  0.25847850410E+02 -0.75303304647E+02  0.79782716289E+02  0.00000000000E+00 0. -1.
</event>
<event>
 7    1  0.2844572E-009  0.1131097E+03  0.7561462E-02  0.1254917E+00
         -2   -1    0    0    0  501 -0.00000000000E+00  0.00000000000E+00  0.72997178915E+02  0.72997178915E+02  0.00000000000E+00 0.  1.
          2   -1    0    0  501    0  0.00000000000E+00 -0.00000000000E+00 -0.20370424080E+03  0.20370424080E+03  0.00000000000E+00 0. -1.
         25    2    1    2    0    0  0.14782606605E+02  0.49952114869E+02 -0.53807780988E+02  0.14579712485E+03  0.12509110713E+03 0.  0.
          5    1    3    3  502    0  0.30869839894E+02  0.80214645104E+02 -0.66769841059E+02  0.10891749345E+03  0.41800000000E+01 0.  1.
         -5    1    3    3    0  502 -0.16087233290E+02 -0.30262530235E+02  0.12962060071E+02  0.36879631403E+02  0.41800000000E+01 0.  1.
        -11    1    1    2    0    0  0.14878335305E+02 -0.68871506049E+02 -0.55817748856E+02  0.89890323696E+02  0.00000000000E+00 0. -1.
         11    1    1    2    0    0 -0.29660941909E+02  0.18919391179E+02 -0.21081532039E+02  0.41013971164E+02  0.00000000000E+00 0.  1.
</event>
<event>
 7    1  0.2844572E-009  0.1162101E+03  0.7561462E-02  0.1249483E+00
         -2   -1    0    0    0  501 -0.00000000000E+00  0.00000000000E+00  0.23465940142E+02  0.23465940142E+02  0.00000000000E+00 0.  1.
          2   -1    0    0  501    0  0.00000000000E+00 -0.00000000000E+00 -0.70877850629E+03  0.70877850629E+03  0.00000000000E+00 0. -1.
         25    2    1    2    0    0 -0.48767354464E+02  0.35406631574E+02 -0.29276358940E+03  0.32402346629E+03  0.12509517580E+03 0.  0.
          5    1    3    3  502    0  0.60846114630E+00  0.68634139467E+02 -0.21672650854E+03  0.22737384905E+03  0.41800000000E+01 0. -1.
         -5    1    3    3    0  502 -0.49375815610E+02 -0.33227507893E+02 -0.76037080856E+02  0.96649617242E+02  0.41800000000E+01 0. -1.
        -11    1    1    2    0    0 -0.13704608012E+02 -0.39081466487E+02 -0.23637111669E+03  0.23997183607E+03  0.00000000000E+00 0. -1.
         11    1    1    2    0    0  0.62471962475E+02  0.36748349121E+01 -0.15617786006E+03  0.16824914407E+03  0.00000000000E+00 0.  1.
</event>
<event>
 7    1  0.2844572E-009  0.1523082E+03  0.7561462E-02  0.1197665E+00
          4   -1    0    0  501    0  0.00000000000E+00  0.00000000000E+00  0.68501263353E+02  0.68501263353E+02  0.00000000000E+00 0.  1.
         -4   -1    0    0    0  501 -0.00000000000E+00 -0.00000000000E+00 -0.51944237386E+03  0.51944237386E+03  0.00000000000E+00 0. -1.
         25    2    1    2    0    0 -0.76794299732E+02  0.12766864297E+03 -0.29578329719E+03  0.35402300354E+03  0.12509149162E+03 0.  0.
          5    1    3    3  502    0 -0.23257969881E+02  0.50917588137E+02 -0.23672205405E+03  0.24328653316E+03  0.41800000000E+01 0. -1.
         -5    1    3    3    0  502 -0.53536329851E+02  0.76751054833E+02 -0.59061243138E+02  0.11073647038E+03  0.41800000000E+01 0. -1.
        -11    1    1    2    0    0  0.45256889298E+02 -0.35875727784E+02 -0.11537990158E+03  0.12902625919E+03  0.00000000000E+00 0. -1.
         11    1    1    2    0    0  0.31537410434E+02 -0.91792915186E+02 -0.39777911748E+02  0.10489437448E+03  0.00000000000E+00 0.  1.
</event>
<event>
 7    1  0.2844572E-009  0.1043753E+03  0.7561462E-02  0.1271355E+00
          3   -1    0    0  501    0  0.00000000000E+00  0.00000000000E+00  0.50006288799E+02  0.50006288799E+02  0.00000000000E+00 0. -1.
         -3   -1    0    0    0  501 -0.00000000000E+00 -0.00000000000E+00 -0.37374994869E+03  0.37374994869E+03  0.00000000000E+00 0.  1.
         25    2    1    2    0    0 -0.76678312663E+02  0.25082696730E+01 -0.23090100231E+03  0.27358646584E+03  0.12509367040E+03 0.  0.
          5    1    3    3  502    0 -0.10847178549E+02 -0.29412473042E+02 -0.18373813358E+03  0.18644014853E+03  0.41800000000E+01 0. -1.
         -5    1    3    3    0  502 -0.65831134114E+02  0.31920742715E+02 -0.47162868736E+02  0.87146317316E+02  0.41800000000E+01 0. -1.
        -11    1    1    2    0    0  0.79929348106E+02 -0.22938430231E+02 -0.98319800253E+02  0.12876977670E+03  0.00000000000E+00 0.  1.
         11    1    1    2    0    0 -0.32510354437E+01  0.20430160558E+02  0.54771426712E+01  0.21399994947E+02  0.00000000000E+00 0. -1.
</event>
<event>
 7    1  0.2844572E-009  0.1031213E+03  0.7561462E-02  0.1273866E+00
         -2   -1    0    0    0  501 -0.00000000000E+00  0.00000000000E+00  0.15495277965E+03  0.15495277965E+03  0.00000000000E+00 0.  1.
          2   -1    0    0  501    0  0.00000000000E+00 -0.00000000000E+00 -0.71587314091E+02  0.71587314091E+02  0.00000000000E+00 0. -1.
         25    2    1    2    0    0 -0.25272611502E+02  0.48925960173E+02  0.60306687015E+02  0.14938680123E+03  0.12508823051E+03 0.  0.
          5    1    3    3  502    0  0.49218694041E+02  0.71290876882E+01  0.32087282052E+02  0.59332704336E+02  0.41800000000E+01 0. -1.
         -5    1    3    3    0  502 -0.74491305544E+02  0.41796872485E+02  0.28219404963E+02  0.90054096895E+02  0.41800000000E+01 0. -1.
        -11    1    1    2    0    0  0.35181159323E+02 -0.20511307908E+02  0.23576485925E+02  0.47056119814E+02  0.00000000000E+00 0.  1.
         11    1    1    2    0    0 -0.99085478201E+01 -0.28414652264E+02 -0.51770738314E+00  0.30097172694E+02  0.00000000000E+00 0. -1.
</event>
<event>
 7    1  0.2844572E-009  0.6711841E+02  0.7561462E-02  0.1370176E+00
          1   -1    0    0  501    0  0.00000000000E+00  0.00000000000E+00  0.40880843824E+02  0.40880843824E+02  0.00000000000E+00 0. -1.
         -1   -1    0    0    0  501 -0.00000000000E+00 -0.00000000000E+00 -0.30688213275E+03  0.30688213275E+03  0.00000000000E+00 0.  1.
         25    2    1    2    0    0 -0.69902149541E+01 -0.25149685716E+01 -0.13098671110E+03  0.18127267530E+03  0.12508827345E+03 0.  0.
          5    1    3    3  502    0  0.29198840442E+02 -0.32119294035E+01  0.13257242252E+02  0.32497932946E+02  0.41800000000E+01 0.  1.
         -5    1    3    3    0  502 -0.36189055396E+02  0.69696083195E+00 -0.14424395335E+03  0.14877474236E+03  0.41800000000E+01 0.  1.
        -11    1    1    2    0    0  0.31175453854E+02  0.21086034124E+02 -0.11628660702E+02  0.39392328033E+02  0.00000000000E+00 0. -1.
         11    1    1    2    0    0 -0.24185238900E+02 -0.18571065552E+02 -0.12338591713E+03  0.12709797324E+03  0.00000000000E+00 0.  1.
</event>
<event>
 7    1  0.2844572E-009  0.7532457E+02  0.7561462E-02  0.1342869E+00
          2   -1    0    0  501    0  0.00000000000E+00  0.00000000000E+00  0.19519473144E+03  0.19519473144E+03  0.00000000000E+00 0. -1.
         -2   -1    0    0    0  501 -0.00000000000E+00 -0.00000000000E+00 -0.87553105041E+02  0.87553105041E+02  0.00000000000E+00 0.  1.
         25    2    1    2    0    0  0.21871313952E+02  0.70917602167E+02  0.60885895809E+02  0.15767801645E+03  0.12509038290E+03 0.  0.
          5    1    3    3  502    0  0.17903275124E+02  0.62109130963E+02  0.98905589310E+02  0.11822799756E+03  0.41800000000E+01 0.  1.
         -5    1    3    3    0  502  0.39680388282E+01  0.88084712041E+01 -0.38019693501E+02  0.39450018898E+02  0.41800000000E+01 0.  1.
        -11    1    1    2    0    0 -0.20370398344E+02 -0.45083321904E+02 -0.20085790114E+02  0.53393801205E+02  0.00000000000E+00 0.  1.
         11    1    1    2    0    0 -0.15009156076E+01 -0.25834280262E+02  0.66841520701E+02  0.71676018821E+02  0.00000000000E+00 0. -1.
</event>
<event>
 7    1  0.2844572E-009  0.1092554E+03  0.7561462E-02  0.1261955E+00
          1   -1    0    0  501    0  0.00000000000E+00  0.00000000000E+00  0.20587509581E+02  0.20587509581E+02  0.00000000000E+00 0. -1.
         -1   -1    0    0    0  501 -0.00000000000E+00 -0.00000000000E+00 -0.65435267019E+03  0.65435267019E+03  0.00000000000E+00 0.  1.
         25    2    1    2    0    0  0.42448830402E+01 -0.42058054577E+02 -0.35743177465E+03  0.38104042217E+03  0.12508969106E+03 0.  0.
          5    1    3    3  502    0 -0.56593947541E+02 -0.48375376213E+01 -0.11547765288E+03  0.12875883419E+03  0.41800000000E+01 0. -1.
         -5    1    3    3    0  502  0.60838830581E+02 -0.37220516956E+02 -0.24195412177E+03  0.25228158797E+03  0.41800000000E+01 0. -1.
        -11    1    1    2    0    0  0.37723454469E+02  0.19426919594E+02 -0.67788376276E+02  0.79973296668E+02  0.00000000000E+00 0. -1.
         11    1    1    2    0    0 -0.41968337509E+02  0.22631134983E+02 -0.20854500968E+03  0.21392646093E+03  0.00000000000E+00 0.  1.
</event>
<event>
 7    1  0.2844572E-009  0.1280741E+03  0.7561462E-02  0.1230342E+00
         -1   -1    0    0    0  501 -0.00000000000E+00  0.00000000000E+00  0.17069260354E+03  0.17069260354E+03  0.00000000000E+00 0.  1.
          1   -1    0    0  501    0  0.00000000000E+00 -0.00000000000E+00 -0.18754367546E+03  0.18754367546E+03  0.00000000000E+00 0. -1.
         25    2    1    2    0    0 -0.81418283369E+02  0.77695522771E+02 -0.95598727426E+02  0.19352689765E+03  0.12509201534E+03 0.  0.
          5    1    3    3  502    0 -0.29461262431E+02  0.61533585953E+02  0.15197372873E+02  0.70019859516E+02  0.41800000000E+01 0. -1.
         -5    1    3    3    0  502 -0.51957020938E+02  0.16161936818E+02 -0.11079610030E+03  0.12350703813E+03  0.41800000000E+01 0. -1.
        -11    1    1    2    0    0  0.44375934004E+02 -0.84611248388E+02  0.83295667692E+02  0.12675352117E+03  0.00000000000E+00 0.  1.
         11    1    1    2    0    0  0.37042349366E+02  0.69157256169E+01 -0.45480121826E+01  0.37955860182E+02  0.00000000000E+00 0. -1.
</event>
<event>
 7    1  0.2844572E-009  0.1216852E+03  0.7561462E-02  0.1240343E+00
         -2   -1    0    0    0  501 -0.00000000000E+00  0.00000000000E+00  0.10993481352E+02  0.10993481352E+02  0.00000000000E+00 0.  1.
          2   -1    0    0  501    0  0.00000000000E+00 -0.00000000000E+00 -0.14687986371E+04  0.14687986371E+04  0.00000000000E+00 0. -1.
         25    2    1    2    0    0 -0.31689073620E+02 -0.48933176533E+02 -0.97197877210E+03  0.98172732224E+03  0.12508856324E+03 0.  0.
          5    1    3    3  502    0 -0.78054218490E+02 -0.40439682369E+02 -0.53453919481E+03  0.54173559244E+03  0.41800000000E+01 0. -1.
         -5    1    3    3    0  502  0.46365144870E+02 -0.84934941639E+01 -0.43743957730E+03  0.43999172979E+03  0.41800000000E+01 0. -1.
        -11    1    1    2    0    0 -0.20116248819E+02  0.52391486439E+02 -0.20854368743E+03  0.21596296184E+03  0.00000000000E+00 0.  1.
         11    1    1    2    0    0  0.51805322439E+02 -0.34583099064E+01 -0.27728269620E+03  0.28210183436E+03  0.00000000000E+00 0. -1.
</event>
<event>
 7    1  0.2844572E-009  0.2105958E+03  0.7561462E-02  0.1141095E+00
          1   -1    0    0  501    0  0.00000000000E+00  0.00000000000E+00  0.61551897004E+03  0.61551897004E+03  0.00000000000E+00 0. -1.
         -1   -1    0    0    0  501 -0.00000000000E+00 -0.00000000000E+00 -0.91292897837E+02  0.91292897837E+02  0.00000000000E+00 0.  1.
         25    2    1    2    0    0  0.30677759141E+02 -0.19526639157E+03  0.17017870936E+03  0.28927262399E+03  0.12509104400E+03 0.  0.
          5    1    3    3  502    0  0.19990046905E+02 -0.26985844916E+02  0.10178267679E+03  0.10726147256E+03  0.41800000000E+01 0.  1.
         -5    1    3    3    0  502  0.10687712235E+02 -0.16828054665E+03  0.68396032570E+02  0.18201115143E+03  0.41800000000E+01 0.  1.
        -11    1    1    2    0    0 -0.62471533562E+02  0.96822802037E+02  0.15411879933E+03  0.19243168088E+03  0.00000000000E+00 0. -1.
         11    1    1    2    0    0  0.31793774422E+02  0.98443589533E+02  0.19992856352E+03  0.22510756301E+03  0.00000000000E+00 0.  1.
</event>
<event>
 7    1  0.2844572E-009  0.1276025E+03  0.7561462E-02  0.1231057E+00
          1   -1    0    0  501    0  0.00000000000E+00  0.00000000000E+00  0.24359060562E+02  0.24359060562E+02  0.00000000000E+00 0. -1.
         -1   -1    0    0    0  501 -0.00000000000E+00 -0.00000000000E+00 -0.69382264719E+03  0.69382264719E+03  0.00000000000E+00 0.  1.
         25    2    1    2    0    0 -0.63105475717E+02 -0.34841932925E+02 -0.35757632625E+03  0.38562187485E+03  0.12508852831E+03 0.  0.
          5    1    3    3  502    0 -0.96252354420E+02 -0.44223244265E+02 -0.22732685846E+03  0.25082899362E+03  0.41800000000E+01 0.  1.
         -5    1    3    3    0  502  0.33146878703E+02  0.93813113397E+01 -0.13024946779E+03  0.13479288123E+03  0.41800000000E+01 0.  1.
        -11    1    1    2    0    0  0.26106086066E+02 -0.30044186404E+02 -0.89132573320E+02  0.97615554565E+02  0.00000000000E+00 0.  1.
         11    1    1    2    0    0  0.36999389650E+02  0.64886119329E+02 -0.22275468706E+03  0.23494427833E+03  0.00000000000E+00 0. -1.
</event>
<event>
 7    1  0.2844572E-009  0.1367207E+03  0.7561462E-02  0.1217811E+00
          1   -1    0    0  501    0  0.00000000000E+00  0.00000000000E+00  0.16444707956E+03  0.16444707956E+03  0.00000000000E+00 0. -1.
         -1   -1    0    0    0  501 -0.00000000000E+00 -0.00000000000E+00 -0.13256951035E+03  0.13256951035E+03  0.00000000000E+00 0.  1.
         25    2    1    2    0    0  0.14638840728E+02 -0.10336199597E+03  0.19014082844E+02  0.16402826165E+03  0.12508292212E+03 0.  0.
          5    1    3    3  502    0 -0.18326768863E+02  0.14628055124E+02  0.32951317443E+02  0.40658482201E+02  0.41800000000E+01 0. -1.
         -5    1    3    3    0  502  0.32965609591E+02 -0.11799005110E+03 -0.13937234599E+02  0.12336977945E+03  0.41800000000E+01 0. -1.
        -11    1    1    2    0    0  0.27706997844E+02  0.61713576598E+02 -0.11812303108E+02  0.68671491689E+02  0.00000000000E+00 0.  1.
         11    1    1    2    0    0 -0.42345838572E+02  0.41648419376E+02  0.24675789476E+02  0.64316836577E+02  0.00000000000E+00 0. -1.
</event>
<event>
 7    1  0.2844572E-009  0.9853748E+02  0.7561462E-02  0.1283402E+00
         -1   -1    0    0    0  501 -0.00000000000E+00  0.00000000000E+00  0.28708330782E+02  0.28708330782E+02  0.00000000000E+00 0.  1.
          1   -1    0    0  501    0  0.00000000000E+00 -0.00000000000E+00 -0.51668300794E+03  0.51668300794E+03  0.00000000000E+00 0. -1.
         25    2    1    2    0    0  0.44329081857E+02 -0.10431181600E+02 -0.20520796386E+03  0.24460682824E+03  0.12509322499E+03 0.  0.
          5    1    3    3  502    0 -0.39021708420E+02 -0.22593727430E+02 -0.46648691434E+02  0.65013406769E+02  0.41800000000E+01 0.  1.
         -5    1    3    3    0  502  0.83350790277E+02  0.12162545830E+02 -0.15855927243E+03  0.17959342147E+03  0.41800000000E+01 0.  1.
        -11    1    1    2    0    0 -0.54994223365E+02  0.43242792549E+01 -0.28316497707E+03  0.28848824627E+03  0.00000000000E+00 0. -1.
         11    1    1    2    0    0  0.10665141509E+02  0.61069023455E+01  0.39826377774E+00  0.12296264217E+02  0.00000000000E+00 0.  1.
</event>
<event>
 7    1  0.2844572E-009  0.8759209E+02  0.7561462E-02  0.1308790E+00
          1   -1    0    0  501    0  0.00000000000E+00  0.00000000000E+00  0.28702642021E+03  0.28702642021E+03  0.00000000000E+00 0. -1.
         -1   -1    0    0    0  501 -0.00000000000E+00 -0.00000000000E+00 -0.53570705722E+02  0.53570705722E+02  0.00000000000E+00 0.  1.
         25    2    1    2    0    0 -0.49190220377E+02 -0.12098582842E+02  0.74125767652E+02  0.15397696530E+03  0.12509285722E+03 0.  0.
          5    1    3    3  502    0 -0.13853486101E+02  0.26912726748E+02  0.93009266830E+02  0.97900000278E+02  0.41800000000E+01 0. -1.
         -5    1    3    3    0  502 -0.35336734277E+02 -0.39011309590E+02 -0.18883499178E+02  0.56076965025E+02  0.41800000000E+01 0. -1.
        -11    1    1    2    0    0  0.21300293073E+02 -0.32717572534E+02  0.38816146795E+02  0.55053022528E+02  0.00000000000E+00 0.  1.
         11    1    1    2    0    0  0.27889927304E+02  0.44816155376E+02  0.12051380005E+03  0.13156713811E+03  0.00000000000E+00 0. -1.
</event>
<event>
 7    1  0.2844572E-009  0.1203750E+03  0.7561462E-02  0.1242480E+00
          2   -1    0    0  501    0  0.00000000000E+00  0.00000000000E+00  0.83477364825E+03  0.83477364825E+03  0.00000000000E+00 0.  1.
         -2   -1    0    0    0  501 -0.00000000000E+00 -0.00000000000E+00 -0.17602645026E+02  0.17602645026E+02  0.00000000000E+00 0. -1.
         25    2    1    2    0    0  0.23358317842E+02 -0.37652438068E+02  0.49164935385E+03  0.50924469347E+03  0.12509098122E+03 0.  0.
          5    1    3    3  502    0  0.13623235103E+01 -0.82308314361E+02  0.28851458631E+03  0.30005775019E+03  0.41800000000E+01 0. -1.
         -5    1    3    3    0  502  0.21995994331E+02  0.44655876294E+02  0.20313476755E+03  0.20918694328E+03  0.41800000000E+01 0. -1.
        -11    1    1    2    0    0 -0.62365211046E+02  0.26814645673E+02  0.21230849052E+03  0.22289759963E+03  0.00000000000E+00 0.  1.
         11    1    1    2    0    0  0.39006893204E+02  0.10837792395E+02  0.11321315885E+03  0.12023400017E+03  0.00000000000E+00 0. -1.
</event>
<event>
 7    1  0.2844572E-009  0.1599260E+03  0.7561462E-02  0.1188780E+00
          1   -1    0    0  501    0  0.00000000000E+00  0.00000000000E+00  0.13691857647E+04  0.13691857647E+04  0.00000000000E+00 0. -1.
         -1   -1    0    0    0  501 -0.00000000000E+00 -0.00000000000E+00 -0.22025931695E+02  0.22025931695E+02  0.00000000000E+00 0.  1.
         25    2    1    2    0    0 -0.80485065512E+02 -0.10366257323E+03  0.85001807299E+03  0.86913881274E+03  0.12509107303E+03 0.  0.
          5    1    3    3  502    0 -0.86242737453E+02 -0.37222921115E+02  0.28331452435E+03  0.29850954378E+03  0.41800000000E+01 0.  1.
         -5    1    3    3    0  502  0.57576719413E+01 -0.66439652119E+02  0.56670354864E+03  0.57062926896E+03  0.41800000000E+01 0.  1.
        -11    1    1    2    0    0  0.94514179139E+02  0.10875200244E+03  0.46028855414E+03  0.48231263841E+03  0.00000000000E+00 0.  1.
         11    1    1    2    0    0 -0.14029113627E+02 -0.50894292076E+01  0.36853205926E+02  0.39760245294E+02  0.00000000000E+00 0. -1.
</event>
<event>
 7    1  0.2844572E-009  0.9563143E+02  0.7561462E-02  0.1289760E+00
         -1   -1    0    0    0  501 -0.00000000000E+00  0.00000000000E+00  0.49667515327E+03  0.49667515327E+03  0.00000000000E+00 0.  1.
          1   -1    0    0  501    0  0.00000000000E+00 -0.00000000000E+00 -0.44902811924E+02  0.44902811924E+02  0.00000000000E+00 0. -1.
         25    2    1    2    0    0 -0.79958170081E+01  0.94238433908E+02  0.17480331535E+03  0.23486679174E+03  0.12514549648E+03 0.  0.
          5    1    3    3  502    0 -0.11353053901E+02  0.72846967646E+02  0.17322408436E+02  0.75849263425E+02  0.41800000000E+01 0. -1.
         -5    1    3    3    0  502  0.33572368927E+01  0.21391466262E+02  0.15748090692E+03  0.15901752831E+03  0.41800000000E+01 0. -1.
        -11    1    1    2    0    0  0.64393597858E+01 -0.18111049657E+02 -0.25186365181E+00  0.19223394847E+02  0.00000000000E+00 0. -1.
         11    1    1    2    0    0  0.15564572223E+01 -0.76127384251E+02  0.27722088965E+03  0.28748777861E+03  0.00000000000E+00 0.  1.
</event>
<event>
 7    1  0.2844572E-009  0.1034196E+03  0.7561462E-02  0.1273265E+00
          4   -1    0    0  501    0  0.00000000000E+00  0.00000000000E+00  0.69036758000E+02  0.69036758000E+02  0.00000000000E+00 0. -1.
         -4   -1    0    0    0  501 -0.00000000000E+00 -0.00000000000E+00 -0.23448826277E+03  0.23448826277E+03  0.00000000000E+00 0.  1.
         25    2    1    2    0    0  0.60192145319E+02 -0.10934097139E+02 -0.63124358822E+02  0.15288832664E+03  0.12508999524E+03 0.  0.
          5    1    3    3  502    0  0.40783762705E+02  0.55811755470E+02 -0.36978421386E+02  0.78505690222E+02  0.41800000000E+01 0. -1.
         -5    1    3    3    0  502  0.19408382615E+02 -0.66745852610E+02 -0.26145937436E+02  0.74382636419E+02  0.41800000000E+01 0. -1.
        -11    1    1    2    0    0 -0.48901175245E+02  0.20624779130E+02 -0.11777967769E+03  0.12918497951E+03  0.00000000000E+00 0.  1.
         11    1    1    2    0    0 -0.11290970075E+02 -0.96906819906E+01  0.15452531744E+02  0.21451714616E+02  0.00000000000E+00 0. -1.
</event>
<event>
 7    1  0.2844572E-009  0.1876474E+03  0.7561462E-02  0.1160601E+00
         -2   -1    0    0    0  501 -0.00000000000E+00  0.00000000000E+00  0.15430912048E+03  0.15430912048E+03  0.00000000000E+00 0.  1.
          2   -1    0    0  501    0  0.00000000000E+00 -0.00000000000E+00 -0.37334320255E+03  0.37334320255E+03  0.00000000000E+00 0. -1.
         25    2    1    2    0    0  0.15422283169E+03 -0.88772240051E+02  0.15527538229E+02  0.21806799304E+03  0.12508937895E+03 0.  0.
          5    1    3    3  502    0  0.62725912747E+02  0.31450479438E+01  0.53775737697E+02  0.82787280553E+02  0.41800000000E+01 0.  1.
         -5    1    3    3    0  502  0.91496918948E+02 -0.91917287995E+02 -0.38248199469E+02  0.13528071249E+03  0.41800000000E+01 0.  1.
        -11    1    1    2    0    0 -0.23697617920E+02  0.33050514599E+02 -0.12152208499E+03  0.12814652063E+03  0.00000000000E+00 0. -1.
         11    1    1    2    0    0 -0.13052521377E+03  0.55721725452E+02 -0.11303953531E+03  0.18143780935E+03  0.00000000000E+00 0.  1.
</event>
<event>
 7    1  0.2844572E-009  0.7555713E+02  0.7561462E-02  0.1342154E+00
         -2   -1    0    0    0  501 -0.00000000000E+00  0.00000000000E+00  0.17933906750E+02  0.17933906750E+02  0.00000000000E+00 0.  1.
          2   -1    0    0  501    0  0.00000000000E+00 -0.00000000000E+00 -0.68377952249E+03  0.68377952249E+03  0.00000000000E+00 0. -1.
         25    2    1    2    0    0 -0.21301298004E+02  0.15690953452E+02 -0.39051772371E+03  0.41091592551E+03  0.12509138256E+03 0.  0.
          5    1    3    3  502    0  0.19473886941E+02 -0.16348876481E+02 -0.33043856410E+03  0.33144175216E+03  0.41800000000E+01 0.  1.
         -5    1    3    3    0  502 -0.40775184945E+02  0.32039829934E+02 -0.60079159613E+02  0.79474173347E+02  0.41800000000E+01 0.  1.
        -11    1    1    2    0    0 -0.20723035446E+02  0.11074781565E+02 -0.20617639147E+02  0.31259910889E+02  0.00000000000E+00 0.  1.
         11    1    1    2    0    0  0.42024333449E+02 -0.26765735017E+02 -0.25471025288E+03  0.25953759284E+03  0.00000000000E+00 0. -1.
</event>
<event>
 7    1  0.2844572E-009  0.1274348E+03  0.7561462E-02  0.1231312E+00
         -3   -1    0    0    0  501 -0.00000000000E+00  0.00000000000E+00  0.76797566679E+02  0.76797566679E+02  0.00000000000E+00 0.  1.
          3   -1    0    0  501    0  0.00000000000E+00 -0.00000000000E+00 -0.21946100981E+03  0.21946100981E+03  0.00000000000E+00 0. -1.
         25    2    1    2    0    0 -0.70140170373E+02 -0.99629708860E+01 -0.10381969500E+03  0.17733023336E+03  0.12509427766E+03 0.  0.
          5    1    3    3  502    0 -0.68176535996E+02  0.49330190896E+02 -0.58965222255E+02  0.10283908610E+03  0.41800000000E+01 0.  1.
         -5    1    3    3    0  502 -0.19636343773E+01 -0.59293161782E+02 -0.44854472747E+02  0.74491147256E+02  0.41800000000E+01 0.  1.
        -11    1    1    2    0    0  0.52534877228E+02  0.46772031013E+02 -0.15885449630E+02  0.72110219250E+02  0.00000000000E+00 0. -1.
         11    1    1    2    0    0  0.17605293145E+02 -0.36809060127E+02 -0.22958298504E+02  0.46818123887E+02  0.00000000000E+00 0.  1.
</event>
<event>
 7    1  0.2844572E-009  0.1660816E+03  0.7561462E-02  0.1181997E+00
          2   -1    0    0  501    0  0.00000000000E+00  0.00000000000E+00  0.12805109686E+04  0.12805109686E+04  0.00000000000E+00 0. -1.
         -2   -1    0    0    0  501 -0.00000000000E+00 -0.00000000000E+00 -0.34137124279E+02  0.34137124279E+02  0.00000000000E+00 0.  1.
         25    2    1    2    0    0  0.55210768213E+02 -0.13344173456E+03  0.98118564774E+03  0.99961402940E+03  0.12509199411E+03 0.  0.
          5    1    3    3  502    0  0.89629506839E+02 -0.10030831366E+03  0.57159248654E+03  0.58722282769E+03  0.41800000000E+01 0. -1.
         -5    1    3    3    0  502 -0.34418738626E+02 -0.33133420904E+02  0.40959316120E+03  0.41239120171E+03  0.41800000000E+01 0. -1.
        -11    1    1    2    0    0 -0.21685023293E+02  0.14599615193E+02  0.44268742830E+01  0.26513887208E+02  0.00000000000E+00 0.  1.
         11    1    1    2    0    0 -0.33525744920E+02  0.11884211937E+03  0.26076132228E+03  0.28852017626E+03  0.00000000000E+00 0. -1.
</event>
<event>
 7    1  0.2844572E-009  0.9774151E+02  0.7561462E-02  0.1285118E+00
          2   -1    0    0  501    0  0.00000000000E+00  0.00000000000E+00  0.70890008455E+03  0.70890008455E+03  0.00000000000E+00 0. -1.
         -2   -1    0    0    0  501 -0.00000000000E+00 -0.00000000000E+00 -0.21727068464E+02  0.21727068464E+02  0.00000000000E+00 0.  1.
         25    2    1    2    0    0 -0.16012973494E+02  0.41133129245E+02  0.51037543404E+03  0.52733255960E+03  0.12509274602E+03 0.  0.
          5    1    3    3  502    0 -0.43636834304E+02  0.56760599984E+02  0.15810374784E+03  0.17360935027E+03  0.41800000000E+01 0.  1.
         -5    1    3    3    0  502  0.27623860810E+02 -0.15627470739E+02  0.35227168619E+03  0.35372320933E+03  0.41800000000E+01 0.  1.
        -11    1    1    2    0    0  0.21084759759E+02 -0.64491538519E+02  0.86774964917E+02  0.11015271295E+03  0.00000000000E+00 0.  1.
         11    1    1    2    0    0 -0.50717862642E+01  0.23358409275E+02  0.90022617130E+02  0.93141880455E+02  0.00000000000E+00 0. -1.
</event>
<event>
 7    1  0.2844572E-009  0.7684048E+02  0.7561462E-02  0.1338265E+00
         -1   -1    0    0    0  501 -0.00000000000E+00  0.00000000000E+00  0.44858200313E+02  0.44858200313E+02  0.00000000000E+00 0.  1.
          1   -1    0    0  501    0  0.00000000000E+00 -0.00000000000E+00 -0.29650837688E+03  0.29650837688E+03  0.00000000000E+00 0. -1.
         25    2    1    2    0    0  0.13920745666E+02  0.27473820547E+02 -0.11298304159E+03  0.17135274609E+03  0.12509195789E+03 0.  0.
          5    1    3    3  502    0 -0.71626863138E+01  0.35032085764E+02 -0.13497072767E+03  0.13968937267E+03  0.41800000000E+01 0.  1.
         -5    1    3    3    0  502  0.21083431980E+02 -0.75582652177E+01  0.21987686082E+02  0.31663373421E+02  0.41800000000E+01 0.  1.
        -11    1    1    2    0    0  0.38440750547E+02 -0.12844169858E+02 -0.82083549384E+02  0.91544377661E+02  0.00000000000E+00 0.  1.
         11    1    1    2    0    0 -0.52361496213E+02 -0.14629650689E+02 -0.56583585592E+02  0.78469453442E+02  0.00000000000E+00 0. -1.
</event>
<event>
 7    1  0.2844572E-009  0.1648621E+03  0.7561462E-02  0.1183314E+00
          1   -1    0    0  501    0  0.00000000000E+00  0.00000000000E+00  0.53158291530E+03  0.53158291530E+03  0.00000000000E+00 0. -1.
         -1   -1    0    0    0  501 -0.00000000000E+00 -0.00000000000E+00 -0.75748238201E+02  0.75748238201E+02  0.00000000000E+00 0.  1.
         25    2    1    2    0    0 -0.10684350878E+03 -0.94608112828E+02  0.10303413683E+03  0.21594030756E+03  0.12509177709E+03 0.  0.
          5    1    3    3  502    0  0.20405008332E+01  0.14747545420E+02  0.50588533323E+02  0.52899204562E+02  0.41800000000E+01 0. -1.
         -5    1    3    3    0  502 -0.10888400961E+03 -0.10935565825E+03  0.52445603508E+02  0.16304110300E+03  0.41800000000E+01 0. -1.
        -11    1    1    2    0    0  0.92697675679E+02  0.35753148950E+02  0.27766960284E+03  0.29490940147E+03  0.00000000000E+00 0. -1.
         11    1    1    2    0    0  0.14145833102E+02  0.58854963878E+02  0.75130937436E+02  0.96481444471E+02  0.00000000000E+00 0.  1.
</event>
<event>
 7    1  0.2844572E-009  0.1682542E+03  0.7561462E-02  0.1179681E+00
         -2   -1    0    0    0  501 -0.00000000000E+00  0.00000000000E+00  0.28209019743E+02  0.28209019743E+02  0.00000000000E+00 0.  1.
          2   -1    0    0  501    0  0.00000000000E+00 -0.00000000000E+00 -0.12385189011E+04  0.12385189011E+04  0.00000000000E+00 0. -1.
         25    2    1    2    0    0  0.12825513185E+03  0.78481483486E+02 -0.71701756598E+03  0.74321622322E+03  0.12508973754E+03 0.  0.
          5    1    3    3  502    0  0.47612974886E+02 -0.23911806889E+02 -0.10931593358E+03  0.12168079396E+03  0.41800000000E+01 0.  1.
         -5    1    3    3    0  502  0.80642156962E+02  0.10239329038E+03 -0.60770163240E+03  0.62153542925E+03  0.41800000000E+01 0.  1.
        -11    1    1    2    0    0 -0.53826468696E+02 -0.48389159409E+02 -0.10845036088E+03  0.13038512283E+03  0.00000000000E+00 0.  1.
         11    1    1    2    0    0 -0.74428663152E+02 -0.30092324077E+02 -0.38484195448E+03  0.39312657477E+03  0.00000000000E+00 0. -1.
</event>
<event>
 6    1  0.2844572E-009  0.9936014E+02  0.7561462E-02  0.1281647E+00
          3   -1    0    0  501    0  0.00000000000E+00  0.00000000000E+00  0.46659573913E+02  0.46659573913E+02  0.00000000000E+00 0. -1.
         -3   -1    0    0    0  501 -0.00000000000E+00 -0.00000000000E+00 -0.24518079274E+03  0.24518079274E+03  0.00000000000E+00 0.  1.
          5    1    1    2  502    0 -0.36143752677E+02  0.29948903810E+02 -0.10553971410E+02  0.48292508834E+02  0.41800000000E+01 0.  1.
         -5    1    1    2    0  502  0.59512139577E+02 -0.27285579067E+02 -0.10423611660E+03  0.12316183656E+03  0.41800000000E+01 0.  1.
        -11    1    1    2    0    0 -0.52371541380E+02  0.11647497003E+02 -0.45823605428E+02  0.70556681806E+02  0.00000000000E+00 0. -1.
         11    1    1    2    0    0  0.29003154480E+02 -0.14310821746E+02 -0.37907525389E+02  0.49829339450E+02  0.00000000000E+00 0.  1.
</event>
<event>
 7    1  0.2844572E-009  0.1077372E+03  0.7561462E-02  0.1264819E+00
          2   -1    0    0  501    0  0.00000000000E+00  0.00000000000E+00  0.10908474616E+03  0.10908474616E+03  0.00000000000E+00 0. -1.
         -2   -1    0    0    0  501 -0.00000000000E+00 -0.00000000000E+00 -0.20648235566E+03  0.20648235566E+03  0.00000000000E+00 0.  1.
         25    2    1    2    0    0  0.17312062519E+02 -0.73070820674E+02 -0.12648727448E+03  0.19309730173E+03  0.12509390468E+03 0.  0.
          5    1    3    3  502    0 -0.10801353216E+02  0.59157242094E+01  0.20237625452E+02  0.24056161542E+02  0.41800000000E+01 0. -1.
         -5    1    3    3    0  502  0.28113415734E+02 -0.78986544883E+02 -0.14672489993E+03  0.16904114019E+03  0.41800000000E+01 0. -1.
        -11    1    1    2    0    0  0.36847407146E+02  0.17039688922E+02  0.49985415393E+01  0.40903151828E+02  0.00000000000E+00 0.  1.
         11    1    1    2    0    0 -0.54159469665E+02  0.56031131752E+02  0.24091123443E+02  0.81566648261E+02  0.00000000000E+00 0. -1.
</event>
<event>
 7    1  0.2844572E-009  0.1135070E+03  0.7561462E-02  0.1254210E+00
         -1   -1    0    0    0  501 -0.00000000000E+00  0.00000000000E+00  0.14643452231E+03  0.14643452231E+03  0.00000000000E+00 0.  1.
          1   -1    0    0  501    0  0.00000000000E+00 -0.00000000000E+00 -0.90460746327E+02  0.90460746327E+02  0.00000000000E+00 0. -1.
         25    2    1    2    0    0  0.26271900607E+02  0.27597789765E+02  0.23010189345E+02  0.13275263623E+03  0.12506775304E+03 0.  0.
          5    1    3    3  502    0 -0.10222582091E+02 -0.46289408900E+02  0.21251519858E+01  0.47636112686E+02  0.41800000000E+01 0.  1.
         -5    1    3    3    0  502  0.36494482697E+02  0.73887198665E+02  0.20885037359E+02  0.85116523539E+02  0.41800000000E+01 0.  1.
        -11    1    1    2    0    0 -0.54919355751E+02 -0.37611186323E+02  0.13009804796E+02  0.67823240807E+02  0.00000000000E+00 0. -1.
         11    1    1    2    0    0  0.28647455145E+02  0.10013396558E+02  0.19953781846E+02  0.36319391609E+02  0.00000000000E+00 0.  1.
</event>
<event>
 7    1  0.2844572E-009  0.1128062E+03  0.7561462E-02  0.1255460E+00
          2   -1    0    0  501    0  0.00000000000E+00  0.00000000000E+00  0.51281032392E+03  0.51281032392E+03  0.00000000000E+00 0. -1.
         -2   -1    0    0    0  501 -0.00000000000E+00 -0.00000000000E+00 -0.28341175394E+02  0.28341175394E+02  0.00000000000E+00 0.  1.
         25    2    1    2    0    0  0.51359128284E+02 -0.47439618168E+00  0.29305411523E+03  0.32274895308E+03  0.12509271423E+03 0.  0.
          5    1    3    3  502    0  0.62676291761E+02 -0.45121838658E+02  0.24105369426E+03  0.25315736961E+03  0.41800000000E+01 0.  1.
         -5    1    3    3    0  502 -0.11317163478E+02  0.44647442476E+02  0.52000420974E+02  0.69591583473E+02  0.41800000000E+01 0.  1.
        -11    1    1    2    0    0 -0.71937361151E+02 -0.18232097644E+02  0.11288869641E+03  0.13509719127E+03  0.00000000000E+00 0.  1.
         11    1    1    2    0    0  0.20578232867E+02  0.18706493825E+02  0.78526336888E+02  0.83305354956E+02  0.00000000000E+00 0. -1.
</event>
<event>
 7    1  0.2844572E-009  0.1627879E+03  0.7561462E-02  0.1185585E+00
         -1   -1    0    0    0  501 -0.00000000000E+00  0.00000000000E+00  0.28026891800E+03  0.28026891800E+03  0.00000000000E+00 0.  1.
          1   -1    0    0  501    0  0.00000000000E+00 -0.00000000000E+00 -0.10059973977E+03  0.10059973977E+03  0.00000000000E+00 0. -1.
         25    2    1    2    0    0 -0.10424069739E+03 -0.74485645827E+02  0.84994884395E+02  0.19820543753E+03  0.12508809162E+03 0.  0.
          5    1    3    3  502    0 -0.58418139424E+02 -0.10480455393E+03  0.38423391294E+02  0.12605753820E+03  0.41800000000E+01 0. -1.
         -5    1    3    3    0  502 -0.45822557969E+02  0.30318908107E+02  0.46571493101E+02  0.72147899327E+02  0.41800000000E+01 0. -1.
        -11    1    1    2    0    0  0.27534507516E+02 -0.15955785414E+02  0.42524257522E+02  0.53113545072E+02  0.00000000000E+00 0.  1.
         11    1    1    2    0    0  0.76706189877E+02  0.90441431240E+02  0.52150036314E+02  0.12954967517E+03  0.00000000000E+00 0. -1.
</event>
<event>
 7    1  0.2844572E-009  0.1344670E+03  0.7561462E-02  0.1220974E+00
          2   -1    0    0  501    0  0.00000000000E+00  0.00000000000E+00  0.71896623243E+02  0.71896623243E+02  0.00000000000E+00 0. -1.
         -2   -1    0    0    0  501 -0.00000000000E+00 -0.00000000000E+00 -0.39635266509E+03  0.39635266509E+03  0.00000000000E+00 0.  1.
         25    2    1    2    0    0  0.76563258229E+02  0.85554534719E+02 -0.25257790786E+03  0.30434114294E+03  0.12508565396E+03 0.  0.
          5    1    3    3  502    0  0.37683481123E+02  0.11015199075E+02 -0.14797116177E+01  0.39510015271E+02  0.41800000000E+01 0. -1.
         -5    1    3    3    0  502  0.38879777106E+02  0.74539335643E+02 -0.25109819625E+03  0.26483112767E+03  0.41800000000E+01 0. -1.
        -11    1    1    2    0    0 -0.96100234044E+02 -0.79794200534E+02 -0.51542130097E+02  0.13512572145E+03  0.00000000000E+00 0. -1.
         11    1    1    2    0    0  0.19536975815E+02 -0.57603341850E+01 -0.20336003890E+02  0.28782423944E+02  0.00000000000E+00 0.  1.
</event>
<event>
 7    1  0.2844572E-009  0.1457399E+03  0.7561462E-02  0.1205808E+00
          2   -1    0    0  501    0  0.00000000000E+00  0.00000000000E+00  0.22232423905E+03  0.22232423905E+03  0.00000000000E+00 0. -1.
         -2   -1    0    0    0  501 -0.00000000000E+00 -0.00000000000E+00 -0.10480875093E+03  0.10480875093E+03  0.00000000000E+00 0.  1.
         25    2    1    2    0    0 -0.10140634613E+03 -0.15534450415E+02  0.41153215516E+02  0.16693060667E+03  0.12509066356E+03 0.  0.
          5    1    3    3  502    0  0.25645276566E+02  0.12872477720E+02  0.19354962446E+02  0.34863560692E+02  0.41800000000E+01 0. -1.
         -5    1    3    3    0  502 -0.12705162270E+03 -0.28406928134E+02  0.21798253069E+02  0.13206704597E+03  0.41800000000E+01 0. -1.
        -11    1    1    2    0    0 -0.14951396456E+02  0.15507488177E+01 -0.68009615242E+01  0.16498550104E+02  0.00000000000E+00 0.  1.
         11    1    1    2    0    0  0.11635774259E+03  0.13983701597E+02  0.83163234128E+02  0.14370383321E+03  0.00000000000E+00 0. -1.
</event>
<event>
 7    1  0.2844572E-009  0.9309620E+02  0.7561462E-02  0.1295522E+00
          2   -1    0    0  501    0  0.00000000000E+00  0.00000000000E+00  0.47030023547E+03  0.47030023547E+03  0.00000000000E+00 0. -1.
         -2   -1    0    0    0  501 -0.00000000000E+00 -0.00000000000E+00 -0.47435402367E+02  0.47435402367E+02  0.00000000000E+00 0.  1.
         25    2    1    2    0    0  0.37787989404E+02 -0.71912768116E+02  0.11988594960E+03  0.19137549946E+03  0.12511020151E+03 0.  0.
          5    1    3    3  502    0  0.14919768074E+02 -0.61156005989E+02 -0.55677278645E+01  0.63333470942E+02  0.41800000000E+01 0.  1.
         -5    1    3    3    0  502  0.22868221329E+02 -0.10756762127E+02  0.12545367746E+03  0.12804202852E+03  0.41800000000E+01 0.  1.
        -11    1    1    2    0    0  0.59257659436E+01  0.46600168907E+02  0.24500082821E+03  0.24946361712E+03  0.00000000000E+00 0. -1.
         11    1    1    2    0    0 -0.43713755347E+02  0.25312599209E+02  0.57978055299E+02  0.76896521258E+02  0.00000000000E+00 0.  1.
</event>
<event>
 6    1  0.2844572E-009  0.1547657E+03  0.7561462E-02  0.1194736E+00
         -3   -1    0    0    0  501 -0.00000000000E+00  0.00000000000E+00  0.98187768487E+03  0.98187768487E+03  0.00000000000E+00 0.  1.
          3   -1    0    0  501    0  0.00000000000E+00 -0.00000000000E+00 -0.36261165862E+02  0.36261165862E+02  0.00000000000E+00 0. -1.
          5    1    1    2  502    0  0.13409405019E+02 -0.37791439627E+01  0.20119095483E+03  0.20171605483E+03  0.41800000000E+01 0.  1.
         -5    1    1    2    0  502  0.11755832494E+03  0.74010764254E+02  0.19334659615E+03  0.23811327479E+03  0.41800000000E+01 0.  1.
        -11    1    1    2    0    0 -0.56422491013E+02 -0.57175376188E+02  0.15001450403E+03  0.17016719001E+03  0.00000000000E+00 0. -1.
         11    1    1    2    0    0 -0.74545238945E+02 -0.13056244103E+02  0.40106446399E+03  0.40814233110E+03  0.00000000000E+00 0.  1.
</event>
<event>
 7    1  0.2844572E-009  0.1060651E+03  0.7561462E-02  0.1268035E+00
         -1   -1    0    0    0  501 -0.00000000000E+00  0.00000000000E+00  0.57965560465E+02  0.57965560465E+02  0.00000000000E+00 0.  1.
          1   -1    0    0  501    0  0.00000000000E+00 -0.00000000000E+00 -0.21455483900E+03  0.21455483900E+03  0.00000000000E+00 0. -1.
         25    2    1    2    0    0  0.87880244824E-02  0.14774621767E+02 -0.11629312511E+03  0.17141493045E+03  0.12506277587E+03 0.  0.
          5    1    3    3  502    0  0.34649814557E+02 -0.44659723763E+02 -0.46308060902E+02  0.73191594326E+02  0.41800000000E+01 0.  1.
         -5    1    3    3    0  502 -0.34641026533E+02  0.59434345530E+02 -0.69985064203E+02  0.98223336124E+02  0.41800000000E+01 0.  1.
        -11    1    1    2    0    0  0.17422882168E+01  0.35841941381E+02  0.78408257417E+00  0.35892828193E+02  0.00000000000E+00 0.  1.
         11    1    1    2    0    0 -0.17510762413E+01 -0.50616563149E+02 -0.41080236009E+02  0.65212640826E+02  0.00000000000E+00 0. -1.
</event>
<event>
 7    1  0.2844572E-009  0.1227285E+03  0.7561462E-02  0.1238663E+00
         -1   -1    0    0    0  501 -0.00000000000E+00  0.00000000000E+00  0.25319800478E+03  0.25319800478E+03  0.00000000000E+00 0.  1.
          1   -1    0    0  501    0  0.00000000000E+00 -0.00000000000E+00 -0.11565780298E+03  0.11565780298E+03  0.00000000000E+00 0. -1.
         25    2    1    2    0    0  0.12501967187E+01  0.81294594934E+02  0.18514504956E+03  0.23777384847E+03  0.12508932601E+03 0.  0.
          5    1    3    3  502    0 -0.51184105242E+02  0.50919149900E+02  0.15258612022E+03  0.16885665204E+03  0.41800000000E+01 0.  1.
         -5    1    3    3    0  502  0.52434301961E+02  0.30375445034E+02  0.32558929340E+02  0.68917196424E+02  0.41800000000E+01 0.  1.
        -11    1    1    2    0    0 -0.30575501281E+02 -0.76885173192E+02 -0.10230459915E+02  0.83371778471E+02  0.00000000000E+00 0. -1.
         11    1    1    2    0    0  0.29325304563E+02 -0.44094217424E+01 -0.37374387841E+02  0.47710180824E+02  0.00000000000E+00 0.  1.
</event>
<event>
 7    1  0.2844572E-009  0.7934836E+02  0.7561462E-02  0.1330911E+00
         -2   -1    0    0    0  501 -0.00000000000E+00  0.00000000000E+00  0.14581629145E+03  0.14581629145E+03  0.00000000000E+00 0.  1.
          2   -1    0    0  501    0  0.00000000000E+00 -0.00000000000E+00 -0.85975545358E+02  0.85975545358E+02  0.00000000000E+00 0. -1.
         25    2    1    2    0    0 -0.11291525955E+02 -0.97685341100E+01  0.61445603633E+02  0.14015851197E+03  0.12508366582E+03 0.  0.
          5    1    3    3  502    0 -0.46962893958E+02  0.35827395744E+01  0.83492164659E+02  0.95951880603E+02  0.41800000000E+01 0.  1.
         -5    1    3    3    0  502  0.35671368003E+02 -0.13351273684E+02 -0.22046561026E+02  0.44206631372E+02  0.41800000000E+01 0.  1.
        -11    1    1    2    0    0  0.41790095254E+02  0.79746381011E+01  0.26498915822E+02  0.50121846074E+02  0.00000000000E+00 0.  1.
         11    1    1    2    0    0 -0.30498569298E+02  0.17938960089E+01 -0.28103773358E+02  0.41511478763E+02  0.00000000000E+00 0. -1.
</event>
<event>
 7    1  0.2844572E-009  0.1167196E+03  0.7561462E-02  0.1248609E+00
          2   -1    0    0  501    0  0.00000000000E+00  0.00000000000E+00  0.57125283301E+03  0.57125283301E+03  0.00000000000E+00 0.  1.
         -2   -1    0    0    0  501 -0.00000000000E+00 -0.00000000000E+00 -0.33400647398E+02  0.33400647398E+02  0.00000000000E+00 0. -1.
         25    2    1    2    0    0 -0.63889036162E+02  0.52663705076E+02  0.24590288445E+03  0.28804704695E+03  0.12509035895E+03 0.  0.
          5    1    3    3  502    0  0.13083394452E+02 -0.25330074405E+02  0.10843780548E+03  0.11220079294E+03  0.41800000000E+01 0. -1.
         -5    1    3    3    0  502 -0.76972430614E+02  0.77993779481E+02  0.13746507897E+03  0.17584625401E+03  0.41800000000E+01 0. -1.
        -11    1    1    2    0    0  0.57914920479E+02 -0.19262908986E+02  0.26852820097E+03  0.27537718205E+03  0.00000000000E+00 0.  1.
         11    1    1    2    0    0  0.59741156839E+01 -0.33400796091E+02  0.23421100200E+02  0.41229251415E+02  0.00000000000E+00 0. -1.
</event>
<event>
 7    1  0.2844572E-009  0.6653130E+02  0.7561462E-02  0.1372302E+00
         -2   -1    0    0    0  501 -0.00000000000E+00  0.00000000000E+00  0.44107961425E+02  0.44107961425E+02  0.00000000000E+00 0.  1.
          2   -1    0    0  501    0  0.00000000000E+00 -0.00000000000E+00 -0.27710833655E+03  0.27710833655E+03  0.00000000000E+00 0. -1.
         25    2    1    2    0    0  0.13866260230E+02  0.96400324944E+01 -0.14889021028E+03  0.19519503082E+03  0.12509037510E+03 0.  0.
          5    1    3    3  502    0 -0.14307752413E+02  0.24127289030E+02  0.12267422963E+02  0.30899836912E+02  0.41800000000E+01 0. -1.
         -5    1    3    3    0  502  0.28174012643E+02 -0.14487256535E+02 -0.16115763324E+03  0.16429519391E+03  0.41800000000E+01 0. -1.
        -11    1    1    2    0    0 -0.41791613638E+02 -0.14827541382E+02 -0.83653573423E+01  0.45126202559E+02  0.00000000000E+00 0.  1.
         11    1    1    2    0    0  0.27925353408E+02  0.51875088872E+01 -0.75744807508E+02  0.80895064595E+02  0.00000000000E+00 0. -1.
</event>
<event>
 7    1  0.2844572E-009  0.1657487E+03  0.7561462E-02  0.1182355E+00
         -2   -1    0    0    0  501 -0.00000000000E+00  0.00000000000E+00  0.31992629765E+02  0.31992629765E+02  0.00000000000E+00 0.  1.
          2   -1    0    0  501    0  0.00000000000E+00 -0.00000000000E+00 -0.12599664849E+04  0.12599664849E+04  0.00000000000E+00 0. -1.
         25    2    1    2    0    0 -0.13868012312E+03  0.51008534083E+02 -0.89979533870E+03  0.92039226419E+03  0.12512482302E+03 0.  0.
          5    1    3    3  502    0 -0.39717666065E+02  0.68586467675E+02 -0.23528689760E+03  0.24831228953E+03  0.41800000000E+01 0. -1.
         -5    1    3    3    0  502 -0.98962457052E+02 -0.17577933592E+02 -0.66450844110E+03  0.67207997466E+03  0.41800000000E+01 0. -1.
        -11    1    1    2    0    0  0.33614464311E+02 -0.28528545182E+02 -0.19763825544E+03  0.20249614839E+03  0.00000000000E+00 0. -1.
         11    1    1    2    0    0  0.10506565881E+03 -0.22479988901E+02 -0.13054026099E+03  0.16907070208E+03  0.00000000000E+00 0.  1.
</event>
<event>
 7    1  0.2844572E-009  0.1570437E+03  0.7561462E-02  0.1192075E+00
          1   -1    0    0  501    0  0.00000000000E+00  0.00000000000E+00  0.14253291784E+03  0.14253291784E+03  0.00000000000E+00 0. -1.
         -1   -1    0    0    0  501 -0.00000000000E+00 -0.00000000000E+00 -0.24760239123E+03  0.24760239123E+03  0.00000000000E+00 0.  1.
         25    2    1    2    0    0  0.49765755471E+00 -0.13925359663E+03 -0.12065158686E+03  0.22270348585E+03  0.12509286694E+03 0.  0.
          5    1    3    3  502    0 -0.42485394605E+01 -0.15487991173E+03 -0.71405228980E+02  0.17065173973E+03  0.41800000000E+01 0. -1.
         -5    1    3    3    0  502  0.47461970152E+01  0.15626315104E+02 -0.49246357880E+02  0.52051746121E+02  0.41800000000E+01 0. -1.
        -11    1    1    2    0    0  0.13039046571E+02  0.96839504190E+02 -0.31468506721E+02  0.10265560492E+03  0.00000000000E+00 0.  1.
         11    1    1    2    0    0 -0.13536704125E+02  0.42414092438E+02  0.47050620192E+02  0.64776218293E+02  0.00000000000E+00 0. -1.
</event>
<event>
 7    1  0.2844572E-009  0.8941239E+02  0.7561462E-02  0.1304281E+00
          2   -1    0    0  501    0  0.00000000000E+00  0.00000000000E+00  0.41463572562E+03  0.41463572562E+03  0.00000000000E+00 0. -1.
         -2   -1    0    0    0  501 -0.00000000000E+00 -0.00000000000E+00 -0.28249339135E+02  0.28249339135E+02  0.00000000000E+00 0.  1.
         25    2    1    2    0    0 -0.58847923594E+01  0.84507411497E+01  0.23097879526E+03  0.26287758548E+03  0.12508946911E+03 0.  0.
          5    1    3    3  502    0  0.22979294442E+02 -0.47661550211E+02  0.57599710193E+02  0.78325413219E+02  0.41800000000E+01 0. -1.
         -5    1    3    3    0  502 -0.28864086801E+02  0.56112291360E+02  0.17337908507E+03  0.18455217226E+03  0.41800000000E+01 0. -1.
        -11    1    1    2    0    0 -0.21873147572E+02 -0.22515634215E+02  0.14316803652E+03  0.14656901122E+03  0.00000000000E+00 0. -1.
         11    1    1    2    0    0  0.27757939931E+02  0.14064893065E+02  0.12239554700E+02  0.33438468048E+02  0.00000000000E+00 0.  1.
</event>
<event>
 7    1  0.2844572E-009  0.1053910E+03  0.7561462E-02  0.1269351E+00
         -4   -1    0    0    0  501 -0.00000000000E+00  0.00000000000E+00  0.54506163801E+02  0.54506163801E+02  0.00000000000E+00 0.  1.
          4   -1    0    0  501    0  0.00000000000E+00 -0.00000000000E+00 -0.36173400040E+03  0.36173400040E+03  0.00000000000E+00 0. -1.
         25    2    1    2    0    0 -0.11900852571E+02  0.47730331112E+02 -0.57471140638E+02  0.14618728777E+03  0.12509187144E+03 0.  0.
          5    1    3    3  502    0  0.40294484187E+02  0.53973269200E+02 -0.64055130821E+02  0.93044566895E+02  0.41800000000E+01 0.  1.
         -5    1    3    3    0  502 -0.52195336759E+02 -0.62429380882E+01  0.65839901828E+01  0.53142720876E+02  0.41800000000E+01 0.  1.
        -11    1    1    2    0    0  0.32202056769E+02  0.63290520891E+01 -0.15995704448E+03  0.16328896301E+03  0.00000000000E+00 0. -1.
         11    1    1    2    0    0 -0.20301204198E+02 -0.54059383201E+02 -0.89799651480E+02  0.10676391343E+03  0.00000000000E+00 0.  1.
</event>
<event>
 7    1  0.2844572E-009  0.9115164E+02  0.7561462E-02  0.1300087E+00
          4   -1    0    0  501    0  0.00000000000E+00  0.00000000000E+00  0.17903910737E+03  0.17903910737E+03  0.00000000000E+00 0.  1.
         -4   -1    0    0    0  501 -0.00000000000E+00 -0.00000000000E+00 -0.61690088080E+02  0.61690088080E+02  0.00000000000E+00 0. -1.
         25    2    1    2    0    0  0.26001325865E+02 -0.29434147322E+02  0.87685950252E+02  0.15772758115E+03  0.12508687385E+03 0.  0.
          5    1    3    3  502    0  0.60317136002E+02  0.15420756705E+02  0.12561061118E+02  0.63649110671E+02  0.41800000000E+01 0.  1.
         -5    1    3    3    0  502 -0.34315810137E+02 -0.44854904027E+02  0.75124889134E+02  0.94078470481E+02  0.41800000000E+01 0.  1.
        -11    1    1    2    0    0 -0.54100593112E+01  0.39839018102E+02  0.40889568921E+02  0.57344336701E+02  0.00000000000E+00 0.  1.
         11    1    1    2    0    0 -0.20591266554E+02 -0.10404870780E+02 -0.11226499882E+02  0.25657277600E+02  0.00000000000E+00 0. -1.
</event>
<event>
 7    1  0.2844572E-009  0.1094328E+03  0.7561462E-02  0.1261624E+00
          1   -1    0    0  501    0  0.00000000000E+00  0.00000000000E+00  0.72136047490E+03  0.72136047490E+03  0.00000000000E+00 0. -1.
         -1   -1    0    0    0  501 -0.00000000000E+00 -0.00000000000E+00 -0.18647754731E+02  0.18647754731E+02  0.00000000000E+00 0.  1.
         25    2    1    2    0    0  0.28631887844E+02  0.19759707807E+02  0.33619348962E+03  0.36039381869E+03  0.12508961202E+03 0.  0.
          5    1    3    3  502    0  0.72575450085E+02  0.22128456074E+02  0.27226292692E+03  0.28266842466E+03  0.41800000000E+01 0. -1.
         -5    1    3    3    0  502 -0.43943562242E+02 -0.23687482670E+01  0.63930562702E+02  0.77725394037E+02  0.41800000000E+01 0. -1.
        -11    1    1    2    0    0  0.47549381496E+01 -0.52024696140E+02  0.20531656563E+03  0.21185860985E+03  0.00000000000E+00 0. -1.
         11    1    1    2    0    0 -0.33386825993E+02  0.32264988333E+02  0.16120266491E+03  0.16775580108E+03  0.00000000000E+00 0.  1.
</event>
<event>
 7    1  0.2844572E-009  0.1094638E+03  0.7561462E-02  0.1261566E+00
          1   -1    0    0  501    0  0.00000000000E+00  0.00000000000E+00  0.98742459236E+02  0.98742459236E+02  0.00000000000E+00 0. -1.
         -1   -1    0    0    0  501 -0.00000000000E+00 -0.00000000000E+00 -0.16032018898E+03  0.16032018898E+03  0.00000000000E+00 0.  1.
         25    2    1    2    0    0  0.23832037729E+02  0.52774350258E+02 -0.13420474532E+02  0.13849207129E+03  0.12508735590E+03 0.  0.
          5    1    3    3  502    0  0.75313958248E+02  0.27045489675E+02 -0.82995163354E+01  0.80560568457E+02  0.41800000000E+01 0. -1.
         -5    1    3    3    0  502 -0.51481920519E+02  0.25728860583E+02 -0.51209581966E+01  0.57931502829E+02  0.41800000000E+01 0. -1.
        -11    1    1    2    0    0  0.16254281424E+02 -0.32115261706E+02  0.18204444621E+02  0.40336007525E+02  0.00000000000E+00 0. -1.
         11    1    1    2    0    0 -0.40086319153E+02 -0.20659088552E+02 -0.66361699834E+02  0.80234569407E+02  0.00000000000E+00 0.  1.
</event>
<event>
 7    1  0.2844572E-009  0.3271490E+03  0.7561462E-02  0.1072405E+00
         -2   -1    0    0    0  501 -0.00000000000E+00  0.00000000000E+00  0.65094331802E+03  0.65094331802E+03  0.00000000000E+00 0.  1.
          2   -1    0    0  501    0  0.00000000000E+00 -0.00000000000E+00 -0.18795053186E+03  0.18795053186E+03  0.00000000000E+00 0. -1.
         25    2    1    2    0    0 -0.20598484876E+03  0.25383872982E+03  0.16248881127E+03  0.38589530777E+03  0.12509482842E+03 0.  0.
          5    1    3    3  502    0 -0.17315515288E+03  0.22082527404E+03  0.18279488281E+03  0.33492976906E+03  0.41800000000E+01 0. -1.
         -5    1    3    3    0  502 -0.32829695876E+02  0.33013455781E+02 -0.20306071545E+02  0.50965538705E+02  0.41800000000E+01 0. -1.
        -11    1    1    2    0    0  0.18789863013E+02 -0.23787955532E+02  0.73502898708E+02  0.79508502054E+02  0.00000000000E+00 0.  1.
         11    1    1    2    0    0  0.18719498575E+03 -0.23005077428E+03  0.22700107618E+03  0.37349004006E+03  0.00000000000E+00 0. -1.
</event>
<event>
 7    1  0.2844572E-009  0.2059358E+03  0.7561462E-02  0.1144825E+00
          3   -1    0    0  501    0  0.00000000000E+00  0.00000000000E+00  0.82598707465E+03  0.82598707465E+03  0.00000000000E+00 0. -1.
         -3   -1    0    0    0  501 -0.00000000000E+00 -0.00000000000E+00 -0.63994491719E+02  0.63994491719E+02  0.00000000000E+00 0.  1.
         25    2    1    2    0    0 -0.39312679801E+02  0.17814139421E+03  0.22601774466E+03  0.31624616473E+03  0.12509105755E+03 0.  0.
          5    1    3    3  502    0 -0.74375906521E+02  0.72168713896E+02  0.14491330919E+03  0.17820616801E+03  0.41800000000E+01 0. -1.
         -5    1    3    3    0  502  0.35063226719E+02  0.10597268032E+03  0.81104435469E+02  0.13803999672E+03  0.41800000000E+01 0. -1.
        -11    1    1    2    0    0  0.70812248516E+01 -0.15860252008E+03  0.35508494887E+03  0.38896044019E+03  0.00000000000E+00 0.  1.
         11    1    1    2    0    0  0.32231454950E+02 -0.19538874135E+02  0.18088988940E+03  0.18477496144E+03  0.00000000000E+00 0. -1.
</event>
<event>
 7    1  0.2844572E-009  0.7370074E+02  0.7561462E-02  0.1347942E+00
          2   -1    0    0  501    0  0.00000000000E+00  0.00000000000E+00  0.27130987569E+03  0.27130987569E+03  0.00000000000E+00 0. -1.
         -2   -1    0    0    0  501 -0.00000000000E+00 -0.00000000000E+00 -0.45078565795E+02  0.45078565795E+02  0.00000000000E+00 0.  1.
         25    2    1    2    0    0 -0.76298800406E+01  0.24798185097E+02  0.11811927327E+03  0.17398757214E+03  0.12508536081E+03 0.  0.
          5    1    3    3  502    0 -0.54550224697E+02  0.38366170946E+02  0.30208766964E+02  0.73333021818E+02  0.41800000000E+01 0.  1.
         -5    1    3    3    0  502  0.46920344656E+02 -0.13567985849E+02  0.87910506303E+02  0.10065455032E+03  0.41800000000E+01 0.  1.
        -11    1    1    2    0    0  0.13536615539E+02 -0.15951934286E+02  0.12263073845E+03  0.12440258108E+03  0.00000000000E+00 0. -1.
         11    1    1    2    0    0 -0.59067354988E+01 -0.88462508109E+01 -0.14518701821E+02  0.17998288258E+02  0.00000000000E+00 0.  1.
</event>
<event>
 7    1  0.2844572E-009  0.1066576E+03  0.7561462E-02  0.1266888E+00
          2   -1    0    0  501    0  0.00000000000E+00  0.00000000000E+00  0.16901258911E+03  0.16901258911E+03  0.00000000000E+00 0. -1.
         -2   -1    0    0    0  501 -0.00000000000E+00 -0.00000000000E+00 -0.97306608453E+02  0.97306608453E+02  0.00000000000E+00 0.  1.
         25    2    1    2    0    0 -0.17446151824E+02  0.15834864866E+02  0.10839718642E+03  0.16719048874E+03  0.12509036070E+03 0.  0.
          5    1    3    3  502    0 -0.56505178529E+02  0.49584670599E+02  0.68886413674E+02  0.10205040494E+03  0.41800000000E+01 0.  1.
         -5    1    3    3    0  502  0.39059026705E+02 -0.33749805733E+02  0.39510772750E+02  0.65140083800E+02  0.41800000000E+01 0.  1.
        -11    1    1    2    0    0 -0.33509915682E+02 -0.98475670143E+01  0.18236684341E+01  0.34974487726E+02  0.00000000000E+00 0. -1.
         11    1    1    2    0    0  0.50956067506E+02 -0.59872978518E+01 -0.38514874196E+02  0.64154221105E+02  0.00000000000E+00 0.  1.
</event>
<event>
 7    1  0.2844572E-009  0.2914900E+03  0.7561462E-02  0.1089574E+00
         -2   -1    0    0    0  501 -0.00000000000E+00  0.00000000000E+00  0.57254701077E+02  0.57254701077E+02  0.00000000000E+00 0.  1.
          2   -1    0    0  501    0  0.00000000000E+00 -0.00000000000E+00 -0.17301055720E+04  0.17301055720E+04  0.00000000000E+00 0. -1.
         25    2    1    2    0    0 -0.20053197065E+03 -0.20820347675E+03 -0.10152208262E+04  0.10629595079E+04  0.12509128819E+03 0.  0.
          5    1    3    3  502    0 -0.14633302616E+03 -0.15008479145E+03 -0.50846798670E+03  0.54999633187E+03  0.41800000000E+01 0. -1.
         -5    1    3    3    0  502 -0.54198944493E+02 -0.58118685293E+02 -0.50675283951E+03  0.51296317599E+03  0.41800000000E+01 0. -1.
        -11    1    1    2    0    0  0.50279990740E+02  0.87896582762E+02 -0.32138533686E+03  0.33696056368E+03  0.00000000000E+00 0. -1.
         11    1    1    2    0    0  0.15025197991E+03  0.12030689398E+03 -0.33624470783E+03  0.38744020151E+03  0.00000000000E+00 0.  1.
</event>
<event>
 7    1  0.2844572E-009  0.1927442E+03  0.7561462E-02  0.1156009E+00
         -2   -1    0    0    0  501 -0.00000000000E+00  0.00000000000E+00  0.12937971940E+03  0.12937971940E+03  0.00000000000E+00 0.  1.
          2   -1    0    0  501    0  0.00000000000E+00 -0.00000000000E+00 -0.30149863277E+03  0.30149863277E+03  0.00000000000E+00 0. -1.
         25    2    1    2    0    0 -0.70463618654E+02  0.14793579689E+03 -0.11294938921E+03  0.23506738253E+03  0.12509591620E+03 0.  0.
          5    1    3    3  502    0 -0.59962181223E+02  0.31632689563E+01 -0.42387837616E+02  0.73618412271E+02  0.41800000000E+01 0. -1.
         -5    1    3    3    0  502 -0.10501437431E+02  0.14477252794E+03 -0.70561551591E+02  0.16144897026E+03  0.41800000000E+01 0. -1.
        -11    1    1    2    0    0  0.44155316529E+01 -0.95897629325E+02 -0.57106404640E+02  0.11170046410E+03  0.00000000000E+00 0.  1.
         11    1    1    2    0    0  0.66048087002E+02 -0.52038167570E+02 -0.20631195166E+01  0.84110505543E+02  0.00000000000E+00 0. -1.
</event>
<event>
 7    1  0.2844572E-009  0.7907880E+02  0.7561462E-02  0.1331686E+00
         -1   -1    0    0    0  501 -0.00000000000E+00  0.00000000000E+00  0.11483240010E+03  0.11483240010E+03  0.00000000000E+00 0.  1.
          1   -1    0    0  501    0  0.00000000000E+00 -0.00000000000E+00 -0.10172331899E+03  0.10172331899E+03  0.00000000000E+00 0. -1.
         25    2    1    2    0    0  0.85985939588E+01 -0.13525721307E+01  0.58069599918E+01  0.12553074025E+03  0.12509388752E+03 0.  0.
          5    1    3    3  502    0  0.55400214735E+02 -0.19310797418E+02  0.33927339087E+02  0.67901601065E+02  0.41800000000E+01 0. -1.
         -5    1    3    3    0  502 -0.46801620776E+02  0.17958225287E+02 -0.28120379095E+02  0.57629139185E+02  0.41800000000E+01 0. -1.
        -11    1    1    2    0    0 -0.28703449781E+02 -0.14369791978E+01  0.41961362111E+02  0.50859697686E+02  0.00000000000E+00 0.  1.
         11    1    1    2    0    0  0.20104855822E+02  0.27895513286E+01 -0.34659240993E+02  0.40165281158E+02  0.00000000000E+00 0. -1.
</event>
<event>
 7    1  0.2844572E-009  0.9404336E+02  0.7561462E-02  0.1293345E+00
         -1   -1    0    0    0  501 -0.00000000000E+00  0.00000000000E+00  0.69917766523E+02  0.69917766523E+02  0.00000000000E+00 0.  1.
          1   -1    0    0  501    0  0.00000000000E+00 -0.00000000000E+00 -0.31825342895E+03  0.31825342895E+03  0.00000000000E+00 0. -1.
         25    2    1    2    0    0 -0.51290634974E+02 -0.23435193063E+01 -0.24558157966E+03  0.28034558673E+03  0.12508842638E+03 0.  0.
          5    1    3    3  502    0  0.29318074728E+02  0.29147635924E+02 -0.41940990929E+02  0.59039421625E+02  0.41800000000E+01 0.  1.
         -5    1    3    3    0  502 -0.80608709702E+02 -0.31491155231E+02 -0.20364058873E+03  0.22130616511E+03  0.41800000000E+01 0.  1.
        -11    1    1    2    0    0  0.22394238452E+02 -0.14275328228E+02 -0.46064910392E+02  0.53172012199E+02  0.00000000000E+00 0. -1.
         11    1    1    2    0    0  0.28896396522E+02  0.16618847534E+02  0.43310827622E+02  0.54653596539E+02  0.00000000000E+00 0.  1.
</event>
<event>
 7    1  0.2844572E-009  0.1407662E+03  0.7561462E-02  0.1212302E+00
          3   -1    0    0  501    0  0.00000000000E+00  0.00000000000E+00  0.14496219886E+03  0.14496219886E+03  0.00000000000E+00 0. -1.
         -3   -1    0    0    0  501 -0.00000000000E+00 -0.00000000000E+00 -0.15765868876E+03  0.15765868876E+03  0.00000000000E+00 0.  1.
         25    2    1    2    0    0  0.59584064782E+02  0.66697579033E+02  0.47214948231E+02  0.16085715061E+03  0.12508774417E+03 0.  0.
          5    1    3    3  502    0  0.33689733404E+02  0.10323735708E+03  0.30527776697E+02  0.11288209594E+03  0.41800000000E+01 0.  1.
         -5    1    3    3    0  502  0.25894331379E+02 -0.36539778046E+02  0.16687171534E+02  0.47975054674E+02  0.41800000000E+01 0.  1.
        -11    1    1    2    0    0 -0.82500981104E+02 -0.37137528903E+02 -0.36016666715E+02  0.97379711529E+02  0.00000000000E+00 0.  1.
         11    1    1    2    0    0  0.22916916322E+02 -0.29560050130E+02 -0.23894771414E+02  0.44384025486E+02  0.00000000000E+00 0. -1.
</event>
<event>
 7    1  0.2844572E-009  0.7479001E+02  0.7561462E-02  0.1344523E+00
         -1   -1    0    0    0  501 -0.00000000000E+00  0.00000000000E+00  0.33361866104E+03  0.33361866104E+03  0.00000000000E+00 0.  1.
          1   -1    0    0  501    0  0.00000000000E+00 -0.00000000000E+00 -0.40907211120E+02  0.40907211120E+02  0.00000000000E+00 0. -1.
         25    2    1    2    0    0  0.15452631567E+02  0.11254310958E+02  0.11263723813E+03  0.16941125915E+03  0.12509030328E+03 0.  0.
          5    1    3    3  502    0  0.24734588372E+01 -0.44047181007E+02  0.12798134926E+01  0.44332634434E+02  0.41800000000E+01 0.  1.
         -5    1    3    3    0  502  0.12979172730E+02  0.55301491965E+02  0.11135742464E+03  0.12507862472E+03  0.41800000000E+01 0.  1.
        -11    1    1    2    0    0 -0.31212789498E+02 -0.78394912236E+01  0.18536890377E+03  0.18814177190E+03  0.00000000000E+00 0.  1.
         11    1    1    2    0    0  0.15760157932E+02 -0.34148197345E+01 -0.52946919861E+01  0.16972841102E+02  0.00000000000E+00 0. -1.
</event>
<event>
 7    1  0.2844572E-009  0.1714627E+03  0.7561462E-02  0.1176331E+00
          1   -1    0    0  501    0  0.00000000000E+00  0.00000000000E+00  0.39439857668E+02  0.39439857668E+02  0.00000000000E+00 0. -1.
         -1   -1    0    0    0  501 -0.00000000000E+00 -0.00000000000E+00 -0.11261722982E+04  0.11261722982E+04  0.00000000000E+00 0.  1.
         25    2    1    2    0    0 -0.15843930375E+03 -0.13868293633E+02 -0.79712039824E+03  0.82240129469E+03  0.12509043798E+03 0.  0.
          5    1    3    3  502    0 -0.95020332969E+02  0.16637676230E+02 -0.67102551528E+03  0.67793686321E+03  0.41800000000E+01 0.  1.
         -5    1    3    3    0  502 -0.63418970785E+02 -0.30505969863E+02 -0.12609488296E+03  0.14446443147E+03  0.41800000000E+01 0.  1.
        -11    1    1    2    0    0  0.37709640805E+02 -0.29195097028E+02 -0.13018501469E+03  0.13864526227E+03  0.00000000000E+00 0. -1.
         11    1    1    2    0    0  0.12072966295E+03  0.43063390661E+02 -0.15942702765E+03  0.20456559896E+03  0.00000000000E+00 0.  1.
</event>
<event>
 7    1  0.2844572E-009  0.1025508E+03  0.7561462E-02  0.1275022E+00
          1   -1    0    0  501    0  0.00000000000E+00  0.00000000000E+00  0.57244239411E+03  0.57244239411E+03  0.00000000000E+00 0. -1.
         -1   -1    0    0    0  501 -0.00000000000E+00 -0.00000000000E+00 -0.27799111422E+02  0.27799111422E+02  0.00000000000E+00 0.  1.
         25    2    1    2    0    0  0.56311651815E+02  0.23517904496E+02  0.35222317612E+03  0.37872456331E+03  0.12508810935E+03 0.  0.
          5    1    3    3  502    0 -0.36416217444E+02 -0.10870833111E+02  0.71831774134E+02  0.81373165606E+02  0.41800000000E+01 0. -1.
         -5    1    3    3    0  502  0.92727869260E+02  0.34388737607E+02  0.28039140198E+03  0.29735139770E+03  0.41800000000E+01 0. -1.
        -11    1    1    2    0    0 -0.18137741542E+02 -0.23526971842E+02  0.48480895424E+01  0.30099834626E+02  0.00000000000E+00 0.  1.
         11    1    1    2    0    0 -0.38173910273E+02  0.90673457343E-02  0.18757201703E+03  0.19141710760E+03  0.00000000000E+00 0. -1.
</event>
<event>
 7    1  0.2844572E-009  0.9085035E+02  0.7561462E-02  0.1300805E+00
          2   -1    0    0  501    0  0.00000000000E+00  0.00000000000E+00  0.78757242802E+03  0.78757242802E+03  0.00000000000E+00 0. -1.
         -2   -1    0    0    0  501 -0.00000000000E+00 -0.00000000000E+00 -0.19793457047E+02  0.19793457047E+02  0.00000000000E+00 0.  1.
         25    2    1    2    0    0 -0.34404100807E+02  0.52417923695E+02  0.42025231853E+03  0.44293529998E+03  0.12509351644E+03 0.  0.
          5    1    3    3  502    0 -0.35000364727E+02 -0.43888353027E+01  0.35307752125E+03  0.35485982559E+03  0.41800000000E+01 0. -1.
         -5    1    3    3    0  502  0.59626391953E+00  0.56806758997E+02  0.67174797285E+02  0.88075474388E+02  0.41800000000E+01 0. -1.
        -11    1    1    2    0    0  0.14198779947E+02  0.13911096960E+02  0.15405525170E+02  0.25148641641E+02  0.00000000000E+00 0.  1.
         11    1    1    2    0    0  0.20205320860E+02 -0.66329020655E+02  0.33212112727E+03  0.33928194345E+03  0.00000000000E+00 0. -1.
</event>
<event>
 7    1  0.2844572E-009  0.1398641E+03  0.7561462E-02  0.1213512E+00
         -1   -1    0    0    0  501 -0.00000000000E+00  0.00000000000E+00  0.76905213640E+02  0.76905213640E+02  0.00000000000E+00 0.  1.
          1   -1    0    0  501    0  0.00000000000E+00 -0.00000000000E+00 -0.36951707662E+03  0.36951707662E+03  0.00000000000E+00 0. -1.
         25    2    1    2    0    0 -0.68620377615E+02 -0.77172887015E+02 -0.51274439361E+02  0.17012206314E+03  0.12509211614E+03 0.  0.
          5    1    3    3  502    0  0.23152050760E+02  0.40657891219E+01 -0.40501326765E+02  0.47014656920E+02  0.41800000000E+01 0.  1.
         -5    1    3    3    0  502 -0.91772428375E+02 -0.81238676137E+02 -0.10773112596E+02  0.12310740622E+03  0.41800000000E+01 0.  1.
        -11    1    1    2    0    0  0.23712019178E+02  0.84457075726E+02 -0.13990788958E+03  0.16513471791E+03  0.00000000000E+00 0.  1.
         11    1    1    2    0    0  0.44908358437E+02 -0.72841887109E+01 -0.10142953404E+03  0.11116550921E+03  0.00000000000E+00 0. -1.
</event>
<event>
 7    1  0.2844572E-009  0.1580250E+03  0.7561462E-02  0.1190945E+00
         -4   -1    0    0    0  501 -0.00000000000E+00  0.00000000000E+00  0.66142288899E+02  0.66142288899E+02  0.00000000000E+00 0.  1.
          4   -1    0    0  501    0  0.00000000000E+00 -0.00000000000E+00 -0.50804634920E+03  0.50804634920E+03  0.00000000000E+00 0. -1.
         25    2    1    2    0    0  0.11809861021E+03  0.18994275049E+02 -0.98634106849E+02  0.19921190962E+03  0.12509449901E+03 0.  0.
          5    1    3    3  502    0 -0.14795744248E+02  0.29199335264E+02  0.57413864116E+00  0.33004806664E+02  0.41800000000E+01 0. -1.
         -5    1    3    3    0  502  0.13289435446E+03 -0.10205060215E+02 -0.99208245490E+02  0.16620710296E+03  0.41800000000E+01 0. -1.
        -11    1    1    2    0    0 -0.11439017961E+03 -0.45373565112E+02 -0.26220095389E+03  0.28964325268E+03  0.00000000000E+00 0. -1.
         11    1    1    2    0    0 -0.37084305939E+01  0.26379290063E+02 -0.81068999563E+02  0.85333475799E+02  0.00000000000E+00 0.  1.
</event>
<event>
 7    1  0.2844572E-009  0.8091587E+02  0.7561462E-02  0.1326472E+00
          1   -1    0    0  501    0  0.00000000000E+00  0.00000000000E+00  0.21259823928E+03  0.21259823928E+03  0.00000000000E+00 0. -1.
         -1   -1    0    0    0  501 -0.00000000000E+00 -0.00000000000E+00 -0.85966213826E+02  0.85966213826E+02  0.00000000000E+00 0.  1.
         25    2    1    2    0    0  0.56979858114E+02 -0.15206265686E+02  0.13603282041E+03  0.19398542131E+03  0.12508989050E+03 0.  0.
          5    1    3    3  502    0  0.69438058635E+02  0.10250534786E+02  0.14728334343E+03  0.16320714783E+03  0.41800000000E+01 0.  1.
         -5    1    3    3    0  502 -0.12458200521E+02 -0.25456800472E+02 -0.11250523019E+02  0.30778273484E+02  0.41800000000E+01 0.  1.
        -11    1    1    2    0    0 -0.37848148840E+02 -0.90139953524E+00 -0.46421672248E+02  0.59902141414E+02  0.00000000000E+00 0.  1.
         11    1    1    2    0    0 -0.19131709274E+02  0.16107665221E+02  0.37020877294E+02  0.44676890382E+02  0.00000000000E+00 0. -1.
</event>
<event>
 7    1  0.2844572E-009  0.1688252E+03  0.7561462E-02  0.1179079E+00
         -4   -1    0    0    0  501 -0.00000000000E+00  0.00000000000E+00  0.46190808253E+03  0.46190808253E+03  0.00000000000E+00 0. -1.
          4   -1    0    0  501    0  0.00000000000E+00 -0.00000000000E+00 -0.84669002027E+02  0.84669002027E+02  0.00000000000E+00 0.  1.
         25    2    1    2    0    0  0.10141401482E+03  0.12953959073E+03  0.19857747831E+03  0.28661128964E+03  0.12509080098E+03 0.  0.
          5    1    3    3  502    0  0.89224533636E+00  0.73966871187E+00  0.90651867936E+02  0.90755588102E+02  0.41800000000E+01 0. -1.
         -5    1    3    3    0  502  0.10052176948E+03  0.12879992202E+03  0.10792561038E+03  0.19585570154E+03  0.41800000000E+01 0. -1.
        -11    1    1    2    0    0 -0.48660667633E+02 -0.95244148105E+02  0.52855643570E+02  0.11930225220E+03  0.00000000000E+00 0.  1.
         11    1    1    2    0    0 -0.52753347187E+02 -0.34295442622E+02  0.12580595862E+03  0.14066354271E+03  0.00000000000E+00 0. -1.
</event>
<event>
 7    1  0.2844572E-009  0.1208689E+03  0.7561462E-02  0.1241671E+00
         -1   -1    0    0    0  501 -0.00000000000E+00  0.00000000000E+00  0.29338640757E+03  0.29338640757E+03  0.00000000000E+00 0.  1.
          1   -1    0    0  501    0  0.00000000000E+00 -0.00000000000E+00 -0.17311459224E+03  0.17311459224E+03  0.00000000000E+00 0. -1.
         25    2    1    2    0    0  0.89326667512E+02  0.31186786371E+02 -0.11660890109E+03  0.19543975915E+03  0.12508874638E+03 0.  0.
          5    1    3    3  502    0  0.22362735414E+01  0.22066274038E+02 -0.10453752840E+03  0.10694619495E+03  0.41800000000E+01 0. -1.
         -5    1    3    3    0  502  0.87090393970E+02  0.91205123326E+01 -0.12071372687E+02  0.88493564205E+02  0.41800000000E+01 0. -1.
        -11    1    1    2    0    0 -0.66307314427E+02  0.24936220485E+02  0.11905149156E+03  0.13853422928E+03  0.00000000000E+00 0.  1.
         11    1    1    2    0    0 -0.23019353085E+02 -0.56123006856E+02  0.11782922486E+03  0.13252701138E+03  0.00000000000E+00 0. -1.
</event>
<event>
 7    1  0.2844572E-009  0.1092488E+03  0.7561462E-02  0.1261967E+00
          2   -1    0    0  501    0  0.00000000000E+00  0.00000000000E+00  0.17864629130E+03  0.17864629130E+03  0.00000000000E+00 0. -1.
         -2   -1    0    0    0  501 -0.00000000000E+00 -0.00000000000E+00 -0.72663281421E+02  0.72663281421E+02  0.00000000000E+00 0.  1.
         25    2    1    2    0    0  0.47619209237E+01  0.37664116393E+02  0.60411409370E+02  0.14400642929E+03  0.12508817586E+03 0.  0.
          5    1    3    3  502    0 -0.56961148667E+02  0.58966150683E+00  0.37517383937E+02  0.68337007951E+02  0.41800000000E+01 0. -1.
         -5    1    3    3    0  502  0.61723069591E+02  0.37074454886E+02  0.22894025433E+02  0.75669421337E+02  0.41800000000E+01 0. -1.
        -11    1    1    2    0    0 -0.26328870243E+02 -0.55397429986E+02  0.10101796706E+02  0.62162134407E+02  0.00000000000E+00 0. -1.
         11    1    1    2    0    0  0.21566949319E+02  0.17733313593E+02  0.35469803800E+02  0.45141009022E+02  0.00000000000E+00 0.  1.
</event>
<event>
 7    1  0.2844572E-009  0.1135958E+03  0.7561462E-02  0.1254052E+00
          2   -1    0    0  501    0  0.00000000000E+00  0.00000000000E+00  0.14016763697E+04  0.14016763697E+04  0.00000000000E+00 0. -1.
         -2   -1    0    0    0  501 -0.00000000000E+00 -0.00000000000E+00 -0.19848893513E+02  0.19848893513E+02  0.00000000000E+00 0.  1.
         25    2    1    2    0    0  0.65794427287E+02  0.62843209998E+02  0.11131260559E+04  0.11238212788E+04  0.12508586832E+03 0.  0.
          5    1    3    3  502    0 -0.26699394699E+02  0.22689555687E+02  0.58970789545E+03  0.59076268329E+03  0.41800000000E+01 0.  1.
         -5    1    3    3    0  502  0.92493821986E+02  0.40153654311E+02  0.52341816050E+03  0.53305859547E+03  0.41800000000E+01 0.  1.
        -11    1    1    2    0    0 -0.29569487935E+02 -0.28364366692E+02  0.23048123929E+02  0.47011785025E+02  0.00000000000E+00 0.  1.
         11    1    1    2    0    0 -0.36224939352E+02 -0.34478843305E+02  0.24565329627E+03  0.25069219939E+03  0.00000000000E+00 0. -1.
</event>
<event>
 7    1  0.2844572E-009  0.1562911E+03  0.7561462E-02  0.1192949E+00
          4   -1    0    0  501    0  0.00000000000E+00  0.00000000000E+00  0.43315929942E+02  0.43315929942E+02  0.00000000000E+00 0. -1.
         -4   -1    0    0    0  501 -0.00000000000E+00 -0.00000000000E+00 -0.76944189769E+03  0.76944189769E+03  0.00000000000E+00 0.  1.
         25    2    1    2    0    0  0.10768113217E+03 -0.55168324544E+02 -0.56632545869E+03  0.59246179723E+03  0.12509071010E+03 0.  0.
          5    1    3    3  502    0  0.67306655358E+02  0.27878640911E+02 -0.34457246240E+03  0.35221450669E+03  0.41800000000E+01 0. -1.
         -5    1    3    3    0  502  0.40374476808E+02 -0.83046965455E+02 -0.22175299629E+03  0.24024729054E+03  0.41800000000E+01 0. -1.
        -11    1    1    2    0    0 -0.26590636026E+02  0.60319731307E+02 -0.45666428908E+02  0.80193233121E+02  0.00000000000E+00 0. -1.
         11    1    1    2    0    0 -0.81090496139E+02 -0.51514067628E+01 -0.11413408015E+03  0.14010279729E+03  0.00000000000E+00 0.  1.
</event>
<event>
 7    1  0.2844572E-009  0.1291405E+03  0.7561462E-02  0.1228737E+00
         -2   -1    0    0    0  501 -0.00000000000E+00  0.00000000000E+00  0.10846736501E+03  0.10846736501E+03  0.00000000000E+00 0.  1.
          2   -1    0    0  501    0  0.00000000000E+00 -0.00000000000E+00 -0.17115152659E+03  0.17115152659E+03  0.00000000000E+00 0. -1.
         25    2    1    2    0    0  0.72756804738E+02  0.31638609211E+02 -0.11015569904E+02  0.14853987879E+03  0.12509275991E+03 0.  0.
          5    1    3    3  502    0  0.10300260543E+03  0.38375424209E+02  0.10630000937E+02  0.11051099144E+03  0.41800000000E+01 0. -1.
         -5    1    3    3    0  502 -0.30245800696E+02 -0.67368149975E+01 -0.21645570840E+02  0.38028887350E+02  0.41800000000E+01 0. -1.
        -11    1    1    2    0    0 -0.92432669608E+02 -0.21586288555E+02 -0.28597174233E+02  0.99134074054E+02  0.00000000000E+00 0.  1.
         11    1    1    2    0    0  0.19675864869E+02 -0.10052320657E+02 -0.23071417444E+02  0.31944938751E+02  0.00000000000E+00 0. -1.
</event>
<event>
 7    1  0.2844572E-009  0.1425017E+03  0.7561462E-02  0.1210002E+00
         -1   -1    0    0    0  501 -0.00000000000E+00  0.00000000000E+00  0.18975240858E+03  0.18975240858E+03  0.00000000000E+00 0.  1.
          1   -1    0    0  501    0  0.00000000000E+00 -0.00000000000E+00 -0.13917553977E+03  0.13917553977E+03  0.00000000000E+00 0. -1.
         25    2    1    2    0    0  0.10752605184E+03 -0.16543977339E+02  0.86646247580E+02  0.18705674882E+03  0.12508836896E+03 0.  0.
          5    1    3    3  502    0  0.17454158599E+02  0.46777050621E+02  0.50401072254E+02  0.71066733438E+02  0.41800000000E+01 0. -1.
         -5    1    3    3    0  502  0.90071893239E+02 -0.63321027959E+02  0.36245175326E+02  0.11599001538E+03  0.41800000000E+01 0. -1.
        -11    1    1    2    0    0 -0.25690133791E+02  0.32413347929E+02 -0.41166852701E+02  0.58355101401E+02  0.00000000000E+00 0. -1.
         11    1    1    2    0    0 -0.81835918047E+02 -0.15869370591E+02  0.50974739326E+01  0.83516098125E+02  0.00000000000E+00 0.  1.
</event>
<event>
 7    1  0.2844572E-009  0.1035813E+03  0.7561462E-02  0.1272940E+00
          1   -1    0    0  501    0  0.00000000000E+00  0.00000000000E+00  0.15557246402E+03  0.15557246402E+03  0.00000000000E+00 0. -1.
         -1   -1    0    0    0  501 -0.00000000000E+00 -0.00000000000E+00 -0.12244977616E+03  0.12244977616E+03  0.00000000000E+00 0.  1.
         25    2    1    2    0    0 -0.82010930721E+02 -0.11124269135E+01  0.25855479014E+01  0.14960311237E+03  0.12508947167E+03 0.  0.
          5    1    3    3  502    0 -0.95195461689E+01 -0.27161386464E+02  0.50868932247E+02  0.58595932810E+02  0.41800000000E+01 0. -1.
         -5    1    3    3    0  502 -0.72491384553E+02  0.26048959551E+02 -0.48283384345E+02  0.91007179562E+02  0.41800000000E+01 0. -1.
        -11    1    1    2    0    0  0.12129451104E+01 -0.17892405362E+02 -0.23361888861E+02  0.29451438957E+02  0.00000000000E+00 0.  1.
         11    1    1    2    0    0  0.80797985611E+02  0.19004832276E+02  0.53899028816E+02  0.98967688848E+02  0.00000000000E+00 0. -1.
</event>
<event>
 7    1  0.3299984E-009  0.1059702E+03  0.7561462E-02  0.1268220E+00
          2   -1    0    0  501    0  0.00000000000E+00  0.00000000000E+00  0.14880167683E+04  0.14880167683E+04  0.00000000000E+00 0. -1.
         -2   -1    0    0    0  501 -0.00000000000E+00 -0.00000000000E+00 -0.15358761457E+02  0.15358761457E+02  0.00000000000E+00 0.  1.
         25    2    1    2    0    0  0.60740511197E+01  0.65903352705E+02  0.12044392641E+04  0.12127250128E+04  0.12509144598E+03 0.  0.
          5    1    3    3  502    0 -0.45720627936E+02  0.97589768806E+01  0.20245960904E+03  0.20782920666E+03  0.41800000000E+01 0.  1.
         -5    1    3    3    0  502  0.51794679055E+02  0.56144375824E+02  0.10019796550E+04  0.10048958062E+04  0.41800000000E+01 0.  1.
        -11    1    1    2    0    0  0.26175030164E+02 -0.36100829811E+02  0.22376902873E+03  0.22816875408E+03  0.00000000000E+00 0. -1.
         11    1    1    2    0    0 -0.32249081284E+02 -0.29802522894E+02  0.44449714066E+02  0.62481762900E+02  0.00000000000E+00 0.  1.
</event>
<event>
 7    1  0.2844572E-009  0.8190424E+02  0.7561462E-02  0.1323733E+00
         -3   -1    0    0    0  501 -0.00000000000E+00  0.00000000000E+00  0.94738381534E+02  0.94738381534E+02  0.00000000000E+00 0.  1.
          3   -1    0    0  501    0  0.00000000000E+00 -0.00000000000E+00 -0.13680624177E+03  0.13680624177E+03  0.00000000000E+00 0. -1.
         25    2    1    2    0    0 -0.29319801675E+02 -0.17812200198E+02 -0.51905334327E+01  0.12981492302E+03  0.12509215545E+03 0.  0.
          5    1    3    3  502    0 -0.68596060270E+02 -0.13191778315E+02  0.30541601276E+02  0.76352500340E+02  0.41800000000E+01 0. -1.
         -5    1    3    3    0  502  0.39276258595E+02 -0.46204218828E+01 -0.35732134709E+02  0.53462422676E+02  0.41800000000E+01 0. -1.
        -11    1    1    2    0    0  0.11387178549E+02  0.30194880394E+02  0.21928276386E+02  0.39015995984E+02  0.00000000000E+00 0.  1.
         11    1    1    2    0    0  0.17932623125E+02 -0.12382680197E+02 -0.58805603185E+02  0.62713704300E+02  0.00000000000E+00 0. -1.
</event>
<event>
 7    1  0.2844572E-009  0.1526254E+03  0.7561462E-02  0.1197283E+00
          1   -1    0    0  501    0  0.00000000000E+00  0.00000000000E+00  0.11581883912E+04  0.11581883912E+04  0.00000000000E+00 0. -1.
         -1   -1    0    0    0  501 -0.00000000000E+00 -0.00000000000E+00 -0.24191480244E+02  0.24191480244E+02  0.00000000000E+00 0.  1.
         25    2    1    2    0    0  0.64450302334E+02 -0.91941859521E+02  0.81106979751E+03  0.82830550305E+03  0.12509453602E+03 0.  0.
          5    1    3    3  502    0  0.60456199262E+02  0.11462455230E+02  0.37977944496E+03  0.38475477791E+03  0.41800000000E+01 0. -1.
         -5    1    3    3    0  502  0.39941030720E+01 -0.10340431475E+03  0.43129035255E+03  0.44355072514E+03  0.41800000000E+01 0. -1.
        -11    1    1    2    0    0 -0.70366606870E+01 -0.16150056710E+02  0.81651451032E+02  0.83530224356E+02  0.00000000000E+00 0. -1.
         11    1    1    2    0    0 -0.57413641647E+02  0.10809191623E+03  0.24127566241E+03  0.27054414404E+03  0.00000000000E+00 0.  1.
</event>
<event>
 7    1  0.2844572E-009  0.9258663E+02  0.7561462E-02  0.1296706E+00
          2   -1    0    0  501    0  0.00000000000E+00  0.00000000000E+00  0.74785922961E+03  0.74785922961E+03  0.00000000000E+00 0.  1.
         -2   -1    0    0    0  501 -0.00000000000E+00 -0.00000000000E+00 -0.18382484773E+02  0.18382484773E+02  0.00000000000E+00 0. -1.
         25    2    1    2    0    0  0.47991967263E+01  0.33324955594E+02  0.52773498661E+03  0.54340125960E+03  0.12508848024E+03 0.  0.
          5    1    3    3  502    0  0.52400564569E+02  0.10291589930E+02  0.41907486266E+03  0.42248425876E+03  0.41800000000E+01 0.  1.
         -5    1    3    3    0  502 -0.47601367843E+02  0.23033365665E+02  0.10866012395E+03  0.12091700084E+03  0.41800000000E+01 0.  1.
        -11    1    1    2    0    0 -0.37834831582E+02 -0.21214671711E+02  0.17002181456E+03  0.17546781529E+03  0.00000000000E+00 0.  1.
         11    1    1    2    0    0  0.33035634856E+02 -0.12110283884E+02  0.31719943664E+02  0.47372639488E+02  0.00000000000E+00 0. -1.
</event>
<event>
 7    1  0.2844572E-009  0.1036812E+03  0.7561462E-02  0.1272740E+00
          4   -1    0    0  501    0  0.00000000000E+00  0.00000000000E+00  0.36754370961E+02  0.36754370961E+02  0.00000000000E+00 0. -1.
         -4   -1    0    0    0  501 -0.00000000000E+00 -0.00000000000E+00 -0.35205132993E+03  0.35205132993E+03  0.00000000000E+00 0.  1.
         25    2    1    2    0    0 -0.20355266766E+02 -0.19643614841E+02 -0.14400036625E+03  0.19283018191E+03  0.12508862892E+03 0.  0.
          5    1    3    3  502    0 -0.55248449379E+02  0.22504694607E+02 -0.31343716602E+02  0.67518541220E+02  0.41800000000E+01 0.  1.
         -5    1    3    3    0  502  0.34893182613E+02 -0.42148309448E+02 -0.11265664965E+03  0.12531164069E+03  0.41800000000E+01 0.  1.
        -11    1    1    2    0    0  0.24949012428E+02  0.53228481992E+02 -0.12906805748E+03  0.14182484965E+03  0.00000000000E+00 0.  1.
         11    1    1    2    0    0 -0.45937456620E+01 -0.33584867150E+02 -0.42228535239E+02  0.54150669333E+02  0.00000000000E+00 0. -1.
</event>
<event>
 7    1  0.2844572E-009  0.1265843E+03  0.7561462E-02  0.1232614E+00
          2   -1    0    0  501    0  0.00000000000E+00  0.00000000000E+00  0.68710452947E+03  0.68710452947E+03  0.00000000000E+00 0. -1.
         -2   -1    0    0    0  501 -0.00000000000E+00 -0.00000000000E+00 -0.30799465724E+02  0.30799465724E+02  0.00000000000E+00 0.  1.
         25    2    1    2    0    0  0.84631335614E+02 -0.37972620352E+02  0.42687225303E+03  0.45439210012E+03  0.12509147605E+03 0.  0.
          5    1    3    3  502    0  0.49564627326E+02 -0.64460153674E+02  0.12414306044E+03  0.14846122574E+03  0.41800000000E+01 0.  1.
         -5    1    3    3    0  502  0.35066708288E+02  0.26487533321E+02  0.30272919259E+03  0.30593087438E+03  0.41800000000E+01 0.  1.
        -11    1    1    2    0    0 -0.24538996539E+02 -0.28757566719E+02  0.48250573435E+02  0.61296638012E+02  0.00000000000E+00 0.  1.
         11    1    1    2    0    0 -0.60092339075E+02  0.66730187072E+02  0.18118223728E+03  0.20221525706E+03  0.00000000000E+00 0. -1.
</event>
<event>
 7    1  0.2844572E-009  0.1177706E+03  0.7561462E-02  0.1246821E+00
          2   -1    0    0  501    0  0.00000000000E+00  0.00000000000E+00  0.73968693631E+03  0.73968693631E+03  0.00000000000E+00 0. -1.
         -2   -1    0    0    0  501 -0.00000000000E+00 -0.00000000000E+00 -0.20911920259E+02  0.20911920259E+02  0.00000000000E+00 0.  1.
         25    2    1    2    0    0 -0.45346099161E+02  0.27379786808E+02  0.45562662105E+03  0.47544625060E+03  0.12509035918E+03 0.  0.
          5    1    3    3  502    0 -0.66516847205E+02 -0.30702132445E+02  0.26725517178E+03  0.27714601051E+03  0.41800000000E+01 0. -1.
         -5    1    3    3    0  502  0.21170748044E+02  0.58081919253E+02  0.18837144927E+03  0.19830024008E+03  0.41800000000E+01 0. -1.
        -11    1    1    2    0    0  0.23587661569E+02  0.30389372875E+02  0.16323968969E+03  0.16771132357E+03  0.00000000000E+00 0. -1.
         11    1    1    2    0    0  0.21758437592E+02 -0.57769159682E+02  0.99908705301E+02  0.11744128240E+03  0.00000000000E+00 0.  1.
</event>
<event>
 7    1  0.2844572E-009  0.1184498E+03  0.7561462E-02  0.1245677E+00
          2   -1    0    0  501    0  0.00000000000E+00  0.00000000000E+00  0.42426043030E+03  0.42426043030E+03  0.00000000000E+00 0. -1.
         -2   -1    0    0    0  501 -0.00000000000E+00 -0.00000000000E+00 -0.75403953010E+02  0.75403953010E+02  0.00000000000E+00 0.  1.
         25    2    1    2    0    0  0.76563635289E+02  0.33551627912E+02  0.34081828855E+03  0.37254840038E+03  0.12508997895E+03 0.  0.
          5    1    3    3  502    0  0.81915589094E+01 -0.45075761644E+02  0.96435528143E+02  0.10684666309E+03  0.41800000000E+01 0. -1.
         -5    1    3    3    0  502  0.68372076380E+02  0.78627389556E+02  0.24438276041E+03  0.26570173729E+03  0.41800000000E+01 0. -1.
        -11    1    1    2    0    0 -0.53053537305E+02 -0.34154172351E+02 -0.39245833282E+02  0.74306263124E+02  0.00000000000E+00 0.  1.
         11    1    1    2    0    0 -0.23510097985E+02  0.60254443877E+00  0.47284022027E+02  0.52809719807E+02  0.00000000000E+00 0. -1.
</event>
<event>
 7    1  0.2844572E-009  0.1339500E+03  0.7561462E-02  0.1221710E+00
         -2   -1    0    0    0  501 -0.00000000000E+00  0.00000000000E+00  0.50701994654E+02  0.50701994654E+02  0.00000000000E+00 0.  1.
          2   -1    0    0  501    0  0.00000000000E+00 -0.00000000000E+00 -0.82780769066E+03  0.82780769066E+03  0.00000000000E+00 0. -1.
         25    2    1    2    0    0 -0.12798592275E+02  0.78314120595E+02 -0.73626807559E+03  0.75102282047E+03  0.12509073621E+03 0.  0.
          5    1    3    3  502    0 -0.66293727727E+02  0.64771692794E+02 -0.45539491473E+03  0.46474964367E+03  0.41800000000E+01 0.  1.
         -5    1    3    3    0  502  0.53495135452E+02  0.13542427800E+02 -0.28087316086E+03  0.28627317681E+03  0.41800000000E+01 0.  1.
        -11    1    1    2    0    0  0.49191556333E+02 -0.24864679629E+02 -0.26928359610E+02  0.61344910618E+02  0.00000000000E+00 0. -1.
         11    1    1    2    0    0 -0.36392964058E+02 -0.53449440966E+02 -0.13909260807E+02  0.66141954225E+02  0.00000000000E+00 0.  1.
</event>
<event>
 7    1  0.2844572E-009  0.1141603E+03  0.7561462E-02  0.1253054E+00
         -4   -1    0    0    0  501 -0.00000000000E+00  0.00000000000E+00  0.64988338422E+02  0.64988338422E+02  0.00000000000E+00 0.  1.
          4   -1    0    0  501    0  0.00000000000E+00 -0.00000000000E+00 -0.42706767537E+03  0.42706767537E+03  0.00000000000E+00 0. -1.
         25    2    1    2    0    0 -0.20224602653E+02 -0.93279838768E+02 -0.71796318288E+02  0.17295233754E+03  0.12509051470E+03 0.  0.
          5    1    3    3  502    0 -0.10590677924E+02 -0.10627851425E+03 -0.95913699944E+02  0.14361126449E+03  0.41800000000E+01 0.  1.
         -5    1    3    3    0  502 -0.96339247288E+01  0.12998675483E+02  0.24117381656E+02  0.29341073054E+02  0.41800000000E+01 0.  1.
        -11    1    1    2    0    0  0.27947542159E+02  0.30104057400E+02 -0.29259039005E+02  0.50432239174E+02  0.00000000000E+00 0. -1.
         11    1    1    2    0    0 -0.77229395060E+01  0.63175781368E+02 -0.26102397966E+03  0.26867143708E+03  0.00000000000E+00 0.  1.
</event>
<event>
 7    1  0.2844572E-009  0.2748581E+03  0.7561462E-02  0.1098531E+00
         -1   -1    0    0    0  501 -0.00000000000E+00  0.00000000000E+00  0.45041838112E+03  0.45041838112E+03  0.00000000000E+00 0.  1.
          1   -1    0    0  501    0  0.00000000000E+00 -0.00000000000E+00 -0.18299307325E+03  0.18299307325E+03  0.00000000000E+00 0. -1.
         25    2    1    2    0    0  0.20017607106E+03  0.17467269204E+03  0.13498017909E+03  0.32318452070E+03  0.12509027503E+03 0.  0.
          5    1    3    3  502    0  0.94624104240E+02  0.35348606481E+02  0.10505658577E+03  0.14579987550E+03  0.41800000000E+01 0. -1.
         -5    1    3    3    0  502  0.10555196682E+03  0.13932408556E+03  0.29923593317E+02  0.17738464520E+03  0.41800000000E+01 0. -1.
        -11    1    1    2    0    0 -0.11037434308E+03 -0.52697599408E+02  0.93161741142E+02  0.15374863448E+03  0.00000000000E+00 0. -1.
         11    1    1    2    0    0 -0.89801727981E+02 -0.12197509263E+03  0.39283387642E+02  0.15647829918E+03  0.00000000000E+00 0.  1.
</event>
<event>
 7    1  0.2844572E-009  0.9128769E+02  0.7561462E-02  0.1299763E+00
         -1   -1    0    0    0  501 -0.00000000000E+00  0.00000000000E+00  0.12455176959E+03  0.12455176959E+03  0.00000000000E+00 0.  1.
          1   -1    0    0  501    0  0.00000000000E+00 -0.00000000000E+00 -0.94945641550E+02  0.94945641550E+02  0.00000000000E+00 0. -1.
         25    2    1    2    0    0  0.71945167072E+01  0.33272260640E+01  0.31859237836E+02  0.12932499925E+03  0.12508842029E+03 0.  0.
          5    1    3    3  502    0  0.86450891712E+01 -0.48921684447E+02  0.53021933905E+02  0.72779575782E+02  0.41800000000E+01 0.  1.
         -5    1    3    3    0  502 -0.14505724640E+01  0.52248910511E+02 -0.21162696069E+02  0.56545423466E+02  0.41800000000E+01 0.  1.
        -11    1    1    2    0    0  0.36368361013E+02 -0.48764698658E+01  0.19393015269E+02  0.41503333388E+02  0.00000000000E+00 0.  1.
         11    1    1    2    0    0 -0.43562877720E+02  0.15492438018E+01 -0.21646125069E+02  0.48669078501E+02  0.00000000000E+00 0. -1.
</event>
<event>
 7    1  0.2844572E-009  0.9296929E+02  0.7561462E-02  0.1295816E+00
          1   -1    0    0  501    0  0.00000000000E+00  0.00000000000E+00  0.68227239786E+03  0.68227239786E+03  0.00000000000E+00 0. -1.
         -1   -1    0    0    0  501 -0.00000000000E+00 -0.00000000000E+00 -0.20853397402E+02  0.20853397402E+02  0.00000000000E+00 0.  1.
         25    2    1    2    0    0  0.46267826994E+02 -0.11343239889E+02  0.35110074185E+03  0.37574410850E+03  0.12507007332E+03 0.  0.
          5    1    3    3  502    0  0.39676264455E+02  0.26723999424E+02  0.40777315574E+02  0.62997142568E+02  0.41800000000E+01 0. -1.
         -5    1    3    3    0  502  0.65915625388E+01 -0.38067239312E+02  0.31032342627E+03  0.31274696593E+03  0.41800000000E+01 0. -1.
        -11    1    1    2    0    0 -0.71182508659E+02  0.17694241538E+02  0.17681569414E+03  0.19142576999E+03  0.00000000000E+00 0. -1.
         11    1    1    2    0    0  0.24914681665E+02 -0.63510016497E+01  0.13350256447E+03  0.13595591677E+03  0.00000000000E+00 0.  1.
</event>
<event>
 7    1  0.2844572E-009  0.1043110E+03  0.7561462E-02  0.1271483E+00
          1   -1    0    0  501    0  0.00000000000E+00  0.00000000000E+00  0.56643329755E+03  0.56643329755E+03  0.00000000000E+00 0. -1.
         -1   -1    0    0    0  501 -0.00000000000E+00 -0.00000000000E+00 -0.33483368824E+02  0.33483368824E+02  0.00000000000E+00 0.  1.
         25    2    1    2    0    0  0.81627267532E+02 -0.10219821467E+02  0.28802219132E+03  0.32461102206E+03  0.12509227552E+03 0.  0.
          5    1    3    3  502    0 -0.11468278854E+02  0.18634019097E+00  0.18462298606E+03  0.18502614821E+03  0.41800000000E+01 0.  1.
         -5    1    3    3    0  502  0.93095546386E+02 -0.10406161658E+02  0.10339920527E+03  0.13958487385E+03  0.41800000000E+01 0.  1.
        -11    1    1    2    0    0 -0.25424965694E+02  0.33293440763E+02  0.18603114350E+03  0.19068945548E+03  0.00000000000E+00 0. -1.
         11    1    1    2    0    0 -0.56202301838E+02 -0.23073619296E+02  0.58896593898E+02  0.84616188830E+02  0.00000000000E+00 0.  1.
</event>
<event>
 7    1  0.2844572E-009  0.7321353E+02  0.7561462E-02  0.1349494E+00
         -1   -1    0    0    0  501 -0.00000000000E+00  0.00000000000E+00  0.43305679000E+02  0.43305679000E+02  0.00000000000E+00 0.  1.
          1   -1    0    0  501    0  0.00000000000E+00 -0.00000000000E+00 -0.36813834971E+03  0.36813834971E+03  0.00000000000E+00 0. -1.
         25    2    1    2    0    0  0.30293034560E+02 -0.41711348131E+02 -0.24110049812E+03  0.27646565136E+03  0.12508517771E+03 0.  0.
          5    1    3    3  502    0  0.20869639736E+02 -0.46497521968E+02 -0.19742503302E+02  0.54816058308E+02  0.41800000000E+01 0. -1.
         -5    1    3    3    0  502  0.94233948232E+01  0.47861738366E+01 -0.22135799482E+03  0.22164959306E+03  0.41800000000E+01 0. -1.
        -11    1    1    2    0    0 -0.17995623196E+02 -0.16507733264E+02  0.79478210228E+01  0.25681035235E+02  0.00000000000E+00 0.  1.
         11    1    1    2    0    0 -0.12297411364E+02  0.58219081395E+02 -0.91679993611E+02  0.10929734211E+03  0.00000000000E+00 0. -1.
</event>
<event>
 7    1  0.2844572E-009  0.1471335E+03  0.7561462E-02  0.1204040E+00
          2   -1    0    0  501    0  0.00000000000E+00  0.00000000000E+00  0.30889661495E+03  0.30889661495E+03  0.00000000000E+00 0. -1.
         -2   -1    0    0    0  501 -0.00000000000E+00 -0.00000000000E+00 -0.78064855275E+02  0.78064855275E+02  0.00000000000E+00 0.  1.
         25    2    1    2    0    0  0.24761683773E+01 -0.10139085581E+03  0.75079005964E+02  0.17767951284E+03  0.12508762966E+03 0.  0.
          5    1    3    3  502    0 -0.49134920328E+02 -0.90700425626E+02  0.28208756635E+02  0.10702342713E+03  0.41800000000E+01 0.  1.
         -5    1    3    3    0  502  0.51611088705E+02 -0.10690430185E+02  0.46870249329E+02  0.70656085704E+02  0.41800000000E+01 0.  1.
        -11    1    1    2    0    0 -0.95755336876E+01 -0.17021966642E+02  0.12075982593E+02  0.22962307143E+02  0.00000000000E+00 0.  1.
         11    1    1    2    0    0  0.70993653103E+01  0.11841282245E+03  0.14367677112E+03  0.18631965025E+03  0.00000000000E+00 0. -1.
</event>
<event>
 7    1  0.2844572E-009  0.1456548E+03  0.7561462E-02  0.1205916E+00
         -1   -1    0    0    0  501 -0.00000000000E+00  0.00000000000E+00  0.20164177120E+02  0.20164177120E+02  0.00000000000E+00 0.  1.
          1   -1    0    0  501    0  0.00000000000E+00 -0.00000000000E+00 -0.17621179530E+04  0.17621179530E+04  0.00000000000E+00 0. -1.
         25    2    1    2    0    0 -0.12171052073E+03  0.12675857058E+02 -0.13437886774E+04  0.13551349069E+04  0.12509387779E+03 0.  0.
          5    1    3    3  502    0 -0.26256973158E+02  0.57540152784E+02 -0.68705192037E+03  0.68996964535E+03  0.41800000000E+01 0.  1.
         -5    1    3    3    0  502 -0.95453547573E+02 -0.44864295725E+02 -0.65673675701E+03  0.66516526155E+03  0.41800000000E+01 0.  1.
        -11    1    1    2    0    0  0.36488866957E+02 -0.40165835743E+01 -0.25334857152E+02  0.44602974591E+02  0.00000000000E+00 0.  1.
         11    1    1    2    0    0  0.85221653774E+02 -0.86592734842E+01 -0.37283024138E+03  0.38254424866E+03  0.00000000000E+00 0. -1.
</event>
<event>
 7    1  0.4224270E-009  0.7842351E+02  0.7561462E-02  0.1333586E+00
          2   -1    0    0  501    0  0.00000000000E+00  0.00000000000E+00  0.87764907547E+03  0.87764907547E+03  0.00000000000E+00 0. -1.
         -2   -1    0    0    0  501 -0.00000000000E+00 -0.00000000000E+00 -0.19354906689E+02  0.19354906689E+02  0.00000000000E+00 0.  1.
         25    2    1    2    0    0  0.31132166698E+02  0.27306818331E+02  0.67829065543E+03  0.69097066909E+03  0.12508948063E+03 0.  0.
          5    1    3    3  502    0 -0.86614976327E+01  0.56005963860E+01  0.60220117091E+03  0.60230400203E+03  0.41800000000E+01 0. -1.
         -5    1    3    3    0  502  0.39793664331E+02  0.21706221945E+02  0.76089484525E+02  0.88666667058E+02  0.41800000000E+01 0. -1.
        -11    1    1    2    0    0 -0.52729276981E+02  0.13142768365E+02  0.10070629550E+03  0.11443280546E+03  0.00000000000E+00 0.  1.
         11    1    1    2    0    0  0.21597110283E+02 -0.40449586696E+02  0.79297217844E+02  0.91600507609E+02  0.00000000000E+00 0. -1.
</event>
<event>
 7    1  0.2844572E-009  0.1236889E+03  0.7561462E-02  0.1237133E+00
         -2   -1    0    0    0  501 -0.00000000000E+00  0.00000000000E+00  0.33584989356E+03  0.33584989356E+03  0.00000000000E+00 0.  1.
          2   -1    0    0  501    0  0.00000000000E+00 -0.00000000000E+00 -0.79445147557E+02  0.79445147557E+02  0.00000000000E+00 0. -1.
         25    2    1    2    0    0 -0.80856917923E+02  0.80840534694E+02  0.84291777246E+02  0.18928022747E+03  0.12509543386E+03 0.  0.
          5    1    3    3  502    0 -0.34237083020E+02 -0.46832919126E+01  0.84927198667E+02  0.91783509141E+02  0.41800000000E+01 0. -1.
         -5    1    3    3    0  502 -0.46619834903E+02  0.85523826606E+02 -0.63542142075E+00  0.97496718325E+02  0.41800000000E+01 0. -1.
        -11    1    1    2    0    0  0.51533454090E+02 -0.60041750132E+02  0.17280371842E+03  0.19005744855E+03  0.00000000000E+00 0.  1.
         11    1    1    2    0    0  0.29323463833E+02 -0.20798784561E+02 -0.69074965705E+00  0.35957365107E+02  0.00000000000E+00 0. -1.
</event>
<event>
 7    1  0.2844572E-009  0.9807007E+02  0.7561462E-02  0.1284407E+00
         -3   -1    0    0    0  501 -0.00000000000E+00  0.00000000000E+00  0.50782252964E+02  0.50782252964E+02  0.00000000000E+00 0.  1.
          3   -1    0    0  501    0  0.00000000000E+00 -0.00000000000E+00 -0.23616061601E+03  0.23616061601E+03  0.00000000000E+00 0. -1.
         25    2    1    2    0    0  0.27740981381E+01 -0.48026418525E+01 -0.85990629885E+02  0.15189725558E+03  0.12509047460E+03 0.  0.
          5    1    3    3  502    0  0.29872707783E+02  0.43075959346E+02 -0.35622150604E+01  0.52707482581E+02  0.41800000000E+01 0.  1.
         -5    1    3    3    0  502 -0.27098609644E+02 -0.47878601198E+02 -0.82428414825E+02  0.99189773001E+02  0.41800000000E+01 0.  1.
        -11    1    1    2    0    0  0.26065283738E+02  0.36932899388E+02 -0.68052351618E+02  0.81697984273E+02  0.00000000000E+00 0.  1.
         11    1    1    2    0    0 -0.28839381876E+02 -0.32130257536E+02 -0.31335381543E+02  0.53347629120E+02  0.00000000000E+00 0. -1.
</event>
<event>
 7    1  0.2844572E-009  0.2279180E+03  0.7561462E-02  0.1128114E+00
         -2   -1    0    0    0  501 -0.00000000000E+00  0.00000000000E+00  0.20753574203E+03  0.20753574203E+03  0.00000000000E+00 0.  1.
          2   -1    0    0  501    0  0.00000000000E+00 -0.00000000000E+00 -0.29006378723E+03  0.29006378723E+03  0.00000000000E+00 0. -1.
         25    2    1    2    0    0  0.20069433001E+03  0.87472895773E+02 -0.58606009320E+02  0.25886601024E+03  0.12508886974E+03 0.  0.
          5    1    3    3  502    0  0.74354400950E+02 -0.47535782103E+01 -0.69547282534E+02  0.10200720737E+03  0.41800000000E+01 0. -1.
         -5    1    3    3    0  502  0.12633992906E+03  0.92226473983E+02  0.10941273215E+02  0.15685880287E+03  0.41800000000E+01 0. -1.
        -11    1    1    2    0    0 -0.11170201572E+03 -0.21001706154E+02 -0.50731371437E+02  0.12446720060E+03  0.00000000000E+00 0. -1.
         11    1    1    2    0    0 -0.88992314290E+02 -0.66471189619E+02  0.26809335558E+02  0.11426631842E+03  0.00000000000E+00 0.  1.
</event>
<event>
 7    1  0.2844572E-009  0.8801881E+02  0.7561462E-02  0.1307722E+00
          2   -1    0    0  501    0  0.00000000000E+00  0.00000000000E+00  0.53966976241E+02  0.53966976241E+02  0.00000000000E+00 0. -1.
         -2   -1    0    0    0  501 -0.00000000000E+00 -0.00000000000E+00 -0.31381733665E+03  0.31381733665E+03  0.00000000000E+00 0.  1.
         25    2    1    2    0    0  0.32328135318E+02 -0.92483194251E+00 -0.23454906519E+03  0.26777894954E+03  0.12508532365E+03 0.  0.
          5    1    3    3  502    0  0.32250106787E+02  0.54260416870E+02 -0.17687291139E+03  0.18784504627E+03  0.41800000000E+01 0.  1.
         -5    1    3    3    0  502  0.78028530571E-01 -0.55185248813E+02 -0.57676153802E+02  0.79933903272E+02  0.41800000000E+01 0.  1.
        -11    1    1    2    0    0 -0.42451136059E+02 -0.88489987136E+01  0.23426193058E+02  0.49286816210E+02  0.00000000000E+00 0. -1.
         11    1    1    2    0    0  0.10123000741E+02  0.97738306562E+01 -0.48727488274E+02  0.50718547132E+02  0.00000000000E+00 0.  1.
</event>
<event>
 7    1  0.2844572E-009  0.1790376E+03  0.7561462E-02  0.1168738E+00
          2   -1    0    0  501    0  0.00000000000E+00  0.00000000000E+00  0.14397984282E+03  0.14397984282E+03  0.00000000000E+00 0. -1.
         -2   -1    0    0    0  501 -0.00000000000E+00 -0.00000000000E+00 -0.25185350796E+03  0.25185350796E+03  0.00000000000E+00 0.  1.
         25    2    1    2    0    0 -0.13540802564E+03 -0.72329872595E+02 -0.24987521960E+02  0.19959281145E+03  0.12508385289E+03 0.  0.
          5    1    3    3  502    0  0.17532699711E+02 -0.14185295701E+02 -0.27614616670E+02  0.35897877752E+02  0.41800000000E+01 0.  1.
         -5    1    3    3    0  502 -0.15294072535E+03 -0.58144576894E+02  0.26270947102E+01  0.16369493370E+03  0.41800000000E+01 0.  1.
        -11    1    1    2    0    0  0.54754804433E+02  0.72447258634E+02 -0.69789898090E+02  0.11453088565E+03  0.00000000000E+00 0.  1.
         11    1    1    2    0    0  0.80653221205E+02 -0.11738603893E+00 -0.13096245090E+02  0.81709653687E+02  0.00000000000E+00 0. -1.
</event>
<event>
 7    1  0.2844572E-009  0.1636152E+03  0.7561462E-02  0.1184675E+00
          2   -1    0    0  501    0  0.00000000000E+00  0.00000000000E+00  0.87995213660E+02  0.87995213660E+02  0.00000000000E+00 0. -1.
         -2   -1    0    0    0  501 -0.00000000000E+00 -0.00000000000E+00 -0.37161063441E+03  0.37161063441E+03  0.00000000000E+00 0.  1.
         25    2    1    2    0    0 -0.14322889575E+03  0.16653316371E+02 -0.15861727694E+03  0.24818988059E+03  0.12508767628E+03 0.  0.
          5    1    3    3  502    0 -0.94665883767E+02 -0.19749550590E+02 -0.16038318095E+03  0.18732835191E+03  0.41800000000E+01 0. -1.
         -5    1    3    3    0  502 -0.48563011987E+02  0.36402866961E+02  0.17659040090E+01  0.60861528679E+02  0.41800000000E+01 0. -1.
        -11    1    1    2    0    0  0.15122819984E+03 -0.29871313659E+02 -0.11939748201E+03  0.19498210820E+03  0.00000000000E+00 0.  1.
         11    1    1    2    0    0 -0.79993040910E+01  0.13217997289E+02 -0.56006617977E+01  0.16433859280E+02  0.00000000000E+00 0. -1.
</event>
<event>
 7    1  0.2844572E-009  0.1294474E+03  0.7561462E-02  0.1228278E+00
          1   -1    0    0  501    0  0.00000000000E+00  0.00000000000E+00  0.28453114410E+03  0.28453114410E+03  0.00000000000E+00 0. -1.
         -1   -1    0    0    0  501 -0.00000000000E+00 -0.00000000000E+00 -0.74516564967E+02  0.74516564967E+02  0.00000000000E+00 0.  1.
         25    2    1    2    0    0  0.91385671221E+02 -0.18398520920E+02  0.15058698994E+03  0.21682879429E+03  0.12509371693E+03 0.  0.
          5    1    3    3  502    0  0.11216720795E+03 -0.10563334756E+02  0.15704686269E+03  0.19332422523E+03  0.41800000000E+01 0.  1.
         -5    1    3    3    0  502 -0.20781536726E+02 -0.78351861640E+01 -0.64598727435E+01  0.23504569062E+02  0.41800000000E+01 0.  1.
        -11    1    1    2    0    0 -0.36390576456E+02 -0.32373297903E+02  0.35916345322E+01  0.48838553526E+02  0.00000000000E+00 0. -1.
         11    1    1    2    0    0 -0.54995094765E+02  0.50771818823E+02  0.55835954653E+02  0.93380361247E+02  0.00000000000E+00 0.  1.
</event>
<event>
 7    1  0.2844572E-009  0.9252332E+02  0.7561462E-02  0.1296854E+00
         -2   -1    0    0    0  501 -0.00000000000E+00  0.00000000000E+00  0.69052759139E+02  0.69052759139E+02  0.00000000000E+00 0.  1.
          2   -1    0    0  501    0  0.00000000000E+00 -0.00000000000E+00 -0.22312367436E+03  0.22312367436E+03  0.00000000000E+00 0. -1.
         25    2    1    2    0    0  0.48146631860E+02 -0.42149724775E+02 -0.12158618475E+03  0.18581245089E+03  0.12509344159E+03 0.  0.
          5    1    3    3  502    0  0.66328095310E+02 -0.35311657283E+02 -0.14178257694E+02  0.76582143864E+02  0.41800000000E+01 0.  1.
         -5    1    3    3    0  502 -0.18181463450E+02 -0.68380674928E+01 -0.10740792705E+03  0.10923030703E+03  0.41800000000E+01 0.  1.
        -11    1    1    2    0    0  0.14883841103E+02  0.15491141401E+02  0.12128852565E+02  0.24670088213E+02  0.00000000000E+00 0.  1.
         11    1    1    2    0    0 -0.63030472963E+02  0.26658583374E+02 -0.44613583044E+02  0.81693894396E+02  0.00000000000E+00 0. -1.
</event>
<event>
 7    1  0.2844572E-009  0.9181444E+02  0.7561462E-02  0.1298516E+00
          1   -1    0    0  501    0  0.00000000000E+00  0.00000000000E+00  0.22235998332E+03  0.22235998332E+03  0.00000000000E+00 0. -1.
         -1   -1    0    0    0  501 -0.00000000000E+00 -0.00000000000E+00 -0.60580939518E+02  0.60580939518E+02  0.00000000000E+00 0.  1.
         25    2    1    2    0    0  0.29816744124E+02 -0.14190793914E+02  0.63749762729E+02  0.14422852179E+03  0.12508963741E+03 0.  0.
          5    1    3    3  502    0 -0.27141799247E+02  0.40828974149E+02  0.32614483053E+02  0.59032696883E+02  0.41800000000E+01 0. -1.
         -5    1    3    3    0  502  0.56958543371E+02 -0.55019768064E+02  0.31135279676E+02  0.85195824905E+02  0.41800000000E+01 0. -1.
        -11    1    1    2    0    0 -0.18727271266E+02 -0.14936308158E+02  0.10421945853E+03  0.10693689507E+03  0.00000000000E+00 0. -1.
         11    1    1    2    0    0 -0.11089472858E+02  0.29127102072E+02 -0.61901774581E+01  0.31775505981E+02  0.00000000000E+00 0.  1.
</event>
<event>
 7    1  0.2844572E-009  0.1602088E+03  0.7561462E-02  0.1188461E+00
          1   -1    0    0  501    0  0.00000000000E+00  0.00000000000E+00  0.56448108121E+03  0.56448108121E+03  0.00000000000E+00 0. -1.
         -1   -1    0    0    0  501 -0.00000000000E+00 -0.00000000000E+00 -0.52923165421E+02  0.52923165421E+02  0.00000000000E+00 0.  1.
         25    2    1    2    0    0  0.95416717115E+02  0.84073180861E+02  0.34548541667E+03  0.38881762491E+03  0.12508526158E+03 0.  0.
          5    1    3    3  502    0  0.11684982659E+03  0.31036410038E+02  0.23008544269E+03  0.25994984913E+03  0.41800000000E+01 0. -1.
         -5    1    3    3    0  502 -0.21433109476E+02  0.53036770823E+02  0.11539997397E+03  0.12886777578E+03  0.41800000000E+01 0. -1.
        -11    1    1    2    0    0 -0.95845387922E+02 -0.50170641055E+02  0.16148427482E+03  0.19437232988E+03  0.00000000000E+00 0.  1.
         11    1    1    2    0    0  0.42867080772E+00 -0.33902539806E+02  0.45882243029E+01  0.34214291841E+02  0.00000000000E+00 0. -1.
</event>
<event>
 7    1  0.2844572E-009  0.1768651E+03  0.7561462E-02  0.1170872E+00
          2   -1    0    0  501    0  0.00000000000E+00  0.00000000000E+00  0.11550890840E+04  0.11550890840E+04  0.00000000000E+00 0. -1.
         -2   -1    0    0    0  501 -0.00000000000E+00 -0.00000000000E+00 -0.41334104253E+02  0.41334104253E+02  0.00000000000E+00 0.  1.
         25    2    1    2    0    0 -0.12479227266E+03 -0.75379083229E+02  0.91000471596E+03  0.93005980055E+03  0.12509009567E+03 0.  0.
          5    1    3    3  502    0 -0.78248498581E+02  0.17908491748E+02  0.52712047697E+03  0.53321385133E+03  0.41800000000E+01 0. -1.
         -5    1    3    3    0  502 -0.46543774082E+02 -0.93287574976E+02  0.38288423899E+03  0.39684594923E+03  0.41800000000E+01 0. -1.
        -11    1    1    2    0    0 -0.69582290927E+01  0.28236485259E+02  0.19555612183E+02  0.35044800181E+02  0.00000000000E+00 0.  1.
         11    1    1    2    0    0  0.13175050176E+03  0.47142597970E+02  0.18419465165E+03  0.23131858757E+03  0.00000000000E+00 0. -1.
</event>
<event>
 7    1  0.2844572E-009  0.7261842E+02  0.7561462E-02  0.1351409E+00
         -1   -1    0    0    0  501 -0.00000000000E+00  0.00000000000E+00  0.46447553952E+03  0.46447553952E+03  0.00000000000E+00 0.  1.
          1   -1    0    0  501    0  0.00000000000E+00 -0.00000000000E+00 -0.31757007125E+02  0.31757007125E+02  0.00000000000E+00 0. -1.
         25    2    1    2    0    0 -0.35136446342E+02 -0.24231870581E+02  0.17616606961E+03  0.22023722464E+03  0.12509275607E+03 0.  0.
          5    1    3    3  502    0 -0.97626413677E+01  0.49248120438E+01 -0.18409293272E+02  0.21815989982E+02  0.41800000000E+01 0. -1.
         -5    1    3    3    0  502 -0.25373804974E+02 -0.29156682625E+02  0.19457536289E+03  0.19842123466E+03  0.41800000000E+01 0. -1.
        -11    1    1    2    0    0  0.55853996720E+02  0.39931148027E+02  0.22429146017E+03  0.23456518207E+03  0.00000000000E+00 0. -1.
         11    1    1    2    0    0 -0.20717550378E+02 -0.15699277445E+02  0.32261002609E+02  0.41430139938E+02  0.00000000000E+00 0.  1.
</event>
<event>
 7    1  0.2844572E-009  0.6497628E+02  0.7561462E-02  0.1378061E+00
          1   -1    0    0  501    0  0.00000000000E+00  0.00000000000E+00  0.17880481310E+03  0.17880481310E+03  0.00000000000E+00 0.  1.
         -1   -1    0    0    0  501 -0.00000000000E+00 -0.00000000000E+00 -0.76468199140E+02  0.76468199140E+02  0.00000000000E+00 0. -1.
         25    2    1    2    0    0 -0.13799209009E+02 -0.18893410277E+02  0.99304403185E+02  0.16141920769E+03  0.12508963585E+03 0.  0.
          5    1    3    3  502    0 -0.30028358264E+02 -0.21267239851E+02  0.12515561711E+03  0.13051972527E+03  0.41800000000E+01 0.  1.
         -5    1    3    3    0  502  0.16229149254E+02  0.23738295741E+01 -0.25851213924E+02  0.30899482418E+02  0.41800000000E+01 0.  1.
        -11    1    1    2    0    0 -0.48174545590E+01 -0.26497977733E+02  0.27961523598E+02  0.38822641516E+02  0.00000000000E+00 0. -1.
         11    1    1    2    0    0  0.18616663568E+02  0.45391388010E+02 -0.24929312818E+02  0.55031163039E+02  0.00000000000E+00 0.  1.
</event>
<event>
 7    1  0.2844572E-009  0.1360356E+03  0.7561462E-02  0.1218765E+00
         -1   -1    0    0    0  501 -0.00000000000E+00  0.00000000000E+00  0.11815356202E+03  0.11815356202E+03  0.00000000000E+00 0.  1.
          1   -1    0    0  501    0  0.00000000000E+00 -0.00000000000E+00 -0.20634138510E+03  0.20634138510E+03  0.00000000000E+00 0. -1.
         25    2    1    2    0    0  0.76701989599E+02  0.75642405901E+02 -0.77579622581E+02  0.18239863121E+03  0.12508274880E+03 0.  0.
          5    1    3    3  502    0  0.16517048930E+02  0.80249286236E+02 -0.88763111305E+02  0.12086820581E+03  0.41800000000E+01 0. -1.
         -5    1    3    3    0  502  0.60184940669E+02 -0.46068803342E+01  0.11183488724E+02  0.61530425399E+02  0.41800000000E+01 0. -1.
        -11    1    1    2    0    0 -0.90528717164E+02 -0.59782944505E+02  0.14372938351E+02  0.10943505125E+03  0.00000000000E+00 0.  1.
         11    1    1    2    0    0  0.13826727565E+02 -0.15859461397E+02 -0.24981138852E+02  0.32661264662E+02  0.00000000000E+00 0. -1.
</event>
<event>
 7    1  0.2844572E-009  0.8969238E+02  0.7561462E-02  0.1303598E+00
          4   -1    0    0  501    0  0.00000000000E+00  0.00000000000E+00  0.55448723581E+02  0.55448723581E+02  0.00000000000E+00 0. -1.
         -4   -1    0    0    0  501 -0.00000000000E+00 -0.00000000000E+00 -0.23361662156E+03  0.23361662156E+03  0.00000000000E+00 0.  1.
         25    2    1    2    0    0  0.26312355892E+02 -0.25549851586E+02 -0.93622168639E+02  0.16049155831E+03  0.12508914756E+03 0.  0.
          5    1    3    3  502    0  0.58562629732E+02  0.20619939974E+02 -0.81826376686E+02  0.10279976579E+03  0.41800000000E+01 0. -1.
         -5    1    3    3    0  502 -0.32250273840E+02 -0.46169791560E+02 -0.11795791953E+02  0.57691792512E+02  0.41800000000E+01 0. -1.
        -11    1    1    2    0    0 -0.40483366101E+02  0.15674374691E+02 -0.11699041158E+01  0.43427613663E+02  0.00000000000E+00 0. -1.
         11    1    1    2    0    0  0.14171010209E+02  0.98754768953E+01 -0.83375825225E+02  0.85146173175E+02  0.00000000000E+00 0.  1.
</event>
<event>
 7    1  0.4959442E-009  0.1863766E+03  0.7561462E-02  0.1161771E+00
          2   -1    0    0  501    0  0.00000000000E+00  0.00000000000E+00  0.33158204040E+03  0.33158204040E+03  0.00000000000E+00 0. -1.
         -2   -1    0    0    0  501 -0.00000000000E+00 -0.00000000000E+00 -0.12512346952E+03  0.12512346952E+03  0.00000000000E+00 0.  1.
         25    2    1    2    0    0  0.15967080173E+03 -0.58575836818E+02  0.79657272367E+02  0.22565145086E+03  0.12508957851E+03 0.  0.
          5    1    3    3  502    0  0.15111650365E+03 -0.31749446759E+02  0.10561589575E+03  0.18712673481E+03  0.41800000000E+01 0. -1.
         -5    1    3    3    0  502  0.85542980762E+01 -0.26826390059E+02 -0.25958623379E+02  0.38524716052E+02  0.41800000000E+01 0. -1.
        -11    1    1    2    0    0 -0.66226701652E+02  0.69181604793E+02  0.42579023663E+02  0.10480955925E+03  0.00000000000E+00 0.  1.
         11    1    1    2    0    0 -0.93444100076E+02 -0.10605767975E+02  0.84222274843E+02  0.12624449981E+03  0.00000000000E+00 0. -1.
</event>
<event>
 7    1  0.2844572E-009  0.1245252E+03  0.7561462E-02  0.1235813E+00
         -2   -1    0    0    0  501 -0.00000000000E+00  0.00000000000E+00  0.10729683660E+03  0.10729683660E+03  0.00000000000E+00 0.  1.
          2   -1    0    0  501    0  0.00000000000E+00 -0.00000000000E+00 -0.17219424138E+03  0.17219424138E+03  0.00000000000E+00 0. -1.
         25    2    1    2    0    0  0.34960232093E+02 -0.72445679935E+02 -0.24045399369E+02  0.15063542460E+03  0.12506900314E+03 0.  0.
          5    1    3    3  502    0 -0.43558584616E+02 -0.97394615009E+01 -0.22249770659E+02  0.50047298613E+02  0.41800000000E+01 0.  1.
         -5    1    3    3    0  502  0.78518816710E+02 -0.62706218434E+02 -0.17956287093E+01  0.10058812599E+03  0.41800000000E+01 0.  1.
        -11    1    1    2    0    0  0.17591829558E+02  0.52795412582E+01 -0.39501786300E+02  0.43563024964E+02  0.00000000000E+00 0. -1.
         11    1    1    2    0    0 -0.52552061651E+02  0.67166138676E+02 -0.13502191110E+01  0.85292628404E+02  0.00000000000E+00 0.  1.
</event>
<event>
 7    1  0.2862550E-009  0.2702251E+03  0.7561462E-02  0.1101151E+00
          2   -1    0    0  501    0  0.00000000000E+00  0.00000000000E+00  0.12582617591E+04  0.12582617591E+04  0.00000000000E+00 0. -1.
         -2   -1    0    0    0  501 -0.00000000000E+00 -0.00000000000E+00 -0.61727762241E+02  0.61727762241E+02  0.00000000000E+00 0.  1.
         25    2    1    2    0    0 -0.12497670512E+03 -0.21551072235E+03  0.75553291350E+03  0.80531976153E+03  0.12508351874E+03 0.  0.
          5    1    3    3  502    0  0.24162434015E+02 -0.36884159014E+02  0.90932991909E+02  0.10114616068E+03  0.41800000000E+01 0.  1.
         -5    1    3    3    0  502 -0.14913913913E+03 -0.17862656334E+03  0.66459992159E+03  0.70417360084E+03  0.41800000000E+01 0.  1.
        -11    1    1    2    0    0  0.27317327338E+02  0.13238200793E+03  0.25706891999E+03  0.29044046210E+03  0.00000000000E+00 0. -1.
         11    1    1    2    0    0  0.97659377781E+02  0.83128714422E+02  0.18393216334E+03  0.22422929769E+03  0.00000000000E+00 0.  1.
</event>
<event>
 7    1  0.2844572E-009  0.1704055E+03  0.7561462E-02  0.1177426E+00
         -1   -1    0    0    0  501 -0.00000000000E+00  0.00000000000E+00  0.33214149391E+03  0.33214149391E+03  0.00000000000E+00 0.  1.
          1   -1    0    0  501    0  0.00000000000E+00 -0.00000000000E+00 -0.10833429975E+03  0.10833429975E+03  0.00000000000E+00 0. -1.
         25    2    1    2    0    0  0.81089257770E+02  0.13123185401E+03  0.98094670922E+02  0.22151905382E+03  0.12510339527E+03 0.  0.
          5    1    3    3  502    0 -0.23654154717E+02  0.26616961560E+02 -0.11083997922E+02  0.37527444464E+02  0.41800000000E+01 0.  1.
         -5    1    3    3    0  502  0.10474341249E+03  0.10461489245E+03  0.10917866884E+03  0.18399160935E+03  0.41800000000E+01 0.  1.
        -11    1    1    2    0    0 -0.19873737737E+02 -0.13080582836E+02  0.71350720628E+02  0.75212980483E+02  0.00000000000E+00 0.  1.
         11    1    1    2    0    0 -0.61215520032E+02 -0.11815127118E+03  0.54361802608E+02  0.14374375936E+03  0.00000000000E+00 0. -1.
</event>
<event>
 7    1  0.2844572E-009  0.6628345E+02  0.7561462E-02  0.1373208E+00
         -1   -1    0    0    0  501 -0.00000000000E+00  0.00000000000E+00  0.89222850786E+02  0.89222850786E+02  0.00000000000E+00 0.  1.
          1   -1    0    0  501    0  0.00000000000E+00 -0.00000000000E+00 -0.14386582438E+03  0.14386582438E+03  0.00000000000E+00 0. -1.
         25    2    1    2    0    0 -0.27381983000E+02  0.67915853214E+00 -0.25100287937E+02  0.13047154923E+03  0.12507024608E+03 0.  0.
          5    1    3    3  502    0  0.90395053288E+01 -0.80342049868E+01  0.47220061650E+02  0.48923079713E+02  0.41800000000E+01 0. -1.
         -5    1    3    3    0  502 -0.36421488329E+02  0.87133635189E+01 -0.72320349586E+02  0.81548469515E+02  0.41800000000E+01 0. -1.
        -11    1    1    2    0    0  0.51961595318E+02  0.13535136387E+02 -0.45204694535E+02  0.70190253690E+02  0.00000000000E+00 0. -1.
         11    1    1    2    0    0 -0.24579612318E+02 -0.14214294919E+02  0.15662008878E+02  0.32426872248E+02  0.00000000000E+00 0.  1.
</event>
<event>
 7    1  0.2844572E-009  0.1057136E+03  0.7561462E-02  0.1268720E+00
         -1   -1    0    0    0  501 -0.00000000000E+00  0.00000000000E+00  0.69719249380E+02  0.69719249380E+02  0.00000000000E+00 0.  1.
          1   -1    0    0  501    0  0.00000000000E+00 -0.00000000000E+00 -0.36289824684E+03  0.36289824684E+03  0.00000000000E+00 0. -1.
         25    2    1    2    0    0 -0.80195045849E+02  0.23670889768E+02 -0.26713359566E+03  0.30659345686E+03  0.12509050107E+03 0.  0.
          5    1    3    3  502    0 -0.35048430048E+02 -0.13040584314E+02 -0.48970474820E+01  0.37946050679E+02  0.41800000000E+01 0. -1.
         -5    1    3    3    0  502 -0.45146615801E+02  0.36711474082E+02 -0.26223654817E+03  0.26864740618E+03  0.41800000000E+01 0. -1.
        -11    1    1    2    0    0 -0.14162244440E+02  0.75784184759E+01  0.11518499109E+02  0.19765561361E+02  0.00000000000E+00 0.  1.
         11    1    1    2    0    0  0.94357290290E+02 -0.31249308244E+02 -0.37563900917E+02  0.10625847801E+03  0.00000000000E+00 0. -1.
</event>
<event>
 7    1  0.2844572E-009  0.1317394E+03  0.7561462E-02  0.1224897E+00
          1   -1    0    0  501    0  0.00000000000E+00  0.00000000000E+00  0.63009917147E+03  0.63009917147E+03  0.00000000000E+00 0. -1.
         -1   -1    0    0    0  501 -0.00000000000E+00 -0.00000000000E+00 -0.43660135318E+02  0.43660135318E+02  0.00000000000E+00 0.  1.
         25    2    1    2    0    0 -0.72303678965E+02  0.87157235414E+02  0.42283613530E+03  0.45526099950E+03  0.12509186493E+03 0.  0.
          5    1    3    3  502    0 -0.88788388784E+01  0.40644384794E+02  0.22959538274E+02  0.47701285023E+02  0.41800000000E+01 0.  1.
         -5    1    3    3    0  502 -0.63424840087E+02  0.46512850620E+02  0.39987659702E+03  0.40755971447E+03  0.41800000000E+01 0.  1.
        -11    1    1    2    0    0 -0.15452159913E+02 -0.40859317289E+02  0.34450366698E+02  0.55633450558E+02  0.00000000000E+00 0. -1.
         11    1    1    2    0    0  0.87755838879E+02 -0.46297918125E+02  0.12915253415E+03  0.16286485673E+03  0.00000000000E+00 0.  1.
</event>
<event>
 7    1  0.2844572E-009  0.1391786E+03  0.7561462E-02  0.1214438E+00
          1   -1    0    0  501    0  0.00000000000E+00  0.00000000000E+00  0.15465455534E+04  0.15465455534E+04  0.00000000000E+00 0. -1.
         -1   -1    0    0    0  501 -0.00000000000E+00 -0.00000000000E+00 -0.18098379608E+02  0.18098379608E+02  0.00000000000E+00 0.  1.
         25    2    1    2    0    0  0.43948498875E+02  0.11672087515E+03  0.90775499587E+03  0.92478224038E+03  0.12509127206E+03 0.  0.
          5    1    3    3  502    0  0.93754506340E+01  0.56219879723E+02  0.75117541959E+03  0.75334624002E+03  0.41800000000E+01 0. -1.
         -5    1    3    3    0  502  0.34573048241E+02  0.60500995428E+02  0.15657957628E+03  0.17143600036E+03  0.41800000000E+01 0. -1.
        -11    1    1    2    0    0 -0.60431339689E+02 -0.38937296961E+02  0.22307435122E+03  0.23437198229E+03  0.00000000000E+00 0.  1.
         11    1    1    2    0    0  0.16482840815E+02 -0.77783578191E+02  0.39761782674E+03  0.40548971037E+03  0.00000000000E+00 0. -1.
</event>
<event>
 7    1  0.3472786E-009  0.1251093E+03  0.7561462E-02  0.1234898E+00
         -2   -1    0    0    0  501 -0.00000000000E+00  0.00000000000E+00  0.49116634532E+02  0.49116634532E+02  0.00000000000E+00 0. -1.
          2   -1    0    0  501    0  0.00000000000E+00 -0.00000000000E+00 -0.35951358627E+03  0.35951358627E+03  0.00000000000E+00 0.  1.
         25    2    1    2    0    0 -0.28169353356E+02  0.69993643492E+02 -0.15536648946E+03  0.21325819359E+03  0.12509072104E+03 0.  0.
          5    1    3    3  502    0 -0.62749992102E+02  0.12541177976E+01 -0.10086661380E+03  0.11887253888E+03  0.41800000000E+01 0.  1.
         -5    1    3    3    0  502  0.34580638747E+02  0.68739525695E+02 -0.54499875660E+02  0.94385654715E+02  0.41800000000E+01 0.  1.
        -11    1    1    2    0    0 -0.28347115863E+02 -0.28016611721E+02 -0.23720647281E+02  0.46380584489E+02  0.00000000000E+00 0. -1.
         11    1    1    2    0    0  0.56516469219E+02 -0.41977031771E+02 -0.13130981500E+03  0.14899144272E+03  0.00000000000E+00 0.  1.
</event>
<event>
 7    1  0.2844572E-009  0.7850807E+02  0.7561462E-02  0.1333339E+00
          2   -1    0    0  501    0  0.00000000000E+00  0.00000000000E+00  0.19808310440E+03  0.19808310440E+03  0.00000000000E+00 0.  1.
         -2   -1    0    0    0  501 -0.00000000000E+00 -0.00000000000E+00 -0.62614312151E+02  0.62614312151E+02  0.00000000000E+00 0. -1.
         25    2    1    2    0    0 -0.13240900942E+02 -0.10440864615E+02  0.50417455888E+02  0.13591847841E+03  0.12509028661E+03 0.  0.
          5    1    3    3  502    0  0.34181388773E+02  0.11766781975E+02  0.70773374202E+02  0.79581199994E+02  0.41800000000E+01 0. -1.
         -5    1    3    3    0  502 -0.47422289716E+02 -0.22207646590E+02 -0.20355918313E+02  0.56337278416E+02  0.41800000000E+01 0. -1.
        -11    1    1    2    0    0  0.46082053449E+01  0.38480590710E+02  0.87136439374E+02  0.95366401235E+02  0.00000000000E+00 0.  1.
         11    1    1    2    0    0  0.86326955975E+01 -0.28039726095E+02 -0.20851030124E+01  0.29412536908E+02  0.00000000000E+00 0. -1.
</event>
<event>
 7    1  0.2844572E-009  0.2414492E+03  0.7561462E-02  0.1118831E+00
         -1   -1    0    0    0  501 -0.00000000000E+00  0.00000000000E+00  0.52301490732E+02  0.52301490732E+02  0.00000000000E+00 0.  1.
          1   -1    0    0  501    0  0.00000000000E+00 -0.00000000000E+00 -0.11880559653E+04  0.11880559653E+04  0.00000000000E+00 0. -1.
         25    2    1    2    0    0  0.13301948947E+03  0.17931033706E+03 -0.61635682568E+03  0.66737439994E+03  0.12508585682E+03 0.  0.
          5    1    3    3  502    0  0.87820755496E+02  0.39388234088E+02 -0.14916299429E+03  0.17756967462E+03  0.41800000000E+01 0. -1.
         -5    1    3    3    0  502  0.45198733978E+02  0.13992210298E+03 -0.46719383139E+03  0.48980472532E+03  0.41800000000E+01 0. -1.
        -11    1    1    2    0    0 -0.14028195735E+03 -0.13545571953E+03 -0.38759175558E+03  0.43388321989E+03  0.00000000000E+00 0. -1.
         11    1    1    2    0    0  0.72624678734E+01 -0.43854617537E+02 -0.13180589326E+03  0.13909983615E+03  0.00000000000E+00 0.  1.
</event>
<event>
 7    1  0.2844572E-009  0.8842643E+02  0.7561462E-02  0.1306708E+00
         -1   -1    0    0    0  501 -0.00000000000E+00  0.00000000000E+00  0.22203778875E+03  0.22203778875E+03  0.00000000000E+00 0.  1.
          1   -1    0    0  501    0  0.00000000000E+00 -0.00000000000E+00 -0.55095914999E+02  0.55095914999E+02  0.00000000000E+00 0. -1.
         25    2    1    2    0    0  0.14440555303E+02  0.95643079254E+00  0.13529614007E+03  0.18482901461E+03  0.12508906718E+03 0.  0.
          5    1    3    3  502    0  0.22018905575E+02 -0.53653926032E+02  0.10913852440E+03  0.12366190153E+03  0.41800000000E+01 0. -1.
         -5    1    3    3    0  502 -0.75783502720E+01  0.54610356825E+02  0.26157615671E+02  0.61167113084E+02  0.41800000000E+01 0. -1.
        -11    1    1    2    0    0  0.11653577384E+02 -0.25220075126E+02  0.46122957765E+02  0.53844083131E+02  0.00000000000E+00 0.  1.
         11    1    1    2    0    0 -0.26094132688E+02  0.24263644333E+02 -0.14477224086E+02  0.38460606005E+02  0.00000000000E+00 0. -1.
</event>
<event>
 7    1  0.2844572E-009  0.1440028E+03  0.7561462E-02  0.1208042E+00
         -1   -1    0    0    0  501 -0.00000000000E+00  0.00000000000E+00  0.19146977716E+02  0.19146977716E+02  0.00000000000E+00 0.  1.
          1   -1    0    0  501    0  0.00000000000E+00 -0.00000000000E+00 -0.14486680240E+04  0.14486680240E+04  0.00000000000E+00 0. -1.
         25    2    1    2    0    0 -0.11721905672E+03 -0.42989751312E+02 -0.79423720855E+03  0.81366365540E+03  0.12508946676E+03 0.  0.
          5    1    3    3  502    0 -0.94894033657E+02 -0.15272059056E+02 -0.24430699905E+03  0.26256712589E+03  0.41800000000E+01 0. -1.
         -5    1    3    3    0  502 -0.22325023064E+02 -0.27717692256E+02 -0.54993020950E+03  0.55109652951E+03  0.41800000000E+01 0. -1.
        -11    1    1    2    0    0  0.32545046621E+02 -0.29933240772E+02 -0.17661650557E+03  0.18206748475E+03  0.00000000000E+00 0.  1.
         11    1    1    2    0    0  0.84674010100E+02  0.72922992085E+02 -0.45866733216E+03  0.47208386157E+03  0.00000000000E+00 0. -1.
</event>
<event>
 7    1  0.2844572E-009  0.1591655E+03  0.7561462E-02  0.1189642E+00
         -1   -1    0    0    0  501 -0.00000000000E+00  0.00000000000E+00  0.31308252442E+03  0.31308252442E+03  0.00000000000E+00 0.  1.
          1   -1    0    0  501    0  0.00000000000E+00 -0.00000000000E+00 -0.10988455043E+03  0.10988455043E+03  0.00000000000E+00 0. -1.
         25    2    1    2    0    0 -0.12676403974E+03 -0.78133271285E+02  0.12704664373E+03  0.23229753084E+03  0.12508942120E+03 0.  0.
          5    1    3    3  502    0 -0.48657530032E+02 -0.22810754867E+02 -0.19408840448E+02  0.57289276954E+02  0.41800000000E+01 0. -1.
         -5    1    3    3    0  502 -0.78106509713E+02 -0.55322516417E+02  0.14645548417E+03  0.17500825388E+03  0.41800000000E+01 0. -1.
        -11    1    1    2    0    0  0.13674587510E+03  0.63156929707E+02  0.82308279224E+02  0.17164756030E+03  0.00000000000E+00 0.  1.
         11    1    1    2    0    0 -0.99818353566E+01  0.14976341578E+02 -0.61569489531E+01  0.19021983718E+02  0.00000000000E+00 0. -1.
</event>
<event>
 7    1  0.2844572E-009  0.1951163E+03  0.7561462E-02  0.1153926E+00
         -1   -1    0    0    0  501 -0.00000000000E+00  0.00000000000E+00  0.10906129377E+03  0.10906129377E+03  0.00000000000E+00 0.  1.
          1   -1    0    0  501    0  0.00000000000E+00 -0.00000000000E+00 -0.35749706644E+03  0.35749706644E+03  0.00000000000E+00 0. -1.
         25    2    1    2    0    0  0.14377686188E+03 -0.70931232285E+02 -0.15255920195E+03  0.25421385798E+03  0.12508936712E+03 0.  0.
          5    1    3    3  502    0 -0.20625005907E+02  0.58415097551E+01 -0.15424486499E+02  0.26737638052E+02  0.41800000000E+01 0.  1.
         -5    1    3    3    0  502  0.16440186779E+03 -0.76772742040E+02 -0.13713471545E+03  0.22747621993E+03  0.41800000000E+01 0.  1.
        -11    1    1    2    0    0 -0.47490628651E+02 -0.22662874463E+02 -0.11839604345E+02  0.53936461876E+02  0.00000000000E+00 0.  1.
         11    1    1    2    0    0 -0.96286233232E+02  0.93594106748E+02 -0.84036966379E+02  0.15840804035E+03  0.00000000000E+00 0. -1.
</event>
<event>
 7    1  0.2844572E-009  0.1179564E+03  0.7561462E-02  0.1246507E+00
         -2   -1    0    0    0  501 -0.00000000000E+00  0.00000000000E+00  0.17086351423E+02  0.17086351423E+02  0.00000000000E+00 0.  1.
          2   -1    0    0  501    0  0.00000000000E+00 -0.00000000000E+00 -0.17686680713E+04  0.17686680713E+04  0.00000000000E+00 0. -1.
         25    2    1    2    0    0  0.52770832694E+02  0.51575981972E+02 -0.15248815412E+04  0.15317823013E+04  0.12509380881E+03 0.  0.
          5    1    3    3  502    0  0.54953202780E+02  0.87816251206E+02 -0.92581783721E+03  0.93160489939E+03  0.41800000000E+01 0. -1.
         -5    1    3    3    0  502 -0.21823700863E+01 -0.36240269234E+02 -0.59906370403E+03  0.60017740189E+03  0.41800000000E+01 0. -1.
        -11    1    1    2    0    0 -0.17970380685E+02  0.13104783763E+02 -0.86159663360E+01  0.23851725626E+02  0.00000000000E+00 0.  1.
         11    1    1    2    0    0 -0.34800452009E+02 -0.64680765736E+02 -0.21808421230E+03  0.23012039582E+03  0.00000000000E+00 0. -1.
</event>
<event>
 7    1  0.2844572E-009  0.1140950E+03  0.7561462E-02  0.1253169E+00
         -2   -1    0    0    0  501 -0.00000000000E+00  0.00000000000E+00  0.20772810760E+02  0.20772810760E+02  0.00000000000E+00 0. -1.
          2   -1    0    0  501    0  0.00000000000E+00 -0.00000000000E+00 -0.92018816898E+03  0.92018816898E+03  0.00000000000E+00 0.  1.
         25    2    1    2    0    0  0.75139207994E+02  0.40614185322E+02 -0.45728772154E+03  0.48172073161E+03  0.12508952941E+03 0.  0.
          5    1    3    3  502    0  0.50496787044E+02  0.68837849332E+02 -0.15427094954E+03  0.17636772174E+03  0.41800000000E+01 0.  1.
         -5    1    3    3    0  502  0.24642420950E+02 -0.28223664009E+02 -0.30301677200E+03  0.30535300987E+03  0.41800000000E+01 0.  1.
        -11    1    1    2    0    0  0.33975496907E+00 -0.28580199098E+02 -0.35918745938E+02  0.45903153745E+02  0.00000000000E+00 0. -1.
         11    1    1    2    0    0 -0.75478962963E+02 -0.12033986224E+02 -0.40620889074E+03  0.41333709438E+03  0.00000000000E+00 0.  1.
</event>
<event>
 7    1  0.2844572E-009  0.1942111E+03  0.7561462E-02  0.1154717E+00
          1   -1    0    0  501    0  0.00000000000E+00  0.00000000000E+00  0.36254164046E+03  0.36254164046E+03  0.00000000000E+00 0. -1.
         -1   -1    0    0    0  501 -0.00000000000E+00 -0.00000000000E+00 -0.12810741427E+03  0.12810741427E+03  0.00000000000E+00 0.  1.
         25    2    1    2    0    0 -0.53413200652E+01 -0.17401636916E+03  0.48193148860E+02  0.21972707596E+03  0.12508869605E+03 0.  0.
          5    1    3    3  502    0  0.38374945137E+02 -0.85800496833E+02  0.71853456926E+02  0.11838392350E+03  0.41800000000E+01 0.  1.
         -5    1    3    3    0  502 -0.43716265202E+02 -0.88215872324E+02 -0.23660308066E+02  0.10134315246E+03  0.41800000000E+01 0.  1.
        -11    1    1    2    0    0 -0.39184996219E+02  0.11740527973E+03  0.10459335896E+03  0.16204701285E+03  0.00000000000E+00 0.  1.
         11    1    1    2    0    0  0.44526316284E+02  0.56611089432E+02  0.81647718372E+02  0.10887496592E+03  0.00000000000E+00 0. -1.
</event>
<event>
 7    1  0.2844572E-009  0.1286367E+03  0.7561462E-02  0.1229493E+00
          1   -1    0    0  501    0  0.00000000000E+00  0.00000000000E+00  0.50311371810E+02  0.50311371810E+02  0.00000000000E+00 0. -1.
         -1   -1    0    0    0  501 -0.00000000000E+00 -0.00000000000E+00 -0.36297978662E+03  0.36297978662E+03  0.00000000000E+00 0.  1.
         25    2    1    2    0    0  0.80750643965E+02  0.14356697469E+02 -0.20074925652E+03  0.25034812642E+03  0.12508852525E+03 0.  0.
          5    1    3    3  502    0  0.95623712070E+02  0.48648012275E+02 -0.11849724420E+03  0.15990494893E+03  0.41800000000E+01 0.  1.
         -5    1    3    3    0  502 -0.14873068105E+02 -0.34291314806E+02 -0.82252012317E+02  0.90443177499E+02  0.41800000000E+01 0.  1.
        -11    1    1    2    0    0 -0.22859314027E+02  0.31164314460E+02 -0.64998205503E+02  0.75620959080E+02  0.00000000000E+00 0. -1.
         11    1    1    2    0    0 -0.57891329938E+02 -0.45521011929E+02 -0.46920952791E+02  0.87322072924E+02  0.00000000000E+00 0.  1.
</event>
<event>
 7    1  0.2844572E-009  0.1304453E+03  0.7561462E-02  0.1226796E+00
          2   -1    0    0  501    0  0.00000000000E+00  0.00000000000E+00  0.87555129951E+03  0.87555129951E+03  0.00000000000E+00 0.  1.
         -2   -1    0    0    0  501 -0.00000000000E+00 -0.00000000000E+00 -0.28252089285E+02  0.28252089285E+02  0.00000000000E+00 0. -1.
         25    2    1    2    0    0  0.10275480414E+03  0.36865985966E+02  0.52736116666E+03  0.55287889822E+03  0.12509046844E+03 0.  0.
          5    1    3    3  502    0  0.76151317732E+02  0.59173228469E+01  0.49431781450E+03  0.50020157140E+03  0.41800000000E+01 0. -1.
         -5    1    3    3    0  502  0.26603486411E+02  0.30948663119E+02  0.33043352161E+02  0.52677326812E+02  0.41800000000E+01 0. -1.
        -11    1    1    2    0    0 -0.13921957199E+02 -0.51492818603E+02  0.10154631557E+03  0.11470390344E+03  0.00000000000E+00 0. -1.
         11    1    1    2    0    0 -0.88832846943E+02  0.14626832637E+02  0.21839172799E+03  0.23622058713E+03  0.00000000000E+00 0.  1.
</event>
<event>
 7    1  0.3699411E-009  0.5778139E+02  0.7561462E-02  0.1407385E+00
         -2   -1    0    0    0  501 -0.00000000000E+00  0.00000000000E+00  0.11099806388E+03  0.11099806388E+03  0.00000000000E+00 0.  1.
          2   -1    0    0  501    0  0.00000000000E+00 -0.00000000000E+00 -0.11880763998E+03  0.11880763998E+03  0.00000000000E+00 0. -1.
         25    2    1    2    0    0  0.25777208977E+02  0.23638493291E+02 -0.21079750975E+02  0.13158520186E+03  0.12508823518E+03 0.  0.
          5    1    3    3  502    0  0.18015888027E+02 -0.38228483522E+01  0.50766839062E+02  0.54165770919E+02  0.41800000000E+01 0.  1.
         -5    1    3    3    0  502  0.77613209496E+01  0.27461341643E+02 -0.71846590037E+02  0.77419430943E+02  0.41800000000E+01 0.  1.
        -11    1    1    2    0    0 -0.10203895739E+02 -0.42309495799E+02  0.42068859189E+02  0.60530998972E+02  0.00000000000E+00 0.  1.
         11    1    1    2    0    0 -0.15573313237E+02  0.18671002509E+02 -0.28798684317E+02  0.37689503025E+02  0.00000000000E+00 0. -1.
</event>
<event>
 7    1  0.2861723E-009  0.7929766E+02  0.7561462E-02  0.1331056E+00
          2   -1    0    0  501    0  0.00000000000E+00  0.00000000000E+00  0.29794820452E+03  0.29794820452E+03  0.00000000000E+00 0. -1.
         -2   -1    0    0    0  501 -0.00000000000E+00 -0.00000000000E+00 -0.45803038160E+02  0.45803038160E+02  0.00000000000E+00 0.  1.
         25    2    1    2    0    0 -0.23355706627E+02 -0.16373781109E+01  0.89919493309E+02  0.15581674093E+03  0.12508065973E+03 0.  0.
          5    1    3    3  502    0  0.17502644991E+02  0.16074302600E+02 -0.23631891205E+02  0.33773724516E+02  0.41800000000E+01 0.  1.
         -5    1    3    3    0  502 -0.40858351618E+02 -0.17711680711E+02  0.11355138451E+03  0.12204301642E+03  0.41800000000E+01 0.  1.
        -11    1    1    2    0    0 -0.30730466938E+02  0.14748044133E+02  0.93388463287E+02  0.99414644189E+02  0.00000000000E+00 0. -1.
         11    1    1    2    0    0  0.54086173565E+02 -0.13110666022E+02  0.68837209763E+02  0.88519857559E+02  0.00000000000E+00 0.  1.
</event>
<event>
 7    1  0.2844572E-009  0.1220030E+03  0.7561462E-02  0.1239829E+00
          1   -1    0    0  501    0  0.00000000000E+00  0.00000000000E+00  0.10495983210E+04  0.10495983210E+04  0.00000000000E+00 0. -1.
         -1   -1    0    0    0  501 -0.00000000000E+00 -0.00000000000E+00 -0.18906586827E+02  0.18906586827E+02  0.00000000000E+00 0.  1.
         25    2    1    2    0    0 -0.53781871690E+01 -0.88377430898E+02  0.59441658183E+03  0.61385470719E+03  0.12508810331E+03 0.  0.
          5    1    3    3  502    0 -0.35099998788E+02 -0.96891873956E+01  0.40382892605E+03  0.40548879662E+03  0.41800000000E+01 0. -1.
         -5    1    3    3    0  502  0.29721811619E+02 -0.78688243502E+02  0.19058765578E+03  0.20836591057E+03  0.41800000000E+01 0. -1.
        -11    1    1    2    0    0 -0.27874714204E+02 -0.87674828459E+00  0.16012655979E+03  0.16253702203E+03  0.00000000000E+00 0. -1.
         11    1    1    2    0    0  0.33252901373E+02  0.89254179182E+02  0.27614859258E+03  0.29211317864E+03  0.00000000000E+00 0.  1.
</event>
<event>
 7    1  0.2844572E-009  0.1259836E+03  0.7561462E-02  0.1233540E+00
          2   -1    0    0  501    0  0.00000000000E+00  0.00000000000E+00  0.15484793323E+03  0.15484793323E+03  0.00000000000E+00 0. -1.
         -2   -1    0    0    0  501 -0.00000000000E+00 -0.00000000000E+00 -0.10846970374E+03  0.10846970374E+03  0.00000000000E+00 0.  1.
         25    2    1    2    0    0  0.66730704120E+02 -0.26572843589E+01  0.15128411360E+01  0.14180598267E+03  0.12508637016E+03 0.  0.
          5    1    3    3  502    0 -0.31425704470E+01  0.51753563956E+02 -0.80390828205E+01  0.52634650029E+02  0.41800000000E+01 0. -1.
         -5    1    3    3    0  502  0.69873274567E+02 -0.54410848314E+02  0.95519239565E+01  0.89171332637E+02  0.41800000000E+01 0. -1.
        -11    1    1    2    0    0 -0.63491568604E+02 -0.35671735696E+02  0.38968639549E+02  0.82596651746E+02  0.00000000000E+00 0. -1.
         11    1    1    2    0    0 -0.32391355159E+01  0.38329020055E+02  0.58967488101E+01  0.38915002554E+02  0.00000000000E+00 0.  1.
</event>
<event>
 7    1  0.2844572E-009  0.1055534E+03  0.7561462E-02  0.1269033E+00
         -2   -1    0    0    0  501 -0.00000000000E+00  0.00000000000E+00  0.10055525785E+02  0.10055525785E+02  0.00000000000E+00 0.  1.
          2   -1    0    0  501    0  0.00000000000E+00 -0.00000000000E+00 -0.19832233384E+04  0.19832233384E+04  0.00000000000E+00 0. -1.
         25    2    1    2    0    0  0.36886461564E+02 -0.18475495077E+02 -0.16330600844E+04  0.16383634268E+04  0.12509006339E+03 0.  0.
          5    1    3    3  502    0  0.57925657945E+02  0.30312849682E+02 -0.12370087259E+04  0.12387422294E+04  0.41800000000E+01 0.  1.
         -5    1    3    3    0  502 -0.21039196381E+02 -0.48788344760E+02 -0.39605135858E+03  0.39962119738E+03  0.41800000000E+01 0.  1.
        -11    1    1    2    0    0 -0.16315359957E+02  0.51150096652E+02 -0.12022453725E+03  0.13166800186E+03  0.00000000000E+00 0.  1.
         11    1    1    2    0    0 -0.20571101607E+02 -0.32674601575E+02 -0.21988319095E+03  0.22324743553E+03  0.00000000000E+00 0. -1.
</event>
<event>
 7    1  0.2844572E-009  0.2290216E+03  0.7561462E-02  0.1127330E+00
         -2   -1    0    0    0  501 -0.00000000000E+00  0.00000000000E+00  0.34007366913E+02  0.34007366913E+02  0.00000000000E+00 0.  1.
          2   -1    0    0  501    0  0.00000000000E+00 -0.00000000000E+00 -0.20647945903E+04  0.20647945903E+04  0.00000000000E+00 0. -1.
         25    2    1    2    0    0  0.16972508995E+03 -0.12756592702E+03 -0.14971269292E+04  0.15172714638E+04  0.12507590045E+03 0.  0.
          5    1    3    3  502    0  0.36243470673E+02  0.20086793053E+02 -0.40597807057E+03  0.40810872890E+03  0.41800000000E+01 0. -1.
         -5    1    3    3    0  502  0.13348161928E+03 -0.14765272007E+03 -0.10911488586E+04  0.11091627349E+04  0.41800000000E+01 0. -1.
        -11    1    1    2    0    0 -0.99324164330E+02  0.10210013290E+03 -0.43469592660E+03  0.45743882144E+03  0.00000000000E+00 0.  1.
         11    1    1    2    0    0 -0.70400925619E+02  0.25465794117E+02 -0.98964367594E+02  0.12409167197E+03  0.00000000000E+00 0. -1.
</event>
<event>
 7    1  0.2844572E-009  0.1982941E+03  0.7561462E-02  0.1151186E+00
          2   -1    0    0  501    0  0.00000000000E+00  0.00000000000E+00  0.54628408797E+03  0.54628408797E+03  0.00000000000E+00 0.  1.
         -2   -1    0    0    0  501 -0.00000000000E+00 -0.00000000000E+00 -0.82253874829E+02  0.82253874829E+02  0.00000000000E+00 0. -1.
         25    2    1    2    0    0  0.60641509017E+02 -0.16741271147E+03  0.18928543825E+03  0.28841124572E+03  0.12509061096E+03 0.  0.
          5    1    3    3  502    0 -0.25028376162E+02 -0.86669906183E+02  0.41403197104E+02  0.99346813646E+02  0.41800000000E+01 0.  1.
         -5    1    3    3    0  502  0.85669885179E+02 -0.80742805287E+02  0.14788224114E+03  0.18906443208E+03  0.41800000000E+01 0.  1.
        -11    1    1    2    0    0 -0.51261038795E+01  0.10430906004E+03  0.20820073565E+03  0.23292531694E+03  0.00000000000E+00 0.  1.
         11    1    1    2    0    0 -0.55515405138E+02  0.63103651429E+02  0.66544039247E+02  0.10720140013E+03  0.00000000000E+00 0. -1.
</event>
<event>
 7    1  0.2844572E-009  0.1043704E+03  0.7561462E-02  0.1271365E+00
          1   -1    0    0  501    0  0.00000000000E+00  0.00000000000E+00  0.24881861365E+02  0.24881861365E+02  0.00000000000E+00 0. -1.
         -1   -1    0    0    0  501 -0.00000000000E+00 -0.00000000000E+00 -0.81272679155E+03  0.81272679155E+03  0.00000000000E+00 0.  1.
         25    2    1    2    0    0  0.64710438557E+02 -0.45733227538E+02 -0.55143242370E+03  0.57096704826E+03  0.12508670327E+03 0.  0.
          5    1    3    3  502    0  0.82176077765E+02 -0.15129092954E+02 -0.50818430367E+03  0.51502481115E+03  0.41800000000E+01 0.  1.
         -5    1    3    3    0  502 -0.17465639208E+02 -0.30604134583E+02 -0.43248120036E+02  0.55942237113E+02  0.41800000000E+01 0.  1.
        -11    1    1    2    0    0 -0.13874550672E+02  0.34984050722E+02 -0.19921670499E+03  0.20274043136E+03  0.00000000000E+00 0.  1.
         11    1    1    2    0    0 -0.50835887885E+02  0.10749176815E+02 -0.37195801499E+02  0.63901173295E+02  0.00000000000E+00 0. -1.
</event>
<event>
 7    1  0.2844572E-009  0.1685370E+03  0.7561462E-02  0.1179382E+00
          2   -1    0    0  501    0  0.00000000000E+00  0.00000000000E+00  0.20445993724E+03  0.20445993724E+03  0.00000000000E+00 0. -1.
         -2   -1    0    0    0  501 -0.00000000000E+00 -0.00000000000E+00 -0.15772908536E+03  0.15772908536E+03  0.00000000000E+00 0.  1.
         25    2    1    2    0    0  0.79160754970E+02  0.10650321479E+03  0.79413099088E+02  0.19890515754E+03  0.12508981374E+03 0.  0.
          5    1    3    3  502    0 -0.17777112149E+02  0.79598526074E+02  0.36544364802E+02  0.89470185360E+02  0.41800000000E+01 0. -1.
         -5    1    3    3    0  502  0.96937867119E+02  0.26904688714E+02  0.42868734286E+02  0.10943497218E+03  0.41800000000E+01 0. -1.
        -11    1    1    2    0    0 -0.67174340751E+02 -0.23975536266E+02  0.55574626845E+01  0.71540923856E+02  0.00000000000E+00 0.  1.
         11    1    1    2    0    0 -0.11986414219E+02 -0.82527678522E+02 -0.38239709892E+02  0.91742941203E+02  0.00000000000E+00 0. -1.
</event>
<event>
 7    1  0.2844572E-009  0.1813387E+03  0.7561462E-02  0.1166514E+00
          3   -1    0    0  501    0  0.00000000000E+00  0.00000000000E+00  0.10930620566E+03  0.10930620566E+03  0.00000000000E+00 0. -1.
         -3   -1    0    0    0  501 -0.00000000000E+00 -0.00000000000E+00 -0.47008742114E+03  0.47008742114E+03  0.00000000000E+00 0.  1.
         25    2    1    2    0    0 -0.15376193012E+03 -0.25219007728E+02 -0.34333981927E+03  0.39725047449E+03  0.12508788304E+03 0.  0.
          5    1    3    3  502    0 -0.53755515645E+02  0.46545390178E+02 -0.17264413252E+03  0.18676080344E+03  0.41800000000E+01 0. -1.
         -5    1    3    3    0  502 -0.10000641448E+03 -0.71764397906E+02 -0.17069568675E+03  0.21048967105E+03  0.41800000000E+01 0. -1.
        -11    1    1    2    0    0  0.42815226152E+02  0.37168623803E+02 -0.38568429301E+02  0.68572399146E+02  0.00000000000E+00 0.  1.
         11    1    1    2    0    0  0.11094670397E+03 -0.11949616075E+02  0.21127033088E+02  0.11357075316E+03  0.00000000000E+00 0. -1.
</event>
<event>
 7    1  0.2844572E-009  0.1230302E+03  0.7561462E-02  0.1238180E+00
          2   -1    0    0  501    0  0.00000000000E+00  0.00000000000E+00  0.14557288808E+04  0.14557288808E+04  0.00000000000E+00 0. -1.
         -2   -1    0    0    0  501 -0.00000000000E+00 -0.00000000000E+00 -0.11222693800E+02  0.11222693800E+02  0.00000000000E+00 0.  1.
         25    2    1    2    0    0 -0.17644099582E+02  0.65170716203E+02  0.83330565446E+03  0.84534224804E+03  0.12508663419E+03 0.  0.
          5    1    3    3  502    0  0.12818712183E+02 -0.30492751410E+02  0.35695650817E+03  0.35851017893E+03  0.41800000000E+01 0. -1.
         -5    1    3    3    0  502 -0.30462811766E+02  0.95663467613E+02  0.47634914630E+03  0.48683206911E+03  0.41800000000E+01 0. -1.
        -11    1    1    2    0    0 -0.26060152519E+02 -0.63342292256E+02  0.41281314862E+03  0.41845677580E+03  0.00000000000E+00 0. -1.
         11    1    1    2    0    0  0.43704252102E+02 -0.18284239469E+01  0.19838738393E+03  0.20315255078E+03  0.00000000000E+00 0.  1.
</event>
<event>
 7    1  0.2844572E-009  0.8716573E+02  0.7561462E-02  0.1309864E+00
          2   -1    0    0  501    0  0.00000000000E+00  0.00000000000E+00  0.27696055496E+03  0.27696055496E+03  0.00000000000E+00 0.  1.
         -2   -1    0    0    0  501 -0.00000000000E+00 -0.00000000000E+00 -0.51176717919E+02  0.51176717919E+02  0.00000000000E+00 0. -1.
         25    2    1    2    0    0 -0.22801562626E+02 -0.36814955177E+02  0.15662626142E+03  0.20507599480E+03  0.12509646554E+03 0.  0.
          5    1    3    3  502    0 -0.57800302297E+02  0.19859968445E+02  0.10130813529E+03  0.11838962779E+03  0.41800000000E+01 0. -1.
         -5    1    3    3    0  502  0.34998739670E+02 -0.56674923622E+02  0.55318126136E+02  0.86686367009E+02  0.41800000000E+01 0. -1.
        -11    1    1    2    0    0  0.23024464334E+02  0.23105538891E+02  0.91336505083E+02  0.96986334327E+02  0.00000000000E+00 0.  1.
         11    1    1    2    0    0 -0.22290170731E+00  0.13709416286E+02 -0.22178929461E+02  0.26074943761E+02  0.00000000000E+00 0. -1.
</event>
<event>
 7    1  0.2844572E-009  0.1286296E+03  0.7561462E-02  0.1229503E+00
         -2   -1    0    0    0  501 -0.00000000000E+00  0.00000000000E+00  0.83772066166E+03  0.83772066166E+03  0.00000000000E+00 0.  1.
          2   -1    0    0  501    0  0.00000000000E+00 -0.00000000000E+00 -0.27757880241E+02  0.27757880241E+02  0.00000000000E+00 0. -1.
         25    2    1    2    0    0  0.23997094775E+02  0.91531514662E+02  0.56851178944E+03  0.58975116640E+03  0.12508758853E+03 0.  0.
          5    1    3    3  502    0 -0.10191310621E+02 -0.25129012967E+02  0.19527879081E+03  0.19719687788E+03  0.41800000000E+01 0.  1.
         -5    1    3    3    0  502  0.34188405396E+02  0.11666052763E+03  0.37323299863E+03  0.39255428852E+03  0.41800000000E+01 0.  1.
        -11    1    1    2    0    0 -0.38866830772E+02 -0.81361310656E+02  0.24142356456E+03  0.25771230263E+03  0.00000000000E+00 0. -1.
         11    1    1    2    0    0  0.14869735997E+02 -0.10170204006E+02  0.27427422897E-01  0.18015072867E+02  0.00000000000E+00 0.  1.
</event>
<event>
 7    1  0.2844572E-009  0.9448050E+02  0.7561462E-02  0.1292350E+00
          2   -1    0    0  501    0  0.00000000000E+00  0.00000000000E+00  0.73839409898E+03  0.73839409898E+03  0.00000000000E+00 0. -1.
         -2   -1    0    0    0  501 -0.00000000000E+00 -0.00000000000E+00 -0.21296829395E+02  0.21296829395E+02  0.00000000000E+00 0.  1.
         25    2    1    2    0    0  0.67321801638E+01 -0.27778169916E+02  0.56852254720E+03  0.58282264951E+03  0.12508958842E+03 0.  0.
          5    1    3    3  502    0 -0.63031500884E+01  0.43820866660E+02  0.11179741853E+03  0.12031680367E+03  0.41800000000E+01 0. -1.
         -5    1    3    3    0  502  0.13035330252E+02 -0.71599036576E+02  0.45672512867E+03  0.46250584584E+03  0.41800000000E+01 0. -1.
        -11    1    1    2    0    0 -0.69006580320E+01  0.49447320839E+02  0.34339400934E+02  0.60595800811E+02  0.00000000000E+00 0.  1.
         11    1    1    2    0    0  0.16847786813E+00 -0.21669150922E+02  0.11423532145E+03  0.11627247805E+03  0.00000000000E+00 0. -1.
</event>
<event>
 7    1  0.2844572E-009  0.8922489E+02  0.7561462E-02  0.1304740E+00
          1   -1    0    0  501    0  0.00000000000E+00  0.00000000000E+00  0.39500183094E+02  0.39500183094E+02  0.00000000000E+00 0. -1.
         -1   -1    0    0    0  501 -0.00000000000E+00 -0.00000000000E+00 -0.67279301708E+03  0.67279301708E+03  0.00000000000E+00 0.  1.
         25    2    1    2    0    0  0.83799189921E+01  0.61736741685E+02 -0.57006385771E+03  0.58694304569E+03  0.12509072192E+03 0.  0.
          5    1    3    3  502    0  0.37302289099E+02  0.26376473421E+02 -0.50640035606E+03  0.50847416074E+03  0.41800000000E+01 0.  1.
         -5    1    3    3    0  502 -0.28922370106E+02  0.35360268264E+02 -0.63663501650E+02  0.78468884958E+02  0.41800000000E+01 0.  1.
        -11    1    1    2    0    0  0.22078810353E+02 -0.55135736783E+01 -0.56673122060E+02  0.61071401862E+02  0.00000000000E+00 0.  1.
         11    1    1    2    0    0 -0.30458729345E+02 -0.56223168006E+02 -0.65558542240E+01  0.64278752622E+02  0.00000000000E+00 0. -1.
</event>
<event>
 7    1  0.2844572E-009  0.1883096E+03  0.7561462E-02  0.1159995E+00
          2   -1    0    0  501    0  0.00000000000E+00  0.00000000000E+00  0.85149842006E+02  0.85149842006E+02  0.00000000000E+00 0. -1.
         -2   -1    0    0    0  501 -0.00000000000E+00 -0.00000000000E+00 -0.50805029293E+03  0.50805029293E+03  0.00000000000E+00 0.  1.
         25    2    1    2    0    0 -0.15288155895E+03  0.28008378479E+02 -0.34160500629E+03  0.39559757696E+03  0.12508486017E+03 0.  0.
          5    1    3    3  502    0 -0.13153381567E+03  0.71546790436E+02 -0.27435853735E+03  0.31258625579E+03  0.41800000000E+01 0.  1.
         -5    1    3    3    0  502 -0.21347743278E+02 -0.43538411958E+02 -0.67246468937E+02  0.83011321176E+02  0.41800000000E+01 0.  1.
        -11    1    1    2    0    0  0.11293585931E+03 -0.59167303492E+02 -0.44694429720E+02  0.13510318342E+03  0.00000000000E+00 0. -1.
         11    1    1    2    0    0  0.39945699637E+02  0.31158925014E+02 -0.36601014916E+02  0.62499374560E+02  0.00000000000E+00 0.  1.
</event>
<event>
 7    1  0.2844572E-009  0.1191077E+03  0.7561462E-02  0.1244576E+00
         -2   -1    0    0    0  501 -0.00000000000E+00  0.00000000000E+00  0.68678334618E+02  0.68678334618E+02  0.00000000000E+00 0.  1.
          2   -1    0    0  501    0  0.00000000000E+00 -0.00000000000E+00 -0.23543617492E+03  0.23543617492E+03  0.00000000000E+00 0. -1.
         25    2    1    2    0    0 -0.39581528601E+02  0.34672143529E+02 -0.47765635967E+02  0.14386759704E+03  0.12508986592E+03 0.  0.
          5    1    3    3  502    0 -0.71049339438E+02 -0.18717254314E+02 -0.25664248877E+02  0.77938888329E+02  0.41800000000E+01 0. -1.
         -5    1    3    3    0  502  0.31467810836E+02  0.53389397843E+02 -0.22101387090E+02  0.65928708710E+02  0.41800000000E+01 0. -1.
        -11    1    1    2    0    0 -0.28374830874E+02 -0.77469529937E+01 -0.14680121812E+02  0.32873276141E+02  0.00000000000E+00 0.  1.
         11    1    1    2    0    0  0.67956359475E+02 -0.26925190535E+02 -0.10431208252E+03  0.12737363636E+03  0.00000000000E+00 0. -1.
</event>
<event>
 7    1  0.2844572E-009  0.2352038E+03  0.7561462E-02  0.1123030E+00
          2   -1    0    0  501    0  0.00000000000E+00  0.00000000000E+00  0.26677799706E+03  0.26677799706E+03  0.00000000000E+00 0. -1.
         -2   -1    0    0    0  501 -0.00000000000E+00 -0.00000000000E+00 -0.24596122368E+03  0.24596122368E+03  0.00000000000E+00 0.  1.
         25    2    1    2    0    0 -0.13019864274E+03  0.19144957327E+03 -0.27076966065E+01  0.26317041865E+03  0.12508681768E+03 0.  0.
          5    1    3    3  502    0 -0.68433194502E+02  0.69689317469E+02 -0.60375742302E+02  0.11490172208E+03  0.41800000000E+01 0. -1.
         -5    1    3    3    0  502 -0.61765448238E+02  0.12176025580E+03  0.57668045696E+02  0.14826869657E+03  0.41800000000E+01 0. -1.
        -11    1    1    2    0    0  0.97205974513E+02 -0.10288719560E+03 -0.24354854106E+02  0.14362428561E+03  0.00000000000E+00 0.  1.
         11    1    1    2    0    0  0.32992668228E+02 -0.88562377665E+02  0.47879324102E+02  0.10594451647E+03  0.00000000000E+00 0. -1.
</event>
<event>
 7    1  0.2844572E-009  0.8909471E+02  0.7561462E-02  0.1305059E+00
          2   -1    0    0  501    0  0.00000000000E+00  0.00000000000E+00  0.91081124237E+03  0.91081124237E+03  0.00000000000E+00 0. -1.
         -2   -1    0    0    0  501 -0.00000000000E+00 -0.00000000000E+00 -0.13710641961E+02  0.13710641961E+02  0.00000000000E+00 0.  1.
         25    2    1    2    0    0 -0.44432582977E+02 -0.33932289736E+02  0.60607139411E+03  0.62136629023E+03  0.12509147517E+03 0.  0.
          5    1    3    3  502    0  0.40053138589E+01 -0.44564004658E+02  0.71273471257E+02  0.84257778011E+02  0.41800000000E+01 0.  1.
         -5    1    3    3    0  502 -0.48437896836E+02  0.10631714923E+02  0.53479792285E+03  0.53710851222E+03  0.41800000000E+01 0.  1.
        -11    1    1    2    0    0 -0.13435977857E+02 -0.43224664250E+01  0.73164954325E+02  0.74513889701E+02  0.00000000000E+00 0. -1.
         11    1    1    2    0    0  0.57868560834E+02  0.38254756160E+02  0.21786425197E+03  0.22864170440E+03  0.00000000000E+00 0.  1.
</event>
<event>
 7    1  0.2844572E-009  0.1102296E+03  0.7561462E-02  0.1260145E+00
          1   -1    0    0  501    0  0.00000000000E+00  0.00000000000E+00  0.20742680266E+03  0.20742680266E+03  0.00000000000E+00 0. -1.
         -1   -1    0    0    0  501 -0.00000000000E+00 -0.00000000000E+00 -0.73675309031E+02  0.73675309031E+02  0.00000000000E+00 0.  1.
         25    2    1    2    0    0 -0.18092538488E+02  0.19918824434E+02  0.12796108735E+02  0.12858672981E+03  0.12508679854E+03 0.  0.
          5    1    3    3  502    0  0.48068650049E+02 -0.17933124447E+02  0.22575269346E+01  0.51524371882E+02  0.41800000000E+01 0.  1.
         -5    1    3    3    0  502 -0.66161188537E+02  0.37851948881E+02  0.10538581801E+02  0.77062357926E+02  0.41800000000E+01 0.  1.
        -11    1    1    2    0    0  0.12219386921E+02  0.35176505157E+02  0.54228916703E+02  0.65783549148E+02  0.00000000000E+00 0. -1.
         11    1    1    2    0    0  0.58731515660E+01 -0.55095329591E+02  0.66726468187E+02  0.86731832730E+02  0.00000000000E+00 0.  1.
</event>
<event>
 7    1  0.2844572E-009  0.9252155E+02  0.7561462E-02  0.1296858E+00
          1   -1    0    0  501    0  0.00000000000E+00  0.00000000000E+00  0.28720244336E+03  0.28720244336E+03  0.00000000000E+00 0. -1.
         -1   -1    0    0    0  501 -0.00000000000E+00 -0.00000000000E+00 -0.57483751500E+02  0.57483751500E+02  0.00000000000E+00 0.  1.
         25    2    1    2    0    0  0.62292124649E+01  0.54255708967E+02  0.16946071570E+03  0.21758509995E+03  0.12507540331E+03 0.  0.
          5    1    3    3  502    0  0.50966423677E+02  0.10020327799E+02  0.13719111007E+03  0.14675440843E+03  0.41800000000E+01 0. -1.
         -5    1    3    3    0  502 -0.44737211212E+02  0.44235381168E+02  0.32269605631E+02  0.70830691523E+02  0.41800000000E+01 0. -1.
        -11    1    1    2    0    0 -0.24021636942E+02 -0.41629412006E+02 -0.13712058077E+02  0.49980671485E+02  0.00000000000E+00 0.  1.
         11    1    1    2    0    0  0.17792424478E+02 -0.12626296960E+02  0.73970034237E+02  0.77120423422E+02  0.00000000000E+00 0. -1.
</event>
<event>
 7    1  0.2844572E-009  0.2364674E+03  0.7561462E-02  0.1122169E+00
          2   -1    0    0  501    0  0.00000000000E+00  0.00000000000E+00  0.11402884649E+04  0.11402884649E+04  0.00000000000E+00 0. -1.
         -2   -1    0    0    0  501 -0.00000000000E+00 -0.00000000000E+00 -0.66520112839E+02  0.66520112839E+02  0.00000000000E+00 0.  1.
         25    2    1    2    0    0  0.19141779473E+03 -0.11381185939E+03  0.28811129020E+03  0.38503347068E+03  0.12509495004E+03 0.  0.
          5    1    3    3  502    0  0.82263231396E+02 -0.62416963484E+01  0.17814157990E+03  0.19636214733E+03  0.41800000000E+01 0.  1.
         -5    1    3    3    0  502  0.10915456333E+03 -0.10757016304E+03  0.10996971030E+03  0.18867132336E+03  0.41800000000E+01 0.  1.
        -11    1    1    2    0    0 -0.16050395033E+03  0.53392126817E+02  0.48819488283E+03  0.51666863742E+03  0.00000000000E+00 0. -1.
         11    1    1    2    0    0 -0.30913844394E+02  0.60419732570E+02  0.29746217904E+03  0.30510646965E+03  0.00000000000E+00 0.  1.
</event>
<event>
 7    1  0.2844572E-009  0.7520058E+02  0.7561462E-02  0.1343251E+00
          3   -1    0    0  501    0  0.00000000000E+00  0.00000000000E+00  0.51693768084E+02  0.51693768084E+02  0.00000000000E+00 0. -1.
         -3   -1    0    0    0  501 -0.00000000000E+00 -0.00000000000E+00 -0.32752855643E+03  0.32752855643E+03  0.00000000000E+00 0.  1.
         25    2    1    2    0    0 -0.38824589726E+02 -0.58209190374E+02 -0.18846154286E+03  0.23676297745E+03  0.12507316157E+03 0.  0.
          5    1    3    3  502    0 -0.42601462821E+02 -0.52905564961E+02 -0.20634487572E+03  0.21727761867E+03  0.41800000000E+01 0.  1.
         -5    1    3    3    0  502  0.37768730949E+01 -0.53036254135E+01  0.17883332860E+02  0.19485358787E+02  0.41800000000E+01 0.  1.
        -11    1    1    2    0    0  0.23533372533E+02  0.13001461548E+02  0.14074307238E+02  0.30347055037E+02  0.00000000000E+00 0. -1.
         11    1    1    2    0    0  0.15291217193E+02  0.45207728826E+02 -0.10144755272E+03  0.11211229202E+03  0.00000000000E+00 0.  1.
</event>
<event>
 7    1  0.2844572E-009  0.1000822E+03  0.7561462E-02  0.1280123E+00
         -3   -1    0    0    0  501 -0.00000000000E+00  0.00000000000E+00  0.44837800305E+02  0.44837800305E+02  0.00000000000E+00 0.  1.
          3   -1    0    0  501    0  0.00000000000E+00 -0.00000000000E+00 -0.27024699896E+03  0.27024699896E+03  0.00000000000E+00 0. -1.
         25    2    1    2    0    0 -0.68153538186E+01  0.15799836038E+02 -0.15960761483E+03  0.20351494048E+03  0.12509059286E+03 0.  0.
          5    1    3    3  502    0 -0.36560164052E+02 -0.44063018754E+02 -0.91311749989E+02  0.10785871918E+03  0.41800000000E+01 0.  1.
         -5    1    3    3    0  502  0.29744810234E+02  0.59862854793E+02 -0.68295864841E+02  0.95656221304E+02  0.41800000000E+01 0.  1.
        -11    1    1    2    0    0 -0.32861843920E+02 -0.14928486793E+02 -0.16459993861E+01  0.36131285858E+02  0.00000000000E+00 0.  1.
         11    1    1    2    0    0  0.39677197739E+02 -0.87134924532E+00 -0.64155584436E+02  0.75438572920E+02  0.00000000000E+00 0. -1.
</event>
<event>
 7    1  0.2844572E-009  0.1171717E+03  0.7561462E-02  0.1247837E+00
          1   -1    0    0  501    0  0.00000000000E+00  0.00000000000E+00  0.15279186410E+02  0.15279186410E+02  0.00000000000E+00 0. -1.
         -1   -1    0    0    0  501 -0.00000000000E+00 -0.00000000000E+00 -0.11418936283E+04  0.11418936283E+04  0.00000000000E+00 0.  1.
         25    2    1    2    0    0  0.75015245516E+02  0.21586181674E+01 -0.66578026251E+03  0.68157345794E+03  0.12508826457E+03 0.  0.
          5    1    3    3  502    0  0.63031662776E+02 -0.39651050883E+02 -0.58498439866E+03  0.58971977704E+03  0.41800000000E+01 0. -1.
         -5    1    3    3    0  502  0.11983582740E+02  0.41809669050E+02 -0.80795863844E+02  0.91853680905E+02  0.41800000000E+01 0. -1.
        -11    1    1    2    0    0  0.14833321986E+02 -0.19560070762E+02 -0.13220972736E+03  0.13446946054E+03  0.00000000000E+00 0.  1.
         11    1    1    2    0    0 -0.89848567502E+02  0.17401452595E+02 -0.32862445204E+03  0.34112989624E+03  0.00000000000E+00 0. -1.
</event>
<event>
 7    1  0.2844572E-009  0.1161015E+03  0.7561462E-02  0.1249671E+00
          2   -1    0    0  501    0  0.00000000000E+00  0.00000000000E+00  0.94358790821E+02  0.94358790821E+02  0.00000000000E+00 0. -1.
         -2   -1    0    0    0  501 -0.00000000000E+00 -0.00000000000E+00 -0.19045338249E+03  0.19045338249E+03  0.00000000000E+00 0.  1.
         25    2    1    2    0    0  0.77281106721E+02 -0.24342052248E+01 -0.71269211751E+02  0.16340798333E+03  0.12507827014E+03 0.  0.
          5    1    3    3  502    0  0.69382347087E+02  0.54117150879E+02 -0.30898492751E+02  0.93352907618E+02  0.41800000000E+01 0.  1.
         -5    1    3    3    0  502  0.78987596348E+01 -0.56551356104E+02 -0.40370719000E+02  0.70055075716E+02  0.41800000000E+01 0.  1.
        -11    1    1    2    0    0 -0.33107981698E+02 -0.18554617883E+02 -0.52828717331E+02  0.65048333351E+02  0.00000000000E+00 0.  1.
         11    1    1    2    0    0 -0.44173125023E+02  0.20988823108E+02  0.28003337414E+02  0.56355856626E+02  0.00000000000E+00 0. -1.
</event>
<event>
 7    1  0.2844572E-009  0.1336215E+03  0.7561462E-02  0.1222179E+00
         -2   -1    0    0    0  501 -0.00000000000E+00  0.00000000000E+00  0.99513839903E+01  0.99513839903E+01  0.00000000000E+00 0.  1.
          2   -1    0    0  501    0  0.00000000000E+00 -0.00000000000E+00 -0.23706476896E+04  0.23706476896E+04  0.00000000000E+00 0. -1.
         25    2    1    2    0    0  0.80814661793E+02 -0.45481525553E+02 -0.17315343095E+04  0.17385218754E+04  0.12509063850E+03 0.  0.
          5    1    3    3  502    0  0.14942900409E+02 -0.71585730933E+02 -0.54979482786E+03  0.55465271322E+03  0.41800000000E+01 0.  1.
         -5    1    3    3    0  502  0.65871761384E+02  0.26104205380E+02 -0.11817394816E+04  0.11838691622E+04  0.41800000000E+01 0.  1.
        -11    1    1    2    0    0 -0.96213788882E+02  0.29066245775E+02 -0.56969692320E+03  0.57849505108E+03  0.00000000000E+00 0. -1.
         11    1    1    2    0    0  0.15399127089E+02  0.16415279778E+02 -0.59465072980E+02  0.63582147099E+02  0.00000000000E+00 0.  1.
</event>
<event>
 7    1  0.2844572E-009  0.1002130E+03  0.7561462E-02  0.1279849E+00
          1   -1    0    0  501    0  0.00000000000E+00  0.00000000000E+00  0.14451428883E+04  0.14451428883E+04  0.00000000000E+00 0. -1.
         -1   -1    0    0    0  501 -0.00000000000E+00 -0.00000000000E+00 -0.10014043243E+02  0.10014043243E+02  0.00000000000E+00 0.  1.
         25    2    1    2    0    0 -0.45790411284E+02  0.90870045361E+01  0.94850618714E+03  0.95785782618E+03  0.12509313612E+03 0.  0.
          5    1    3    3  502    0 -0.49540929098E+02 -0.30260203527E+02  0.19998539456E+03  0.20828253410E+03  0.41800000000E+01 0. -1.
         -5    1    3    3    0  502  0.37505178142E+01  0.39347208063E+02  0.74852079258E+03  0.74957529208E+03  0.41800000000E+01 0. -1.
        -11    1    1    2    0    0  0.30872762457E+02 -0.50093324991E+02  0.27524923157E+03  0.28146866282E+03  0.00000000000E+00 0.  1.
         11    1    1    2    0    0  0.14917648827E+02  0.41006320455E+02  0.21137342630E+03  0.21583044250E+03  0.00000000000E+00 0. -1.
</event>
<event>
 7    1  0.2844572E-009  0.2881619E+03  0.7561462E-02  0.1091313E+00
          2   -1    0    0  501    0  0.00000000000E+00  0.00000000000E+00  0.10017834365E+03  0.10017834365E+03  0.00000000000E+00 0. -1.
         -2   -1    0    0    0  501 -0.00000000000E+00 -0.00000000000E+00 -0.88594698283E+03  0.88594698283E+03  0.00000000000E+00 0.  1.
         25    2    1    2    0    0  0.85054380756E+02  0.26228032431E+03 -0.35422268520E+03  0.46598932542E+03  0.12508846667E+03 0.  0.
          5    1    3    3  502    0 -0.20196660093E+02  0.21644024392E+02 -0.83867488967E+02  0.89037053951E+02  0.41800000000E+01 0. -1.
         -5    1    3    3    0  502  0.10525104085E+03  0.24063629991E+03 -0.27035519623E+03  0.37695227147E+03  0.41800000000E+01 0. -1.
        -11    1    1    2    0    0 -0.49955052852E+02 -0.58331128421E+02 -0.17060128069E+03  0.18709041884E+03  0.00000000000E+00 0.  1.
         11    1    1    2    0    0 -0.35099327904E+02 -0.20394919589E+03 -0.26094467329E+03  0.33304558223E+03  0.00000000000E+00 0. -1.
</event>
<event>
 7    1  0.2844572E-009  0.8438895E+02  0.7561462E-02  0.1317038E+00
          2   -1    0    0  501    0  0.00000000000E+00  0.00000000000E+00  0.15575016717E+03  0.15575016717E+03  0.00000000000E+00 0.  1.
         -2   -1    0    0    0  501 -0.00000000000E+00 -0.00000000000E+00 -0.10410176270E+03  0.10410176270E+03  0.00000000000E+00 0. -1.
         25    2    1    2    0    0 -0.24961630851E+02 -0.32828512383E+02 -0.23806853255E+02  0.13388501812E+03  0.12513048220E+03 0.  0.
          5    1    3    3  502    0 -0.21157777655E+02 -0.47520419181E+02  0.41520526798E+02  0.66687842520E+02  0.41800000000E+01 0. -1.
         -5    1    3    3    0  502 -0.38038531959E+01  0.14691906798E+02 -0.65327380053E+02  0.67197175603E+02  0.41800000000E+01 0. -1.
        -11    1    1    2    0    0  0.58896829476E+02  0.31725313383E+02  0.51109282888E+02  0.84187236734E+02  0.00000000000E+00 0.  1.
         11    1    1    2    0    0 -0.33935198625E+02  0.11031989997E+01  0.24345974836E+02  0.41779675016E+02  0.00000000000E+00 0. -1.
</event>
<event>
 7    1  0.2844572E-009  0.9016703E+02  0.7561462E-02  0.1302448E+00
          1   -1    0    0  501    0  0.00000000000E+00  0.00000000000E+00  0.18737357289E+03  0.18737357289E+03  0.00000000000E+00 0. -1.
         -1   -1    0    0    0  501 -0.00000000000E+00 -0.00000000000E+00 -0.69673773479E+02  0.69673773479E+02  0.00000000000E+00 0.  1.
         25    2    1    2    0    0  0.28022820992E+02  0.20066225886E+01  0.90648824151E+02  0.15701453469E+03  0.12508816792E+03 0.  0.
          5    1    3    3  502    0 -0.44575338184E+02 -0.12477122246E+02  0.10151978752E+02  0.47572832860E+02  0.41800000000E+01 0. -1.
         -5    1    3    3    0  502  0.72598159176E+02  0.14483744835E+02  0.80496845399E+02  0.10944170183E+03  0.41800000000E+01 0. -1.
        -11    1    1    2    0    0  0.14799435524E+02  0.63089888239E+01 -0.26476705540E+02  0.30981326118E+02  0.00000000000E+00 0.  1.
         11    1    1    2    0    0 -0.42822256516E+02 -0.83156114125E+01  0.53527680798E+02  0.69051485559E+02  0.00000000000E+00 0. -1.
</event>
<event>
 7    1  0.2844572E-009  0.1050854E+03  0.7561462E-02  0.1269951E+00
         -2   -1    0    0    0  501 -0.00000000000E+00  0.00000000000E+00  0.64069112539E+02  0.64069112539E+02  0.00000000000E+00 0.  1.
          2   -1    0    0  501    0  0.00000000000E+00 -0.00000000000E+00 -0.26966421786E+03  0.26966421786E+03  0.00000000000E+00 0. -1.
         25    2    1    2    0    0 -0.61385262161E+02  0.73297158126E+01 -0.62679607848E+02  0.15296504597E+03  0.12509075467E+03 0.  0.
          5    1    3    3  502    0  0.18718214342E+02 -0.34279159269E+01 -0.69086526265E+02  0.71781213887E+02  0.41800000000E+01 0.  1.
         -5    1    3    3    0  502 -0.80103476503E+02  0.10757631739E+02  0.64069184166E+01  0.81183832086E+02  0.41800000000E+01 0.  1.
        -11    1    1    2    0    0 -0.18211092722E+02  0.18612457786E+02 -0.44533749768E+02  0.51588005886E+02  0.00000000000E+00 0.  1.
         11    1    1    2    0    0  0.79596354883E+02 -0.25942173598E+02 -0.98381747700E+02  0.12918027853E+03  0.00000000000E+00 0. -1.
</event>
<event>
 7    1  0.2844572E-009  0.1587437E+03  0.7561462E-02  0.1190122E+00
         -2   -1    0    0    0  501 -0.00000000000E+00  0.00000000000E+00  0.24907062422E+02  0.24907062422E+02  0.00000000000E+00 0.  1.
          2   -1    0    0  501    0  0.00000000000E+00 -0.00000000000E+00 -0.11660801167E+04  0.11660801167E+04  0.00000000000E+00 0. -1.
         25    2    1    2    0    0 -0.10604517455E+03 -0.72938314292E+02 -0.52239989164E+03  0.55237173379E+03  0.12508920323E+03 0.  0.
          5    1    3    3  502    0 -0.10351086109E+03 -0.56580189220E+01 -0.23041268061E+03  0.25269346515E+03  0.41800000000E+01 0.  1.
         -5    1    3    3    0  502 -0.25343134560E+01 -0.67280295370E+02 -0.29198721103E+03  0.29967826864E+03  0.41800000000E+01 0.  1.
        -11    1    1    2    0    0  0.27037051349E+02  0.60542663054E+02 -0.16457009386E+03  0.17742528565E+03  0.00000000000E+00 0.  1.
         11    1    1    2    0    0  0.79008123201E+02  0.12395651237E+02 -0.45420306877E+03  0.46119015967E+03  0.00000000000E+00 0. -1.
</event>
<event>
 7    1  0.2844572E-009  0.8719801E+02  0.7561462E-02  0.1309783E+00
         -2   -1    0    0    0  501 -0.00000000000E+00  0.00000000000E+00  0.24418254161E+02  0.24418254161E+02  0.00000000000E+00 0.  1.
          2   -1    0    0  501    0  0.00000000000E+00 -0.00000000000E+00 -0.54303882355E+03  0.54303882355E+03  0.00000000000E+00 0. -1.
         25    2    1    2    0    0  0.40270808495E+02  0.79798667445E+01 -0.29258864621E+03  0.32084444855E+03  0.12509047919E+03 0.  0.
          5    1    3    3  502    0 -0.34989941205E+02 -0.32177254595E+01 -0.18878375335E+03  0.19207141295E+03  0.41800000000E+01 0.  1.
         -5    1    3    3    0  502  0.75260749700E+02  0.11197592204E+02 -0.10380489287E+03  0.12877303561E+03  0.41800000000E+01 0.  1.
        -11    1    1    2    0    0  0.29222955574E+01  0.14028630945E+02  0.10934956840E+01  0.14371431047E+02  0.00000000000E+00 0.  1.
         11    1    1    2    0    0 -0.43193104052E+02 -0.22008497690E+02 -0.22712541886E+03  0.23224119811E+03  0.00000000000E+00 0. -1.
</event>
<event>
 7    1  0.2844572E-009  0.6455331E+02  0.7561462E-02  0.1379660E+00
         -1   -1    0    0    0  501 -0.00000000000E+00  0.00000000000E+00  0.14106329792E+03  0.14106329792E+03  0.00000000000E+00 0.  1.
          1   -1    0    0  501    0  0.00000000000E+00 -0.00000000000E+00 -0.15531302357E+03  0.15531302357E+03  0.00000000000E+00 0. -1.
         25    2    1    2    0    0  0.31060209644E+02 -0.28702795516E+02 -0.99437192010E+02  0.16529936750E+03  0.12509012210E+03 0.  0.
          5    1    3    3  502    0  0.14868820612E+02 -0.57645915133E+01 -0.12561066565E+03  0.12668790024E+03  0.41800000000E+01 0. -1.
         -5    1    3    3    0  502  0.16191389032E+02 -0.22938204003E+02  0.26173473638E+02  0.38611467260E+02  0.41800000000E+01 0. -1.
        -11    1    1    2    0    0 -0.54964549009E+02  0.16454908348E+02  0.20317000718E+02  0.60865804641E+02  0.00000000000E+00 0. -1.
         11    1    1    2    0    0  0.23904339365E+02  0.12247887168E+02  0.64870465644E+02  0.70211149353E+02  0.00000000000E+00 0.  1.
</event>
<event>
 7    1  0.2844572E-009  0.2729495E+03  0.7561462E-02  0.1099603E+00
          2   -1    0    0  501    0  0.00000000000E+00  0.00000000000E+00  0.17384083406E+04  0.17384083406E+04  0.00000000000E+00 0. -1.
         -2   -1    0    0    0  501 -0.00000000000E+00 -0.00000000000E+00 -0.45698833381E+02  0.45698833381E+02  0.00000000000E+00 0.  1.
         25    2    1    2    0    0 -0.15414689769E+03 -0.20492256523E+03  0.73838840341E+03  0.79159275363E+03  0.12508848669E+03 0.  0.
          5    1    3    3  502    0 -0.16022353369E+03 -0.15228492407E+03  0.48980819687E+03  0.53739354385E+03  0.41800000000E+01 0. -1.
         -5    1    3    3    0  502  0.60766359928E+01 -0.52637641157E+02  0.24858020654E+03  0.25419920978E+03  0.41800000000E+01 0. -1.
        -11    1    1    2    0    0  0.10951419077E+03  0.19831004373E+03  0.76135918891E+03  0.79434755992E+03  0.00000000000E+00 0. -1.
         11    1    1    2    0    0  0.44632706929E+02  0.66125215040E+01  0.19296191487E+03  0.19816686040E+03  0.00000000000E+00 0.  1.
</event>
<event>
 7    1  0.2844572E-009  0.8825416E+02  0.7561462E-02  0.1307135E+00
          1   -1    0    0  501    0  0.00000000000E+00  0.00000000000E+00  0.19103067299E+03  0.19103067299E+03  0.00000000000E+00 0. -1.
         -1   -1    0    0    0  501 -0.00000000000E+00 -0.00000000000E+00 -0.63228475641E+02  0.63228475641E+02  0.00000000000E+00 0.  1.
         25    2    1    2    0    0 -0.98379212222E+01  0.14136165635E+02  0.67385783462E+02  0.14312530790E+03  0.12508954423E+03 0.  0.
          5    1    3    3  502    0 -0.36990885688E+02 -0.46538312860E+02  0.34198633132E+02  0.68710691278E+02  0.41800000000E+01 0. -1.
         -5    1    3    3    0  502  0.27152964466E+02  0.60674478496E+02  0.33187150331E+02  0.74414616623E+02  0.41800000000E+01 0. -1.
        -11    1    1    2    0    0  0.26648289337E+02  0.23645473773E+01  0.77531256182E+02  0.82017181700E+02  0.00000000000E+00 0. -1.
         11    1    1    2    0    0 -0.16810368114E+02 -0.16500713013E+02 -0.17114842298E+02  0.29116659028E+02  0.00000000000E+00 0.  1.
</event>
<event>
 7    1  0.2844572E-009  0.4840539E+03  0.7561462E-02  0.1018027E+00
         -2   -1    0    0    0  501 -0.00000000000E+00  0.00000000000E+00  0.37337734790E+03  0.37337734790E+03  0.00000000000E+00 0.  1.
          2   -1    0    0  501    0  0.00000000000E+00 -0.00000000000E+00 -0.71819592996E+03  0.71819592996E+03  0.00000000000E+00 0. -1.
         25    2    1    2    0    0  0.25858504227E+03 -0.39562324351E+03 -0.36247212897E+03  0.60861898827E+03  0.12508818370E+03 0.  0.
          5    1    3    3  502    0  0.30193593737E+02 -0.99806070281E+00 -0.39258670551E+02  0.49712823711E+02  0.41800000000E+01 0.  1.
         -5    1    3    3    0  502  0.22839144854E+03 -0.39462518281E+03 -0.32321345842E+03  0.55890616455E+03  0.41800000000E+01 0.  1.
        -11    1    1    2    0    0 -0.20898594409E+03  0.23966965444E+03 -0.30200429106E+01  0.31800281247E+03  0.00000000000E+00 0.  1.
         11    1    1    2    0    0 -0.49599098186E+02  0.15595358908E+03  0.20673589819E+02  0.16495147712E+03  0.00000000000E+00 0. -1.
</event>
<event>
 7    1  0.2844572E-009  0.1664872E+03  0.7561462E-02  0.1181561E+00
         -1   -1    0    0    0  501 -0.00000000000E+00  0.00000000000E+00  0.92438977591E+02  0.92438977591E+02  0.00000000000E+00 0.  1.
          1   -1    0    0  501    0  0.00000000000E+00 -0.00000000000E+00 -0.41056156694E+03  0.41056156694E+03  0.00000000000E+00 0. -1.
         25    2    1    2    0    0  0.14988659185E+03 -0.44400405463E+02 -0.15647408625E+03  0.25410321502E+03  0.12508764045E+03 0.  0.
          5    1    3    3  502    0  0.13756010505E+03 -0.78592496095E+01 -0.60411271590E+02  0.15050430041E+03  0.41800000000E+01 0. -1.
         -5    1    3    3    0  502  0.12326486799E+02 -0.36541155853E+02 -0.96062814659E+02  0.10359891461E+03  0.41800000000E+01 0. -1.
        -11    1    1    2    0    0 -0.93542454076E+02  0.26739693461E+02 -0.25620132237E+02  0.10060612853E+03  0.00000000000E+00 0.  1.
         11    1    1    2    0    0 -0.56344137777E+02  0.17660712002E+02 -0.13602837086E+03  0.14829120098E+03  0.00000000000E+00 0. -1.
</event>
<event>
 7    1  0.2844572E-009  0.1864899E+03  0.7561462E-02  0.1161666E+00
          1   -1    0    0  501    0  0.00000000000E+00  0.00000000000E+00  0.21013115118E+03  0.21013115118E+03  0.00000000000E+00 0. -1.
         -1   -1    0    0    0  501 -0.00000000000E+00 -0.00000000000E+00 -0.20582634272E+03  0.20582634272E+03  0.00000000000E+00 0.  1.
         25    2    1    2    0    0  0.16997070222E+03  0.11701857675E+02 -0.39236167407E+02  0.21497566990E+03  0.12509232084E+03 0.  0.
          5    1    3    3  502    0  0.21290249818E+02 -0.14360824992E+02  0.37459916778E+02  0.45609492398E+02  0.41800000000E+01 0. -1.
         -5    1    3    3    0  502  0.14868045240E+03  0.26062682667E+02 -0.76696084185E+02  0.16936617751E+03  0.41800000000E+01 0. -1.
        -11    1    1    2    0    0 -0.33553938426E+02  0.38066722795E+02  0.15774886084E+02  0.53139337587E+02  0.00000000000E+00 0. -1.
         11    1    1    2    0    0 -0.13641676379E+03 -0.49768580470E+02  0.27766089781E+02  0.14784248641E+03  0.00000000000E+00 0.  1.
</event>
<event>
 7    1  0.2844572E-009  0.1072230E+03  0.7561462E-02  0.1265801E+00
          2   -1    0    0  501    0  0.00000000000E+00  0.00000000000E+00  0.40916684642E+03  0.40916684642E+03  0.00000000000E+00 0. -1.
         -2   -1    0    0    0  501 -0.00000000000E+00 -0.00000000000E+00 -0.41836832489E+02  0.41836832489E+02  0.00000000000E+00 0.  1.
         25    2    1    2    0    0  0.38518828373E+02  0.32651090926E+01  0.31108328381E+03  0.33751233770E+03  0.12508959811E+03 0.  0.
          5    1    3    3  502    0  0.46818857710E+02  0.55556790874E+02  0.13214816107E+03  0.15086143087E+03  0.41800000000E+01 0.  1.
         -5    1    3    3    0  502 -0.83000293369E+01 -0.52291681781E+02  0.17893512275E+03  0.18665090684E+03  0.41800000000E+01 0.  1.
        -11    1    1    2    0    0 -0.32729893142E+02  0.36125561580E+02  0.55982969266E+01  0.49067739229E+02  0.00000000000E+00 0.  1.
         11    1    1    2    0    0 -0.57889352305E+01 -0.39390670673E+02  0.50648433191E+02  0.64423601978E+02  0.00000000000E+00 0. -1.
</event>
<event>
 7    1  0.2844572E-009  0.1578923E+03  0.7561462E-02  0.1191097E+00
         -2   -1    0    0    0  501 -0.00000000000E+00  0.00000000000E+00  0.34942010350E+03  0.34942010350E+03  0.00000000000E+00 0.  1.
          2   -1    0    0  501    0  0.00000000000E+00 -0.00000000000E+00 -0.98362581253E+02  0.98362581253E+02  0.00000000000E+00 0. -1.
         25    2    1    2    0    0 -0.91756527908E+02  0.86020237772E+02  0.32400184690E+02  0.18032111921E+03  0.12508873788E+03 0.  0.
          5    1    3    3  502    0 -0.78389827394E+02  0.11432899961E+03  0.45743765901E+02  0.14603441276E+03  0.41800000000E+01 0. -1.
         -5    1    3    3    0  502 -0.13366700514E+02 -0.28308761841E+02 -0.13343581211E+02  0.34286706449E+02  0.41800000000E+01 0. -1.
        -11    1    1    2    0    0  0.24200018594E+02 -0.72748625229E+02  0.15835740304E+03  0.17594053106E+03  0.00000000000E+00 0.  1.
         11    1    1    2    0    0  0.67556509314E+02 -0.13271612543E+02  0.60299934519E+02  0.91521034484E+02  0.00000000000E+00 0. -1.
</event>
<event>
 7    1  0.3290105E-009  0.1512232E+03  0.7561462E-02  0.1198978E+00
         -1   -1    0    0    0  501 -0.00000000000E+00  0.00000000000E+00  0.70003452535E+02  0.70003452535E+02  0.00000000000E+00 0.  1.
          1   -1    0    0  501    0  0.00000000000E+00 -0.00000000000E+00 -0.59682120784E+03  0.59682120784E+03  0.00000000000E+00 0. -1.
         25    2    1    2    0    0 -0.23976024041E+02 -0.13322569701E+03 -0.99706346803E+02  0.20951795491E+03  0.12502992347E+03 0.  0.
          5    1    3    3  502    0 -0.32785351658E+02 -0.65558628529E+02  0.15982992738E+02  0.75138149530E+02  0.41800000000E+01 0. -1.
         -5    1    3    3    0  502  0.88093276179E+01 -0.67667068484E+02 -0.11568933954E+03  0.13437980538E+03  0.41800000000E+01 0. -1.
        -11    1    1    2    0    0 -0.32762692053E+02  0.55140474213E+02 -0.21293466313E+03  0.22238488404E+03  0.00000000000E+00 0. -1.
         11    1    1    2    0    0  0.56738716094E+02  0.78085222800E+02 -0.21417674538E+03  0.23492182143E+03  0.00000000000E+00 0.  1.
</event>
<event>
 7    1  0.2844572E-009  0.9231634E+02  0.7561462E-02  0.1297337E+00
         -2   -1    0    0    0  501 -0.00000000000E+00  0.00000000000E+00  0.10457977461E+03  0.10457977461E+03  0.00000000000E+00 0.  1.
          2   -1    0    0  501    0  0.00000000000E+00 -0.00000000000E+00 -0.15427786857E+03  0.15427786857E+03  0.00000000000E+00 0. -1.
         25    2    1    2    0    0 -0.25625073794E+02 -0.42120857159E+02 -0.75813869556E+02  0.15435858418E+03  0.12509204083E+03 0.  0.
          5    1    3    3  502    0  0.49807328734E+02 -0.18539341262E+02 -0.17702387603E+02  0.56172271602E+02  0.41800000000E+01 0.  1.
         -5    1    3    3    0  502 -0.75432402528E+02 -0.23581515897E+02 -0.58111481953E+02  0.98186312579E+02  0.41800000000E+01 0.  1.
        -11    1    1    2    0    0 -0.95059689298E+00  0.11892056165E+02 -0.31803578892E+02  0.33967517787E+02  0.00000000000E+00 0. -1.
         11    1    1    2    0    0  0.26575670686E+02  0.30228800994E+02  0.57919354485E+02  0.70531541214E+02  0.00000000000E+00 0.  1.
</event>
<event>
 7    1  0.2844572E-009  0.1170257E+03  0.7561462E-02  0.1248086E+00
          3   -1    0    0  501    0  0.00000000000E+00  0.00000000000E+00  0.15743567244E+03  0.15743567244E+03  0.00000000000E+00 0. -1.
         -3   -1    0    0    0  501 -0.00000000000E+00 -0.00000000000E+00 -0.92505320157E+02  0.92505320157E+02  0.00000000000E+00 0.  1.
         25    2    1    2    0    0  0.40187521632E+02 -0.25575773292E+02  0.68306074586E+01  0.13402731331E+03  0.12508999336E+03 0.  0.
          5    1    3    3  502    0  0.13954939921E+02  0.50820644221E+02  0.52714053952E+01  0.53129448916E+02  0.41800000000E+01 0.  1.
         -5    1    3    3    0  502  0.26232581711E+02 -0.76396417513E+02  0.15592020634E+01  0.80897864392E+02  0.41800000000E+01 0.  1.
        -11    1    1    2    0    0 -0.16327014466E+02  0.57881062988E+02  0.34945602976E+02  0.69555618187E+02  0.00000000000E+00 0.  1.
         11    1    1    2    0    0 -0.23860507166E+02 -0.32305289696E+02  0.23154141850E+02  0.46358061104E+02  0.00000000000E+00 0. -1.
</event>
<event>
 7    1  0.2844572E-009  0.2320485E+03  0.7561462E-02  0.1125206E+00
          2   -1    0    0  501    0  0.00000000000E+00  0.00000000000E+00  0.71592853037E+03  0.71592853037E+03  0.00000000000E+00 0. -1.
         -2   -1    0    0    0  501 -0.00000000000E+00 -0.00000000000E+00 -0.10862528044E+03  0.10862528044E+03  0.00000000000E+00 0.  1.
         25    2    1    2    0    0  0.88589859220E+02 -0.21062290322E+03  0.48260186561E+03  0.54841738177E+03  0.12508754303E+03 0.  0.
          5    1    3    3  502    0  0.50070528039E+02 -0.15237812812E+03  0.43541301076E+03  0.46403460436E+03  0.41800000000E+01 0. -1.
         -5    1    3    3    0  502  0.38519331181E+02 -0.58244775101E+02  0.47188854848E+02  0.84382777408E+02  0.41800000000E+01 0. -1.
        -11    1    1    2    0    0 -0.90287331069E+02  0.16539161275E+03  0.61132188665E+02  0.19809929887E+03  0.00000000000E+00 0.  1.
         11    1    1    2    0    0  0.16974718485E+01  0.45231290468E+02  0.63569195666E+02  0.78037130173E+02  0.00000000000E+00 0. -1.
</event>
<event>
 7    1  0.2844572E-009  0.7998104E+02  0.7561462E-02  0.1329105E+00
          1   -1    0    0  501    0  0.00000000000E+00  0.00000000000E+00  0.23617943215E+03  0.23617943215E+03  0.00000000000E+00 0. -1.
         -1   -1    0    0    0  501 -0.00000000000E+00 -0.00000000000E+00 -0.95698251449E+02  0.95698251449E+02  0.00000000000E+00 0.  1.
         25    2    1    2    0    0  0.22509680047E+02  0.27589340001E+02  0.18292908796E+03  0.22444961913E+03  0.12508686153E+03 0.  0.
          5    1    3    3  502    0  0.26524067913E+02  0.50972914121E+02  0.21910060682E+02  0.61638359094E+02  0.41800000000E+01 0. -1.
         -5    1    3    3    0  502 -0.40143878660E+01 -0.23383574121E+02  0.16101902728E+03  0.16281126003E+03  0.41800000000E+01 0. -1.
        -11    1    1    2    0    0 -0.42904589416E+02 -0.36184666188E+02  0.36994961960E+01  0.56247845578E+02  0.00000000000E+00 0. -1.
         11    1    1    2    0    0  0.20394909369E+02  0.85953261874E+01 -0.46147403454E+02  0.51180218894E+02  0.00000000000E+00 0.  1.
</event>
<event>
 7    1  0.2940460E-009  0.9912754E+02  0.7561462E-02  0.1282141E+00
          1   -1    0    0  501    0  0.00000000000E+00  0.00000000000E+00  0.12744949829E+04  0.12744949829E+04  0.00000000000E+00 0. -1.
         -1   -1    0    0    0  501 -0.00000000000E+00 -0.00000000000E+00 -0.13320586069E+02  0.13320586069E+02  0.00000000000E+00 0.  1.
         25    2    1    2    0    0  0.24536060278E+02 -0.33330452180E+02  0.99034773846E+03  0.99907393577E+03  0.12508856376E+03 0.  0.
          5    1    3    3  502    0  0.40688529316E+02  0.23979067552E+02  0.74735869723E+03  0.74886116659E+03  0.41800000000E+01 0.  1.
         -5    1    3    3    0  502 -0.16152469038E+02 -0.57309519732E+02  0.24298904123E+03  0.25021276919E+03  0.41800000000E+01 0.  1.
        -11    1    1    2    0    0 -0.24436429890E+02 -0.23747630726E+02  0.16521948748E+03  0.16869667488E+03  0.00000000000E+00 0. -1.
         11    1    1    2    0    0 -0.99630388036E-01  0.57078082907E+02  0.10560717093E+03  0.12004495835E+03  0.00000000000E+00 0.  1.
</event>
<event>
 7    1  0.2844572E-009  0.1631413E+03  0.7561462E-02  0.1185195E+00
         -2   -1    0    0    0  501 -0.00000000000E+00  0.00000000000E+00  0.52141394498E+02  0.52141394498E+02  0.00000000000E+00 0.  1.
          2   -1    0    0  501    0  0.00000000000E+00 -0.00000000000E+00 -0.61780577629E+03  0.61780577629E+03  0.00000000000E+00 0. -1.
         25    2    1    2    0    0 -0.11689863969E+03 -0.74162265856E+02 -0.36304818653E+03  0.40818871829E+03  0.12509480548E+03 0.  0.
          5    1    3    3  502    0 -0.11877021779E+03 -0.38796703091E+02 -0.16530276117E+03  0.20725352603E+03  0.41800000000E+01 0. -1.
         -5    1    3    3    0  502  0.18715780982E+01 -0.35365562765E+02 -0.19774542537E+03  0.20093519226E+03  0.41800000000E+01 0. -1.
        -11    1    1    2    0    0  0.10259262152E+02  0.56609116189E+02 -0.65738948114E+02  0.87358192488E+02  0.00000000000E+00 0.  1.
         11    1    1    2    0    0  0.10663937754E+03  0.17553149667E+02 -0.13687724715E+03  0.17440026001E+03  0.00000000000E+00 0. -1.
</event>
<event>
 7    1  0.2844572E-009  0.9874877E+02  0.7561462E-02  0.1282949E+00
         -2   -1    0    0    0  501 -0.00000000000E+00  0.00000000000E+00  0.12591535070E+02  0.12591535070E+02  0.00000000000E+00 0.  1.
          2   -1    0    0  501    0  0.00000000000E+00 -0.00000000000E+00 -0.12951483639E+04  0.12951483639E+04  0.00000000000E+00 0. -1.
         25    2    1    2    0    0 -0.70072052363E+01  0.58870389934E+02 -0.84736174261E+03  0.85859448258E+03  0.12509092272E+03 0.  0.
          5    1    3    3  502    0 -0.26764522066E+02 -0.20344916891E+01 -0.65983217208E+03  0.66039113146E+03  0.41800000000E+01 0. -1.
         -5    1    3    3    0  502  0.19757316830E+02  0.60904881623E+02 -0.18752957053E+03  0.19820335112E+03  0.41800000000E+01 0. -1.
        -11    1    1    2    0    0 -0.18537069813E+02 -0.74129317529E+02 -0.36485884670E+03  0.37277440455E+03  0.00000000000E+00 0. -1.
         11    1    1    2    0    0  0.25544275050E+02  0.15258927594E+02 -0.70336239555E+02  0.76371011869E+02  0.00000000000E+00 0.  1.
</event>
<event>
 7    1  0.2844572E-009  0.7217296E+02  0.7561462E-02  0.1352856E+00
         -1   -1    0    0    0  501 -0.00000000000E+00  0.00000000000E+00  0.11985837613E+03  0.11985837613E+03  0.00000000000E+00 0.  1.
          1   -1    0    0  501    0  0.00000000000E+00 -0.00000000000E+00 -0.10131504718E+03  0.10131504718E+03  0.00000000000E+00 0. -1.
         25    2    1    2    0    0 -0.16101544660E+02 -0.80773955147E+01  0.24554328574E+01  0.12638191387E+03  0.12506740161E+03 0.  0.
          5    1    3    3  502    0 -0.40141677228E+02  0.85423144499E+01  0.53413527310E+02  0.67489278308E+02  0.41800000000E+01 0. -1.
         -5    1    3    3    0  502  0.24040132568E+02 -0.16619709965E+02 -0.50958094453E+02  0.58892635562E+02  0.41800000000E+01 0. -1.
        -11    1    1    2    0    0  0.42587692504E+02 -0.68989351191E+01  0.37842142696E+02  0.57387582476E+02  0.00000000000E+00 0.  1.
         11    1    1    2    0    0 -0.26486147844E+02  0.14976330634E+02 -0.21754246606E+02  0.37403926963E+02  0.00000000000E+00 0. -1.
</event>
<event>
 7    1  0.2844572E-009  0.8855416E+02  0.7561462E-02  0.1306391E+00
         -2   -1    0    0    0  501 -0.00000000000E+00  0.00000000000E+00  0.10171536893E+03  0.10171536893E+03  0.00000000000E+00 0.  1.
          2   -1    0    0  501    0  0.00000000000E+00 -0.00000000000E+00 -0.15960349990E+03  0.15960349990E+03  0.00000000000E+00 0. -1.
         25    2    1    2    0    0 -0.43655993967E+01  0.26916406492E+02  0.14591544851E+02  0.12885993912E+03  0.12509364225E+03 0.  0.
          5    1    3    3  502    0 -0.40847474729E+02  0.59538829926E+02  0.28613676419E+02  0.77779196055E+02  0.41800000000E+01 0.  1.
         -5    1    3    3    0  502  0.36481875332E+02 -0.32622423434E+02 -0.14022131568E+02  0.51080743066E+02  0.41800000000E+01 0.  1.
        -11    1    1    2    0    0  0.66877608467E+00 -0.41050334219E+02 -0.96203406150E+02  0.10459766994E+03  0.00000000000E+00 0. -1.
         11    1    1    2    0    0  0.36968233120E+01  0.14133927727E+02  0.23723730328E+02  0.27861259775E+02  0.00000000000E+00 0.  1.
</event>
<event>
 7    1  0.2844572E-009  0.2341265E+03  0.7561462E-02  0.1123769E+00
          1   -1    0    0  501    0  0.00000000000E+00  0.00000000000E+00  0.17459923638E+04  0.17459923638E+04  0.00000000000E+00 0. -1.
         -1   -1    0    0    0  501 -0.00000000000E+00 -0.00000000000E+00 -0.37523827894E+02  0.37523827894E+02  0.00000000000E+00 0.  1.
         25    2    1    2    0    0  0.33033913738E+02  0.21336941485E+03  0.11642951618E+04  0.11907324353E+04  0.12507102753E+03 0.  0.
          5    1    3    3  502    0  0.51423446158E+02  0.48681627372E+02  0.19801499339E+03  0.21033706679E+03  0.41800000000E+01 0.  1.
         -5    1    3    3    0  502 -0.18389532420E+02  0.16468778748E+03  0.96628016842E+03  0.98039536847E+03  0.41800000000E+01 0.  1.
        -11    1    1    2    0    0 -0.41807659331E+02 -0.39669830565E+02  0.95007959029E+02  0.11112195154E+03  0.00000000000E+00 0.  1.
         11    1    1    2    0    0  0.87737455935E+01 -0.17369958429E+03  0.44916541506E+03  0.48166180488E+03  0.00000000000E+00 0. -1.
</event>
<event>
 7    1  0.2844572E-009  0.8818205E+02  0.7561462E-02  0.1307315E+00
         -1   -1    0    0    0  501 -0.00000000000E+00  0.00000000000E+00  0.29410305204E+02  0.29410305204E+02  0.00000000000E+00 0.  1.
          1   -1    0    0  501    0  0.00000000000E+00 -0.00000000000E+00 -0.48038459467E+03  0.48038459467E+03  0.00000000000E+00 0. -1.
         25    2    1    2    0    0  0.28337052945E+02  0.21120574140E+02 -0.33104537882E+03  0.35565234029E+03  0.12509387313E+03 0.  0.
          5    1    3    3  502    0 -0.24929545924E+02  0.15162660983E+02 -0.27990358795E+03  0.28145138034E+03  0.41800000000E+01 0.  1.
         -5    1    3    3    0  502  0.53266598869E+02  0.59579131576E+01 -0.51141790869E+02  0.74200959950E+02  0.41800000000E+01 0.  1.
        -11    1    1    2    0    0 -0.54290179766E+02  0.71387097686E+01 -0.90545070634E+02  0.10581490733E+03  0.00000000000E+00 0.  1.
         11    1    1    2    0    0  0.25953126822E+02 -0.28259283909E+02 -0.29383840012E+02  0.48327652258E+02  0.00000000000E+00 0. -1.
</event>
<event>
 7    1  0.2844572E-009  0.2046928E+03  0.7561462E-02  0.1145839E+00
         -2   -1    0    0    0  501 -0.00000000000E+00  0.00000000000E+00  0.24095263468E+04  0.24095263468E+04  0.00000000000E+00 0.  1.
          2   -1    0    0  501    0  0.00000000000E+00 -0.00000000000E+00 -0.19910369369E+02  0.19910369369E+02  0.00000000000E+00 0. -1.
         25    2    1    2    0    0 -0.17700895230E+03  0.45620173905E+02  0.15315370944E+04  0.15474714157E+04  0.12509412982E+03 0.  0.
          5    1    3    3  502    0 -0.91925550782E+02 -0.26696997755E+02  0.44470063915E+03  0.45490566873E+03  0.41800000000E+01 0. -1.
         -5    1    3    3    0  502 -0.85083401517E+02  0.72317171660E+02  0.10868364553E+04  0.10925657469E+04  0.41800000000E+01 0. -1.
        -11    1    1    2    0    0  0.10493046352E+03 -0.69542642166E+02  0.59345940761E+03  0.60666353915E+03  0.00000000000E+00 0.  1.
         11    1    1    2    0    0  0.72078488775E+02  0.23922468261E+02  0.26461947541E+03  0.27530176134E+03  0.00000000000E+00 0. -1.
</event>
<event>
 7    1  0.2844572E-009  0.1445646E+03  0.7561462E-02  0.1207316E+00
         -1   -1    0    0    0  501 -0.00000000000E+00  0.00000000000E+00  0.22728550487E+03  0.22728550487E+03  0.00000000000E+00 0.  1.
          1   -1    0    0  501    0  0.00000000000E+00 -0.00000000000E+00 -0.12198684272E+03  0.12198684272E+03  0.00000000000E+00 0. -1.
         25    2    1    2    0    0 -0.79511164196E+02 -0.63807547849E+02  0.13308845656E+03  0.20917253445E+03  0.12508870255E+03 0.  0.
          5    1    3    3  502    0 -0.10036003212E+03 -0.82305918608E+02  0.91204314813E+02  0.15868868808E+03  0.41800000000E+01 0. -1.
         -5    1    3    3    0  502  0.20848867926E+02  0.18498370758E+02  0.41884141744E+02  0.50483846369E+02  0.41800000000E+01 0. -1.
        -11    1    1    2    0    0 -0.17496890438E+02  0.99740401482E+01  0.10526916896E+02  0.22725286163E+02  0.00000000000E+00 0. -1.
         11    1    1    2    0    0  0.97008054633E+02  0.53833507701E+02 -0.38316711303E+02  0.11737452697E+03  0.00000000000E+00 0.  1.
</event>
<event>
 7    1  0.2844572E-009  0.7498628E+02  0.7561462E-02  0.1343914E+00
          1   -1    0    0  501    0  0.00000000000E+00  0.00000000000E+00  0.34677941410E+03  0.34677941410E+03  0.00000000000E+00 0. -1.
         -1   -1    0    0    0  501 -0.00000000000E+00 -0.00000000000E+00 -0.42307736901E+02  0.42307736901E+02  0.00000000000E+00 0.  1.
         25    2    1    2    0    0 -0.20909867168E+02  0.38889436286E+02  0.10629717518E+03  0.16998924033E+03  0.12509053353E+03 0.  0.
          5    1    3    3  502    0  0.13146081665E+02  0.25411854855E+02 -0.22107504690E+02  0.36397747100E+02  0.41800000000E+01 0.  1.
         -5    1    3    3    0  502 -0.34055948833E+02  0.13477581432E+02  0.12840467987E+03  0.13359149323E+03  0.41800000000E+01 0.  1.
        -11    1    1    2    0    0 -0.25832478607E+02 -0.23669322478E+02  0.38630117379E+02  0.52152082857E+02  0.00000000000E+00 0.  1.
         11    1    1    2    0    0  0.46742345775E+02 -0.15220113808E+02  0.15954438464E+03  0.16694582781E+03  0.00000000000E+00 0. -1.
</event>
<event>
 6    1  0.2844572E-009  0.2857644E+03  0.7561462E-02  0.1092582E+00
          2   -1    0    0  501    0  0.00000000000E+00  0.00000000000E+00  0.11585367251E+04  0.11585367251E+04  0.00000000000E+00 0.  1.
         -2   -1    0    0    0  501 -0.00000000000E+00 -0.00000000000E+00 -0.87943725779E+02  0.87943725779E+02  0.00000000000E+00 0. -1.
          5    1    1    2  502    0  0.70215390403E+02 -0.27646271697E+02  0.16676474227E+03  0.18309142266E+03  0.41800000000E+01 0. -1.
         -5    1    1    2    0  502  0.21036963711E+03  0.39461165003E+02  0.17348916341E+03  0.27555132005E+03  0.41800000000E+01 0. -1.
        -11    1    1    2    0    0 -0.10009832574E+03 -0.15818129680E+02  0.38553632529E+03  0.39863284632E+03  0.00000000000E+00 0.  1.
         11    1    1    2    0    0 -0.18048670177E+03  0.40032363737E+01  0.34480276830E+03  0.38920486180E+03  0.00000000000E+00 0. -1.
</event>
<event>
 7    1  0.2844572E-009  0.8109987E+02  0.7561462E-02  0.1325959E+00
          2   -1    0    0  501    0  0.00000000000E+00  0.00000000000E+00  0.44838056020E+02  0.44838056020E+02  0.00000000000E+00 0. -1.
         -2   -1    0    0    0  501 -0.00000000000E+00 -0.00000000000E+00 -0.25763826154E+03  0.25763826154E+03  0.00000000000E+00 0.  1.
         25    2    1    2    0    0 -0.31215434898E+02 -0.24485480088E+01 -0.13957040574E+03  0.19002166915E+03  0.12509171764E+03 0.  0.
          5    1    3    3  502    0 -0.14145736179E+02  0.60761686823E+02 -0.78801275100E+02  0.10059422347E+03  0.41800000000E+01 0.  1.
         -5    1    3    3    0  502 -0.17069698719E+02 -0.63210234831E+02 -0.60769130641E+02  0.89427445679E+02  0.41800000000E+01 0.  1.
        -11    1    1    2    0    0  0.15444848128E+02 -0.55129172957E+01 -0.87946037974E+02  0.89461953847E+02  0.00000000000E+00 0.  1.
         11    1    1    2    0    0  0.15770586770E+02  0.79614653045E+01  0.14716238194E+02  0.22992694567E+02  0.00000000000E+00 0. -1.
</event>
<event>
 7    1  0.2844572E-009  0.1335653E+03  0.7561462E-02  0.1222259E+00
         -1   -1    0    0    0  501 -0.00000000000E+00  0.00000000000E+00  0.46185807236E+03  0.46185807236E+03  0.00000000000E+00 0.  1.
          1   -1    0    0  501    0  0.00000000000E+00 -0.00000000000E+00 -0.58580924285E+02  0.58580924285E+02  0.00000000000E+00 0. -1.
         25    2    1    2    0    0  0.20434389445E+02 -0.88044433322E+02  0.80590374401E+02  0.17410262165E+03  0.12509007917E+03 0.  0.
          5    1    3    3  502    0 -0.39329427682E+02 -0.33324571276E+01 -0.44625194837E+01  0.39941152117E+02  0.41800000000E+01 0. -1.
         -5    1    3    3    0  502  0.59763817127E+02 -0.84711976195E+02  0.85052893885E+02  0.13416146953E+03  0.41800000000E+01 0. -1.
        -11    1    1    2    0    0 -0.44768342463E+02  0.15838492965E+02  0.15583194927E+03  0.16290690212E+03  0.00000000000E+00 0.  1.
         11    1    1    2    0    0  0.24333953017E+02  0.72205940358E+02  0.16685482441E+03  0.18342947288E+03  0.00000000000E+00 0. -1.
</event>
<event>
 7    1  0.2844572E-009  0.1404668E+03  0.7561462E-02  0.1212702E+00
         -2   -1    0    0    0  501 -0.00000000000E+00  0.00000000000E+00  0.61146353817E+02  0.61146353817E+02  0.00000000000E+00 0.  1.
          2   -1    0    0  501    0  0.00000000000E+00 -0.00000000000E+00 -0.45583616639E+03  0.45583616639E+03  0.00000000000E+00 0. -1.
         25    2    1    2    0    0 -0.75697183105E+02  0.85431960799E+02 -0.12657196961E+03  0.21141310984E+03  0.12508539509E+03 0.  0.
          5    1    3    3  502    0  0.19966984439E+02  0.53376685025E+01 -0.72259406924E+02  0.75273271894E+02  0.41800000000E+01 0.  1.
         -5    1    3    3    0  502 -0.95664167544E+02  0.80094292297E+02 -0.54312562686E+02  0.13613983795E+03  0.41800000000E+01 0.  1.
        -11    1    1    2    0    0 -0.13005164176E+02 -0.23394864971E+02 -0.15968003473E+02  0.31167790059E+02  0.00000000000E+00 0.  1.
         11    1    1    2    0    0  0.88702347281E+02 -0.62037095828E+02 -0.25214983949E+03  0.27440162030E+03  0.00000000000E+00 0. -1.
</event>
<event>
 7    1  0.2844572E-009  0.7898173E+02  0.7561462E-02  0.1331966E+00
         -2   -1    0    0    0  501 -0.00000000000E+00  0.00000000000E+00  0.11870071779E+03  0.11870071779E+03  0.00000000000E+00 0.  1.
          2   -1    0    0  501    0  0.00000000000E+00 -0.00000000000E+00 -0.17525735771E+03  0.17525735771E+03  0.00000000000E+00 0. -1.
         25    2    1    2    0    0 -0.28615736629E+02 -0.42754150996E+00 -0.12304158591E+03  0.17778132534E+03  0.12509166479E+03 0.  0.
          5    1    3    3  502    0  0.41262797964E+02  0.29817046484E+01 -0.92330491958E+02  0.10126154849E+03  0.41800000000E+01 0. -1.
         -5    1    3    3    0  502 -0.69878534592E+02 -0.34092461584E+01 -0.30711093953E+02  0.76519776842E+02  0.41800000000E+01 0. -1.
        -11    1    1    2    0    0  0.19345892524E+02 -0.17517337293E+02  0.84914431915E+02  0.88834573286E+02  0.00000000000E+00 0.  1.
         11    1    1    2    0    0  0.92698441049E+01  0.17944878803E+02 -0.18429485925E+02  0.27342176878E+02  0.00000000000E+00 0. -1.
</event>
<event>
 7    1  0.2844572E-009  0.1110040E+03  0.7561462E-02  0.1258722E+00
         -2   -1    0    0    0  501 -0.00000000000E+00  0.00000000000E+00  0.18062155115E+03  0.18062155115E+03  0.00000000000E+00 0.  1.
          2   -1    0    0  501    0  0.00000000000E+00 -0.00000000000E+00 -0.84180652477E+02  0.84180652477E+02  0.00000000000E+00 0. -1.
         25    2    1    2    0    0  0.11098920466E+02 -0.57659639370E+02  0.37550305230E+02  0.14319883989E+03  0.12509221509E+03 0.  0.
          5    1    3    3  502    0  0.22888439630E+02  0.34378269886E+02  0.27451364963E+02  0.49767418533E+02  0.41800000000E+01 0. -1.
         -5    1    3    3    0  502 -0.11789519164E+02 -0.92037909256E+02  0.10098940266E+02  0.93431421357E+02  0.41800000000E+01 0. -1.
        -11    1    1    2    0    0  0.27312612713E+02  0.27677527038E+02  0.61549198079E+02  0.72803352260E+02  0.00000000000E+00 0.  1.
         11    1    1    2    0    0 -0.38411533179E+02  0.29982112332E+02 -0.26586046397E+01  0.48800011472E+02  0.00000000000E+00 0. -1.
</event>
<event>
 7    1  0.2844572E-009  0.3289975E+03  0.7561462E-02  0.1071581E+00
         -1   -1    0    0    0  501 -0.00000000000E+00  0.00000000000E+00  0.65041449994E+03  0.65041449994E+03  0.00000000000E+00 0.  1.
          1   -1    0    0  501    0  0.00000000000E+00 -0.00000000000E+00 -0.37622381058E+03  0.37622381058E+03  0.00000000000E+00 0. -1.
         25    2    1    2    0    0 -0.32209992907E+03  0.63757001782E+01 -0.23426922082E+03  0.41751476179E+03  0.12508994615E+03 0.  0.
          5    1    3    3  502    0 -0.55909891738E+02  0.64043108090E+01  0.86868155218E+01  0.57095221823E+02  0.41800000000E+01 0. -1.
         -5    1    3    3    0  502 -0.26619003733E+03 -0.28610630748E-01 -0.24295603634E+03  0.36041953996E+03  0.41800000000E+01 0. -1.
        -11    1    1    2    0    0  0.27554622775E+03  0.28723129518E+02  0.42465866983E+03  0.50703621928E+03  0.00000000000E+00 0. -1.
         11    1    1    2    0    0  0.46553701324E+02 -0.35098829696E+02  0.83801240342E+02  0.10208732946E+03  0.00000000000E+00 0.  1.
</event>
<event>
 7    1  0.2844572E-009  0.1881903E+03  0.7561462E-02  0.1160104E+00
          1   -1    0    0  501    0  0.00000000000E+00  0.00000000000E+00  0.24748234169E+03  0.24748234169E+03  0.00000000000E+00 0. -1.
         -1   -1    0    0    0  501 -0.00000000000E+00 -0.00000000000E+00 -0.15834119141E+03  0.15834119141E+03  0.00000000000E+00 0.  1.
         25    2    1    2    0    0  0.13800380216E+03 -0.91687060516E+02  0.15624768710E+02  0.20819026393E+03  0.12508991214E+03 0.  0.
          5    1    3    3  502    0  0.15841033698E+03 -0.66043038106E+02  0.77979169217E-01  0.17167701135E+03  0.41800000000E+01 0. -1.
         -5    1    3    3    0  502 -0.20406534821E+02 -0.25644022410E+02  0.15546789540E+02  0.36513252578E+02  0.41800000000E+01 0. -1.
        -11    1    1    2    0    0 -0.56643818785E+02  0.12243055927E+02  0.59501401017E+02  0.83059203872E+02  0.00000000000E+00 0. -1.
         11    1    1    2    0    0 -0.81359983376E+02  0.79444004589E+02  0.14014980554E+02  0.11457406530E+03  0.00000000000E+00 0.  1.
</event>
<event>
 7    1  0.2844572E-009  0.1214493E+03  0.7561462E-02  0.1240725E+00
         -2   -1    0    0    0  501 -0.00000000000E+00  0.00000000000E+00  0.26086860770E+02  0.26086860770E+02  0.00000000000E+00 0.  1.
          2   -1    0    0  501    0  0.00000000000E+00 -0.00000000000E+00 -0.59001314406E+03  0.59001314406E+03  0.00000000000E+00 0. -1.
         25    2    1    2    0    0 -0.17953150508E+02  0.51980059704E+02 -0.27155731266E+03  0.30399845026E+03  0.12508973370E+03 0.  0.
          5    1    3    3  502    0 -0.49740082430E+02  0.78034812011E+02 -0.15791125991E+03  0.18307633952E+03  0.41800000000E+01 0.  1.
         -5    1    3    3    0  502  0.31786931922E+02 -0.26054752308E+02 -0.11364605275E+03  0.12092211073E+03  0.41800000000E+01 0.  1.
        -11    1    1    2    0    0 -0.22616570890E+02  0.17431266077E+02 -0.86463140921E+02  0.91056208211E+02  0.00000000000E+00 0.  1.
         11    1    1    2    0    0  0.40569721398E+02 -0.69411325781E+02 -0.20590582971E+03  0.22104534636E+03  0.00000000000E+00 0. -1.
</event>
<event>
 7    1  0.2844572E-009  0.7108714E+02  0.7561462E-02  0.1356435E+00
          2   -1    0    0  501    0  0.00000000000E+00  0.00000000000E+00  0.28321274526E+02  0.28321274526E+02  0.00000000000E+00 0. -1.
         -2   -1    0    0    0  501 -0.00000000000E+00 -0.00000000000E+00 -0.45385618131E+03  0.45385618131E+03  0.00000000000E+00 0.  1.
         25    2    1    2    0    0 -0.17134857124E+02  0.13085375553E+02 -0.21297899592E+03  0.24793482392E+03  0.12508714495E+03 0.  0.
          5    1    3    3  502    0 -0.13729171674E+02  0.26394149290E+02  0.41524012014E+01  0.30329129683E+02  0.41800000000E+01 0.  1.
         -5    1    3    3    0  502 -0.34056854497E+01 -0.13308773736E+02 -0.21713139712E+03  0.21760569424E+03  0.41800000000E+01 0.  1.
        -11    1    1    2    0    0 -0.94012246042E+01  0.38569637964E+02 -0.73227697297E+02  0.83296432385E+02  0.00000000000E+00 0. -1.
         11    1    1    2    0    0  0.26536081728E+02 -0.51655013517E+02 -0.13932821357E+03  0.15094619953E+03  0.00000000000E+00 0.  1.
</event>
<event>
 7    1  0.2844572E-009  0.1184877E+03  0.7561462E-02  0.1245613E+00
          4   -1    0    0  501    0  0.00000000000E+00  0.00000000000E+00  0.18331293295E+03  0.18331293295E+03  0.00000000000E+00 0.  1.
         -4   -1    0    0    0  501 -0.00000000000E+00 -0.00000000000E+00 -0.87285018993E+02  0.87285018993E+02  0.00000000000E+00 0. -1.
         25    2    1    2    0    0 -0.40082465080E+02  0.47280474940E+02  0.33594597973E+02  0.14359027252E+03  0.12509005568E+03 0.  0.
          5    1    3    3  502    0  0.42537995512E+02 -0.82249266141E+00  0.19023773612E+02  0.46792455789E+02  0.41800000000E+01 0. -1.
         -5    1    3    3    0  502 -0.82620460592E+02  0.48102967602E+02  0.14570824362E+02  0.96797816727E+02  0.41800000000E+01 0. -1.
        -11    1    1    2    0    0 -0.22367637721E+02 -0.21313518115E+02 -0.52329453649E+01  0.31336256778E+02  0.00000000000E+00 0. -1.
         11    1    1    2    0    0  0.62450102801E+02 -0.25966956826E+02  0.67666261345E+02  0.95671422646E+02  0.00000000000E+00 0.  1.
</event>
<event>
 7    1  0.2844572E-009  0.1605830E+03  0.7561462E-02  0.1188040E+00
         -3   -1    0    0    0  501 -0.00000000000E+00  0.00000000000E+00  0.47954227837E+03  0.47954227837E+03  0.00000000000E+00 0.  1.
          3   -1    0    0  501    0  0.00000000000E+00 -0.00000000000E+00 -0.78000936798E+02  0.78000936798E+02  0.00000000000E+00 0. -1.
         25    2    1    2    0    0 -0.53529312956E+01 -0.14733465345E+03  0.12299415619E+03  0.22915342406E+03  0.12509026870E+03 0.  0.
          5    1    3    3  502    0  0.72382106825E+01 -0.15671578255E+03  0.13652286881E+03  0.20801008221E+03  0.41800000000E+01 0.  1.
         -5    1    3    3    0  502 -0.12591141978E+02  0.93811291057E+01 -0.13528712618E+02  0.21143341853E+02  0.41800000000E+01 0.  1.
        -11    1    1    2    0    0 -0.36763425027E+01  0.20796149354E+02 -0.12716114552E+01  0.21156850377E+02  0.00000000000E+00 0. -1.
         11    1    1    2    0    0  0.90292737983E+01  0.12653850409E+03  0.27981879684E+03  0.30723294072E+03  0.00000000000E+00 0.  1.
</event>
<event>
 7    1  0.2844572E-009  0.1070630E+03  0.7561462E-02  0.1266107E+00
         -2   -1    0    0    0  501 -0.00000000000E+00  0.00000000000E+00  0.13972825698E+03  0.13972825698E+03  0.00000000000E+00 0.  1.
          2   -1    0    0  501    0  0.00000000000E+00 -0.00000000000E+00 -0.13918195938E+03  0.13918195938E+03  0.00000000000E+00 0. -1.
         25    2    1    2    0    0  0.78857024850E+02 -0.37520561051E+01  0.33215401202E+02  0.15160184918E+03  0.12508936607E+03 0.  0.
          5    1    3    3  502    0  0.62559287547E+02  0.35156558813E+02  0.66330151746E+02  0.97810068585E+02  0.41800000000E+01 0.  1.
         -5    1    3    3    0  502  0.16297737303E+02 -0.38908614918E+02 -0.33114750544E+02  0.53791780595E+02  0.41800000000E+01 0.  1.
        -11    1    1    2    0    0 -0.31029398212E+01  0.21766097858E+02  0.22823955387E+02  0.31691074311E+02  0.00000000000E+00 0.  1.
         11    1    1    2    0    0 -0.75754085029E+02 -0.18014041753E+02 -0.55493058989E+02  0.95617292865E+02  0.00000000000E+00 0. -1.
</event>
<event>
 7    1  0.2844572E-009  0.1104927E+03  0.7561462E-02  0.1259660E+00
          2   -1    0    0  501    0  0.00000000000E+00  0.00000000000E+00  0.45786008100E+03  0.45786008100E+03  0.00000000000E+00 0. -1.
         -2   -1    0    0    0  501 -0.00000000000E+00 -0.00000000000E+00 -0.38288000481E+02  0.38288000481E+02  0.00000000000E+00 0.  1.
         25    2    1    2    0    0  0.53832788876E+02 -0.33441417007E+02  0.29932266723E+03  0.33053825601E+03  0.12508070212E+03 0.  0.
          5    1    3    3  502    0  0.38166295299E+02 -0.75349375030E+02  0.24951321123E+03  0.26345494755E+03  0.41800000000E+01 0. -1.
         -5    1    3    3    0  502  0.15666493577E+02  0.41907958023E+02  0.49809456003E+02  0.67083308460E+02  0.41800000000E+01 0. -1.
        -11    1    1    2    0    0 -0.69423817848E+02  0.25270241066E+02  0.41132643002E+02  0.84558535279E+02  0.00000000000E+00 0.  1.
         11    1    1    2    0    0  0.15591028971E+02  0.81711759402E+01  0.79116770291E+02  0.81051290193E+02  0.00000000000E+00 0. -1.
</event>
<event>
 7    1  0.2844572E-009  0.1009772E+03  0.7561462E-02  0.1278254E+00
         -2   -1    0    0    0  501 -0.00000000000E+00  0.00000000000E+00  0.21988015960E+02  0.21988015960E+02  0.00000000000E+00 0.  1.
          2   -1    0    0  501    0  0.00000000000E+00 -0.00000000000E+00 -0.87865672760E+03  0.87865672760E+03  0.00000000000E+00 0. -1.
         25    2    1    2    0    0 -0.68894326371E+01 -0.23860655255E+02 -0.75477290295E+03  0.76547240017E+03  0.12509622394E+03 0.  0.
          5    1    3    3  502    0  0.22582481394E+02 -0.67466663553E+02 -0.34279350828E+03  0.35012366512E+03  0.41800000000E+01 0. -1.
         -5    1    3    3    0  502 -0.29471914031E+02  0.43606008299E+02 -0.41197939467E+03  0.41534873505E+03  0.41800000000E+01 0. -1.
        -11    1    1    2    0    0  0.27274098185E+02 -0.17061095709E+02 -0.12031156555E+02  0.34346850608E+02  0.00000000000E+00 0.  1.
         11    1    1    2    0    0 -0.20384665548E+02  0.40921750964E+02 -0.89864652135E+02  0.10082549278E+03  0.00000000000E+00 0. -1.
</event>
<event>
 7    1  0.2844572E-009  0.9140295E+02  0.7561462E-02  0.1299489E+00
         -1   -1    0    0    0  501 -0.00000000000E+00  0.00000000000E+00  0.38733342945E+02  0.38733342945E+02  0.00000000000E+00 0.  1.
          1   -1    0    0  501    0  0.00000000000E+00 -0.00000000000E+00 -0.63389927593E+03  0.63389927593E+03  0.00000000000E+00 0. -1.
         25    2    1    2    0    0  0.58375609798E+02  0.18470830744E+02 -0.52568186688E+03  0.54381621271E+03  0.12508303095E+03 0.  0.
          5    1    3    3  502    0  0.19411251162E+02  0.27695225240E+02 -0.26908606751E+02  0.43420820927E+02  0.41800000000E+01 0. -1.
         -5    1    3    3    0  502  0.38964358637E+02 -0.92243944955E+01 -0.49877326013E+03  0.50039539178E+03  0.41800000000E+01 0. -1.
        -11    1    1    2    0    0 -0.14222453338E+02  0.35790902605E+02 -0.24822143379E+02  0.45819272038E+02  0.00000000000E+00 0.  1.
         11    1    1    2    0    0 -0.44153156460E+02 -0.54261733349E+02 -0.44661922725E+02  0.82997134125E+02  0.00000000000E+00 0. -1.
</event>
<event>
 7    1  0.2844572E-009  0.1433151E+03  0.7561462E-02  0.1208937E+00
         -1   -1    0    0    0  501 -0.00000000000E+00  0.00000000000E+00  0.39605217194E+02  0.39605217194E+02  0.00000000000E+00 0.  1.
          1   -1    0    0  501    0  0.00000000000E+00 -0.00000000000E+00 -0.81738202816E+03  0.81738202816E+03  0.00000000000E+00 0. -1.
         25    2    1    2    0    0  0.12181658949E+03 -0.40690204132E+02 -0.58134827363E+03  0.60836440705E+03  0.12508581982E+03 0.  0.
          5    1    3    3  502    0  0.69446507851E+02 -0.46189925056E+02 -0.13388626724E+03  0.15779522041E+03  0.41800000000E+01 0. -1.
         -5    1    3    3    0  502  0.52370081635E+02  0.54997209237E+01 -0.44746200640E+03  0.45056918664E+03  0.41800000000E+01 0. -1.
        -11    1    1    2    0    0 -0.12628544320E+02 -0.21282945690E+02 -0.18682732744E+02  0.31007876607E+02  0.00000000000E+00 0.  1.
         11    1    1    2    0    0 -0.10918804517E+03  0.61973149822E+02 -0.17774580459E+03  0.21761496170E+03  0.00000000000E+00 0. -1.
</event>
<event>
 7    1  0.2844572E-009  0.1530869E+03  0.7561462E-02  0.1196730E+00
          1   -1    0    0  501    0  0.00000000000E+00  0.00000000000E+00  0.56406152490E+03  0.56406152490E+03  0.00000000000E+00 0. -1.
         -1   -1    0    0    0  501 -0.00000000000E+00 -0.00000000000E+00 -0.45292680519E+02  0.45292680519E+02  0.00000000000E+00 0.  1.
         25    2    1    2    0    0  0.52953150292E+02 -0.10107949381E+03  0.32819814614E+03  0.36929562185E+03  0.12507650855E+03 0.  0.
          5    1    3    3  502    0  0.29684599100E+02 -0.12458950807E+03  0.29770443402E+03  0.32411282508E+03  0.41800000000E+01 0. -1.
         -5    1    3    3    0  502  0.23268551192E+02  0.23510014262E+02  0.30493712126E+02  0.45182796775E+02  0.41800000000E+01 0. -1.
        -11    1    1    2    0    0 -0.40773859068E+02 -0.20653968456E+01  0.68894781976E+02  0.80082859782E+02  0.00000000000E+00 0.  1.
         11    1    1    2    0    0 -0.12179291224E+02  0.10314489065E+03  0.12167591626E+03  0.15997572378E+03  0.00000000000E+00 0. -1.
</event>
<event>
 7    1  0.2844572E-009  0.1057779E+03  0.7561462E-02  0.1268594E+00
          3   -1    0    0  501    0  0.00000000000E+00  0.00000000000E+00  0.47943234060E+02  0.47943234060E+02  0.00000000000E+00 0. -1.
         -3   -1    0    0    0  501 -0.00000000000E+00 -0.00000000000E+00 -0.27914212868E+03  0.27914212868E+03  0.00000000000E+00 0.  1.
         25    2    1    2    0    0 -0.25166134139E+02  0.22856612603E+02 -0.90073582412E+02  0.15784989376E+03  0.12509028606E+03 0.  0.
          5    1    3    3  502    0 -0.41798212819E+02  0.66732192866E+02 -0.37681684309E+02  0.87393694807E+02  0.41800000000E+01 0. -1.
         -5    1    3    3    0  502  0.16632078680E+02 -0.43875580263E+02 -0.52391898103E+02  0.70456198958E+02  0.41800000000E+01 0. -1.
        -11    1    1    2    0    0 -0.14267568258E+02  0.21778489483E+02 -0.15741252021E+02  0.30424548038E+02  0.00000000000E+00 0. -1.
         11    1    1    2    0    0  0.39433702397E+02 -0.44635102085E+02 -0.12538406019E+03  0.13881092094E+03  0.00000000000E+00 0.  1.
</event>
<event>
 7    1  0.2844572E-009  0.1105496E+03  0.7561462E-02  0.1259555E+00
         -1   -1    0    0    0  501 -0.00000000000E+00  0.00000000000E+00  0.11665100556E+02  0.11665100556E+02  0.00000000000E+00 0.  1.
          1   -1    0    0  501    0  0.00000000000E+00 -0.00000000000E+00 -0.12227314831E+04  0.12227314831E+04  0.00000000000E+00 0. -1.
         25    2    1    2    0    0 -0.17087273825E+02  0.23704844448E+02 -0.90087757251E+03  0.90999005503E+03  0.12509038745E+03 0.  0.
          5    1    3    3  502    0  0.50688947148E+02  0.31251812917E+02 -0.45782445002E+03  0.46169984255E+03  0.41800000000E+01 0. -1.
         -5    1    3    3    0  502 -0.67776220973E+02 -0.75469684695E+01 -0.44305312249E+03  0.44829021249E+03  0.41800000000E+01 0. -1.
        -11    1    1    2    0    0 -0.34905459885E+02  0.22342230230E+01 -0.86733202028E+02  0.93520218222E+02  0.00000000000E+00 0.  1.
         11    1    1    2    0    0  0.51992733709E+02 -0.25939067471E+02 -0.22345560799E+03  0.23088631039E+03  0.00000000000E+00 0. -1.
</event>
<event>
 7    1  0.2844572E-009  0.9875309E+02  0.7561462E-02  0.1282940E+00
          1   -1    0    0  501    0  0.00000000000E+00  0.00000000000E+00  0.89315125873E+02  0.89315125873E+02  0.00000000000E+00 0. -1.
         -1   -1    0    0    0  501 -0.00000000000E+00 -0.00000000000E+00 -0.15567333720E+03  0.15567333720E+03  0.00000000000E+00 0.  1.
         25    2    1    2    0    0 -0.20242059990E+02  0.49225077547E+00  0.68752437220E+01  0.12690610062E+03  0.12509159083E+03 0.  0.
          5    1    3    3  502    0  0.47757589628E+02  0.24509880061E+02  0.92419803485E+01  0.54629737217E+02  0.41800000000E+01 0. -1.
         -5    1    3    3    0  502 -0.67999649618E+02 -0.24017629285E+02 -0.23667366265E+01  0.72276363404E+02  0.41800000000E+01 0. -1.
        -11    1    1    2    0    0 -0.20429433711E+02  0.17549941446E+02  0.56472663976E+01  0.27518245298E+02  0.00000000000E+00 0. -1.
         11    1    1    2    0    0  0.40671493701E+02 -0.18042192222E+02 -0.78880721448E+02  0.90564117156E+02  0.00000000000E+00 0.  1.
</event>
<event>
 7    1  0.2844572E-009  0.1229902E+03  0.7561462E-02  0.1238244E+00
          2   -1    0    0  501    0  0.00000000000E+00  0.00000000000E+00  0.16432297836E+03  0.16432297836E+03  0.00000000000E+00 0. -1.
         -2   -1    0    0    0  501 -0.00000000000E+00 -0.00000000000E+00 -0.10505581188E+03  0.10505581188E+03  0.00000000000E+00 0.  1.
         25    2    1    2    0    0 -0.51088301241E+02 -0.47684280009E+02  0.46459948316E+02  0.15062562843E+03  0.12508296470E+03 0.  0.
          5    1    3    3  502    0  0.24680621794E+02 -0.61128732660E+02  0.17899496821E+02  0.68437704777E+02  0.41800000000E+01 0. -1.
         -5    1    3    3    0  502 -0.75768923035E+02  0.13444452650E+02  0.28560451495E+02  0.82187923654E+02  0.41800000000E+01 0. -1.
        -11    1    1    2    0    0  0.48904658398E+01  0.55748476065E+02  0.35891490134E+02  0.66483143004E+02  0.00000000000E+00 0. -1.
         11    1    1    2    0    0  0.46197835401E+02 -0.80641960556E+01 -0.23084271961E+02  0.52270018804E+02  0.00000000000E+00 0.  1.
</event>
<event>
 7    1  0.2844572E-009  0.2142839E+03  0.7561462E-02  0.1138218E+00
         -4   -1    0    0    0  501 -0.00000000000E+00  0.00000000000E+00  0.88068003427E+03  0.88068003427E+03  0.00000000000E+00 0. -1.
          4   -1    0    0  501    0  0.00000000000E+00 -0.00000000000E+00 -0.58556439999E+02  0.58556439999E+02  0.00000000000E+00 0.  1.
         25    2    1    2    0    0  0.18538040490E+03 -0.70142895766E+02  0.39367666825E+03  0.45816442615E+03  0.12508957560E+03 0.  0.
          5    1    3    3  502    0  0.20042058387E+03 -0.53627895945E+02  0.37565755096E+03  0.42916247466E+03  0.41800000000E+01 0. -1.
         -5    1    3    3    0  502 -0.15040178972E+02 -0.16514999821E+02  0.18019117284E+02  0.29001951491E+02  0.41800000000E+01 0. -1.
        -11    1    1    2    0    0 -0.29500707229E+02  0.84670716633E+01  0.13476759622E+02  0.33520233881E+02  0.00000000000E+00 0.  1.
         11    1    1    2    0    0 -0.15587969767E+03  0.61675824102E+02  0.41497016640E+03  0.44755181424E+03  0.00000000000E+00 0. -1.
</event>
<event>
 7    1  0.2844572E-009  0.1163905E+03  0.7561462E-02  0.1249173E+00
         -1   -1    0    0    0  501 -0.00000000000E+00  0.00000000000E+00  0.13166266006E+03  0.13166266006E+03  0.00000000000E+00 0.  1.
          1   -1    0    0  501    0  0.00000000000E+00 -0.00000000000E+00 -0.11002503181E+03  0.11002503181E+03  0.00000000000E+00 0. -1.
         25    2    1    2    0    0  0.22971992949E+02  0.44172624314E+02  0.17058479859E+02  0.13570981331E+03  0.12508888238E+03 0.  0.
          5    1    3    3  502    0 -0.44300288546E+02  0.44277021400E+02 -0.90614965555E+01  0.63423602146E+02  0.41800000000E+01 0. -1.
         -5    1    3    3    0  502  0.67272281495E+02 -0.10439708608E+00  0.26119976415E+02  0.72286211163E+02  0.41800000000E+01 0. -1.
        -11    1    1    2    0    0  0.26275559199E+02 -0.46383464692E+02  0.15437433780E+02  0.55499055575E+02  0.00000000000E+00 0. -1.
         11    1    1    2    0    0 -0.49247552148E+02  0.22108403778E+01 -0.10858285391E+02  0.50478822979E+02  0.00000000000E+00 0.  1.
</event>
<event>
 7    1  0.2844572E-009  0.1109689E+03  0.7561462E-02  0.1258786E+00
          2   -1    0    0  501    0  0.00000000000E+00  0.00000000000E+00  0.78431414897E+03  0.78431414897E+03  0.00000000000E+00 0.  1.
         -2   -1    0    0    0  501 -0.00000000000E+00 -0.00000000000E+00 -0.17525910395E+02  0.17525910395E+02  0.00000000000E+00 0. -1.
         25    2    1    2    0    0  0.17721900414E+02 -0.24427406928E+02  0.32223903958E+03  0.34696859239E+03  0.12505375449E+03 0.  0.
          5    1    3    3  502    0  0.50835807851E+02 -0.58954729809E+02  0.16367933472E+03  0.18129626731E+03  0.41800000000E+01 0. -1.
         -5    1    3    3    0  502 -0.33113907437E+02  0.34527322881E+02  0.15855970486E+03  0.16567232507E+03  0.41800000000E+01 0. -1.
        -11    1    1    2    0    0  0.34621420312E+02  0.26460171557E+02  0.18152680818E+03  0.18668359733E+03  0.00000000000E+00 0.  1.
         11    1    1    2    0    0 -0.52343320726E+02 -0.20327646283E+01  0.26302239082E+03  0.26818786965E+03  0.00000000000E+00 0. -1.
</event>
<event>
 7    1  0.2844572E-009  0.1194189E+03  0.7561462E-02  0.1244059E+00
         -1   -1    0    0    0  501 -0.00000000000E+00  0.00000000000E+00  0.86363693075E+02  0.86363693075E+02  0.00000000000E+00 0.  1.
          1   -1    0    0  501    0  0.00000000000E+00 -0.00000000000E+00 -0.27860438866E+03  0.27860438866E+03  0.00000000000E+00 0. -1.
         25    2    1    2    0    0  0.74735027808E+02  0.22004195282E+02 -0.10966243878E+02  0.14777794867E+03  0.12509418298E+03 0.  0.
          5    1    3    3  502    0  0.63979429204E+02 -0.27910943509E+02  0.35669067735E+02  0.78499317971E+02  0.41800000000E+01 0.  1.
         -5    1    3    3    0  502  0.10755598604E+02  0.49915138792E+02 -0.46635311613E+02  0.69278630696E+02  0.41800000000E+01 0.  1.
        -11    1    1    2    0    0  0.95050309464E+01  0.21033438326E+02 -0.21680506705E+02  0.31666946681E+02  0.00000000000E+00 0.  1.
         11    1    1    2    0    0 -0.84240058754E+02 -0.43037633609E+02 -0.15959394500E+03  0.18552318639E+03  0.00000000000E+00 0. -1.
</event>
<event>
 7    1  0.2844572E-009  0.1385907E+03  0.7561462E-02  0.1215238E+00
          1   -1    0    0  501    0  0.00000000000E+00  0.00000000000E+00  0.23969087901E+03  0.23969087901E+03  0.00000000000E+00 0. -1.
         -1   -1    0    0    0  501 -0.00000000000E+00 -0.00000000000E+00 -0.33229472105E+03  0.33229472105E+03  0.00000000000E+00 0.  1.
         25    2    1    2    0    0  0.26221019546E+02  0.10326080057E+03  0.19289836685E+03  0.25339178870E+03  0.12508910363E+03 0.  0.
          5    1    3    3  502    0 -0.25368177146E+02  0.84043668370E+02  0.52134951416E+02  0.10218810187E+03  0.41800000000E+01 0.  1.
         -5    1    3    3    0  502  0.51589196693E+02  0.19217132202E+02  0.14076341544E+03  0.15120368683E+03  0.41800000000E+01 0.  1.
        -11    1    1    2    0    0 -0.51703209312E+02 -0.38423078306E+02 -0.18823304596E+03  0.19895033147E+03  0.00000000000E+00 0.  1.
         11    1    1    2    0    0  0.25482189766E+02 -0.64837722266E+02 -0.97269162931E+02  0.11964347989E+03  0.00000000000E+00 0. -1.
</event>
<event>
 7    1  0.2844572E-009  0.1073752E+03  0.7561462E-02  0.1265509E+00
          2   -1    0    0  501    0  0.00000000000E+00  0.00000000000E+00  0.83715013577E+02  0.83715013577E+02  0.00000000000E+00 0. -1.
         -2   -1    0    0    0  501 -0.00000000000E+00 -0.00000000000E+00 -0.14467794576E+03  0.14467794576E+03  0.00000000000E+00 0.  1.
         25    2    1    2    0    0  0.85416805422E+01 -0.83675910114E+01 -0.36980687936E+02  0.13098076157E+03  0.12508162029E+03 0.  0.
          5    1    3    3  502    0 -0.49584950889E+02 -0.35085607133E+02 -0.24699904851E+02  0.65705592473E+02  0.41800000000E+01 0.  1.
         -5    1    3    3    0  502  0.58126631431E+02  0.26718016121E+02 -0.12280783086E+02  0.65275169094E+02  0.41800000000E+01 0.  1.
        -11    1    1    2    0    0  0.88471678978E+01  0.46769635280E+02 -0.27735026930E+02  0.55089952649E+02  0.00000000000E+00 0.  1.
         11    1    1    2    0    0 -0.17388848440E+02 -0.38402044269E+02  0.37527826852E+01  0.42322245120E+02  0.00000000000E+00 0. -1.
</event>
<event>
 7    1  0.2844572E-009  0.7770262E+02  0.7561462E-02  0.1335700E+00
          1   -1    0    0  501    0  0.00000000000E+00  0.00000000000E+00  0.27471185897E+03  0.27471185897E+03  0.00000000000E+00 0. -1.
         -1   -1    0    0    0  501 -0.00000000000E+00 -0.00000000000E+00 -0.53473477447E+02  0.53473477447E+02  0.00000000000E+00 0.  1.
         25    2    1    2    0    0 -0.37160849884E+02  0.23500928019E+02  0.79733469412E+02  0.15472019370E+03  0.12509072632E+03 0.  0.
          5    1    3    3  502    0 -0.37155773334E+02  0.58139098674E+01 -0.26978151386E+02  0.46471992557E+02  0.41800000000E+01 0. -1.
         -5    1    3    3    0  502 -0.50765500002E-02  0.17687018151E+02  0.10671162080E+03  0.10824820114E+03  0.41800000000E+01 0. -1.
        -11    1    1    2    0    0 -0.51226022517E+01 -0.49493465734E+02  0.82686897661E+02  0.96503716245E+02  0.00000000000E+00 0. -1.
         11    1    1    2    0    0  0.42283452135E+02  0.25992537715E+02  0.58818014453E+02  0.76961426478E+02  0.00000000000E+00 0.  1.
</event>
<event>
 6    1  0.2844572E-009  0.1096607E+03  0.7561462E-02  0.1261199E+00
         -2   -1    0    0    0  501 -0.00000000000E+00  0.00000000000E+00  0.62082789795E+02  0.62082789795E+02  0.00000000000E+00 0.  1.
          2   -1    0    0  501    0  0.00000000000E+00 -0.00000000000E+00 -0.38264801190E+03  0.38264801190E+03  0.00000000000E+00 0. -1.
          5    1    1    2  502    0  0.41665046117E+02 -0.60179982732E+02  0.90326093509E+00  0.73320492837E+02  0.41800000000E+01 0. -1.
         -5    1    1    2    0  502  0.38776513239E+02 -0.38769444300E+01 -0.12428658695E+03  0.13031990167E+03  0.41800000000E+01 0. -1.
        -11    1    1    2    0    0 -0.60799016353E+02  0.30718979427E+02 -0.39526754014E+02  0.78756208449E+02  0.00000000000E+00 0.  1.
         11    1    1    2    0    0 -0.19642543003E+02  0.33337947735E+02 -0.15765514208E+03  0.16233419873E+03  0.00000000000E+00 0. -1.
</event>
<event>
 7    1  0.2844572E-009  0.5735109E+02  0.7561462E-02  0.1409297E+00
          1   -1    0    0  501    0  0.00000000000E+00  0.00000000000E+00  0.90916815397E+02  0.90916815397E+02  0.00000000000E+00 0. -1.
         -1   -1    0    0    0  501 -0.00000000000E+00 -0.00000000000E+00 -0.14560517781E+03  0.14560517781E+03  0.00000000000E+00 0.  1.
         25    2    1    2    0    0 -0.30024703411E+02 -0.23112483258E+02 -0.29989337981E+02  0.13410273635E+03  0.12509401986E+03 0.  0.
          5    1    3    3  502    0 -0.10937343548E+01  0.16489188027E+01  0.47466304636E+02  0.47691064822E+02  0.41800000000E+01 0.  1.
         -5    1    3    3    0  502 -0.28930969056E+02 -0.24761402061E+02 -0.77455642616E+02  0.86411671524E+02  0.41800000000E+01 0.  1.
        -11    1    1    2    0    0  0.34196089433E+02 -0.12126993215E+02 -0.47849343124E+02  0.60049946997E+02  0.00000000000E+00 0.  1.
         11    1    1    2    0    0 -0.41713860214E+01  0.35239476473E+02  0.23150318688E+02  0.42369309869E+02  0.00000000000E+00 0. -1.
</event>
<event>
 7    1  0.2844572E-009  0.6994019E+02  0.7561462E-02  0.1360297E+00
          1   -1    0    0  501    0  0.00000000000E+00  0.00000000000E+00  0.73450471616E+03  0.73450471616E+03  0.00000000000E+00 0. -1.
         -1   -1    0    0    0  501 -0.00000000000E+00 -0.00000000000E+00 -0.19065902535E+02  0.19065902535E+02  0.00000000000E+00 0.  1.
         25    2    1    2    0    0  0.15959650120E+02  0.43541542582E+02  0.43879814679E+03  0.45863147780E+03  0.12509373462E+03 0.  0.
          5    1    3    3  502    0  0.10432191225E+02 -0.11818566634E+02  0.36860813625E+03  0.36896875158E+03  0.41800000000E+01 0.  1.
         -5    1    3    3    0  502  0.55274588943E+01  0.55360109216E+02  0.70190010540E+02  0.89662726224E+02  0.41800000000E+01 0.  1.
        -11    1    1    2    0    0 -0.33768415829E+02 -0.32237686530E+02  0.26817824670E+03  0.27221158378E+03  0.00000000000E+00 0. -1.
         11    1    1    2    0    0  0.17808765710E+02 -0.11303856052E+02  0.84624201307E+01  0.22727557110E+02  0.00000000000E+00 0.  1.
</event>
<event>
 6    1  0.2844572E-009  0.1047427E+03  0.7561462E-02  0.1270627E+00
         -3   -1    0    0    0  501 -0.00000000000E+00  0.00000000000E+00  0.62691030016E+03  0.62691030016E+03  0.00000000000E+00 0.  1.
          3   -1    0    0  501    0  0.00000000000E+00 -0.00000000000E+00 -0.19398985989E+02  0.19398985989E+02  0.00000000000E+00 0. -1.
          5    1    1    2  502    0 -0.49661753173E+02 -0.57022601929E+02  0.19715946258E+03  0.21120414992E+03  0.41800000000E+01 0.  1.
         -5    1    1    2    0  502  0.42079359461E+02  0.30362948318E+02  0.15484316486E+03  0.16335990704E+03  0.41800000000E+01 0.  1.
        -11    1    1    2    0    0  0.17160927892E+02 -0.24352500620E+02  0.16273359672E+03  0.16543810091E+03  0.00000000000E+00 0.  1.
         11    1    1    2    0    0 -0.95785341793E+01  0.51012154230E+02  0.92775090013E+02  0.10630712828E+03  0.00000000000E+00 0. -1.
</event>
<event>
 7    1  0.2844572E-009  0.1407917E+03  0.7561462E-02  0.1212268E+00
         -2   -1    0    0    0  501 -0.00000000000E+00  0.00000000000E+00  0.66506283055E+03  0.66506283055E+03  0.00000000000E+00 0.  1.
          2   -1    0    0  501    0  0.00000000000E+00 -0.00000000000E+00 -0.34836867553E+02  0.34836867553E+02  0.00000000000E+00 0. -1.
         25    2    1    2    0    0  0.84517460628E+02  0.37560736552E+02  0.46380024538E+03  0.48919621919E+03  0.12509301808E+03 0.  0.
          5    1    3    3  502    0 -0.20265668356E+02 -0.25247495461E+02  0.80124654567E+02  0.86519165567E+02  0.41800000000E+01 0. -1.
         -5    1    3    3    0  502  0.10478312898E+03  0.62808232013E+02  0.38367559081E+03  0.40267705362E+03  0.41800000000E+01 0. -1.
        -11    1    1    2    0    0 -0.91232659654E+02 -0.27748849261E+01  0.99805186367E+02  0.13524856154E+03  0.00000000000E+00 0. -1.
         11    1    1    2    0    0  0.67151990256E+01 -0.34785851626E+02  0.66620531255E+02  0.75454917374E+02  0.00000000000E+00 0.  1.
</event>
<event>
 7    1  0.2844572E-009  0.6247374E+02  0.7561462E-02  0.1387734E+00
          2   -1    0    0  501    0  0.00000000000E+00  0.00000000000E+00  0.68946702937E+03  0.68946702937E+03  0.00000000000E+00 0. -1.
         -2   -1    0    0    0  501 -0.00000000000E+00 -0.00000000000E+00 -0.17514080823E+02  0.17514080823E+02  0.00000000000E+00 0.  1.
         25    2    1    2    0    0 -0.15495604890E+02 -0.92709288983E+01  0.42033216618E+03  0.43892251344E+03  0.12509108275E+03 0.  0.
          5    1    3    3  502    0 -0.13269791977E+02 -0.21310125754E+02  0.84186316087E+01  0.26805868703E+02  0.41800000000E+01 0. -1.
         -5    1    3    3    0  502 -0.22258129131E+01  0.12039196856E+02  0.41191353457E+03  0.41211664473E+03  0.41800000000E+01 0. -1.
        -11    1    1    2    0    0  0.29416403823E+02  0.41837371123E+02  0.19215604840E+03  0.19884576278E+03  0.00000000000E+00 0.  1.
         11    1    1    2    0    0 -0.13920798933E+02 -0.32566442224E+02  0.59464733966E+02  0.69212833981E+02  0.00000000000E+00 0. -1.
</event>
<event>
 7    1  0.2844572E-009  0.2689003E+03  0.7561462E-02  0.1101911E+00
         -2   -1    0    0    0  501 -0.00000000000E+00  0.00000000000E+00  0.95294288987E+02  0.95294288987E+02  0.00000000000E+00 0.  1.
          2   -1    0    0  501    0  0.00000000000E+00 -0.00000000000E+00 -0.10371446389E+04  0.10371446389E+04  0.00000000000E+00 0. -1.
         25    2    1    2    0    0 -0.25587067707E+03  0.57642074663E+02 -0.23795643883E+03  0.37558418725E+03  0.12509117786E+03 0.  0.
          5    1    3    3  502    0 -0.12154471833E+03  0.23796644397E+02 -0.19398357719E+03  0.23018796549E+03  0.41800000000E+01 0.  1.
         -5    1    3    3    0  502 -0.13432595874E+03  0.33845430265E+02 -0.43972861637E+02  0.14539622176E+03  0.41800000000E+01 0.  1.
        -11    1    1    2    0    0  0.52936840776E+02 -0.49060653684E+02 -0.14028135112E+03  0.15775967268E+03  0.00000000000E+00 0.  1.
         11    1    1    2    0    0  0.20293383629E+03 -0.85814209785E+01 -0.56361255995E+03  0.59909506794E+03  0.00000000000E+00 0. -1.
</event>
<event>
 7    1  0.2844572E-009  0.1247214E+03  0.7561462E-02  0.1235505E+00
         -1   -1    0    0    0  501 -0.00000000000E+00  0.00000000000E+00  0.20551261920E+02  0.20551261920E+02  0.00000000000E+00 0. -1.
          1   -1    0    0  501    0  0.00000000000E+00 -0.00000000000E+00 -0.12294190673E+04  0.12294190673E+04  0.00000000000E+00 0.  1.
         25    2    1    2    0    0 -0.84123866478E+02  0.71665796155E+02 -0.79280104454E+03  0.81018114653E+03  0.12508869942E+03 0.  0.
          5    1    3    3  502    0 -0.51073643453E+02  0.84698202067E+02 -0.29643098432E+03  0.31252376446E+03  0.41800000000E+01 0. -1.
         -5    1    3    3    0  502 -0.33050223025E+02 -0.13032405913E+02 -0.49637006022E+03  0.49765738207E+03  0.41800000000E+01 0. -1.
        -11    1    1    2    0    0  0.62955313621E+02 -0.34201069277E+02 -0.36950978522E+03  0.37639150632E+03  0.00000000000E+00 0.  1.
         11    1    1    2    0    0  0.21168552857E+02 -0.37464726878E+02 -0.46556975606E+02  0.63397676359E+02  0.00000000000E+00 0. -1.
</event>
<event>
 7    1  0.2844572E-009  0.1063614E+03  0.7561462E-02  0.1267460E+00
         -1   -1    0    0    0  501 -0.00000000000E+00  0.00000000000E+00  0.20937878662E+02  0.20937878662E+02  0.00000000000E+00 0.  1.
          1   -1    0    0  501    0  0.00000000000E+00 -0.00000000000E+00 -0.61181380504E+03  0.61181380504E+03  0.00000000000E+00 0. -1.
         25    2    1    2    0    0 -0.74469393754E+01 -0.30546640493E+02 -0.35328258221E+03  0.37609180795E+03  0.12509161029E+03 0.  0.
          5    1    3    3  502    0  0.27642171326E+02 -0.70310750277E+02 -0.21539402490E+03  0.22829750240E+03  0.41800000000E+01 0. -1.
         -5    1    3    3    0  502 -0.35089110702E+02  0.39764109783E+02 -0.13788855731E+03  0.14779430555E+03  0.41800000000E+01 0. -1.
        -11    1    1    2    0    0 -0.33734574147E+02  0.25672634910E+02 -0.18441060700E+03  0.18922044723E+03  0.00000000000E+00 0. -1.
         11    1    1    2    0    0  0.41181513522E+02  0.48740055832E+01 -0.53182737179E+02  0.67439428529E+02  0.00000000000E+00 0.  1.
</event>
<event>
 7    1  0.2844572E-009  0.1172305E+03  0.7561462E-02  0.1247737E+00
         -2   -1    0    0    0  501 -0.00000000000E+00  0.00000000000E+00  0.39518797756E+02  0.39518797756E+02  0.00000000000E+00 0.  1.
          2   -1    0    0  501    0  0.00000000000E+00 -0.00000000000E+00 -0.66002191181E+03  0.66002191181E+03  0.00000000000E+00 0. -1.
         25    2    1    2    0    0 -0.95703812646E+02 -0.60257799833E+02 -0.42026576904E+03  0.45283660918E+03  0.12508979093E+03 0.  0.
          5    1    3    3  502    0 -0.51654831743E+02 -0.51274359533E+02 -0.39382236640E+03  0.40051318363E+03  0.41800000000E+01 0. -1.
         -5    1    3    3    0  502 -0.44048980903E+02 -0.89834402997E+01 -0.26443402641E+02  0.52323425551E+02  0.41800000000E+01 0. -1.
        -11    1    1    2    0    0  0.11060731031E+02  0.19604129589E+02 -0.12322066210E+03  0.12525970316E+03  0.00000000000E+00 0. -1.
         11    1    1    2    0    0  0.84643081614E+02  0.40653670243E+02 -0.77016682920E+02  0.12144439723E+03  0.00000000000E+00 0.  1.
</event>
<event>
 7    1  0.2844572E-009  0.2743303E+03  0.7561462E-02  0.1098827E+00
          2   -1    0    0  501    0  0.00000000000E+00  0.00000000000E+00  0.10210659801E+04  0.10210659801E+04  0.00000000000E+00 0. -1.
         -2   -1    0    0    0  501 -0.00000000000E+00 -0.00000000000E+00 -0.94112167686E+02  0.94112167686E+02  0.00000000000E+00 0.  1.
         25    2    1    2    0    0  0.25132243098E+03  0.59639297445E+02  0.23607038969E+03  0.37161403859E+03  0.12509178500E+03 0.  0.
          5    1    3    3  502    0  0.23585111276E+03  0.81779055686E+02  0.17553403102E+03  0.30519375778E+03  0.41800000000E+01 0. -1.
         -5    1    3    3    0  502  0.15471318217E+02 -0.22139758240E+02  0.60536358665E+02  0.66420280808E+02  0.41800000000E+01 0. -1.
        -11    1    1    2    0    0 -0.22858337418E+03 -0.24609496103E+02  0.62050977802E+03  0.66173134342E+03  0.00000000000E+00 0. -1.
         11    1    1    2    0    0 -0.22739056802E+02 -0.35029801343E+02  0.70373644755E+02  0.81832765824E+02  0.00000000000E+00 0.  1.
</event>
<event>
 7    1  0.2844572E-009  0.2873926E+03  0.7561462E-02  0.1091718E+00
          1   -1    0    0  501    0  0.00000000000E+00  0.00000000000E+00  0.30874239882E+03  0.30874239882E+03  0.00000000000E+00 0. -1.
         -1   -1    0    0    0  501 -0.00000000000E+00 -0.00000000000E+00 -0.32861808498E+03  0.32861808498E+03  0.00000000000E+00 0.  1.
         25    2    1    2    0    0  0.10978450299E+03  0.25622983404E+03  0.98683237449E+02  0.32108046034E+03  0.12509162926E+03 0.  0.
          5    1    3    3  502    0  0.58878948189E+02  0.23201264832E+03  0.45946514666E+02  0.24377275100E+03  0.41800000000E+01 0.  1.
         -5    1    3    3    0  502  0.50905554797E+02  0.24217185720E+02  0.52736722783E+02  0.77307709339E+02  0.41800000000E+01 0.  1.
        -11    1    1    2    0    0 -0.11815455859E+02 -0.33785497747E+02 -0.54008950611E+02  0.64792218678E+02  0.00000000000E+00 0.  1.
         11    1    1    2    0    0 -0.97969047128E+02 -0.22244433629E+03 -0.64549972993E+02  0.25148780479E+03  0.00000000000E+00 0. -1.
</event>
<event>
 7    1  0.2844572E-009  0.9786767E+02  0.7561462E-02  0.1284845E+00
         -3   -1    0    0    0  501 -0.00000000000E+00  0.00000000000E+00  0.23341141207E+03  0.23341141207E+03  0.00000000000E+00 0.  1.
          3   -1    0    0  501    0  0.00000000000E+00 -0.00000000000E+00 -0.72536539760E+02  0.72536539760E+02  0.00000000000E+00 0. -1.
         25    2    1    2    0    0  0.69483110298E+02  0.15265386341E+02  0.87016992983E+02  0.16816751396E+03  0.12508965204E+03 0.  0.
          5    1    3    3  502    0  0.56353935402E+02 -0.27235849141E+02 -0.79343643343E+01  0.63229613720E+02  0.41800000000E+01 0. -1.
         -5    1    3    3    0  502  0.13129174896E+02  0.42501235483E+02  0.94951357317E+02  0.10493790024E+03  0.41800000000E+01 0. -1.
        -11    1    1    2    0    0 -0.49223959600E+02  0.15397094025E+02  0.84959852767E+02  0.99389362033E+02  0.00000000000E+00 0.  1.
         11    1    1    2    0    0 -0.20259150699E+02 -0.30662480366E+02 -0.11101973442E+02  0.38391075832E+02  0.00000000000E+00 0. -1.
</event>
<event>
 7    1  0.2844572E-009  0.9539515E+02  0.7561462E-02  0.1290289E+00
          3   -1    0    0  501    0  0.00000000000E+00  0.00000000000E+00  0.14909615870E+03  0.14909615870E+03  0.00000000000E+00 0. -1.
         -3   -1    0    0    0  501 -0.00000000000E+00 -0.00000000000E+00 -0.12939937973E+03  0.12939937973E+03  0.00000000000E+00 0.  1.
         25    2    1    2    0    0  0.80681773645E+02  0.20067078045E+02 -0.25711752950E+02  0.15238277874E+03  0.12508869173E+03 0.  0.
          5    1    3    3  502    0  0.13579698940E+02  0.10567520677E+02 -0.69412341995E+02  0.71635370717E+02  0.41800000000E+01 0. -1.
         -5    1    3    3    0  502  0.67102074705E+02  0.94995573675E+01  0.43700589045E+02  0.80747408025E+02  0.41800000000E+01 0. -1.
        -11    1    1    2    0    0 -0.49053433935E+02  0.20990296032E+02 -0.52829908802E+01  0.53616619634E+02  0.00000000000E+00 0.  1.
         11    1    1    2    0    0 -0.31628339710E+02 -0.41057374077E+02  0.50691522797E+02  0.72496140052E+02  0.00000000000E+00 0. -1.
</event>
<event>
 7    1  0.2844572E-009  0.1336614E+03  0.7561462E-02  0.1222122E+00
         -2   -1    0    0    0  501 -0.00000000000E+00  0.00000000000E+00  0.16071311198E+03  0.16071311198E+03  0.00000000000E+00 0. -1.
          2   -1    0    0  501    0  0.00000000000E+00 -0.00000000000E+00 -0.18066304464E+03  0.18066304464E+03  0.00000000000E+00 0.  1.
         25    2    1    2    0    0  0.43781733559E+02  0.84619673911E+02 -0.99850969974E+02  0.18627215110E+03  0.12509903542E+03 0.  0.
          5    1    3    3  502    0  0.33861526299E+02 -0.14340160225E+02 -0.75059537517E+02  0.83687811125E+02  0.41800000000E+01 0. -1.
         -5    1    3    3    0  502  0.99202072594E+01  0.98959834136E+02 -0.24791432457E+02  0.10258433997E+03  0.41800000000E+01 0. -1.
        -11    1    1    2    0    0 -0.40849101257E+02  0.49535881541E+01  0.12625696363E+02  0.43041785717E+02  0.00000000000E+00 0.  1.
         11    1    1    2    0    0 -0.29326323019E+01 -0.89573262065E+02  0.67275340943E+02  0.11206221981E+03  0.00000000000E+00 0. -1.
</event>
<event>
 7    1  0.2844572E-009  0.1079976E+03  0.7561462E-02  0.1264324E+00
         -1   -1    0    0    0  501 -0.00000000000E+00  0.00000000000E+00  0.97757329682E+02  0.97757329682E+02  0.00000000000E+00 0.  1.
          1   -1    0    0  501    0  0.00000000000E+00 -0.00000000000E+00 -0.14686837747E+03  0.14686837747E+03  0.00000000000E+00 0. -1.
         25    2    1    2    0    0 -0.41122166930E+02  0.28506078712E+02 -0.41610355593E+02  0.14100612479E+03  0.12509067271E+03 0.  0.
          5    1    3    3  502    0  0.26238011264E+02  0.36128802966E+02  0.20187402144E+02  0.49180557583E+02  0.41800000000E+01 0. -1.
         -5    1    3    3    0  502 -0.67360178193E+02 -0.76227242544E+01 -0.61797757737E+02  0.91825567205E+02  0.41800000000E+01 0. -1.
        -11    1    1    2    0    0  0.63903590278E+02  0.34362830900E+01 -0.70491210559E+01  0.64382971347E+02  0.00000000000E+00 0.  1.
         11    1    1    2    0    0 -0.22781423348E+02 -0.31942361802E+02 -0.45157113417E+00  0.39236611012E+02  0.00000000000E+00 0. -1.
</event>
<event>
 7    1  0.2844572E-009  0.1268957E+03  0.7561462E-02  0.1232136E+00
          1   -1    0    0  501    0  0.00000000000E+00  0.00000000000E+00  0.36369010167E+03  0.36369010167E+03  0.00000000000E+00 0. -1.
         -1   -1    0    0    0  501 -0.00000000000E+00 -0.00000000000E+00 -0.78344361070E+02  0.78344361070E+02  0.00000000000E+00 0.  1.
         25    2    1    2    0    0 -0.64445723423E+02 -0.71829840941E+02  0.26474715421E+03  0.30830362011E+03  0.12508912501E+03 0.  0.
          5    1    3    3  502    0 -0.96357173047E+02 -0.78349129242E+02  0.19522542852E+03  0.23141679108E+03  0.41800000000E+01 0.  1.
         -5    1    3    3    0  502  0.31911449624E+02  0.65192883006E+01  0.69521725684E+02  0.76886829035E+02  0.41800000000E+01 0.  1.
        -11    1    1    2    0    0  0.27999796640E+02  0.26762224711E+02 -0.35884368327E+02  0.52800503535E+02  0.00000000000E+00 0.  1.
         11    1    1    2    0    0  0.36445926783E+02  0.45067616230E+02  0.56482954722E+02  0.80930339094E+02  0.00000000000E+00 0. -1.
</event>
<event>
 7    1  0.2844572E-009  0.1006055E+03  0.7561462E-02  0.1279028E+00
          1   -1    0    0  501    0  0.00000000000E+00  0.00000000000E+00  0.33647028191E+03  0.33647028191E+03  0.00000000000E+00 0. -1.
         -1   -1    0    0    0  501 -0.00000000000E+00 -0.00000000000E+00 -0.47496102964E+02  0.47496102964E+02  0.00000000000E+00 0.  1.
         25    2    1    2    0    0 -0.24591061536E+02 -0.21985951931E+02  0.76213494999E+02  0.15014421668E+03  0.12508671630E+03 0.  0.
          5    1    3    3  502    0 -0.64242167258E+02 -0.95601124903E+01  0.21519616604E+01  0.65119545021E+02  0.41800000000E+01 0. -1.
         -5    1    3    3    0  502  0.39651105722E+02 -0.12425839441E+02  0.74061533338E+02  0.85024671662E+02  0.41800000000E+01 0. -1.
        -11    1    1    2    0    0  0.32925021799E+02 -0.28285944159E+02  0.12522086803E+03  0.13253081712E+03  0.00000000000E+00 0. -1.
         11    1    1    2    0    0 -0.83339602631E+01  0.50271896090E+02  0.87539815917E+02  0.10129135107E+03  0.00000000000E+00 0.  1.
</event>
<event>
 7    1  0.2844572E-009  0.1088700E+03  0.7561462E-02  0.1262677E+00
          2   -1    0    0  501    0  0.00000000000E+00  0.00000000000E+00  0.74600869277E+03  0.74600869277E+03  0.00000000000E+00 0.  1.
         -2   -1    0    0    0  501 -0.00000000000E+00 -0.00000000000E+00 -0.18190706384E+02  0.18190706384E+02  0.00000000000E+00 0. -1.
         25    2    1    2    0    0 -0.19981377539E+02  0.25460604359E+02  0.37432084854E+03  0.39598718691E+03  0.12506900785E+03 0.  0.
          5    1    3    3  502    0 -0.69780254382E+01 -0.50899695089E+02  0.15590510284E+03  0.16420519264E+03  0.41800000000E+01 0. -1.
         -5    1    3    3    0  502 -0.13003352101E+02  0.76360299448E+02  0.21841574570E+03  0.23178199427E+03  0.41800000000E+01 0. -1.
        -11    1    1    2    0    0 -0.30773444521E+02 -0.21844940917E+02  0.64168544524E+02  0.74443323661E+02  0.00000000000E+00 0. -1.
         11    1    1    2    0    0  0.50754822060E+02 -0.36156634423E+01  0.28932859332E+03  0.29376888858E+03  0.00000000000E+00 0.  1.
</event>
<event>
 6    1  0.2844572E-009  0.1110777E+03  0.7561462E-02  0.1258587E+00
         -2   -1    0    0    0  501 -0.00000000000E+00  0.00000000000E+00  0.31124188601E+02  0.31124188601E+02  0.00000000000E+00 0.  1.
          2   -1    0    0  501    0  0.00000000000E+00 -0.00000000000E+00 -0.59377907505E+03  0.59377907505E+03  0.00000000000E+00 0. -1.
          5    1    1    2  502    0 -0.16316364933E+02  0.43287095642E+02 -0.16243948178E+02  0.49207059109E+02  0.41800000000E+01 0.  1.
         -5    1    1    2    0  502  0.74632548370E+02  0.52352724980E+01 -0.18534167083E+03  0.19991606414E+03  0.41800000000E+01 0.  1.
        -11    1    1    2    0    0 -0.70857133333E+01 -0.49031937411E+02 -0.13049517055E+03  0.13958269147E+03  0.00000000000E+00 0.  1.
         11    1    1    2    0    0 -0.51230470103E+02  0.50956927066E+00 -0.23057409689E+03  0.23619744893E+03  0.00000000000E+00 0. -1.
</event>
<event>
 7    1  0.2844572E-009  0.1034437E+03  0.7561462E-02  0.1273217E+00
          1   -1    0    0  501    0  0.00000000000E+00  0.00000000000E+00  0.71633885513E+02  0.71633885513E+02  0.00000000000E+00 0. -1.
         -1   -1    0    0    0  501 -0.00000000000E+00 -0.00000000000E+00 -0.20448149081E+03  0.20448149081E+03  0.00000000000E+00 0.  1.
         25    2    1    2    0    0 -0.26442421300E+02 -0.51114799646E+01 -0.23244429734E+02  0.13005182206E+03  0.12509134277E+03 0.  0.
          5    1    3    3  502    0  0.89508741680E+01  0.50960696663E+02  0.14160720761E+02  0.53806218649E+02  0.41800000000E+01 0. -1.
         -5    1    3    3    0  502 -0.35393295468E+02 -0.56072176628E+02 -0.37405150496E+02  0.76245603411E+02  0.41800000000E+01 0. -1.
        -11    1    1    2    0    0  0.29502455044E+02  0.42108280334E+02 -0.33434793647E+02  0.61330152067E+02  0.00000000000E+00 0. -1.
         11    1    1    2    0    0 -0.30600337442E+01 -0.36996800370E+02 -0.76168381915E+02  0.84733402196E+02  0.00000000000E+00 0.  1.
</event>
<event>
 7    1  0.2844572E-009  0.1393986E+03  0.7561462E-02  0.1214140E+00
          1   -1    0    0  501    0  0.00000000000E+00  0.00000000000E+00  0.11255495388E+04  0.11255495388E+04  0.00000000000E+00 0. -1.
         -1   -1    0    0    0  501 -0.00000000000E+00 -0.00000000000E+00 -0.26582339859E+02  0.26582339859E+02  0.00000000000E+00 0.  1.
         25    2    1    2    0    0 -0.64434160716E+02 -0.10564103784E+03  0.77007688492E+03  0.78991640351E+03  0.12505089328E+03 0.  0.
          5    1    3    3  502    0 -0.29226455465E+02  0.11166768827E+02  0.37705178665E+03  0.37837072382E+03  0.41800000000E+01 0. -1.
         -5    1    3    3    0  502 -0.35207705251E+02 -0.11680780667E+03  0.39302509827E+03  0.41154567969E+03  0.41800000000E+01 0. -1.
        -11    1    1    2    0    0  0.23707791378E+02  0.56926815725E+02  0.60397447735E+02  0.86316704139E+02  0.00000000000E+00 0.  1.
         11    1    1    2    0    0  0.40726369339E+02  0.48714222116E+02  0.26849286631E+03  0.27589877103E+03  0.00000000000E+00 0. -1.
</event>
<event>
 7    1  0.2844572E-009  0.1669597E+03  0.7561462E-02  0.1181056E+00
         -4   -1    0    0    0  501 -0.00000000000E+00  0.00000000000E+00  0.12488144755E+04  0.12488144755E+04  0.00000000000E+00 0.  1.
          4   -1    0    0  501    0  0.00000000000E+00 -0.00000000000E+00 -0.35602929191E+02  0.35602929191E+02  0.00000000000E+00 0. -1.
         25    2    1    2    0    0 -0.98217437162E+02  0.93324106461E+02  0.99669771514E+03  0.10136120878E+04  0.12508826999E+03 0.  0.
          5    1    3    3  502    0 -0.12843539429E+02 -0.23228520891E+02  0.34664049448E+03  0.34768034961E+03  0.41800000000E+01 0. -1.
         -5    1    3    3    0  502 -0.85373897733E+02  0.11655262735E+03  0.65005722066E+03  0.66593173816E+03  0.41800000000E+01 0. -1.
        -11    1    1    2    0    0  0.11384026462E+02 -0.72273701859E+02  0.91834480100E+02  0.11741659071E+03  0.00000000000E+00 0. -1.
         11    1    1    2    0    0  0.86833410699E+02 -0.21050404602E+02  0.12467935107E+03  0.15338872622E+03  0.00000000000E+00 0.  1.
</event>
<event>
 7    1  0.2844572E-009  0.2913636E+03  0.7561462E-02  0.1089639E+00
         -2   -1    0    0    0  501 -0.00000000000E+00  0.00000000000E+00  0.14473169954E+03  0.14473169954E+03  0.00000000000E+00 0.  1.
          2   -1    0    0  501    0  0.00000000000E+00 -0.00000000000E+00 -0.69556772644E+03  0.69556772644E+03  0.00000000000E+00 0. -1.
         25    2    1    2    0    0  0.26008816939E+03  0.11330772972E+03 -0.40030751595E+03  0.50633789177E+03  0.12508979113E+03 0.  0.
          5    1    3    3  502    0  0.20874399144E+02  0.45219849280E+02 -0.24498616170E+02  0.55661745417E+02  0.41800000000E+01 0.  1.
         -5    1    3    3    0  502  0.23921377024E+03  0.68087880444E+02 -0.37580889978E+03  0.45067614635E+03  0.41800000000E+01 0.  1.
        -11    1    1    2    0    0 -0.12459636522E+03 -0.47192615139E+02 -0.12173612555E+03  0.18047460047E+03  0.00000000000E+00 0. -1.
         11    1    1    2    0    0 -0.13549180417E+03 -0.66115114585E+02 -0.28792385393E+02  0.15348693374E+03  0.00000000000E+00 0.  1.
</event>
<event>
 7    1  0.2844572E-009  0.1646636E+03  0.7561462E-02  0.1183530E+00
         -2   -1    0    0    0  501 -0.00000000000E+00  0.00000000000E+00  0.73651432714E+02  0.73651432714E+02  0.00000000000E+00 0.  1.
          2   -1    0    0  501    0  0.00000000000E+00 -0.00000000000E+00 -0.46305213119E+03  0.46305213119E+03  0.00000000000E+00 0. -1.
         25    2    1    2    0    0 -0.10224994270E+03 -0.11006354082E+03 -0.20615851569E+03  0.28410998170E+03  0.12509242305E+03 0.  0.
          5    1    3    3  502    0 -0.89000748664E+02 -0.28746043931E+02 -0.16992255926E+03  0.19400674434E+03  0.41800000000E+01 0. -1.
         -5    1    3    3    0  502 -0.13249194036E+02 -0.81317496892E+02 -0.36235956438E+02  0.90103237358E+02  0.41800000000E+01 0. -1.
        -11    1    1    2    0    0  0.27297644060E+02  0.50758758242E+02 -0.13225529269E+03  0.14426737453E+03  0.00000000000E+00 0. -1.
         11    1    1    2    0    0  0.74952298639E+02  0.59304782581E+02 -0.50986890092E+02  0.10832620768E+03  0.00000000000E+00 0.  1.
</event>
<event>
 7    1  0.2844572E-009  0.1178713E+03  0.7561462E-02  0.1246651E+00
          2   -1    0    0  501    0  0.00000000000E+00  0.00000000000E+00  0.11974199982E+03  0.11974199982E+03  0.00000000000E+00 0. -1.
         -2   -1    0    0    0  501 -0.00000000000E+00 -0.00000000000E+00 -0.16376385008E+03  0.16376385008E+03  0.00000000000E+00 0.  1.
         25    2    1    2    0    0 -0.38659060134E+02 -0.68652547093E+02 -0.66254322505E+02  0.16200120781E+03  0.12508821258E+03 0.  0.
          5    1    3    3  502    0  0.45534649395E+02 -0.20904555754E+02 -0.15396744745E+02  0.52582667254E+02  0.41800000000E+01 0.  1.
         -5    1    3    3    0  502 -0.84193709528E+02 -0.47747991339E+02 -0.50857577760E+02  0.10941854055E+03  0.41800000000E+01 0.  1.
        -11    1    1    2    0    0  0.18785672353E+02  0.65894132457E+02 -0.22792907421E+02  0.72211182006E+02  0.00000000000E+00 0.  1.
         11    1    1    2    0    0  0.19873387780E+02  0.27584146356E+01  0.45025379662E+02  0.49293460082E+02  0.00000000000E+00 0. -1.
</event>
<event>
 7    1  0.2844572E-009  0.6349134E+02  0.7561462E-02  0.1383738E+00
         -2   -1    0    0    0  501 -0.00000000000E+00  0.00000000000E+00  0.13310556117E+03  0.13310556117E+03  0.00000000000E+00 0.  1.
          2   -1    0    0  501    0  0.00000000000E+00 -0.00000000000E+00 -0.91268216777E+02  0.91268216777E+02  0.00000000000E+00 0. -1.
         25    2    1    2    0    0  0.12458624570E+02 -0.31504967267E+02  0.30686259403E+02  0.13317776379E+03  0.12508752921E+03 0.  0.
          5    1    3    3  502    0 -0.14573814207E+01 -0.17871259278E+02  0.78894422039E+02  0.81014246263E+02  0.41800000000E+01 0.  1.
         -5    1    3    3    0  502  0.13916005991E+02 -0.13633707990E+02 -0.48208162636E+02  0.52163517529E+02  0.41800000000E+01 0.  1.
        -11    1    1    2    0    0 -0.36127290343E+02  0.47795565198E+02  0.16102582930E+02  0.62039425667E+02  0.00000000000E+00 0.  1.
         11    1    1    2    0    0  0.23668665773E+02 -0.16290597931E+02 -0.49514979383E+01  0.29156588488E+02  0.00000000000E+00 0. -1.
</event>
<event>
 7    1  0.2844572E-009  0.1752503E+03  0.7561462E-02  0.1172481E+00
         -2   -1    0    0    0  501 -0.00000000000E+00  0.00000000000E+00  0.11065290013E+03  0.11065290013E+03  0.00000000000E+00 0.  1.
          2   -1    0    0  501    0  0.00000000000E+00 -0.00000000000E+00 -0.29706358100E+03  0.29706358100E+03  0.00000000000E+00 0. -1.
         25    2    1    2    0    0 -0.13187947486E+03  0.58780468860E+02 -0.10638973301E+03  0.21866225086E+03  0.12508822988E+03 0.  0.
          5    1    3    3  502    0 -0.39564484545E+02 -0.39180705151E+02 -0.38695334539E+02  0.67935833023E+02  0.41800000000E+01 0.  1.
         -5    1    3    3    0  502 -0.92314990310E+02  0.97961174011E+02 -0.67694398475E+02  0.15072641784E+03  0.41800000000E+01 0.  1.
        -11    1    1    2    0    0  0.24497352013E+02 -0.45653509649E+02  0.41617800721E+01  0.51977722270E+02  0.00000000000E+00 0.  1.
         11    1    1    2    0    0  0.10738212284E+03 -0.13126959211E+02 -0.84182727932E+02  0.13707650800E+03  0.00000000000E+00 0. -1.
</event>
<event>
 7    1  0.2844572E-009  0.1301214E+03  0.7561462E-02  0.1227276E+00
         -3   -1    0    0    0  501 -0.00000000000E+00  0.00000000000E+00  0.35979188869E+03  0.35979188869E+03  0.00000000000E+00 0.  1.
          3   -1    0    0  501    0  0.00000000000E+00 -0.00000000000E+00 -0.62757464530E+02  0.62757464530E+02  0.00000000000E+00 0. -1.
         25    2    1    2    0    0 -0.47775619925E+02  0.81051231674E+02  0.22173983269E+03  0.27141660073E+03  0.12508639307E+03 0.  0.
          5    1    3    3  502    0  0.34499399707E+02  0.24884151526E+02  0.12652601718E+03  0.13355049607E+03  0.41800000000E+01 0. -1.
         -5    1    3    3    0  502 -0.82275019632E+02  0.56167080147E+02  0.95213815513E+02  0.13786610465E+03  0.41800000000E+01 0. -1.
        -11    1    1    2    0    0  0.65769497361E+02 -0.52996381597E+02  0.20369023011E+02  0.86885789079E+02  0.00000000000E+00 0. -1.
         11    1    1    2    0    0 -0.17993877436E+02 -0.28054850077E+02  0.54925568456E+02  0.64246963416E+02  0.00000000000E+00 0.  1.
</event>
<event>
 7    1  0.2844572E-009  0.1140640E+03  0.7561462E-02  0.1253224E+00
          2   -1    0    0  501    0  0.00000000000E+00  0.00000000000E+00  0.38445365351E+02  0.38445365351E+02  0.00000000000E+00 0. -1.
         -2   -1    0    0    0  501 -0.00000000000E+00 -0.00000000000E+00 -0.43751738535E+03  0.43751738535E+03  0.00000000000E+00 0.  1.
         25    2    1    2    0    0 -0.35854955009E+02 -0.32758066704E+02 -0.31622995017E+03  0.34352732310E+03  0.12510384328E+03 0.  0.
          5    1    3    3  502    0  0.53770441652E+01 -0.70121837006E+02 -0.23224281134E+03  0.24269359375E+03  0.41800000000E+01 0. -1.
         -5    1    3    3    0  502 -0.41231999175E+02  0.37363770301E+02 -0.83987138829E+02  0.10083372936E+03  0.41800000000E+01 0. -1.
        -11    1    1    2    0    0  0.59368952676E+02  0.45805333940E+02 -0.50647096889E+02  0.90487179105E+02  0.00000000000E+00 0.  1.
         11    1    1    2    0    0 -0.23513997666E+02 -0.13047267235E+02 -0.32194972944E+02  0.41948248491E+02  0.00000000000E+00 0. -1.
</event>
<event>
 7    1  0.2844572E-009  0.1180517E+03  0.7561462E-02  0.1246346E+00
          2   -1    0    0  501    0  0.00000000000E+00  0.00000000000E+00  0.17233205854E+03  0.17233205854E+03  0.00000000000E+00 0. -1.
         -2   -1    0    0    0  501 -0.00000000000E+00 -0.00000000000E+00 -0.17079732454E+03  0.17079732454E+03  0.00000000000E+00 0.  1.
         25    2    1    2    0    0 -0.43576333196E+02  0.81057919825E+02  0.92637898240E+02  0.18082730908E+03  0.12508977711E+03 0.  0.
          5    1    3    3  502    0 -0.16843610148E+02  0.82648246693E+02  0.11706011132E+03  0.14434327815E+03  0.41800000000E+01 0.  1.
         -5    1    3    3    0  502 -0.26732723049E+02 -0.15903268678E+01 -0.24422213081E+02  0.36484030930E+02  0.41800000000E+01 0.  1.
        -11    1    1    2    0    0 -0.20836413235E+02 -0.47608259110E+02 -0.90423716452E+01  0.52749094182E+02  0.00000000000E+00 0. -1.
         11    1    1    2    0    0  0.64412746432E+02 -0.33449660715E+02 -0.82060792599E+02  0.10955297982E+03  0.00000000000E+00 0.  1.
</event>
<event>
 7    1  0.2844572E-009  0.9952828E+02  0.7561462E-02  0.1281291E+00
         -1   -1    0    0    0  501 -0.00000000000E+00  0.00000000000E+00  0.12175537893E+03  0.12175537893E+03  0.00000000000E+00 0.  1.
          1   -1    0    0  501    0  0.00000000000E+00 -0.00000000000E+00 -0.11667774198E+03  0.11667774198E+03  0.00000000000E+00 0. -1.
         25    2    1    2    0    0  0.51042089428E+00  0.23299797944E+02 -0.70095699927E+01  0.12743540447E+03  0.12508999611E+03 0.  0.
          5    1    3    3  502    0 -0.46601751071E+02  0.32849388950E+02  0.31885112080E+02  0.65459440341E+02  0.41800000000E+01 0. -1.
         -5    1    3    3    0  502  0.47112171966E+02 -0.95495910067E+01 -0.38894682073E+02  0.61975964125E+02  0.41800000000E+01 0. -1.
        -11    1    1    2    0    0 -0.32539761775E+02  0.21178999742E+02 -0.23747702554E+02  0.45511970986E+02  0.00000000000E+00 0. -1.
         11    1    1    2    0    0  0.32029340881E+02 -0.44478797685E+02  0.35834909496E+02  0.65485745467E+02  0.00000000000E+00 0.  1.
</event>
<event>
 7    1  0.2844572E-009  0.1298260E+03  0.7561462E-02  0.1227714E+00
         -1   -1    0    0    0  501 -0.00000000000E+00  0.00000000000E+00  0.15068935660E+02  0.15068935660E+02  0.00000000000E+00 0.  1.
          1   -1    0    0  501    0  0.00000000000E+00 -0.00000000000E+00 -0.19447354549E+04  0.19447354549E+04  0.00000000000E+00 0. -1.
         25    2    1    2    0    0  0.29377855296E+02  0.68996622733E+02 -0.16478320770E+04  0.16542734587E+04  0.12508609040E+03 0.  0.
          5    1    3    3  502    0  0.78234352773E+02  0.39091092929E+02 -0.10803939536E+04  0.10839360198E+04  0.41800000000E+01 0.  1.
         -5    1    3    3    0  502 -0.48856497477E+02  0.29905529804E+02 -0.56743812334E+03  0.57033743896E+03  0.41800000000E+01 0.  1.
        -11    1    1    2    0    0 -0.22808060498E+02  0.16979020446E+02 -0.10518334782E+03  0.10895885194E+03  0.00000000000E+00 0. -1.
         11    1    1    2    0    0 -0.65697947974E+01 -0.85975643179E+02 -0.17665109449E+03  0.19657207993E+03  0.00000000000E+00 0.  1.
</event>
<event>
 7    1  0.2844572E-009  0.1302122E+03  0.7561462E-02  0.1227141E+00
          1   -1    0    0  501    0  0.00000000000E+00  0.00000000000E+00  0.14904201589E+03  0.14904201589E+03  0.00000000000E+00 0. -1.
         -1   -1    0    0    0  501 -0.00000000000E+00 -0.00000000000E+00 -0.34688820288E+03  0.34688820288E+03  0.00000000000E+00 0.  1.
         25    2    1    2    0    0  0.38463658663E+02 -0.94053846938E+02  0.84756374668E+02  0.18209072100E+03  0.12509120059E+03 0.  0.
          5    1    3    3  502    0 -0.37086730929E+02 -0.30654558596E+02 -0.51481258393E+01  0.48570599887E+02  0.41800000000E+01 0. -1.
         -5    1    3    3    0  502  0.75550389592E+02 -0.63399288342E+02  0.89904500507E+02  0.13352012111E+03  0.41800000000E+01 0. -1.
        -11    1    1    2    0    0 -0.60218411812E+01  0.76090973209E+02 -0.25868873425E+03  0.26971458990E+03  0.00000000000E+00 0.  1.
         11    1    1    2    0    0 -0.32441817481E+02  0.17962873729E+02 -0.23913827398E+02  0.44124907874E+02  0.00000000000E+00 0. -1.
</event>
<event>
 7    1  0.2844572E-009  0.1464650E+03  0.7561462E-02  0.1204885E+00
         -1   -1    0    0    0  501 -0.00000000000E+00  0.00000000000E+00  0.72473835788E+02  0.72473835788E+02  0.00000000000E+00 0.  1.
          1   -1    0    0  501    0  0.00000000000E+00 -0.00000000000E+00 -0.40190436038E+03  0.40190436038E+03  0.00000000000E+00 0. -1.
         25    2    1    2    0    0 -0.10140973527E+03 -0.82977519025E+02 -0.18575281966E+03  0.25946271566E+03  0.12509031829E+03 0.  0.
          5    1    3    3  502    0 -0.78557297918E+02 -0.32816886671E+02 -0.18553989120E+03  0.20418305692E+03  0.41800000000E+01 0.  1.
         -5    1    3    3    0  502 -0.22852437357E+02 -0.50160632354E+02 -0.21292846274E+00  0.55279658735E+02  0.41800000000E+01 0.  1.
        -11    1    1    2    0    0  0.11252392976E+03  0.85120844917E+02 -0.10857485787E+03  0.17803284183E+03  0.00000000000E+00 0.  1.
         11    1    1    2    0    0 -0.11114194481E+02 -0.21433258920E+01 -0.35102847061E+02  0.36882638689E+02  0.00000000000E+00 0. -1.
</event>
<event>
 7    1  0.2844572E-009  0.1637901E+03  0.7561462E-02  0.1184483E+00
          1   -1    0    0  501    0  0.00000000000E+00  0.00000000000E+00  0.54517634160E+03  0.54517634160E+03  0.00000000000E+00 0. -1.
         -1   -1    0    0    0  501 -0.00000000000E+00 -0.00000000000E+00 -0.65072809526E+02  0.65072809526E+02  0.00000000000E+00 0.  1.
         25    2    1    2    0    0  0.13532718391E+03  0.42702511366E+02  0.30145423305E+03  0.35588925028E+03  0.12508218361E+03 0.  0.
          5    1    3    3  502    0  0.65229179452E+02  0.42142554751E+02  0.26616901535E+03  0.27729813902E+03  0.41800000000E+01 0.  1.
         -5    1    3    3    0  502  0.70098004458E+02  0.55995661501E+00  0.35285217705E+02  0.78591111259E+02  0.41800000000E+01 0.  1.
        -11    1    1    2    0    0 -0.11555667614E+03 -0.77796989278E+02  0.12420532302E+03  0.18663514998E+03  0.00000000000E+00 0. -1.
         11    1    1    2    0    0 -0.19770507771E+02  0.35094477912E+02  0.54443975999E+02  0.67724750867E+02  0.00000000000E+00 0.  1.
</event>
<event>
 7    1  0.2844572E-009  0.1923466E+03  0.7561462E-02  0.1156362E+00
          1   -1    0    0  501    0  0.00000000000E+00  0.00000000000E+00  0.32481855605E+02  0.32481855605E+02  0.00000000000E+00 0. -1.
         -1   -1    0    0    0  501 -0.00000000000E+00 -0.00000000000E+00 -0.13052814497E+04  0.13052814497E+04  0.00000000000E+00 0.  1.
         25    2    1    2    0    0  0.61527863600E+02 -0.16042845047E+03 -0.76752465062E+03  0.79640724196E+03  0.12508972787E+03 0.  0.
          5    1    3    3  502    0  0.25191698292E+02  0.17402835862E+02 -0.11940970622E+03  0.12334354745E+03  0.41800000000E+01 0. -1.
         -5    1    3    3    0  502  0.36336165309E+02 -0.17783128634E+03 -0.64811494441E+03  0.67306369451E+03  0.41800000000E+01 0. -1.
        -11    1    1    2    0    0 -0.11967099760E+02  0.46115311612E+02 -0.48870934708E+02  0.68251019780E+02  0.00000000000E+00 0. -1.
         11    1    1    2    0    0 -0.49560763841E+02  0.11431313886E+03 -0.45640400880E+03  0.47310504360E+03  0.00000000000E+00 0.  1.
</event>
<event>
 7    1  0.2844572E-009  0.8823339E+02  0.7561462E-02  0.1307187E+00
          2   -1    0    0  501    0  0.00000000000E+00  0.00000000000E+00  0.19143447098E+03  0.19143447098E+03  0.00000000000E+00 0. -1.
         -2   -1    0    0    0  501 -0.00000000000E+00 -0.00000000000E+00 -0.67257108489E+02  0.67257108489E+02  0.00000000000E+00 0.  1.
         25    2    1    2    0    0 -0.31624105279E+02  0.14512050103E+01  0.89215470562E+02  0.15687374490E+03  0.12509109330E+03 0.  0.
          5    1    3    3  502    0  0.14038607554E+02  0.30711166565E+02 -0.16628270582E+02  0.37871229666E+02  0.41800000000E+01 0.  1.
         -5    1    3    3    0  502 -0.45662712833E+02 -0.29259961555E+02  0.10584374114E+03  0.11900251524E+03  0.41800000000E+01 0.  1.
        -11    1    1    2    0    0  0.59697795711E+02 -0.41645967782E+01  0.41551265548E+02  0.72853814915E+02  0.00000000000E+00 0.  1.
         11    1    1    2    0    0 -0.28073690432E+02  0.27133917679E+01 -0.65893736238E+01  0.28964019647E+02  0.00000000000E+00 0. -1.
</event>
<event>
 7    1  0.2844572E-009  0.1428240E+03  0.7561462E-02  0.1209579E+00
         -1   -1    0    0    0  501 -0.00000000000E+00  0.00000000000E+00  0.40952989080E+02  0.40952989080E+02  0.00000000000E+00 0.  1.
          1   -1    0    0  501    0  0.00000000000E+00 -0.00000000000E+00 -0.55962019946E+03  0.55962019946E+03  0.00000000000E+00 0. -1.
         25    2    1    2    0    0 -0.65352693481E+02  0.74566204760E+02 -0.20678662819E+03  0.26122606087E+03  0.12508897571E+03 0.  0.
          5    1    3    3  502    0  0.36944558139E+02  0.27818680731E+02 -0.50154125437E+02  0.68349748149E+02  0.41800000000E+01 0. -1.
         -5    1    3    3    0  502 -0.10229725162E+03  0.46747524030E+02 -0.15663250275E+03  0.19287631272E+03  0.41800000000E+01 0. -1.
        -11    1    1    2    0    0 -0.74172365506E+01 -0.48960136439E+02 -0.17873378550E+03  0.18546664508E+03  0.00000000000E+00 0. -1.
         11    1    1    2    0    0  0.72769930032E+02 -0.25606068321E+02 -0.13314679669E+03  0.15388048259E+03  0.00000000000E+00 0.  1.
</event>
<event>
 7    1  0.2844572E-009  0.1347409E+03  0.7561462E-02  0.1220586E+00
         -4   -1    0    0    0  501 -0.00000000000E+00  0.00000000000E+00  0.54406010585E+02  0.54406010585E+02  0.00000000000E+00 0.  1.
          4   -1    0    0  501    0  0.00000000000E+00 -0.00000000000E+00 -0.50766361027E+03  0.50766361027E+03  0.00000000000E+00 0. -1.
         25    2    1    2    0    0  0.10499587488E+03  0.13086427075E+02 -0.12777077079E+03  0.20776960208E+03  0.12508976522E+03 0.  0.
          5    1    3    3  502    0  0.58646298042E+02  0.65311325765E+02 -0.42909298375E+02  0.97793853765E+02  0.41800000000E+01 0. -1.
         -5    1    3    3    0  502  0.46349576835E+02 -0.52224898690E+02 -0.84861472419E+02  0.10997574831E+03  0.41800000000E+01 0. -1.
        -11    1    1    2    0    0 -0.74742818535E+02  0.74120795535E+01 -0.30119578637E+03  0.31041960243E+03  0.00000000000E+00 0. -1.
         11    1    1    2    0    0 -0.30253056341E+02 -0.20498506628E+02 -0.24291042522E+02  0.43880416347E+02  0.00000000000E+00 0.  1.
</event>
<event>
 7    1  0.2844572E-009  0.1380800E+03  0.7561462E-02  0.1215936E+00
         -1   -1    0    0    0  501 -0.00000000000E+00  0.00000000000E+00  0.21059348068E+03  0.21059348068E+03  0.00000000000E+00 0.  1.
          1   -1    0    0  501    0  0.00000000000E+00 -0.00000000000E+00 -0.18226002556E+03  0.18226002556E+03  0.00000000000E+00 0. -1.
         25    2    1    2    0    0  0.10217920554E+03 -0.33346797269E+02 -0.10930048129E+03  0.19785498404E+03  0.12508957018E+03 0.  0.
          5    1    3    3  502    0  0.70157404462E+01 -0.56654694946E+02 -0.96568092706E+01  0.58049129526E+02  0.41800000000E+01 0. -1.
         -5    1    3    3    0  502  0.95163465096E+02  0.23307897677E+02 -0.99643672022E+02  0.13980585452E+03  0.41800000000E+01 0. -1.
        -11    1    1    2    0    0 -0.84894616728E+02  0.18362310795E+01  0.46011101136E+02  0.96578926903E+02  0.00000000000E+00 0. -1.
         11    1    1    2    0    0 -0.17284588814E+02  0.31510566190E+02  0.91622835277E+02  0.98419595286E+02  0.00000000000E+00 0.  1.
</event>
<event>
 7    1  0.2844572E-009  0.1084651E+03  0.7561462E-02  0.1263439E+00
         -2   -1    0    0    0  501 -0.00000000000E+00  0.00000000000E+00  0.12073927551E+02  0.12073927551E+02  0.00000000000E+00 0.  1.
          2   -1    0    0  501    0  0.00000000000E+00 -0.00000000000E+00 -0.13773422847E+04  0.13773422847E+04  0.00000000000E+00 0. -1.
         25    2    1    2    0    0  0.52903912480E+02 -0.65819178626E+01 -0.10032450965E+04  0.10124181363E+04  0.12509042119E+03 0.  0.
          5    1    3    3  502    0  0.51487388085E+02 -0.55854834754E+02 -0.78290160656E+03  0.78658954458E+03  0.41800000000E+01 0.  1.
         -5    1    3    3    0  502  0.14165243948E+01  0.49272916891E+02 -0.22034348998E+03  0.22582859176E+03  0.41800000000E+01 0.  1.
        -11    1    1    2    0    0  0.41759868340E+01  0.29556319258E+02 -0.44606654879E+02  0.53672791372E+02  0.00000000000E+00 0.  1.
         11    1    1    2    0    0 -0.57079899314E+02 -0.22974401395E+02 -0.31741660574E+03  0.32332528455E+03  0.00000000000E+00 0. -1.
</event>
<event>
 7    1  0.2844572E-009  0.1790280E+03  0.7561462E-02  0.1168747E+00
          1   -1    0    0  501    0  0.00000000000E+00  0.00000000000E+00  0.71026636917E+02  0.71026636917E+02  0.00000000000E+00 0. -1.
         -1   -1    0    0    0  501 -0.00000000000E+00 -0.00000000000E+00 -0.48771268622E+03  0.48771268622E+03  0.00000000000E+00 0.  1.
         25    2    1    2    0    0  0.14124221207E+03  0.59317689000E+02 -0.24957907285E+03  0.31844090140E+03  0.12508774272E+03 0.  0.
          5    1    3    3  502    0  0.16401696831E+03  0.44302505731E+02 -0.20915987317E+03  0.26949879935E+03  0.41800000000E+01 0. -1.
         -5    1    3    3    0  502 -0.22774756235E+02  0.15015183270E+02 -0.40419199686E+02  0.48942102053E+02  0.41800000000E+01 0. -1.
        -11    1    1    2    0    0 -0.98445949512E+01 -0.21711520816E+02  0.73275228655E+00  0.23850432110E+02  0.00000000000E+00 0. -1.
         11    1    1    2    0    0 -0.13139761712E+03 -0.37606168184E+02 -0.16783972874E+03  0.21644798962E+03  0.00000000000E+00 0.  1.
</event>
<event>
 7    1  0.2844572E-009  0.2767967E+03  0.7561462E-02  0.1097451E+00
         -2   -1    0    0    0  501 -0.00000000000E+00  0.00000000000E+00  0.29186327990E+03  0.29186327990E+03  0.00000000000E+00 0.  1.
          2   -1    0    0  501    0  0.00000000000E+00 -0.00000000000E+00 -0.35100381183E+03  0.35100381183E+03  0.00000000000E+00 0. -1.
         25    2    1    2    0    0  0.23885515442E+03 -0.12243853561E+03  0.10653540307E+03  0.31470697919E+03  0.12509081040E+03 0.  0.
          5    1    3    3  502    0  0.11182758842E+03 -0.19060243215E+02  0.99131223255E+02  0.15070890560E+03  0.41800000000E+01 0.  1.
         -5    1    3    3    0  502  0.12702756600E+03 -0.10337829239E+03  0.74041798150E+01  0.16399807358E+03  0.41800000000E+01 0.  1.
        -11    1    1    2    0    0 -0.16309629443E+03  0.47946018090E+02 -0.13639556083E+03  0.21795176283E+03  0.00000000000E+00 0.  1.
         11    1    1    2    0    0 -0.75758859990E+02  0.74492517515E+02 -0.29280374167E+02  0.11020834970E+03  0.00000000000E+00 0. -1.
</event>
<event>
 7    1  0.2844572E-009  0.7353972E+02  0.7561462E-02  0.1348454E+00
         -1   -1    0    0    0  501 -0.00000000000E+00  0.00000000000E+00  0.19499702820E+02  0.19499702820E+02  0.00000000000E+00 0.  1.
          1   -1    0    0  501    0  0.00000000000E+00 -0.00000000000E+00 -0.67012242510E+03  0.67012242510E+03  0.00000000000E+00 0. -1.
         25    2    1    2    0    0 -0.19038715630E+02 -0.29240968026E+02 -0.40374659849E+03  0.42412096639E+03  0.12509904649E+03 0.  0.
          5    1    3    3  502    0  0.29801082865E+02 -0.52224110583E+01 -0.33475935591E+03  0.33614978341E+03  0.41800000000E+01 0. -1.
         -5    1    3    3    0  502 -0.48839798495E+02 -0.24018556968E+02 -0.68987242584E+02  0.87971182982E+02  0.41800000000E+01 0. -1.
        -11    1    1    2    0    0  0.32581501002E+02  0.34471578080E+02 -0.24645432064E+03  0.25097724212E+03  0.00000000000E+00 0. -1.
         11    1    1    2    0    0 -0.13542785372E+02 -0.52306100536E+01 -0.42180315566E+00  0.14523919411E+02  0.00000000000E+00 0.  1.
</event>
<event>
 7    1  0.2844572E-009  0.1116844E+03  0.7561462E-02  0.1257482E+00
         -2   -1    0    0    0  501 -0.00000000000E+00  0.00000000000E+00  0.28811044230E+03  0.28811044230E+03  0.00000000000E+00 0.  1.
          2   -1    0    0  501    0  0.00000000000E+00 -0.00000000000E+00 -0.54462289989E+02  0.54462289989E+02  0.00000000000E+00 0. -1.
         25    2    1    2    0    0 -0.10142718252E+02  0.48584799619E+02  0.93075847152E+02  0.16362739355E+03  0.12508978020E+03 0.  0.
          5    1    3    3  502    0 -0.12845908491E+02  0.90595268137E+02  0.55882240316E+02  0.10729779661E+03  0.41800000000E+01 0.  1.
         -5    1    3    3    0  502  0.27031902389E+01 -0.42010468517E+02  0.37193606837E+02  0.56329596945E+02  0.41800000000E+01 0.  1.
        -11    1    1    2    0    0 -0.17738161494E+02  0.12915766209E+02 -0.11355237198E+01  0.21971545327E+02  0.00000000000E+00 0. -1.
         11    1    1    2    0    0  0.27880879746E+02 -0.61500565828E+02  0.14170782888E+03  0.15697379341E+03  0.00000000000E+00 0.  1.
</event>
<event>
 7    1  0.2844572E-009  0.1442024E+03  0.7561462E-02  0.1207784E+00
          2   -1    0    0  501    0  0.00000000000E+00  0.00000000000E+00  0.39042524403E+03  0.39042524403E+03  0.00000000000E+00 0. -1.
         -2   -1    0    0    0  501 -0.00000000000E+00 -0.00000000000E+00 -0.74704762616E+02  0.74704762616E+02  0.00000000000E+00 0.  1.
         25    2    1    2    0    0 -0.93950964580E+02 -0.70103079190E+02  0.21112544244E+03  0.27196174753E+03  0.12509202298E+03 0.  0.
          5    1    3    3  502    0 -0.25974993937E+02 -0.95064421241E+02  0.12901729024E+03  0.16240344232E+03  0.41800000000E+01 0.  1.
         -5    1    3    3    0  502 -0.67975970643E+02  0.24961342051E+02  0.82108152198E+02  0.10955830520E+03  0.41800000000E+01 0.  1.
        -11    1    1    2    0    0  0.30484579258E+02  0.21880095298E+02  0.10703552595E+03  0.11342244909E+03  0.00000000000E+00 0. -1.
         11    1    1    2    0    0  0.63466385323E+02  0.48222983891E+02 -0.24404869705E+01  0.79745810034E+02  0.00000000000E+00 0.  1.
</event>
<event>
 7    1  0.2844572E-009  0.7165789E+02  0.7561462E-02  0.1354544E+00
         -2   -1    0    0    0  501 -0.00000000000E+00  0.00000000000E+00  0.17703426887E+02  0.17703426887E+02  0.00000000000E+00 0.  1.
          2   -1    0    0  501    0  0.00000000000E+00 -0.00000000000E+00 -0.71426967946E+03  0.71426967946E+03  0.00000000000E+00 0. -1.
         25    2    1    2    0    0 -0.14062605516E+02  0.27593314914E+02 -0.40631664381E+03  0.42626207406E+03  0.12508794045E+03 0.  0.
          5    1    3    3  502    0  0.17827264958E+02  0.24415542310E+02 -0.15718110406E+02  0.34328726701E+02  0.41800000000E+01 0. -1.
         -5    1    3    3    0  502 -0.31889870474E+02  0.31777726044E+01 -0.39059853340E+03  0.39193334736E+03  0.41800000000E+01 0. -1.
        -11    1    1    2    0    0 -0.11032709640E+02 -0.47299911893E+02 -0.24829774322E+03  0.25300350123E+03  0.00000000000E+00 0. -1.
         11    1    1    2    0    0  0.25095315155E+02  0.19706596979E+02 -0.41951865556E+02  0.52707531064E+02  0.00000000000E+00 0.  1.
</event>
<event>
 7    1  0.2844572E-009  0.1671338E+03  0.7561462E-02  0.1180870E+00
         -1   -1    0    0    0  501 -0.00000000000E+00  0.00000000000E+00  0.13429011220E+03  0.13429011220E+03  0.00000000000E+00 0.  1.
          1   -1    0    0  501    0  0.00000000000E+00 -0.00000000000E+00 -0.23387941703E+03  0.23387941703E+03  0.00000000000E+00 0. -1.
         25    2    1    2    0    0  0.83657596267E+02 -0.11305859584E+03 -0.52354460914E+02  0.19536763673E+03  0.12508670752E+03 0.  0.
          5    1    3    3  502    0  0.28958972293E+02  0.25180071322E+02 -0.18646700620E+02  0.42869918499E+02  0.41800000000E+01 0.  1.
         -5    1    3    3    0  502  0.54698623974E+02 -0.13823866716E+03 -0.33707760294E+02  0.15249771824E+03  0.41800000000E+01 0.  1.
        -11    1    1    2    0    0 -0.44356325283E+02  0.25984594131E+02 -0.57016858159E+02  0.76769817241E+02  0.00000000000E+00 0. -1.
         11    1    1    2    0    0 -0.39301270984E+02  0.87074001708E+02  0.97820142402E+01  0.96032075251E+02  0.00000000000E+00 0.  1.
</event>
<event>
 7    1  0.2844572E-009  0.1071801E+03  0.7561462E-02  0.1265883E+00
          1   -1    0    0  501    0  0.00000000000E+00  0.00000000000E+00  0.31915062102E+03  0.31915062102E+03  0.00000000000E+00 0. -1.
         -1   -1    0    0    0  501 -0.00000000000E+00 -0.00000000000E+00 -0.50873613438E+02  0.50873613438E+02  0.00000000000E+00 0.  1.
         25    2    1    2    0    0  0.26090797921E+02 -0.61191243218E+02  0.13227379466E+03  0.19382711746E+03  0.12508995454E+03 0.  0.
          5    1    3    3  502    0 -0.24688126502E+02 -0.40046920547E+02 -0.34146363714E+01  0.47353897168E+02  0.41800000000E+01 0.  1.
         -5    1    3    3    0  502  0.50778924422E+02 -0.21144322672E+02  0.13568843103E+03  0.14647322029E+03  0.41800000000E+01 0.  1.
        -11    1    1    2    0    0 -0.42167675578E+02  0.78023535157E+02  0.10545774183E+03  0.13779375971E+03  0.00000000000E+00 0. -1.
         11    1    1    2    0    0  0.16076877657E+02 -0.16832291939E+02  0.30545471092E+02  0.38403357293E+02  0.00000000000E+00 0.  1.
</event>
<event>
 7    1  0.2844572E-009  0.1237585E+03  0.7561462E-02  0.1237022E+00
         -1   -1    0    0    0  501 -0.00000000000E+00  0.00000000000E+00  0.85871081575E+02  0.85871081575E+02  0.00000000000E+00 0.  1.
          1   -1    0    0  501    0  0.00000000000E+00 -0.00000000000E+00 -0.20360730423E+03  0.20360730423E+03  0.00000000000E+00 0. -1.
         25    2    1    2    0    0 -0.45074736464E+02  0.49681423955E+02 -0.11003838495E+03  0.17959971165E+03  0.12509050528E+03 0.  0.
          5    1    3    3  502    0  0.23867989470E+02 -0.27827164984E+02 -0.39689572772E+02  0.54191942383E+02  0.41800000000E+01 0. -1.
         -5    1    3    3    0  502 -0.68942725934E+02  0.77508588939E+02 -0.70348812180E+02  0.12540776927E+03  0.41800000000E+01 0. -1.
        -11    1    1    2    0    0  0.15028472866E+02 -0.69303771179E+02 -0.16755522739E+02  0.72867106698E+02  0.00000000000E+00 0. -1.
         11    1    1    2    0    0  0.30046263598E+02  0.19622347224E+02  0.90576850385E+01  0.37011567449E+02  0.00000000000E+00 0.  1.
</event>
<event>
 7    1  0.2844572E-009  0.1372292E+03  0.7561462E-02  0.1217107E+00
         -1   -1    0    0    0  501 -0.00000000000E+00  0.00000000000E+00  0.12115680630E+03  0.12115680630E+03  0.00000000000E+00 0.  1.
          1   -1    0    0  501    0  0.00000000000E+00 -0.00000000000E+00 -0.19160582170E+03  0.19160582170E+03  0.00000000000E+00 0. -1.
         25    2    1    2    0    0  0.97517986146E+02 -0.10605248625E+02  0.49876412676E+01  0.15904459118E+03  0.12509227193E+03 0.  0.
          5    1    3    3  502    0  0.11776637157E+03  0.45622973459E+00  0.33133662752E+02  0.12241094079E+03  0.41800000000E+01 0. -1.
         -5    1    3    3    0  502 -0.20248385419E+02 -0.11061478360E+02 -0.28146021484E+02  0.36633650391E+02  0.41800000000E+01 0. -1.
        -11    1    1    2    0    0 -0.11101546886E+03 -0.67053250823E+01 -0.56593159051E+02  0.12478854660E+03  0.00000000000E+00 0.  1.
         11    1    1    2    0    0  0.13497482716E+02  0.17310573707E+02 -0.18843497622E+02  0.28929490220E+02  0.00000000000E+00 0. -1.
</event>
<event>
 7    1  0.2844572E-009  0.1754274E+03  0.7561462E-02  0.1172303E+00
          3   -1    0    0  501    0  0.00000000000E+00  0.00000000000E+00  0.26278161924E+02  0.26278161924E+02  0.00000000000E+00 0. -1.
         -3   -1    0    0    0  501 -0.00000000000E+00 -0.00000000000E+00 -0.12657223995E+04  0.12657223995E+04  0.00000000000E+00 0.  1.
         25    2    1    2    0    0 -0.11562625273E+03  0.78576669314E+02 -0.80766690007E+03  0.82916697878E+03  0.12509330095E+03 0.  0.
          5    1    3    3  502    0 -0.12860134285E+03  0.97083788104E+02 -0.64259134375E+03  0.66249881114E+03  0.41800000000E+01 0.  1.
         -5    1    3    3    0  502  0.12975090119E+02 -0.18507118790E+02 -0.16507555632E+03  0.16666816763E+03  0.41800000000E+01 0.  1.
        -11    1    1    2    0    0  0.10776158123E+03 -0.22535708851E+02 -0.28483613556E+03  0.30537197102E+03  0.00000000000E+00 0.  1.
         11    1    1    2    0    0  0.78646715016E+01 -0.56040960463E+02 -0.14694120195E+03  0.15746161164E+03  0.00000000000E+00 0. -1.
</event>
<event>
 7    1  0.2844572E-009  0.1034585E+03  0.7561462E-02  0.1273187E+00
         -4   -1    0    0    0  501 -0.00000000000E+00  0.00000000000E+00  0.43161223365E+02  0.43161223365E+02  0.00000000000E+00 0.  1.
          4   -1    0    0  501    0  0.00000000000E+00 -0.00000000000E+00 -0.39623769323E+03  0.39623769323E+03  0.00000000000E+00 0. -1.
         25    2    1    2    0    0  0.94009211719E+01 -0.45414894490E+02 -0.28832385620E+03  0.31769294948E+03  0.12508906480E+03 0.  0.
          5    1    3    3  502    0  0.58237737561E+02 -0.41870854741E+02 -0.23235909734E+03  0.24321394917E+03  0.41800000000E+01 0.  1.
         -5    1    3    3    0  502 -0.48836816389E+02 -0.35440397495E+01 -0.55964758866E+02  0.74479000313E+02  0.41800000000E+01 0.  1.
        -11    1    1    2    0    0  0.14011945703E+02  0.57774791680E+02 -0.91868296022E+01  0.60155290825E+02  0.00000000000E+00 0.  1.
         11    1    1    2    0    0 -0.23412866875E+02 -0.12359897190E+02 -0.55565784056E+02  0.61550676289E+02  0.00000000000E+00 0. -1.
</event>
<event>
 7    1  0.2844572E-009  0.1042936E+03  0.7561462E-02  0.1271518E+00
          1   -1    0    0  501    0  0.00000000000E+00  0.00000000000E+00  0.21450038489E+02  0.21450038489E+02  0.00000000000E+00 0. -1.
         -1   -1    0    0    0  501 -0.00000000000E+00 -0.00000000000E+00 -0.57917356324E+03  0.57917356324E+03  0.00000000000E+00 0.  1.
         25    2    1    2    0    0  0.21398508496E+01  0.27317790926E+02 -0.31853309036E+03  0.34331064881E+03  0.12509209115E+03 0.  0.
          5    1    3    3  502    0  0.59659566215E+02 -0.28692398015E+01 -0.11548563958E+03  0.13008421014E+03  0.41800000000E+01 0.  1.
         -5    1    3    3    0  502 -0.57519715366E+02  0.30187030728E+02 -0.20304745078E+03  0.21322643867E+03  0.41800000000E+01 0.  1.
        -11    1    1    2    0    0 -0.35165994685E+02  0.71464155939E+01 -0.16669518720E+03  0.17051394041E+03  0.00000000000E+00 0.  1.
         11    1    1    2    0    0  0.33026143835E+02 -0.34464206520E+02 -0.72495247187E+02  0.86799012509E+02  0.00000000000E+00 0. -1.
</event>
<event>
 7    1  0.2844572E-009  0.8243977E+02  0.7561462E-02  0.1322267E+00
         -2   -1    0    0    0  501 -0.00000000000E+00  0.00000000000E+00  0.56246604032E+02  0.56246604032E+02  0.00000000000E+00 0.  1.
          2   -1    0    0  501    0  0.00000000000E+00 -0.00000000000E+00 -0.10019773912E+04  0.10019773912E+04  0.00000000000E+00 0. -1.
         25    2    1    2    0    0  0.43759322062E+02 -0.16230611423E+02 -0.94655276951E+03  0.95592312583E+03  0.12509422858E+03 0.  0.
          5    1    3    3  502    0  0.19000479473E+02 -0.61907981333E+02 -0.28383540551E+03  0.29115910804E+03  0.41800000000E+01 0. -1.
         -5    1    3    3    0  502  0.24758842589E+02  0.45677369911E+02 -0.66271736399E+03  0.66476401779E+03  0.41800000000E+01 0. -1.
        -11    1    1    2    0    0 -0.10290438908E+02 -0.77841325610E+00  0.43936107949E+02  0.45131814076E+02  0.00000000000E+00 0.  1.
         11    1    1    2    0    0 -0.33468883154E+02  0.17009024679E+02 -0.43114125629E+02  0.57169055343E+02  0.00000000000E+00 0. -1.
</event>
<event>
 7    1  0.2844572E-009  0.1803183E+03  0.7561462E-02  0.1167495E+00
         -2   -1    0    0    0  501 -0.00000000000E+00  0.00000000000E+00  0.44767527678E+02  0.44767527678E+02  0.00000000000E+00 0.  1.
          2   -1    0    0  501    0  0.00000000000E+00 -0.00000000000E+00 -0.83183213196E+03  0.83183213196E+03  0.00000000000E+00 0. -1.
         25    2    1    2    0    0 -0.15915582348E+03 -0.23351397573E+01 -0.38556279442E+03  0.43547884359E+03  0.12508847167E+03 0.  0.
          5    1    3    3  502    0  0.17816421531E+02  0.12621990145E+02 -0.68765688691E+02  0.72269854383E+02  0.41800000000E+01 0. -1.
         -5    1    3    3    0  502 -0.17697224501E+03 -0.14957129902E+02 -0.31679710573E+03  0.36320898921E+03  0.41800000000E+01 0. -1.
        -11    1    1    2    0    0  0.13567086661E+03  0.10026723604E+02 -0.39149712586E+03  0.41446003281E+03  0.00000000000E+00 0.  1.
         11    1    1    2    0    0  0.23484956869E+02 -0.76915838469E+01 -0.10004683996E+02  0.26660783242E+02  0.00000000000E+00 0. -1.
</event>
<event>
 7    1  0.2844572E-009  0.2054167E+03  0.7561462E-02  0.1145248E+00
         -1   -1    0    0    0  501 -0.00000000000E+00  0.00000000000E+00  0.69425189486E+02  0.69425189486E+02  0.00000000000E+00 0.  1.
          1   -1    0    0  501    0  0.00000000000E+00 -0.00000000000E+00 -0.71836832242E+03  0.71836832242E+03  0.00000000000E+00 0. -1.
         25    2    1    2    0    0  0.18034967745E+03  0.70402181966E+02 -0.29350362150E+03  0.37319469965E+03  0.12508970633E+03 0.  0.
          5    1    3    3  502    0  0.64335017145E+02  0.93880079679E+00 -0.19087692913E+02  0.67243499305E+02  0.41800000000E+01 0. -1.
         -5    1    3    3    0  502  0.11601466030E+03  0.69463381169E+02 -0.27441592859E+03  0.30595120034E+03  0.41800000000E+01 0. -1.
        -11    1    1    2    0    0 -0.37483576719E+02  0.19519425459E+02 -0.98298483356E+02  0.10699821645E+03  0.00000000000E+00 0.  1.
         11    1    1    2    0    0 -0.14286610073E+03 -0.89921607424E+02 -0.25714102808E+03  0.30760059581E+03  0.00000000000E+00 0. -1.
</event>
<event>
 7    1  0.2844572E-009  0.1626209E+03  0.7561462E-02  0.1185769E+00
         -4   -1    0    0    0  501 -0.00000000000E+00  0.00000000000E+00  0.43086183159E+03  0.43086183159E+03  0.00000000000E+00 0.  1.
          4   -1    0    0  501    0  0.00000000000E+00 -0.00000000000E+00 -0.64664163984E+02  0.64664163984E+02  0.00000000000E+00 0. -1.
         25    2    1    2    0    0  0.11680827543E+03 -0.63715620520E+02  0.22362638791E+03  0.28872649192E+03  0.12510144786E+03 0.  0.
          5    1    3    3  502    0  0.37883757820E+02  0.35703985486E+02  0.92174647516E+02  0.10594145426E+03  0.41800000000E+01 0.  1.
         -5    1    3    3    0  502  0.78924517608E+02 -0.99419606006E+02  0.13145174039E+03  0.18278503766E+03  0.41800000000E+01 0.  1.
        -11    1    1    2    0    0 -0.34076330854E+02  0.52403041683E+02  0.84426037386E+02  0.10504775529E+03  0.00000000000E+00 0.  1.
         11    1    1    2    0    0 -0.82731944574E+02  0.11312578837E+02  0.58145242306E+02  0.10175174837E+03  0.00000000000E+00 0. -1.
</event>
<event>
 7    1  0.2844572E-009  0.9326468E+02  0.7561462E-02  0.1295133E+00
         -1   -1    0    0    0  501 -0.00000000000E+00  0.00000000000E+00  0.19992372350E+02  0.19992372350E+02  0.00000000000E+00 0.  1.
          1   -1    0    0  501    0  0.00000000000E+00 -0.00000000000E+00 -0.81581023399E+03  0.81581023399E+03  0.00000000000E+00 0. -1.
         25    2    1    2    0    0 -0.29540931050E+02  0.54954355429E+01 -0.64028841613E+03  0.65308507917E+03  0.12509195974E+03 0.  0.
          5    1    3    3  502    0  0.18051987525E+02  0.44084142883E+02 -0.46295899816E+03  0.46542216566E+03  0.41800000000E+01 0.  1.
         -5    1    3    3    0  502 -0.47592918575E+02 -0.38588707341E+02 -0.17732941797E+03  0.18766291352E+03  0.41800000000E+01 0.  1.
        -11    1    1    2    0    0 -0.20284641820E+02  0.13061957070E+02 -0.11031590574E+03  0.11292333893E+03  0.00000000000E+00 0. -1.
         11    1    1    2    0    0  0.49825572870E+02 -0.18557392613E+02 -0.45213539770E+02  0.69794188232E+02  0.00000000000E+00 0.  1.
</event>
<event>
 7    1  0.2844572E-009  0.9806369E+02  0.7561462E-02  0.1284421E+00
         -2   -1    0    0    0  501 -0.00000000000E+00  0.00000000000E+00  0.18320607830E+03  0.18320607830E+03  0.00000000000E+00 0.  1.
          2   -1    0    0  501    0  0.00000000000E+00 -0.00000000000E+00 -0.70170357966E+02  0.70170357966E+02  0.00000000000E+00 0. -1.
         25    2    1    2    0    0  0.79519192597E+01 -0.17331593825E+02  0.31229053876E+02  0.13033387604E+03  0.12509215912E+03 0.  0.
          5    1    3    3  502    0 -0.10811474795E+02 -0.58354769361E+02  0.53355669196E+02  0.79915373551E+02  0.41800000000E+01 0. -1.
         -5    1    3    3    0  502  0.18763394055E+02  0.41023175536E+02 -0.22126615320E+02  0.50418502487E+02  0.41800000000E+01 0. -1.
        -11    1    1    2    0    0  0.23287940851E+02 -0.27909791327E+02  0.39419975196E+02  0.53621069417E+02  0.00000000000E+00 0.  1.
         11    1    1    2    0    0 -0.31239860111E+02  0.45241385152E+02  0.42386691262E+02  0.69421490810E+02  0.00000000000E+00 0. -1.
</event>
<event>
 7    1  0.2844572E-009  0.1191625E+03  0.7561462E-02  0.1244485E+00
         -2   -1    0    0    0  501 -0.00000000000E+00  0.00000000000E+00  0.10561231298E+03  0.10561231298E+03  0.00000000000E+00 0.  1.
          2   -1    0    0  501    0  0.00000000000E+00 -0.00000000000E+00 -0.13503720150E+03  0.13503720150E+03  0.00000000000E+00 0. -1.
         25    2    1    2    0    0 -0.49527588494E+02  0.12579948336E+02 -0.95286376078E+01  0.13545943020E+03  0.12508886910E+03 0.  0.
          5    1    3    3  502    0 -0.54121713205E+02 -0.49056065219E+02 -0.60058190055E+01  0.73411168340E+02  0.41800000000E+01 0. -1.
         -5    1    3    3    0  502  0.45941247118E+01  0.61636013555E+02 -0.35228186024E+01  0.62048261859E+02  0.41800000000E+01 0. -1.
        -11    1    1    2    0    0  0.75972916781E+02 -0.83538294260E+01 -0.16536599769E+02  0.78199294640E+02  0.00000000000E+00 0.  1.
         11    1    1    2    0    0 -0.26445328287E+02 -0.42261189099E+01 -0.33596511459E+01  0.26990789634E+02  0.00000000000E+00 0. -1.
</event>
<event>
 6    1  0.2844572E-009  0.1252330E+03  0.7561462E-02  0.1234706E+00
         -2   -1    0    0    0  501 -0.00000000000E+00  0.00000000000E+00  0.55035648627E+03  0.55035648627E+03  0.00000000000E+00 0.  1.
          2   -1    0    0  501    0  0.00000000000E+00 -0.00000000000E+00 -0.45617055574E+02  0.45617055574E+02  0.00000000000E+00 0. -1.
          5    1    1    2  502    0  0.67617632394E+02  0.66254121061E+02  0.28496931303E+03  0.30031106296E+03  0.41800000000E+01 0. -1.
         -5    1    1    2    0  502  0.35615300078E+02 -0.24292072589E+02  0.20042077722E+02  0.47725377628E+02  0.41800000000E+01 0. -1.
        -11    1    1    2    0    0 -0.40512930432E+02 -0.88423414235E+01  0.16274902944E+03  0.16794859665E+03  0.00000000000E+00 0.  1.
         11    1    1    2    0    0 -0.62720002040E+02 -0.33119707048E+02  0.36979010505E+02  0.79988504604E+02  0.00000000000E+00 0. -1.
</event>
<event>
 7    1  0.2844572E-009  0.9747067E+02  0.7561462E-02  0.1285707E+00
          2   -1    0    0  501    0  0.00000000000E+00  0.00000000000E+00  0.32359737842E+03  0.32359737842E+03  0.00000000000E+00 0. -1.
         -2   -1    0    0    0  501 -0.00000000000E+00 -0.00000000000E+00 -0.39548935736E+02  0.39548935736E+02  0.00000000000E+00 0.  1.
         25    2    1    2    0    0  0.75994872613E+01  0.62136671380E+01  0.11750151575E+03  0.17190244919E+03  0.12508990355E+03 0.  0.
          5    1    3    3  502    0 -0.30725063227E+02 -0.33535604748E+02  0.42912431831E+01  0.45875412414E+02  0.41800000000E+01 0.  1.
         -5    1    3    3    0  502  0.38324550488E+02  0.39749271886E+02  0.11321027256E+03  0.12602703678E+03  0.41800000000E+01 0.  1.
        -11    1    1    2    0    0  0.43009003459E+02 -0.10461927185E+01  0.71751764414E+02  0.83661129530E+02  0.00000000000E+00 0.  1.
         11    1    1    2    0    0 -0.50608490721E+02 -0.51674744195E+01  0.94795162521E+02  0.10758273543E+03  0.00000000000E+00 0. -1.
</event>
<event>
 7    1  0.2844572E-009  0.8745557E+02  0.7561462E-02  0.1309133E+00
         -2   -1    0    0    0  501 -0.00000000000E+00  0.00000000000E+00  0.16166807737E+02  0.16166807737E+02  0.00000000000E+00 0.  1.
          2   -1    0    0  501    0  0.00000000000E+00 -0.00000000000E+00 -0.76003490686E+03  0.76003490686E+03  0.00000000000E+00 0. -1.
         25    2    1    2    0    0  0.11062971205E+02  0.56814557058E-01 -0.48458548154E+03  0.50059260155E+03  0.12508985269E+03 0.  0.
          5    1    3    3  502    0  0.47937053942E+02  0.90367012260E+01 -0.43628500565E+03  0.43902357757E+03  0.41800000000E+01 0.  1.
         -5    1    3    3    0  502 -0.36874082737E+02 -0.89798866690E+01 -0.48300475897E+02  0.61569023982E+02  0.41800000000E+01 0.  1.
        -11    1    1    2    0    0  0.26238494014E+02  0.30007304994E+02 -0.72019087595E+02  0.82314311631E+02  0.00000000000E+00 0.  1.
         11    1    1    2    0    0 -0.37301465219E+02 -0.30064119551E+02 -0.18726352998E+03  0.19329480141E+03  0.00000000000E+00 0. -1.
</event>
<event>
 7    1  0.2844572E-009  0.8585817E+02  0.7561462E-02  0.1313203E+00
          1   -1    0    0  501    0  0.00000000000E+00  0.00000000000E+00  0.23719021902E+03  0.23719021902E+03  0.00000000000E+00 0. -1.
         -1   -1    0    0    0  501 -0.00000000000E+00 -0.00000000000E+00 -0.84106064756E+02  0.84106064756E+02  0.00000000000E+00 0.  1.
         25    2    1    2    0    0  0.73411410944E+02  0.18376005124E+02  0.29214274051E+02  0.14909173538E+03  0.12509180200E+03 0.  0.
          5    1    3    3  502    0  0.60225011457E+02  0.10263650687E+02  0.77176606284E+02  0.98519518309E+02  0.41800000000E+01 0. -1.
         -5    1    3    3    0  502  0.13186399488E+02  0.81123544368E+01 -0.47962332233E+02  0.50572217068E+02  0.41800000000E+01 0. -1.
        -11    1    1    2    0    0 -0.35281588572E+02 -0.37753109838E+02  0.12873080269E+02  0.53252267465E+02  0.00000000000E+00 0.  1.
         11    1    1    2    0    0 -0.38129822372E+02  0.19377104714E+02  0.11099679995E+03  0.11895228093E+03  0.00000000000E+00 0. -1.
</event>
<event>
 7    1  0.2844572E-009  0.1051237E+03  0.7561462E-02  0.1269876E+00
          2   -1    0    0  501    0  0.00000000000E+00  0.00000000000E+00  0.40091779057E+03  0.40091779057E+03  0.00000000000E+00 0. -1.
         -2   -1    0    0    0  501 -0.00000000000E+00 -0.00000000000E+00 -0.32933650932E+02  0.32933650932E+02  0.00000000000E+00 0.  1.
         25    2    1    2    0    0  0.36337893192E+02 -0.30467013954E+01  0.16910495621E+03  0.21347963022E+03  0.12508933381E+03 0.  0.
          5    1    3    3  502    0 -0.23732836936E+02  0.38900180456E+02  0.11038105443E+03  0.11949025553E+03  0.41800000000E+01 0. -1.
         -5    1    3    3    0  502  0.60070730128E+02 -0.41946881852E+02  0.58723901783E+02  0.93989374696E+02  0.41800000000E+01 0. -1.
        -11    1    1    2    0    0  0.15153556935E+02 -0.27379051458E+02  0.10029846876E+03  0.10506676726E+03  0.00000000000E+00 0.  1.
         11    1    1    2    0    0 -0.51491450127E+02  0.30425752854E+02  0.98580714666E+02  0.11530504402E+03  0.00000000000E+00 0. -1.
</event>
<event>
 7    1  0.2844572E-009  0.1104653E+03  0.7561462E-02  0.1259711E+00
         -3   -1    0    0    0  501 -0.00000000000E+00  0.00000000000E+00  0.52672499224E+03  0.52672499224E+03  0.00000000000E+00 0.  1.
          3   -1    0    0  501    0  0.00000000000E+00 -0.00000000000E+00 -0.26523927519E+02  0.26523927519E+02  0.00000000000E+00 0. -1.
         25    2    1    2    0    0  0.78232908578E+01 -0.42830270169E+02  0.30855010187E+03  0.33577775074E+03  0.12509155290E+03 0.  0.
          5    1    3    3  502    0  0.35146993354E+02  0.31513050690E+02  0.16617336029E+03  0.17279884715E+03  0.41800000000E+01 0. -1.
         -5    1    3    3    0  502 -0.27323702497E+02 -0.74343320858E+02  0.14237674158E+03  0.16297890359E+03  0.41800000000E+01 0. -1.
        -11    1    1    2    0    0 -0.16022940386E+02  0.66902245903E+02  0.17226767406E+03  0.18549608258E+03  0.00000000000E+00 0.  1.
         11    1    1    2    0    0  0.81996495282E+01 -0.24071975734E+02  0.19383288783E+02  0.31975086430E+02  0.00000000000E+00 0. -1.
</event>
<event>
 7    1  0.2844572E-009  0.1081406E+03  0.7561462E-02  0.1264052E+00
         -3   -1    0    0    0  501 -0.00000000000E+00  0.00000000000E+00  0.43716735535E+03  0.43716735535E+03  0.00000000000E+00 0.  1.
          3   -1    0    0  501    0  0.00000000000E+00 -0.00000000000E+00 -0.32261366980E+02  0.32261366980E+02  0.00000000000E+00 0. -1.
         25    2    1    2    0    0 -0.20903530931E+02 -0.34470819488E+02  0.18088810189E+03  0.22359617401E+03  0.12509815595E+03 0.  0.
          5    1    3    3  502    0 -0.53157837333E+02  0.27650842420E+02  0.68266585470E+02  0.90929224390E+02  0.41800000000E+01 0. -1.
         -5    1    3    3    0  502  0.32254306402E+02 -0.62121661908E+02  0.11262151642E+03  0.13266694962E+03  0.41800000000E+01 0. -1.
        -11    1    1    2    0    0  0.32911742482E+02 -0.14288360223E+02  0.16253787918E+03  0.16645090027E+03  0.00000000000E+00 0.  1.
         11    1    1    2    0    0 -0.12008211551E+02  0.48759179710E+02  0.61480007298E+02  0.79381648056E+02  0.00000000000E+00 0. -1.
</event>
<event>
 7    1  0.2844572E-009  0.8747096E+02  0.7561462E-02  0.1309094E+00
         -2   -1    0    0    0  501 -0.00000000000E+00  0.00000000000E+00  0.47517376800E+02  0.47517376800E+02  0.00000000000E+00 0. -1.
          2   -1    0    0  501    0  0.00000000000E+00 -0.00000000000E+00 -0.27702625156E+03  0.27702625156E+03  0.00000000000E+00 0.  1.
         25    2    1    2    0    0  0.26933653894E+02 -0.30057353305E+02 -0.13255151334E+03  0.18667490479E+03  0.12509496469E+03 0.  0.
          5    1    3    3  502    0  0.42715432375E+02  0.98478987311E+01 -0.13645369047E+03  0.14338295336E+03  0.41800000000E+01 0. -1.
         -5    1    3    3    0  502 -0.15781778482E+02 -0.39905252036E+02  0.39021771301E+01  0.43291951428E+02  0.41800000000E+01 0. -1.
        -11    1    1    2    0    0 -0.38097426532E+02  0.51237631929E+02 -0.94155870928E+02  0.11376307338E+03  0.00000000000E+00 0.  1.
         11    1    1    2    0    0  0.11163772638E+02 -0.21180278625E+02 -0.28014904918E+01  0.24105650190E+02  0.00000000000E+00 0. -1.
</event>
<event>
 7    1  0.2844572E-009  0.8904884E+02  0.7561462E-02  0.1305172E+00
         -1   -1    0    0    0  501 -0.00000000000E+00  0.00000000000E+00  0.89543355761E+02  0.89543355761E+02  0.00000000000E+00 0.  1.
          1   -1    0    0  501    0  0.00000000000E+00 -0.00000000000E+00 -0.15502293065E+03  0.15502293065E+03  0.00000000000E+00 0. -1.
         25    2    1    2    0    0  0.11219930816E+02 -0.28041622783E+02 -0.41716264599E+01  0.12875179247E+03  0.12508957647E+03 0.  0.
          5    1    3    3  502    0  0.25126398964E+02  0.24376440059E+02  0.43800354798E+02  0.56227130777E+02  0.41800000000E+01 0. -1.
         -5    1    3    3    0  502 -0.13906468148E+02 -0.52418062843E+02 -0.47971981258E+02  0.72524661698E+02  0.41800000000E+01 0. -1.
        -11    1    1    2    0    0  0.36149289992E+02  0.80549825135E+01 -0.16686295539E+01  0.37073416822E+02  0.00000000000E+00 0.  1.
         11    1    1    2    0    0 -0.47369220809E+02  0.19986640270E+02 -0.59639318876E+02  0.78741077115E+02  0.00000000000E+00 0. -1.
</event>
<event>
 7    1  0.2844572E-009  0.1001853E+03  0.7561462E-02  0.1279907E+00
         -2   -1    0    0    0  501 -0.00000000000E+00  0.00000000000E+00  0.25350457172E+02  0.25350457172E+02  0.00000000000E+00 0.  1.
          2   -1    0    0  501    0  0.00000000000E+00 -0.00000000000E+00 -0.82288895189E+03  0.82288895189E+03  0.00000000000E+00 0. -1.
         25    2    1    2    0    0  0.89651050146E+02 -0.14505633469E+02 -0.53463464330E+03  0.55653396369E+03  0.12509247272E+03 0.  0.
          5    1    3    3  502    0  0.56770554291E+02 -0.24423781577E+02 -0.82947701658E+02  0.10352396124E+03  0.41800000000E+01 0.  1.
         -5    1    3    3    0  502  0.32880495855E+02  0.99181481083E+01 -0.45168694164E+03  0.45301000245E+03  0.41800000000E+01 0.  1.
        -11    1    1    2    0    0 -0.52224843197E+02  0.33312668275E+02 -0.23069728844E+03  0.23886901643E+03  0.00000000000E+00 0. -1.
         11    1    1    2    0    0 -0.37426206949E+02 -0.18807034807E+02 -0.32206562980E+02  0.52836428946E+02  0.00000000000E+00 0.  1.
</event>
<event>
 7    1  0.2844572E-009  0.1046220E+03  0.7561462E-02  0.1270866E+00
         -2   -1    0    0    0  501 -0.00000000000E+00  0.00000000000E+00  0.26637107255E+03  0.26637107255E+03  0.00000000000E+00 0.  1.
          2   -1    0    0  501    0  0.00000000000E+00 -0.00000000000E+00 -0.56345730592E+02  0.56345730592E+02  0.00000000000E+00 0. -1.
         25    2    1    2    0    0 -0.40160877312E+02  0.33079845385E+02  0.10550112178E+03  0.17171273457E+03  0.12509038444E+03 0.  0.
          5    1    3    3  502    0 -0.50174352614E+02  0.61371180363E+02  0.21246695802E+02  0.82175312119E+02  0.41800000000E+01 0. -1.
         -5    1    3    3    0  502  0.10013475302E+02 -0.28291334978E+02  0.84254425973E+02  0.89537422447E+02  0.41800000000E+01 0. -1.
        -11    1    1    2    0    0 -0.21384843720E+02 -0.31403764225E+02  0.71911974063E+02  0.81331666417E+02  0.00000000000E+00 0.  1.
         11    1    1    2    0    0  0.61545721032E+02 -0.16760811596E+01  0.32612246117E+02  0.69672402156E+02  0.00000000000E+00 0. -1.
</event>
<event>
 7    1  0.2844572E-009  0.1897971E+03  0.7561462E-02  0.1158644E+00
          2   -1    0    0  501    0  0.00000000000E+00  0.00000000000E+00  0.39319659429E+03  0.39319659429E+03  0.00000000000E+00 0. -1.
         -2   -1    0    0    0  501 -0.00000000000E+00 -0.00000000000E+00 -0.12820952429E+03  0.12820952429E+03  0.00000000000E+00 0.  1.
         25    2    1    2    0    0 -0.16467071269E+03 -0.24996387292E+02  0.17305363098E+02  0.20901685909E+03  0.12508920335E+03 0.  0.
          5    1    3    3  502    0 -0.55181550404E+02 -0.69672283474E+02  0.17547031719E+02  0.90689587670E+02  0.41800000000E+01 0. -1.
         -5    1    3    3    0  502 -0.10948916228E+03  0.44675896183E+02 -0.24166862114E+00  0.11832727142E+03  0.41800000000E+01 0. -1.
        -11    1    1    2    0    0  0.80044017136E+02  0.34441290850E+02  0.19144313199E+03  0.21034191209E+03  0.00000000000E+00 0.  1.
         11    1    1    2    0    0  0.84626695552E+02 -0.94449035578E+01  0.56238574908E+02  0.10204734740E+03  0.00000000000E+00 0. -1.
</event>
<event>
 7    1  0.2844572E-009  0.6699341E+02  0.7561462E-02  0.1370626E+00
         -3   -1    0    0    0  501 -0.00000000000E+00  0.00000000000E+00  0.22877788791E+03  0.22877788791E+03  0.00000000000E+00 0.  1.
          3   -1    0    0  501    0  0.00000000000E+00 -0.00000000000E+00 -0.57981045627E+02  0.57981045627E+02  0.00000000000E+00 0. -1.
         25    2    1    2    0    0  0.50269051774E+01  0.34737191426E+02  0.12540174755E+03  0.18056620213E+03  0.12508642140E+03 0.  0.
          5    1    3    3  502    0 -0.17696515378E+02  0.28666581182E+02  0.14546266623E+03  0.14937134665E+03  0.41800000000E+01 0. -1.
         -5    1    3    3    0  502  0.22723420556E+02  0.60706102435E+01 -0.20060918676E+02  0.31194855483E+02  0.41800000000E+01 0. -1.
        -11    1    1    2    0    0  0.16599173126E+02  0.14711267989E+02 -0.13771996388E+02  0.26107888441E+02  0.00000000000E+00 0. -1.
         11    1    1    2    0    0 -0.21626078304E+02 -0.49448459415E+02  0.59167091115E+02  0.80084842963E+02  0.00000000000E+00 0.  1.
</event>
<event>
 7    1  0.2844572E-009  0.7931087E+02  0.7561462E-02  0.1331019E+00
         -1   -1    0    0    0  501 -0.00000000000E+00  0.00000000000E+00  0.16676248693E+03  0.16676248693E+03  0.00000000000E+00 0.  1.
          1   -1    0    0  501    0  0.00000000000E+00 -0.00000000000E+00 -0.76033038597E+02  0.76033038597E+02  0.00000000000E+00 0. -1.
         25    2    1    2    0    0  0.28732730696E+01 -0.20968432298E+02  0.81604545541E+02  0.15084579538E+03  0.12508885354E+03 0.  0.
          5    1    3    3  502    0  0.33554989302E+02 -0.47448695206E+01 -0.22591028754E+02  0.40942375041E+02  0.41800000000E+01 0.  1.
         -5    1    3    3    0  502 -0.30681716232E+02 -0.16223562778E+02  0.10419557430E+03  0.10990342034E+03  0.41800000000E+01 0.  1.
        -11    1    1    2    0    0  0.37511998881E+02 -0.97727898674E+01 -0.54472573193E+01  0.39144988110E+02  0.00000000000E+00 0.  1.
         11    1    1    2    0    0 -0.40385271950E+02  0.30741222166E+02  0.14572160108E+02  0.52804742031E+02  0.00000000000E+00 0. -1.
</event>
<event>
 7    1  0.2844572E-009  0.1093978E+03  0.7561462E-02  0.1261689E+00
          3   -1    0    0  501    0  0.00000000000E+00  0.00000000000E+00  0.43010757593E+03  0.43010757593E+03  0.00000000000E+00 0. -1.
         -3   -1    0    0    0  501 -0.00000000000E+00 -0.00000000000E+00 -0.10681430252E+03  0.10681430252E+03  0.00000000000E+00 0.  1.
         25    2    1    2    0    0  0.79674110971E+02  0.45619555306E+02  0.36835061651E+03  0.39969820361E+03  0.12508944599E+03 0.  0.
          5    1    3    3  502    0  0.18120954376E+02 -0.25234363449E+01  0.28406711199E+03  0.28468637697E+03  0.41800000000E+01 0. -1.
         -5    1    3    3    0  502  0.61553156596E+02  0.48142991651E+02  0.84283504523E+02  0.11501182664E+03  0.41800000000E+01 0. -1.
        -11    1    1    2    0    0 -0.68841447293E+02  0.59303657300E+01 -0.48525788769E+02  0.84433798201E+02  0.00000000000E+00 0.  1.
         11    1    1    2    0    0 -0.10832663679E+02 -0.51549921036E+02  0.34684456680E+01  0.52789876648E+02  0.00000000000E+00 0. -1.
</event>
<event>
 7    1  0.2844572E-009  0.1931895E+03  0.7561462E-02  0.1155616E+00
         -1   -1    0    0    0  501 -0.00000000000E+00  0.00000000000E+00  0.61187664880E+02  0.61187664880E+02  0.00000000000E+00 0.  1.
          1   -1    0    0  501    0  0.00000000000E+00 -0.00000000000E+00 -0.74213993214E+03  0.74213993214E+03  0.00000000000E+00 0. -1.
         25    2    1    2    0    0 -0.89439478984E+02 -0.15928462567E+03 -0.39020139250E+03  0.44863686550E+03  0.12508756135E+03 0.  0.
          5    1    3    3  502    0 -0.98741443501E+02 -0.13889973643E+03 -0.39023337821E+03  0.42584336476E+03  0.41800000000E+01 0. -1.
         -5    1    3    3    0  502  0.93019645172E+01 -0.20384889234E+02  0.31985704295E-01  0.22793500741E+02  0.41800000000E+01 0. -1.
        -11    1    1    2    0    0  0.17889407401E+02  0.95812912133E+02 -0.20166212930E+03  0.22398160510E+03  0.00000000000E+00 0. -1.
         11    1    1    2    0    0  0.71550071583E+02  0.63471713533E+02 -0.89088745463E+02  0.13070912642E+03  0.00000000000E+00 0.  1.
</event>
<event>
 7    1  0.2844572E-009  0.8080004E+02  0.7561462E-02  0.1326796E+00
         -2   -1    0    0    0  501 -0.00000000000E+00  0.00000000000E+00  0.75596994940E+02  0.75596994940E+02  0.00000000000E+00 0.  1.
          2   -1    0    0  501    0  0.00000000000E+00 -0.00000000000E+00 -0.23703013609E+03  0.23703013609E+03  0.00000000000E+00 0. -1.
         25    2    1    2    0    0  0.68471772966E+01  0.28562857624E+02 -0.17354911659E+03  0.21593767804E+03  0.12508822589E+03 0.  0.
          5    1    3    3  502    0  0.44738829610E+01 -0.18294650148E+02 -0.16731496821E+03  0.16842351629E+03  0.41800000000E+01 0.  1.
         -5    1    3    3    0  502  0.23732943355E+01  0.46857507772E+02 -0.62341483779E+01  0.47514161747E+02  0.41800000000E+01 0.  1.
        -11    1    1    2    0    0 -0.48317284135E+02 -0.22479978511E+02  0.12652309603E+02  0.54772167369E+02  0.00000000000E+00 0.  1.
         11    1    1    2    0    0  0.41470106838E+02 -0.60828791125E+01 -0.53633416520E+00  0.41917285621E+02  0.00000000000E+00 0. -1.
</event>
<event>
 7    1  0.2844572E-009  0.9491839E+02  0.7561462E-02  0.1291360E+00
         -2   -1    0    0    0  501 -0.00000000000E+00  0.00000000000E+00  0.54393790821E+02  0.54393790821E+02  0.00000000000E+00 0.  1.
          2   -1    0    0  501    0  0.00000000000E+00 -0.00000000000E+00 -0.28838141622E+03  0.28838141622E+03  0.00000000000E+00 0. -1.
         25    2    1    2    0    0  0.48274426642E+02  0.32547261702E+02 -0.16171689358E+03  0.21257767341E+03  0.12508864478E+03 0.  0.
          5    1    3    3  502    0  0.72795874693E+02  0.69593824791E+01 -0.35469036066E+02  0.81383028306E+02  0.41800000000E+01 0. -1.
         -5    1    3    3    0  502 -0.24521448051E+02  0.25587879223E+02 -0.12624785752E+03  0.13119464511E+03  0.41800000000E+01 0. -1.
        -11    1    1    2    0    0 -0.59061636840E+02 -0.16069617638E+02 -0.65135038705E+01  0.61554327955E+02  0.00000000000E+00 0.  1.
         11    1    1    2    0    0  0.10787210199E+02 -0.16477644064E+02 -0.65757227945E+02  0.68643205671E+02  0.00000000000E+00 0. -1.
</event>
<event>
 7    1  0.2844572E-009  0.1734417E+03  0.7561462E-02  0.1174306E+00
          1   -1    0    0  501    0  0.00000000000E+00  0.00000000000E+00  0.54914879738E+03  0.54914879738E+03  0.00000000000E+00 0. -1.
         -1   -1    0    0    0  501 -0.00000000000E+00 -0.00000000000E+00 -0.70868275221E+02  0.70868275221E+02  0.00000000000E+00 0.  1.
         25    2    1    2    0    0  0.13502305203E+03 -0.94364617823E+02  0.24088489934E+03  0.31750503256E+03  0.12509198733E+03 0.  0.
          5    1    3    3  502    0 -0.75911580328E+01 -0.18726449261E+02 -0.68880526536E+01  0.21753695124E+02  0.41800000000E+01 0.  1.
         -5    1    3    3    0  502  0.14261421007E+03 -0.75638168562E+02  0.24777295199E+03  0.29575133744E+03  0.41800000000E+01 0.  1.
        -11    1    1    2    0    0 -0.11410467007E+03  0.81206445818E+02  0.23977986826E+03  0.27768461930E+03  0.00000000000E+00 0. -1.
         11    1    1    2    0    0 -0.20918381958E+02  0.13158172006E+02 -0.23842454361E+01  0.24827420740E+02  0.00000000000E+00 0.  1.
</event>
<event>
 7    1  0.2844572E-009  0.1072701E+03  0.7561462E-02  0.1265710E+00
         -1   -1    0    0    0  501 -0.00000000000E+00  0.00000000000E+00  0.36722708878E+02  0.36722708878E+02  0.00000000000E+00 0.  1.
          1   -1    0    0  501    0  0.00000000000E+00 -0.00000000000E+00 -0.43338818913E+03  0.43338818913E+03  0.00000000000E+00 0. -1.
         25    2    1    2    0    0 -0.19457213167E+02 -0.42394622098E+02 -0.17302829219E+03  0.21854498395E+03  0.12508890033E+03 0.  0.
          5    1    3    3  502    0 -0.13434885069E+02  0.33776785961E+02 -0.92046976483E+01  0.37730177120E+02  0.41800000000E+01 0. -1.
         -5    1    3    3    0  502 -0.60223280981E+01 -0.76171408059E+02 -0.16382359454E+03  0.18081480683E+03  0.41800000000E+01 0. -1.
        -11    1    1    2    0    0  0.55779353301E+02  0.27134206060E+02 -0.72673517485E+02  0.95546017902E+02  0.00000000000E+00 0.  1.
         11    1    1    2    0    0 -0.36322140134E+02  0.15260416038E+02 -0.15096367058E+03  0.15601989615E+03  0.00000000000E+00 0. -1.
</event>
<event>
 7    1  0.2844572E-009  0.1569468E+03  0.7561462E-02  0.1192187E+00
          1   -1    0    0  501    0  0.00000000000E+00  0.00000000000E+00  0.68914136839E+02  0.68914136839E+02  0.00000000000E+00 0. -1.
         -1   -1    0    0    0  501 -0.00000000000E+00 -0.00000000000E+00 -0.47240016624E+03  0.47240016624E+03  0.00000000000E+00 0.  1.
         25    2    1    2    0    0 -0.11437717965E+03 -0.44336593405E+02 -0.32553474818E+03  0.36969057349E+03  0.12510145926E+03 0.  0.
          5    1    3    3  502    0 -0.94435717148E+02  0.25802081423E+02 -0.22513881874E+03  0.24553780194E+03  0.41800000000E+01 0. -1.
         -5    1    3    3    0  502 -0.19941462505E+02 -0.70138674828E+02 -0.10039592945E+03  0.12415277155E+03  0.41800000000E+01 0. -1.
        -11    1    1    2    0    0  0.80355619081E+02  0.64746944952E+02 -0.26299541537E+02  0.10649346592E+03  0.00000000000E+00 0.  1.
         11    1    1    2    0    0  0.34021560572E+02 -0.20410351547E+02 -0.51651739681E+02  0.65130263673E+02  0.00000000000E+00 0. -1.
</event>
<event>
 7    1  0.2844572E-009  0.1136906E+03  0.7561462E-02  0.1253884E+00
         -2   -1    0    0    0  501 -0.00000000000E+00  0.00000000000E+00  0.44584682430E+02  0.44584682430E+02  0.00000000000E+00 0.  1.
          2   -1    0    0  501    0  0.00000000000E+00 -0.00000000000E+00 -0.36034501705E+03  0.36034501705E+03  0.00000000000E+00 0. -1.
         25    2    1    2    0    0 -0.33183735529E+02  0.54142527222E+02 -0.15101247861E+03  0.20611840926E+03  0.12508979328E+03 0.  0.
          5    1    3    3  502    0 -0.46731273944E+02 -0.12300327170E+02 -0.12374631803E+03  0.13291250370E+03  0.41800000000E+01 0.  1.
         -5    1    3    3    0  502  0.13547538415E+02  0.66442854392E+02 -0.27266160585E+02  0.73205905567E+02  0.41800000000E+01 0.  1.
        -11    1    1    2    0    0  0.37702554476E+02  0.15779274096E+02 -0.68373679050E+02  0.79658195384E+02  0.00000000000E+00 0.  1.
         11    1    1    2    0    0 -0.45188189473E+01 -0.69921801318E+02 -0.96374176952E+02  0.11915309483E+03  0.00000000000E+00 0. -1.
</event>
<event>
 6    1  0.2844572E-009  0.1056853E+03  0.7561462E-02  0.1268775E+00
          1   -1    0    0  501    0  0.00000000000E+00  0.00000000000E+00  0.86220290458E+02  0.86220290458E+02  0.00000000000E+00 0. -1.
         -1   -1    0    0    0  501 -0.00000000000E+00 -0.00000000000E+00 -0.16943053607E+03  0.16943053607E+03  0.00000000000E+00 0.  1.
          5    1    1    2  502    0  0.85533379906E+01  0.71952334406E+02 -0.31365038648E+02  0.79066655846E+02  0.41800000000E+01 0. -1.
         -5    1    1    2    0  502 -0.26546019520E+02 -0.43510579372E+02 -0.62510547495E+02  0.80764488593E+02  0.41800000000E+01 0. -1.
        -11    1    1    2    0    0 -0.21933828363E+02  0.16565315088E+02 -0.13938805698E+02  0.30818708521E+02  0.00000000000E+00 0.  1.
         11    1    1    2    0    0  0.39926509892E+02 -0.45007070122E+02  0.24604146229E+02  0.65000973568E+02  0.00000000000E+00 0. -1.
</event>
<event>
 7    1  0.2844572E-009  0.7348994E+02  0.7561462E-02  0.1348612E+00
         -1   -1    0    0    0  501 -0.00000000000E+00  0.00000000000E+00  0.11368349562E+03  0.11368349562E+03  0.00000000000E+00 0.  1.
          1   -1    0    0  501    0  0.00000000000E+00 -0.00000000000E+00 -0.15063169412E+03  0.15063169412E+03  0.00000000000E+00 0. -1.
         25    2    1    2    0    0 -0.43702005113E+02  0.57898991113E+02 -0.75090775224E+01  0.14479799256E+03  0.12509162234E+03 0.  0.
          5    1    3    3  502    0 -0.98190898542E+01  0.23632816466E+02 -0.64813401530E+02  0.69808122432E+02  0.41800000000E+01 0. -1.
         -5    1    3    3    0  502 -0.33882915259E+02  0.34266174647E+02  0.57304324007E+02  0.74989870124E+02  0.41800000000E+01 0. -1.
        -11    1    1    2    0    0  0.31002734700E+02 -0.37580354629E+02 -0.62150390959E+02  0.78969131370E+02  0.00000000000E+00 0. -1.
         11    1    1    2    0    0  0.12699270412E+02 -0.20318636484E+02  0.32711269983E+02  0.40548065817E+02  0.00000000000E+00 0.  1.
</event>
<event>
 6    1  0.2844572E-009  0.8244211E+02  0.7561462E-02  0.1322261E+00
          2   -1    0    0  501    0  0.00000000000E+00  0.00000000000E+00  0.12484975029E+03  0.12484975029E+03  0.00000000000E+00 0. -1.
         -2   -1    0    0    0  501 -0.00000000000E+00 -0.00000000000E+00 -0.11398932609E+03  0.11398932609E+03  0.00000000000E+00 0.  1.
          5    1    1    2  502    0 -0.18702092438E+02  0.63727208985E+02  0.44107797584E+01  0.66692224470E+02  0.41800000000E+01 0.  1.
         -5    1    1    2    0  502 -0.89316753402E+01 -0.50246586002E+02  0.54578871875E+02  0.74838625618E+02  0.41800000000E+01 0.  1.
        -11    1    1    2    0    0  0.12479210951E+02  0.12111600038E+02  0.17858762063E+02  0.24927032392E+02  0.00000000000E+00 0. -1.
         11    1    1    2    0    0  0.15154556827E+02 -0.25592223022E+02 -0.65987989501E+02  0.72381193899E+02  0.00000000000E+00 0.  1.
</event>
<event>
 7    1  0.2844572E-009  0.1035785E+03  0.7561462E-02  0.1272946E+00
          2   -1    0    0  501    0  0.00000000000E+00  0.00000000000E+00  0.64532968721E+03  0.64532968721E+03  0.00000000000E+00 0. -1.
         -2   -1    0    0    0  501 -0.00000000000E+00 -0.00000000000E+00 -0.23892057614E+02  0.23892057614E+02  0.00000000000E+00 0.  1.
         25    2    1    2    0    0  0.37738090379E+02 -0.45233585805E+02  0.35743058509E+03  0.38324181607E+03  0.12508967053E+03 0.  0.
          5    1    3    3  502    0 -0.22161851066E+02  0.19708633940E+02  0.20364398190E+03  0.20583469498E+03  0.41800000000E+01 0.  1.
         -5    1    3    3    0  502  0.59899941445E+02 -0.64942219745E+02  0.15378660319E+03  0.17740712109E+03  0.41800000000E+01 0.  1.
        -11    1    1    2    0    0 -0.54600558586E+02  0.46679142424E+02  0.25832573369E+03  0.26812748465E+03  0.00000000000E+00 0. -1.
         11    1    1    2    0    0  0.16862468208E+02 -0.14455566185E+01  0.56813108050E+01  0.17852444103E+02  0.00000000000E+00 0.  1.
</event>
<event>
 7    1  0.2844572E-009  0.1095706E+03  0.7561462E-02  0.1261367E+00
          3   -1    0    0  501    0  0.00000000000E+00  0.00000000000E+00  0.66001421559E+03  0.66001421559E+03  0.00000000000E+00 0. -1.
         -3   -1    0    0    0  501 -0.00000000000E+00 -0.00000000000E+00 -0.19706204890E+02  0.19706204890E+02  0.00000000000E+00 0.  1.
         25    2    1    2    0    0  0.33941813041E+02 -0.16432999395E+02  0.41925765673E+03  0.43914240884E+03  0.12508789860E+03 0.  0.
          5    1    3    3  502    0  0.72037132135E+02  0.18013540458E+02  0.18720712917E+03  0.20143936472E+03  0.41800000000E+01 0.  1.
         -5    1    3    3    0  502 -0.38095319094E+02 -0.34446539853E+02  0.23205052756E+03  0.23770304412E+03  0.41800000000E+01 0.  1.
        -11    1    1    2    0    0  0.23325894892E+02 -0.15174844927E+02  0.46714377229E+02  0.54374684652E+02  0.00000000000E+00 0.  1.
         11    1    1    2    0    0 -0.57267707932E+02  0.31607844322E+02  0.17433597675E+03  0.18620332699E+03  0.00000000000E+00 0. -1.
</event>
<event>
 7    1  0.2844572E-009  0.2124169E+03  0.7561462E-02  0.1139666E+00
          4   -1    0    0  501    0  0.00000000000E+00  0.00000000000E+00  0.27459939183E+03  0.27459939183E+03  0.00000000000E+00 0. -1.
         -4   -1    0    0    0  501 -0.00000000000E+00 -0.00000000000E+00 -0.20866540839E+03  0.20866540839E+03  0.00000000000E+00 0.  1.
         25    2    1    2    0    0  0.11962467538E+03  0.16696090072E+03  0.94318227239E+02  0.25833792731E+03  0.12512614182E+03 0.  0.
          5    1    3    3  502    0  0.18071055510E+02  0.38963104326E+02 -0.30365190125E+02  0.52765554268E+02  0.41800000000E+01 0. -1.
         -5    1    3    3    0  502  0.10155361988E+03  0.12799779640E+03  0.12468341736E+03  0.20557237304E+03  0.41800000000E+01 0. -1.
        -11    1    1    2    0    0 -0.30897271400E+02 -0.10644096362E+03 -0.37823421483E+02  0.11711076521E+03  0.00000000000E+00 0.  1.
         11    1    1    2    0    0 -0.88727403985E+02 -0.60519937109E+02  0.94391776835E+01  0.10781610771E+03  0.00000000000E+00 0. -1.
</event>
<event>
 7    1  0.2844572E-009  0.8999850E+02  0.7561462E-02  0.1302855E+00
         -2   -1    0    0    0  501 -0.00000000000E+00  0.00000000000E+00  0.37576050838E+03  0.37576050838E+03  0.00000000000E+00 0.  1.
          2   -1    0    0  501    0  0.00000000000E+00 -0.00000000000E+00 -0.48345965026E+02  0.48345965026E+02  0.00000000000E+00 0. -1.
         25    2    1    2    0    0  0.36036642595E+02  0.21184008313E+02  0.28896058512E+03  0.31763558689E+03  0.12508694773E+03 0.  0.
          5    1    3    3  502    0 -0.85568062943E+01  0.41017225448E+02  0.24583879306E+02  0.48759319511E+02  0.41800000000E+01 0.  1.
         -5    1    3    3    0  502  0.44593448890E+02 -0.19833217135E+02  0.26437670581E+03  0.26887626738E+03  0.41800000000E+01 0.  1.
        -11    1    1    2    0    0  0.21592906360E+02 -0.22601173198E+02 -0.81940546821E+01  0.32314225461E+02  0.00000000000E+00 0. -1.
         11    1    1    2    0    0 -0.57629548956E+02  0.14171648848E+01  0.46648012921E+02  0.74156661054E+02  0.00000000000E+00 0.  1.
</event>
<event>
 7    1  0.2844572E-009  0.1067008E+03  0.7561462E-02  0.1266804E+00
          1   -1    0    0  501    0  0.00000000000E+00  0.00000000000E+00  0.23402757070E+02  0.23402757070E+02  0.00000000000E+00 0. -1.
         -1   -1    0    0    0  501 -0.00000000000E+00 -0.00000000000E+00 -0.72859389220E+03  0.72859389220E+03  0.00000000000E+00 0.  1.
         25    2    1    2    0    0 -0.13066459367E+02 -0.10175534524E+02 -0.59207115791E+03  0.60536732881E+03  0.12508826044E+03 0.  0.
          5    1    3    3  502    0 -0.34047913307E+02 -0.61290635955E+02 -0.35821775163E+03  0.36503867253E+03  0.41800000000E+01 0. -1.
         -5    1    3    3    0  502  0.20981453940E+02  0.51115101431E+02 -0.23385340628E+03  0.24032865629E+03  0.41800000000E+01 0. -1.
        -11    1    1    2    0    0 -0.35071506219E+02 -0.85537672550E+01 -0.23145687955E+02  0.42882401445E+02  0.00000000000E+00 0. -1.
         11    1    1    2    0    0  0.48137965586E+02  0.18729301779E+02 -0.89974289265E+02  0.10374691901E+03  0.00000000000E+00 0.  1.
</event>
<event>
 7    1  0.2844572E-009  0.1671234E+03  0.7561462E-02  0.1180881E+00
          2   -1    0    0  501    0  0.00000000000E+00  0.00000000000E+00  0.75876957690E+03  0.75876957690E+03  0.00000000000E+00 0. -1.
         -2   -1    0    0    0  501 -0.00000000000E+00 -0.00000000000E+00 -0.37486610062E+02  0.37486610062E+02  0.00000000000E+00 0.  1.
         25    2    1    2    0    0  0.20838351714E+02 -0.12714298995E+03  0.36688733855E+03  0.40847632554E+03  0.12508801917E+03 0.  0.
          5    1    3    3  502    0 -0.15954024573E+02 -0.13744520491E+03  0.31339794152E+03  0.34260977423E+03  0.41800000000E+01 0. -1.
         -5    1    3    3    0  502  0.36792376287E+02  0.10302214956E+02  0.53489397032E+02  0.65866551304E+02  0.41800000000E+01 0. -1.
        -11    1    1    2    0    0 -0.51428260697E+02  0.11200899142E+03  0.27455847090E+03  0.30095387371E+03  0.00000000000E+00 0. -1.
         11    1    1    2    0    0  0.30589908984E+02  0.15133998532E+02  0.79837157384E+02  0.86825987713E+02  0.00000000000E+00 0.  1.
</event>
<event>
 7    1  0.2844572E-009  0.9314064E+02  0.7561462E-02  0.1295420E+00
         -2   -1    0    0    0  501 -0.00000000000E+00  0.00000000000E+00  0.14153258614E+03  0.14153258614E+03  0.00000000000E+00 0.  1.
          2   -1    0    0  501    0  0.00000000000E+00 -0.00000000000E+00 -0.14791826339E+03  0.14791826339E+03  0.00000000000E+00 0. -1.
         25    2    1    2    0    0  0.31098094984E+02  0.78181383492E+01 -0.96685232943E+02  0.16131927328E+03  0.12509060261E+03 0.  0.
          5    1    3    3  502    0  0.32145686869E+02 -0.50417418847E+02 -0.81162763881E+02  0.10089662010E+03  0.41800000000E+01 0. -1.
         -5    1    3    3    0  502 -0.10475918847E+01  0.58235557196E+02 -0.15522469062E+02  0.60422653173E+02  0.41800000000E+01 0. -1.
        -11    1    1    2    0    0 -0.17965100878E+02 -0.34113330113E+02  0.90894303737E+02  0.98733168655E+02  0.00000000000E+00 0.  1.
         11    1    1    2    0    0 -0.13132994106E+02  0.26295191763E+02 -0.59474805226E+00  0.29398407598E+02  0.00000000000E+00 0. -1.
</event>
<event>
 7    1  0.2844572E-009  0.1018279E+03  0.7561462E-02  0.1276498E+00
         -1   -1    0    0    0  501 -0.00000000000E+00  0.00000000000E+00  0.81625005664E+03  0.81625005664E+03  0.00000000000E+00 0.  1.
          1   -1    0    0  501    0  0.00000000000E+00 -0.00000000000E+00 -0.17443799165E+02  0.17443799165E+02  0.00000000000E+00 0. -1.
         25    2    1    2    0    0 -0.31166168299E+01  0.26448251766E+02  0.58045172898E+03  0.59437452932E+03  0.12509055961E+03 0.  0.
          5    1    3    3  502    0 -0.54671907400E+02  0.12789843107E+02  0.14334233107E+03  0.15400355133E+03  0.41800000000E+01 0. -1.
         -5    1    3    3    0  502  0.51555290570E+02  0.13658408659E+02  0.43710939791E+03  0.44037097799E+03  0.41800000000E+01 0. -1.
        -11    1    1    2    0    0 -0.13782648619E+02 -0.57161429527E+02  0.16776676477E+03  0.17777254510E+03  0.00000000000E+00 0. -1.
         11    1    1    2    0    0  0.16899265449E+02  0.30713177761E+02  0.50587763716E+02  0.61546781383E+02  0.00000000000E+00 0.  1.
</event>
<event>
 7    1  0.2844572E-009  0.1190235E+03  0.7561462E-02  0.1244717E+00
         -2   -1    0    0    0  501 -0.00000000000E+00  0.00000000000E+00  0.77356969436E+02  0.77356969436E+02  0.00000000000E+00 0.  1.
          2   -1    0    0  501    0  0.00000000000E+00 -0.00000000000E+00 -0.20630078825E+03  0.20630078825E+03  0.00000000000E+00 0. -1.
         25    2    1    2    0    0  0.21392704016E+02 -0.58417773040E+02 -0.77526637926E+02  0.15978674433E+03  0.12510451664E+03 0.  0.
          5    1    3    3  502    0  0.56014233149E+02 -0.76628757519E+02 -0.73729105104E+02  0.12026227228E+03  0.41800000000E+01 0.  1.
         -5    1    3    3    0  502 -0.34621529134E+02  0.18210984479E+02 -0.37975328222E+01  0.39524472049E+02  0.41800000000E+01 0.  1.
        -11    1    1    2    0    0  0.31915091173E+02  0.16811341030E+02  0.41987514052E+01  0.36315612967E+02  0.00000000000E+00 0.  1.
         11    1    1    2    0    0 -0.53307795189E+02  0.41606432009E+02 -0.55615932290E+02  0.87555400387E+02  0.00000000000E+00 0. -1.
</event>
<event>
 7    1  0.2844572E-009  0.1294094E+03  0.7561462E-02  0.1228335E+00
          1   -1    0    0  501    0  0.00000000000E+00  0.00000000000E+00  0.25517354478E+03  0.25517354478E+03  0.00000000000E+00 0. -1.
         -1   -1    0    0    0  501 -0.00000000000E+00 -0.00000000000E+00 -0.10426399598E+03  0.10426399598E+03  0.00000000000E+00 0.  1.
         25    2    1    2    0    0 -0.92838474763E+02 -0.34817924793E+02  0.27315438655E+01  0.15963887608E+03  0.12508332879E+03 0.  0.
          5    1    3    3  502    0  0.78214843423E+01  0.28198625509E+02  0.25029093809E+02  0.38733267805E+02  0.41800000000E+01 0. -1.
         -5    1    3    3    0  502 -0.10065995911E+03 -0.63016550302E+02 -0.22297549944E+02  0.12090560828E+03  0.41800000000E+01 0. -1.
        -11    1    1    2    0    0  0.69820554955E+02  0.13824340417E+01  0.32158598318E+02  0.76883005039E+02  0.00000000000E+00 0.  1.
         11    1    1    2    0    0  0.23017919808E+02  0.33435490751E+02  0.11601940662E+03  0.12291565964E+03  0.00000000000E+00 0. -1.
</event>
<event>
 7    1  0.2844572E-009  0.1223150E+03  0.7561462E-02  0.1239326E+00
          1   -1    0    0  501    0  0.00000000000E+00  0.00000000000E+00  0.80817981365E+03  0.80817981365E+03  0.00000000000E+00 0. -1.
         -1   -1    0    0    0  501 -0.00000000000E+00 -0.00000000000E+00 -0.19829548797E+02  0.19829548797E+02  0.00000000000E+00 0.  1.
         25    2    1    2    0    0 -0.58118344682E+02 -0.12626658562E+01  0.52610718164E+03  0.54388937471E+03  0.12509016362E+03 0.  0.
          5    1    3    3  502    0  0.38693995110E+02  0.58970104691E+01  0.11875642486E+03  0.12511019477E+03  0.41800000000E+01 0.  1.
         -5    1    3    3    0  502 -0.96812339792E+02 -0.71596763253E+01  0.40735075678E+03  0.41877917994E+03  0.41800000000E+01 0.  1.
        -11    1    1    2    0    0  0.25566707643E+02 -0.44867799416E+02  0.10419076505E+03  0.11628624805E+03  0.00000000000E+00 0. -1.
         11    1    1    2    0    0  0.32551637039E+02  0.46130465272E+02  0.15805231817E+03  0.16783373969E+03  0.00000000000E+00 0.  1.
</event>
<event>
 7    1  0.2844572E-009  0.1241819E+03  0.7561462E-02  0.1236353E+00
         -3   -1    0    0    0  501 -0.00000000000E+00  0.00000000000E+00  0.95211136098E+03  0.95211136098E+03  0.00000000000E+00 0.  1.
          3   -1    0    0  501    0  0.00000000000E+00 -0.00000000000E+00 -0.19895249284E+02  0.19895249284E+02  0.00000000000E+00 0. -1.
         25    2    1    2    0    0  0.65976558494E+02  0.13840642745E+02  0.70429187651E+03  0.71848376236E+03  0.12508956710E+03 0.  0.
          5    1    3    3  502    0  0.24101564007E+02  0.66323267428E+02  0.27434971787E+03  0.28331060920E+03  0.41800000000E+01 0. -1.
         -5    1    3    3    0  502  0.41874994487E+02 -0.52482624683E+02  0.42994215865E+03  0.43517315317E+03  0.41800000000E+01 0. -1.
        -11    1    1    2    0    0 -0.58075367773E+02  0.30338328269E+02  0.14810638226E+03  0.16195265657E+03  0.00000000000E+00 0. -1.
         11    1    1    2    0    0 -0.79011907216E+01 -0.44178971014E+02  0.79817852930E+02  0.91570191335E+02  0.00000000000E+00 0.  1.
</event>
<event>
 7    1  0.2844572E-009  0.1226965E+03  0.7561462E-02  0.1238714E+00
         -1   -1    0    0    0  501 -0.00000000000E+00  0.00000000000E+00  0.10987134833E+03  0.10987134833E+03  0.00000000000E+00 0.  1.
          1   -1    0    0  501    0  0.00000000000E+00 -0.00000000000E+00 -0.21420580378E+03  0.21420580378E+03  0.00000000000E+00 0. -1.
         25    2    1    2    0    0 -0.26704898144E+02 -0.80153344875E+02  0.17240803815E+02  0.15192085150E+03  0.12507993254E+03 0.  0.
          5    1    3    3  502    0  0.37645927501E+02 -0.62315361302E+02 -0.19638641324E+02  0.75521975243E+02  0.41800000000E+01 0.  1.
         -5    1    3    3    0  502 -0.64350825645E+02 -0.17837983573E+02  0.36879445139E+02  0.76398876254E+02  0.41800000000E+01 0.  1.
        -11    1    1    2    0    0 -0.18538527229E+02  0.43664746211E+02 -0.13299911347E+02  0.49266364747E+02  0.00000000000E+00 0.  1.
         11    1    1    2    0    0  0.45243425373E+02  0.36488598664E+02 -0.10827534791E+03  0.12288993586E+03  0.00000000000E+00 0. -1.
</event>
<event>
 7    1  0.2844572E-009  0.1168371E+03  0.7561462E-02  0.1248408E+00
         -2   -1    0    0    0  501 -0.00000000000E+00  0.00000000000E+00  0.12814567833E+03  0.12814567833E+03  0.00000000000E+00 0.  1.
          2   -1    0    0  501    0  0.00000000000E+00 -0.00000000000E+00 -0.19685538150E+03  0.19685538150E+03  0.00000000000E+00 0. -1.
         25    2    1    2    0    0  0.87699242053E+02  0.84400745907E+01 -0.11389361738E+03  0.19074025820E+03  0.12509075947E+03 0.  0.
          5    1    3    3  502    0  0.10526468209E+03 -0.17505978293E+02 -0.46847223070E+02  0.11661581059E+03  0.41800000000E+01 0.  1.
         -5    1    3    3    0  502 -0.17565440033E+02  0.25946052884E+02 -0.67046394307E+02  0.74124447609E+02  0.41800000000E+01 0.  1.
        -11    1    1    2    0    0 -0.22717036476E+02 -0.18776588780E+02  0.59969928607E+02  0.66820777978E+02  0.00000000000E+00 0.  1.
         11    1    1    2    0    0 -0.64982205577E+02  0.10336514189E+02 -0.14786014404E+02  0.67440023645E+02  0.00000000000E+00 0. -1.
</event>
<event>
 7    1  0.2844572E-009  0.1599185E+03  0.7561462E-02  0.1188789E+00
          2   -1    0    0  501    0  0.00000000000E+00  0.00000000000E+00  0.69480650188E+03  0.69480650188E+03  0.00000000000E+00 0. -1.
         -2   -1    0    0    0  501 -0.00000000000E+00 -0.00000000000E+00 -0.41073925160E+02  0.41073925160E+02  0.00000000000E+00 0.  1.
         25    2    1    2    0    0 -0.31768873927E+02 -0.13044807679E+03  0.29589758288E+03  0.34819959375E+03  0.12514637609E+03 0.  0.
          5    1    3    3  502    0 -0.71956474770E+02 -0.39296138534E+02  0.11006498209E+03  0.13730875226E+03  0.41800000000E+01 0.  1.
         -5    1    3    3    0  502  0.40187600843E+02 -0.91151938260E+02  0.18583260079E+03  0.21089084149E+03  0.41800000000E+01 0.  1.
        -11    1    1    2    0    0 -0.66807828998E+01  0.20387026586E+02  0.16739180279E+02  0.27211465774E+02  0.00000000000E+00 0. -1.
         11    1    1    2    0    0  0.38449656827E+02  0.11006105021E+03  0.34109581356E+03  0.36046936751E+03  0.00000000000E+00 0.  1.
</event>
<event>
 7    1  0.2844572E-009  0.1470845E+03  0.7561462E-02  0.1204102E+00
         -2   -1    0    0    0  501 -0.00000000000E+00  0.00000000000E+00  0.41800385916E+02  0.41800385916E+02  0.00000000000E+00 0. -1.
          2   -1    0    0  501    0  0.00000000000E+00 -0.00000000000E+00 -0.58696414817E+03  0.58696414817E+03  0.00000000000E+00 0.  1.
         25    2    1    2    0    0 -0.97923240550E+02 -0.54999769790E+02 -0.29335707820E+03  0.33811178839E+03  0.12508904989E+03 0.  0.
          5    1    3    3  502    0 -0.38401195377E+02  0.38308167683E+02 -0.12809557696E+03  0.13916938153E+03  0.41800000000E+01 0. -1.
         -5    1    3    3    0  502 -0.59522045173E+02 -0.93307937473E+02 -0.16526150124E+03  0.19894240686E+03  0.41800000000E+01 0. -1.
        -11    1    1    2    0    0  0.25186233854E+02  0.50142011681E+02 -0.17913872510E+03  0.18772120430E+03  0.00000000000E+00 0.  1.
         11    1    1    2    0    0  0.72737006696E+02  0.48577581087E+01 -0.72667958956E+02  0.10293154140E+03  0.00000000000E+00 0. -1.
</event>
<event>
 7    1  0.2844572E-009  0.1099536E+03  0.7561462E-02  0.1260656E+00
         -1   -1    0    0    0  501 -0.00000000000E+00  0.00000000000E+00  0.65768929246E+01  0.65768929246E+01  0.00000000000E+00 0.  1.
          1   -1    0    0  501    0  0.00000000000E+00 -0.00000000000E+00 -0.22343771521E+04  0.22343771521E+04  0.00000000000E+00 0. -1.
         25    2    1    2    0    0  0.14052585173E+02 -0.27504873436E+02 -0.16669660725E+04  0.16719385960E+04  0.12509511915E+03 0.  0.
          5    1    3    3  502    0  0.65869528777E+01  0.47569694445E+02 -0.89077027056E+03  0.89207365788E+03  0.41800000000E+01 0.  1.
         -5    1    3    3    0  502  0.74656322951E+01 -0.75074567881E+02 -0.77619580190E+03  0.77986493811E+03  0.41800000000E+01 0.  1.
        -11    1    1    2    0    0 -0.10328656258E+02  0.61288780575E+02 -0.36435577341E+03  0.36961889208E+03  0.00000000000E+00 0. -1.
         11    1    1    2    0    0 -0.37239289145E+01 -0.33783907140E+02 -0.19647841326E+03  0.19939655691E+03  0.00000000000E+00 0.  1.
</event>
<event>
 7    1  0.2844572E-009  0.1635827E+03  0.7561462E-02  0.1184710E+00
         -1   -1    0    0    0  501 -0.00000000000E+00  0.00000000000E+00  0.35544593207E+03  0.35544593207E+03  0.00000000000E+00 0.  1.
          1   -1    0    0  501    0  0.00000000000E+00 -0.00000000000E+00 -0.13422901626E+03  0.13422901626E+03  0.00000000000E+00 0. -1.
         25    2    1    2    0    0  0.74531977545E+02 -0.10849926367E+03  0.26764602534E+03  0.32345636326E+03  0.12514998268E+03 0.  0.
          5    1    3    3  502    0  0.56673589787E+02  0.10662718066E+02  0.11698392679E+03  0.13049253183E+03  0.41800000000E+01 0. -1.
         -5    1    3    3    0  502  0.17858387757E+02 -0.11916198174E+03  0.15066209855E+03  0.19296383144E+03  0.41800000000E+01 0. -1.
        -11    1    1    2    0    0 -0.88105166327E+02  0.91421709324E+02 -0.60102127848E+02  0.14047318264E+03  0.00000000000E+00 0. -1.
         11    1    1    2    0    0  0.13573188783E+02  0.17077554346E+02  0.13673018323E+02  0.25745402429E+02  0.00000000000E+00 0.  1.
</event>
<event>
 7    1  0.2844572E-009  0.1554789E+03  0.7561462E-02  0.1193898E+00
         -2   -1    0    0    0  501 -0.00000000000E+00  0.00000000000E+00  0.11040755089E+03  0.11040755089E+03  0.00000000000E+00 0.  1.
          2   -1    0    0  501    0  0.00000000000E+00 -0.00000000000E+00 -0.29934454301E+03  0.29934454301E+03  0.00000000000E+00 0. -1.
         25    2    1    2    0    0 -0.10922381393E+03  0.88924015141E+02 -0.97209424807E+02  0.21197953364E+03  0.12509327884E+03 0.  0.
          5    1    3    3  502    0 -0.11854389638E+03  0.55348235781E+02 -0.27236627053E+02  0.13369887369E+03  0.41800000000E+01 0.  1.
         -5    1    3    3    0  502  0.93200824493E+01  0.33575779359E+02 -0.69972797754E+02  0.78280659948E+02  0.41800000000E+01 0.  1.
        -11    1    1    2    0    0  0.50877584056E+02 -0.63380281857E+02  0.55879105869E+01  0.81466639997E+02  0.00000000000E+00 0.  1.
         11    1    1    2    0    0  0.58346229872E+02 -0.25543733284E+02 -0.97315477901E+02  0.11630592027E+03  0.00000000000E+00 0. -1.
</event>
<event>
 7    1  0.2844572E-009  0.2970284E+03  0.7561462E-02  0.1086736E+00
         -3   -1    0    0    0  501 -0.00000000000E+00  0.00000000000E+00  0.13587086747E+03  0.13587086747E+03  0.00000000000E+00 0.  1.
          3   -1    0    0  501    0  0.00000000000E+00 -0.00000000000E+00 -0.72348433052E+03  0.72348433052E+03  0.00000000000E+00 0. -1.
         25    2    1    2    0    0 -0.23716562601E+03 -0.16782986949E+03 -0.36580700154E+03  0.48360870614E+03  0.12509284162E+03 0.  0.
          5    1    3    3  502    0 -0.12740783925E+03 -0.43831913557E+02 -0.90681264171E+02  0.16246402131E+03  0.41800000000E+01 0.  1.
         -5    1    3    3    0  502 -0.10975778676E+03 -0.12399795594E+03 -0.27512573737E+03  0.32114468483E+03  0.41800000000E+01 0.  1.
        -11    1    1    2    0    0  0.13267578477E+03  0.11918431394E+03 -0.17931111421E+03  0.25290361847E+03  0.00000000000E+00 0. -1.
         11    1    1    2    0    0  0.10448984125E+03  0.48645555557E+02 -0.42495347291E+02  0.12284287338E+03  0.00000000000E+00 0.  1.
</event>
<event>
 7    1  0.2844572E-009  0.1065994E+03  0.7561462E-02  0.1267000E+00
         -3   -1    0    0    0  501 -0.00000000000E+00  0.00000000000E+00  0.14007008200E+03  0.14007008200E+03  0.00000000000E+00 0.  1.
          3   -1    0    0  501    0  0.00000000000E+00 -0.00000000000E+00 -0.12134732457E+03  0.12134732457E+03  0.00000000000E+00 0. -1.
         25    2    1    2    0    0 -0.13822440761E+02 -0.64674637545E+02 -0.13363364473E+02  0.14212657883E+03  0.12509003274E+03 0.  0.
          5    1    3    3  502    0  0.53732999522E+02 -0.38204514240E+02 -0.20321569920E+02  0.69117716614E+02  0.41800000000E+01 0. -1.
         -5    1    3    3    0  502 -0.67555440282E+02 -0.26470123305E+02  0.69582054471E+01  0.73008862220E+02  0.41800000000E+01 0. -1.
        -11    1    1    2    0    0  0.24881715612E+02  0.36329702301E+02 -0.27830800204E+02  0.52091270680E+02  0.00000000000E+00 0. -1.
         11    1    1    2    0    0 -0.11059274852E+02  0.28344935244E+02  0.59916922108E+02  0.67199557060E+02  0.00000000000E+00 0.  1.
</event>
<event>
 7    1  0.2844572E-009  0.8857798E+02  0.7561462E-02  0.1306332E+00
          1   -1    0    0  501    0  0.00000000000E+00  0.00000000000E+00  0.24002350778E+03  0.24002350778E+03  0.00000000000E+00 0. -1.
         -1   -1    0    0    0  501 -0.00000000000E+00 -0.00000000000E+00 -0.58464121833E+02  0.58464121833E+02  0.00000000000E+00 0.  1.
         25    2    1    2    0    0  0.15223211181E+02 -0.41534633965E+02  0.13386869445E+03  0.18848423117E+03  0.12509438865E+03 0.  0.
          5    1    3    3  502    0  0.40417378158E+02 -0.28668383886E+02 -0.18724047568E+01  0.49763631212E+02  0.41800000000E+01 0. -1.
         -5    1    3    3    0  502 -0.25194166977E+02 -0.12866250079E+02  0.13574109920E+03  0.13872059996E+03  0.41800000000E+01 0. -1.
        -11    1    1    2    0    0 -0.33758356648E+02 -0.16739147849E+02  0.22348906165E+02  0.43809808503E+02  0.00000000000E+00 0. -1.
         11    1    1    2    0    0  0.18535145468E+02  0.58273781814E+02  0.25341785330E+02  0.66193589932E+02  0.00000000000E+00 0.  1.
</event>
<event>
 7    1  0.2844572E-009  0.1144929E+03  0.7561462E-02  0.1252469E+00
          2   -1    0    0  501    0  0.00000000000E+00  0.00000000000E+00  0.10144827874E+04  0.10144827874E+04  0.00000000000E+00 0. -1.
         -2   -1    0    0    0  501 -0.00000000000E+00 -0.00000000000E+00 -0.16007533128E+02  0.16007533128E+02  0.00000000000E+00 0.  1.
         25    2    1    2    0    0  0.62720950521E+02  0.21307703876E+02  0.51049919860E+03  0.52976143054E+03  0.12509918323E+03 0.  0.
          5    1    3    3  502    0  0.25318157688E+02  0.67887604537E+02  0.36970169966E+03  0.37675795292E+03  0.41800000000E+01 0. -1.
         -5    1    3    3    0  502  0.37402792834E+02 -0.46579900661E+02  0.14079749893E+03  0.15300347762E+03  0.41800000000E+01 0. -1.
        -11    1    1    2    0    0 -0.78432455785E+02 -0.17910250377E+02  0.46904181057E+03  0.47589142381E+03  0.00000000000E+00 0. -1.
         11    1    1    2    0    0  0.15711505264E+02 -0.33974534989E+01  0.18934245058E+02  0.24837466132E+02  0.00000000000E+00 0.  1.
</event>
<event>
 6    1  0.2844572E-009  0.1608656E+03  0.7561462E-02  0.1187723E+00
         -2   -1    0    0    0  501 -0.00000000000E+00  0.00000000000E+00  0.16271065032E+03  0.16271065032E+03  0.00000000000E+00 0. -1.
          2   -1    0    0  501    0  0.00000000000E+00 -0.00000000000E+00 -0.20451067570E+03  0.20451067570E+03  0.00000000000E+00 0.  1.
          5    1    1    2  502    0  0.55561827874E+02 -0.65594328909E+02 -0.19799508924E+02  0.88313224691E+02  0.41800000000E+01 0.  1.
         -5    1    1    2    0  502  0.76308466857E+02  0.34413611430E+02  0.53065969051E+02  0.99200545548E+02  0.41800000000E+01 0.  1.
        -11    1    1    2    0    0 -0.58982890516E+02  0.49156378930E+02 -0.48787789891E+01  0.76935904801E+02  0.00000000000E+00 0.  1.
         11    1    1    2    0    0 -0.72887404215E+02 -0.17975661451E+02 -0.70187706517E+02  0.10277165097E+03  0.00000000000E+00 0. -1.
</event>
<event>
 7    1  0.2844572E-009  0.1151077E+03  0.7561462E-02  0.1251393E+00
         -2   -1    0    0    0  501 -0.00000000000E+00  0.00000000000E+00  0.10586348826E+03  0.10586348826E+03  0.00000000000E+00 0.  1.
          2   -1    0    0  501    0  0.00000000000E+00 -0.00000000000E+00 -0.17203819635E+03  0.17203819635E+03  0.00000000000E+00 0. -1.
         25    2    1    2    0    0 -0.67694902884E+01  0.46368964532E+02  0.31623650029E+02  0.13726875803E+03  0.12508696902E+03 0.  0.
          5    1    3    3  502    0 -0.64633740780E+02  0.19557176736E+02  0.28100906209E+02  0.73260746235E+02  0.41800000000E+01 0.  1.
         -5    1    3    3    0  502  0.57864250492E+02  0.26811787797E+02  0.35227438197E+01  0.64008011794E+02  0.41800000000E+01 0.  1.
        -11    1    1    2    0    0 -0.38530475627E+02 -0.81597675661E+01 -0.24536743429E+02  0.46402921642E+02  0.00000000000E+00 0.  1.
         11    1    1    2    0    0  0.45299965916E+02 -0.38209196966E+02 -0.73261614685E+02  0.94230004940E+02  0.00000000000E+00 0. -1.
</event>
<event>
 7    1  0.2844572E-009  0.1123289E+03  0.7561462E-02  0.1256317E+00
         -1   -1    0    0    0  501 -0.00000000000E+00  0.00000000000E+00  0.22863148385E+02  0.22863148385E+02  0.00000000000E+00 0.  1.
          1   -1    0    0  501    0  0.00000000000E+00 -0.00000000000E+00 -0.65503455703E+03  0.65503455703E+03  0.00000000000E+00 0. -1.
         25    2    1    2    0    0  0.30076357558E+02  0.24357430815E+02 -0.23953045222E+03  0.27297729351E+03  0.12507555121E+03 0.  0.
          5    1    3    3  502    0  0.72759639998E+02  0.37293009752E+02 -0.11943715181E+03  0.14480137922E+03  0.41800000000E+01 0.  1.
         -5    1    3    3    0  502 -0.42683282441E+02 -0.12935578937E+02 -0.12009330041E+03  0.12817591429E+03  0.41800000000E+01 0.  1.
        -11    1    1    2    0    0 -0.53146155251E+02  0.12422494790E+02 -0.24631126257E+03  0.25228569175E+03  0.00000000000E+00 0. -1.
         11    1    1    2    0    0  0.23069797693E+02 -0.36779925605E+02 -0.14632969386E+03  0.15263472016E+03  0.00000000000E+00 0.  1.
</event>
<event>
 7    1  0.2844572E-009  0.1431269E+03  0.7561462E-02  0.1209182E+00
          2   -1    0    0  501    0  0.00000000000E+00  0.00000000000E+00  0.10701804052E+03  0.10701804052E+03  0.00000000000E+00 0. -1.
         -2   -1    0    0    0  501 -0.00000000000E+00 -0.00000000000E+00 -0.24189876911E+03  0.24189876911E+03  0.00000000000E+00 0.  1.
         25    2    1    2    0    0 -0.85938960700E+02  0.76203712723E+02 -0.11665085308E+03  0.20602931375E+03  0.12509254894E+03 0.  0.
          5    1    3    3  502    0 -0.12586565666E+02  0.71264660269E+02 -0.11047503812E+03  0.13213356836E+03  0.41800000000E+01 0. -1.
         -5    1    3    3    0  502 -0.73352395033E+02  0.49390524535E+01 -0.61758149517E+01  0.73895745389E+02  0.41800000000E+01 0. -1.
        -11    1    1    2    0    0  0.74188121905E+02 -0.12358239968E+02 -0.20418449037E+02  0.77932769667E+02  0.00000000000E+00 0.  1.
         11    1    1    2    0    0  0.11750838794E+02 -0.63845472755E+02  0.21885735170E+01  0.64954726215E+02  0.00000000000E+00 0. -1.
</event>
<event>
 7    1  0.2844572E-009  0.1665284E+03  0.7561462E-02  0.1181517E+00
          2   -1    0    0  501    0  0.00000000000E+00  0.00000000000E+00  0.48220050717E+02  0.48220050717E+02  0.00000000000E+00 0. -1.
         -2   -1    0    0    0  501 -0.00000000000E+00 -0.00000000000E+00 -0.57986825143E+03  0.57986825143E+03  0.00000000000E+00 0.  1.
         25    2    1    2    0    0 -0.10061531672E+03 -0.71615421522E+02 -0.28910573668E+03  0.33835159504E+03  0.12508982504E+03 0.  0.
          5    1    3    3  502    0 -0.92740099034E+02  0.98743776489E+01 -0.14182970515E+03  0.16979801815E+03  0.41800000000E+01 0. -1.
         -5    1    3    3    0  502 -0.78752176837E+01 -0.81489799171E+02 -0.14727603152E+03  0.16855357689E+03  0.41800000000E+01 0. -1.
        -11    1    1    2    0    0 -0.13480170029E+02  0.35617836026E+02 -0.46930416456E+02  0.60438474633E+02  0.00000000000E+00 0.  1.
         11    1    1    2    0    0  0.11409548675E+03  0.35997585496E+02 -0.19561204758E+03  0.22929823247E+03  0.00000000000E+00 0. -1.
</event>
<event>
 7    1  0.2844572E-009  0.9237973E+02  0.7561462E-02  0.1297189E+00
          3   -1    0    0  501    0  0.00000000000E+00  0.00000000000E+00  0.46867644210E+02  0.46867644210E+02  0.00000000000E+00 0. -1.
         -3   -1    0    0    0  501 -0.00000000000E+00 -0.00000000000E+00 -0.27821121084E+03  0.27821121084E+03  0.00000000000E+00 0.  1.
         25    2    1    2    0    0 -0.28616346441E+02  0.23853336054E+02 -0.11938723868E+03  0.17688828879E+03  0.12509307345E+03 0.  0.
          5    1    3    3  502    0  0.24829914871E+02 -0.18856750345E+02 -0.10119578407E+03  0.10597245311E+03  0.41800000000E+01 0.  1.
         -5    1    3    3    0  502 -0.53446261312E+02  0.42710086399E+02 -0.18191454615E+02  0.70915835675E+02  0.41800000000E+01 0.  1.
        -11    1    1    2    0    0  0.53767716872E+02 -0.64046004459E+01 -0.10288419405E+03  0.11626325159E+03  0.00000000000E+00 0.  1.
         11    1    1    2    0    0 -0.25151370431E+02 -0.17448735608E+02 -0.90721338994E+01  0.31927314675E+02  0.00000000000E+00 0. -1.
</event>
<event>
 7    1  0.2844572E-009  0.1414312E+03  0.7561462E-02  0.1211416E+00
         -1   -1    0    0    0  501 -0.00000000000E+00  0.00000000000E+00  0.89592697196E+02  0.89592697196E+02  0.00000000000E+00 0. -1.
          1   -1    0    0  501    0  0.00000000000E+00 -0.00000000000E+00 -0.24008910103E+03  0.24008910103E+03  0.00000000000E+00 0.  1.
         25    2    1    2    0    0 -0.77590441731E+02  0.67335370776E+02 -0.83229799125E+02  0.18201255433E+03  0.12508813559E+03 0.  0.
          5    1    3    3  502    0 -0.64261709389E+02 -0.23681853892E+02 -0.24810967975E+02  0.72962004011E+02  0.41800000000E+01 0. -1.
         -5    1    3    3    0  502 -0.13328732341E+02  0.91017224669E+02 -0.58418831150E+02  0.10905055032E+03  0.41800000000E+01 0. -1.
        -11    1    1    2    0    0  0.87229917621E+02 -0.70352585366E+02 -0.40665517490E+02  0.11921505404E+03  0.00000000000E+00 0. -1.
         11    1    1    2    0    0 -0.96394758905E+01  0.30172145901E+01 -0.26601087222E+02  0.28454189862E+02  0.00000000000E+00 0.  1.
</event>
<event>
 7    1  0.3232656E-009  0.3507235E+03  0.7561462E-02  0.1062318E+00
          3   -1    0    0  501    0  0.00000000000E+00  0.00000000000E+00  0.98680147961E+03  0.98680147961E+03  0.00000000000E+00 0. -1.
         -3   -1    0    0    0  501 -0.00000000000E+00 -0.00000000000E+00 -0.13135163987E+03  0.13135163987E+03  0.00000000000E+00 0.  1.
         25    2    1    2    0    0 -0.33354380168E+03  0.76199643467E+02  0.39252682411E+03  0.53551621923E+03  0.12506982095E+03 0.  0.
          5    1    3    3  502    0 -0.15816528916E+03  0.72005297434E+02  0.11945135282E+03  0.21091969952E+03  0.41800000000E+01 0. -1.
         -5    1    3    3    0  502 -0.17537851252E+03  0.41943460338E+01  0.27307547129E+03  0.32459651971E+03  0.41800000000E+01 0. -1.
        -11    1    1    2    0    0  0.16484510536E+03  0.49771367296E+01  0.18883750724E+03  0.25071554557E+03  0.00000000000E+00 0. -1.
         11    1    1    2    0    0  0.16869869632E+03 -0.81176780197E+02  0.27408550839E+03  0.33192135468E+03  0.00000000000E+00 0.  1.
</event>
<event>
 7    1  0.2844572E-009  0.1591614E+03  0.7561462E-02  0.1189647E+00
         -2   -1    0    0    0  501 -0.00000000000E+00  0.00000000000E+00  0.47035143140E+02  0.47035143140E+02  0.00000000000E+00 0.  1.
          2   -1    0    0  501    0  0.00000000000E+00 -0.00000000000E+00 -0.87402219021E+03  0.87402219021E+03  0.00000000000E+00 0. -1.
         25    2    1    2    0    0 -0.97064341076E+02  0.12342870741E+03 -0.58268822082E+03  0.61630336336E+03  0.12509252930E+03 0.  0.
          5    1    3    3  502    0 -0.33409401725E+02  0.70391433216E+02 -0.10155577208E+03  0.12807103199E+03  0.41800000000E+01 0. -1.
         -5    1    3    3    0  502 -0.63654939351E+02  0.53037274191E+02 -0.48113244875E+03  0.48823233137E+03  0.41800000000E+01 0. -1.
        -11    1    1    2    0    0  0.59395304461E+02 -0.83151591033E+02 -0.22361244022E+03  0.24585465768E+03  0.00000000000E+00 0.  1.
         11    1    1    2    0    0  0.37669036615E+02 -0.40277116375E+02 -0.20686386026E+02  0.58899312304E+02  0.00000000000E+00 0. -1.
</event>
<event>
 7    1  0.2844572E-009  0.9846532E+02  0.7561462E-02  0.1283557E+00
          1   -1    0    0  501    0  0.00000000000E+00  0.00000000000E+00  0.27648165840E+03  0.27648165840E+03  0.00000000000E+00 0. -1.
         -1   -1    0    0    0  501 -0.00000000000E+00 -0.00000000000E+00 -0.81925377570E+02  0.81925377570E+02  0.00000000000E+00 0.  1.
         25    2    1    2    0    0 -0.27708289395E+02  0.55495472768E+02  0.21907816648E+03  0.25978803264E+03  0.12508829712E+03 0.  0.
          5    1    3    3  502    0 -0.54299826390E+02  0.78396487807E+02  0.19473908948E+03  0.21687615318E+03  0.41800000000E+01 0. -1.
         -5    1    3    3    0  502  0.26591536996E+02 -0.22901015039E+02  0.24339077004E+02  0.42911879463E+02  0.41800000000E+01 0. -1.
        -11    1    1    2    0    0  0.31104890204E+02 -0.42291079512E+02  0.16788206087E+02  0.55117088680E+02  0.00000000000E+00 0. -1.
         11    1    1    2    0    0 -0.33966008094E+01 -0.13204393256E+02 -0.41310091741E+02  0.43501914647E+02  0.00000000000E+00 0.  1.
</event>
<event>
 7    1  0.2844572E-009  0.9884021E+02  0.7561462E-02  0.1282754E+00
         -1   -1    0    0    0  501 -0.00000000000E+00  0.00000000000E+00  0.34381616517E+03  0.34381616517E+03  0.00000000000E+00 0.  1.
          1   -1    0    0  501    0  0.00000000000E+00 -0.00000000000E+00 -0.44064307620E+02  0.44064307620E+02  0.00000000000E+00 0. -1.
         25    2    1    2    0    0  0.47629747763E+02  0.22710614268E+02  0.11881611908E+03  0.18041271350E+03  0.12508841740E+03 0.  0.
          5    1    3    3  502    0  0.53509953412E+02  0.48288820927E+02  0.13221998479E+03  0.15064767545E+03  0.41800000000E+01 0.  1.
         -5    1    3    3    0  502 -0.58802056485E+01 -0.25578206659E+02 -0.13403865708E+02  0.29765038053E+02  0.41800000000E+01 0.  1.
        -11    1    1    2    0    0 -0.19526977372E+02  0.31949681022E+02  0.46913779021E+02  0.60024891709E+02  0.00000000000E+00 0.  1.
         11    1    1    2    0    0 -0.28102770392E+02 -0.54660295290E+02  0.13402195945E+03  0.14744286758E+03  0.00000000000E+00 0. -1.
</event>
<event>
 7    1  0.2844572E-009  0.1203244E+03  0.7561462E-02  0.1242563E+00
         -1   -1    0    0    0  501 -0.00000000000E+00  0.00000000000E+00  0.31430480674E+02  0.31430480674E+02  0.00000000000E+00 0.  1.
          1   -1    0    0  501    0  0.00000000000E+00 -0.00000000000E+00 -0.58557682393E+03  0.58557682393E+03  0.00000000000E+00 0. -1.
         25    2    1    2    0    0 -0.71733694759E+02  0.35602286838E+02 -0.29746559895E+03  0.33248311723E+03  0.12508395137E+03 0.  0.
          5    1    3    3  502    0 -0.63064826970E+02 -0.36451654462E+02 -0.11648226678E+03  0.13744630365E+03  0.41800000000E+01 0. -1.
         -5    1    3    3    0  502 -0.86688677888E+01  0.72053941300E+02 -0.18098333217E+03  0.19503681358E+03  0.41800000000E+01 0. -1.
        -11    1    1    2    0    0  0.48255538938E+02 -0.48322406100E+02 -0.24676461867E+03  0.25603989727E+03  0.00000000000E+00 0. -1.
         11    1    1    2    0    0  0.23478155821E+02  0.12720119262E+02 -0.99161256292E+01  0.28484290096E+02  0.00000000000E+00 0.  1.
</event>
<event>
 7    1  0.2844572E-009  0.6592089E+02  0.7561462E-02  0.1374541E+00
          1   -1    0    0  501    0  0.00000000000E+00  0.00000000000E+00  0.19730138860E+03  0.19730138860E+03  0.00000000000E+00 0. -1.
         -1   -1    0    0    0  501 -0.00000000000E+00 -0.00000000000E+00 -0.10589210083E+03  0.10589210083E+03  0.00000000000E+00 0.  1.
         25    2    1    2    0    0 -0.36547064371E+02  0.35915990746E+02 -0.34279343646E+02  0.13945242782E+03  0.12508501076E+03 0.  0.
          5    1    3    3  502    0  0.11017541390E+02  0.21689458884E+02 -0.72546080986E+02  0.76630445068E+02  0.41800000000E+01 0.  1.
         -5    1    3    3    0  502 -0.47564605760E+02  0.14226531862E+02  0.38266737339E+02  0.62821982749E+02  0.41800000000E+01 0.  1.
        -11    1    1    2    0    0  0.17438924679E+02 -0.92035568304E+00 -0.11477462747E+02  0.20897255792E+02  0.00000000000E+00 0.  1.
         11    1    1    2    0    0  0.19108139692E+02 -0.34995635063E+02  0.13716609416E+03  0.14284380583E+03  0.00000000000E+00 0. -1.
</event>
<event>
 7    1  0.2844572E-009  0.1511927E+03  0.7561462E-02  0.1199015E+00
         -2   -1    0    0    0  501 -0.00000000000E+00  0.00000000000E+00  0.35210183874E+02  0.35210183874E+02  0.00000000000E+00 0.  1.
          2   -1    0    0  501    0  0.00000000000E+00 -0.00000000000E+00 -0.97078796274E+03  0.97078796274E+03  0.00000000000E+00 0. -1.
         25    2    1    2    0    0  0.55958549532E+02 -0.12372772196E+03 -0.66706266580E+03  0.69214130360E+03  0.12508827124E+03 0.  0.
          5    1    3    3  502    0 -0.49683071531E+00  0.78210440230E+01 -0.26820811418E+03  0.26835513873E+03  0.41800000000E+01 0.  1.
         -5    1    3    3    0  502  0.56455380247E+02 -0.13154876598E+03 -0.39885455162E+03  0.42378616487E+03  0.41800000000E+01 0.  1.
        -11    1    1    2    0    0 -0.68466931858E+02  0.82511571048E+02 -0.23810255233E+03  0.26112967189E+03  0.00000000000E+00 0. -1.
         11    1    1    2    0    0  0.12508382327E+02  0.41216150912E+02 -0.30412560745E+02  0.52727171131E+02  0.00000000000E+00 0.  1.
</event>
<event>
 7    1  0.2844572E-009  0.1270752E+03  0.7561462E-02  0.1231861E+00
          2   -1    0    0  501    0  0.00000000000E+00  0.00000000000E+00  0.28275220948E+03  0.28275220948E+03  0.00000000000E+00 0. -1.
         -2   -1    0    0    0  501 -0.00000000000E+00 -0.00000000000E+00 -0.10174186817E+03  0.10174186817E+03  0.00000000000E+00 0.  1.
         25    2    1    2    0    0 -0.27762879489E+02  0.11350672846E+03  0.16292032686E+03  0.23631632563E+03  0.12509123860E+03 0.  0.
          5    1    3    3  502    0 -0.11855431792E+02  0.81859082217E+01  0.12075390151E+03  0.12168211654E+03  0.41800000000E+01 0. -1.
         -5    1    3    3    0  502 -0.15907447698E+02  0.10532082023E+03  0.42166425347E+02  0.11463420909E+03  0.41800000000E+01 0. -1.
        -11    1    1    2    0    0 -0.13162402834E+02 -0.75701619998E+02 -0.21548143544E+02  0.79801670464E+02  0.00000000000E+00 0.  1.
         11    1    1    2    0    0  0.40925282324E+02 -0.37805108457E+02  0.39638158006E+02  0.68376081556E+02  0.00000000000E+00 0. -1.
</event>
<event>
 7    1  0.2844572E-009  0.6775581E+02  0.7561462E-02  0.1367895E+00
          1   -1    0    0  501    0  0.00000000000E+00  0.00000000000E+00  0.39915425915E+02  0.39915425915E+02  0.00000000000E+00 0. -1.
         -1   -1    0    0    0  501 -0.00000000000E+00 -0.00000000000E+00 -0.35418079179E+03  0.35418079179E+03  0.00000000000E+00 0.  1.
         25    2    1    2    0    0  0.41605381880E+02  0.26105925099E+02 -0.17618215074E+03  0.22158302769E+03  0.12508541399E+03 0.  0.
          5    1    3    3  502    0  0.48785069981E+02  0.37610381126E+02 -0.20207444155E+02  0.64964121027E+02  0.41800000000E+01 0. -1.
         -5    1    3    3    0  502 -0.71796881013E+01 -0.11504456027E+02 -0.15597470659E+03  0.15661890666E+03  0.41800000000E+01 0. -1.
        -11    1    1    2    0    0 -0.85065442303E+01 -0.25059899145E+02 -0.13683888182E+03  0.13937445755E+03  0.00000000000E+00 0.  1.
         11    1    1    2    0    0 -0.33098837649E+02 -0.10460259542E+01 -0.12443333161E+01  0.33138732466E+02  0.00000000000E+00 0. -1.
</event>
<event>
 7    1  0.2844572E-009  0.9341649E+02  0.7561462E-02  0.1294783E+00
          2   -1    0    0  501    0  0.00000000000E+00  0.00000000000E+00  0.17722147958E+02  0.17722147958E+02  0.00000000000E+00 0.  1.
         -2   -1    0    0    0  501 -0.00000000000E+00 -0.00000000000E+00 -0.70247129416E+03  0.70247129416E+03  0.00000000000E+00 0. -1.
         25    2    1    2    0    0  0.21006978700E+02  0.13087000576E+02 -0.33452446316E+03  0.35799723843E+03  0.12507135376E+03 0.  0.
          5    1    3    3  502    0  0.57036806948E+02  0.56765553366E+01 -0.68528505685E+02  0.89437403355E+02  0.41800000000E+01 0.  1.
         -5    1    3    3    0  502 -0.36029828249E+02  0.74104452396E+01 -0.26599595747E+03  0.26855983507E+03  0.41800000000E+01 0.  1.
        -11    1    1    2    0    0 -0.31048838308E+02  0.32919483083E+02 -0.17427476922E+03  0.18005393057E+03  0.00000000000E+00 0.  1.
         11    1    1    2    0    0  0.10041859609E+02 -0.46006483659E+02 -0.17594991382E+03  0.18214227312E+03  0.00000000000E+00 0. -1.
</event>
<event>
 7    1  0.2844572E-009  0.1146316E+03  0.7561462E-02  0.1252226E+00
          2   -1    0    0  501    0  0.00000000000E+00  0.00000000000E+00  0.22133990339E+03  0.22133990339E+03  0.00000000000E+00 0. -1.
         -2   -1    0    0    0  501 -0.00000000000E+00 -0.00000000000E+00 -0.11683451743E+03  0.11683451743E+03  0.00000000000E+00 0.  1.
         25    2    1    2    0    0 -0.86813536697E+02  0.61805895123E+02  0.48964346800E+00  0.16433190281E+03  0.12509266847E+03 0.  0.
          5    1    3    3  502    0 -0.92985557872E+02  0.43160857504E+02  0.47612798558E+02  0.11310890584E+03  0.41800000000E+01 0.  1.
         -5    1    3    3    0  502  0.61720211749E+01  0.18645037619E+02 -0.47123155090E+02  0.51222996972E+02  0.41800000000E+01 0.  1.
        -11    1    1    2    0    0  0.72321274082E+02 -0.52342051318E+02  0.12048158951E+03  0.14995289404E+03  0.00000000000E+00 0. -1.
         11    1    1    2    0    0  0.14492262616E+02 -0.94638438049E+01 -0.16465847015E+02  0.23889623965E+02  0.00000000000E+00 0.  1.
</event>
<event>
 7    1  0.4312049E-009  0.1251920E+03  0.7561462E-02  0.1234769E+00
         -2   -1    0    0    0  501 -0.00000000000E+00  0.00000000000E+00  0.60361998871E+02  0.60361998871E+02  0.00000000000E+00 0.  1.
          2   -1    0    0  501    0  0.00000000000E+00 -0.00000000000E+00 -0.31314475659E+03  0.31314475659E+03  0.00000000000E+00 0. -1.
         25    2    1    2    0    0  0.77765062464E+02 -0.26496428687E+02 -0.16287131020E+03  0.22118767489E+03  0.12508980040E+03 0.  0.
          5    1    3    3  502    0  0.10362424384E+02 -0.68890388149E+02 -0.80614785478E+02  0.10662777057E+03  0.41800000000E+01 0.  1.
         -5    1    3    3    0  502  0.67402638080E+02  0.42393959461E+02 -0.82256524725E+02  0.11455990432E+03  0.41800000000E+01 0.  1.
        -11    1    1    2    0    0  0.43148744658E+01  0.17802899844E+02  0.11450037634E+02  0.21602424548E+02  0.00000000000E+00 0.  1.
         11    1    1    2    0    0 -0.82079936929E+02  0.86935288434E+01 -0.10136148515E+03  0.13071665602E+03  0.00000000000E+00 0. -1.
</event>
<event>
 7    1  0.2844572E-009  0.1029487E+03  0.7561462E-02  0.1274215E+00
         -1   -1    0    0    0  501 -0.00000000000E+00  0.00000000000E+00  0.24313379734E+02  0.24313379734E+02  0.00000000000E+00 0.  1.
          1   -1    0    0  501    0  0.00000000000E+00 -0.00000000000E+00 -0.59454342649E+03  0.59454342649E+03  0.00000000000E+00 0. -1.
         25    2    1    2    0    0  0.26217442241E+02 -0.27256333740E+02 -0.37814661216E+03  0.40009186960E+03  0.12509349236E+03 0.  0.
          5    1    3    3  502    0 -0.42784136678E+02 -0.41891854534E+02 -0.17442301706E+03  0.18446211293E+03  0.41800000000E+01 0. -1.
         -5    1    3    3    0  502  0.69001578919E+02  0.14635520793E+02 -0.20372359510E+03  0.21562975667E+03  0.41800000000E+01 0. -1.
        -11    1    1    2    0    0 -0.10832484571E+02  0.48100921456E+02 -0.37291378655E+02  0.61819804990E+02  0.00000000000E+00 0.  1.
         11    1    1    2    0    0 -0.15384957671E+02 -0.20844587716E+02 -0.15479205594E+03  0.15694513163E+03  0.00000000000E+00 0. -1.
</event>
<event>
 7    1  0.2988160E-009  0.1017345E+03  0.7561462E-02  0.1276690E+00
         -2   -1    0    0    0  501 -0.00000000000E+00  0.00000000000E+00  0.39993900815E+02  0.39993900815E+02  0.00000000000E+00 0.  1.
          2   -1    0    0  501    0  0.00000000000E+00 -0.00000000000E+00 -0.37510439092E+03  0.37510439092E+03  0.00000000000E+00 0. -1.
         25    2    1    2    0    0  0.32041319011E+02  0.12264628815E+02 -0.10994554425E+03  0.17003748739E+03  0.12509059586E+03 0.  0.
          5    1    3    3  502    0  0.31166952728E+02 -0.50660790740E+02 -0.81159619594E+02  0.10070874298E+03  0.41800000000E+01 0.  1.
         -5    1    3    3    0  502  0.87436628299E+00  0.62925419555E+02 -0.28785924651E+02  0.69328744403E+02  0.41800000000E+01 0.  1.
        -11    1    1    2    0    0  0.19045045787E+01 -0.38078394090E+02 -0.40854449935E+02  0.55880920838E+02  0.00000000000E+00 0.  1.
         11    1    1    2    0    0 -0.33945823590E+02  0.25813765275E+02 -0.18431049592E+03  0.18917988351E+03  0.00000000000E+00 0. -1.
</event>
<event>
 7    1  0.2844572E-009  0.1249994E+03  0.7561462E-02  0.1235070E+00
          1   -1    0    0  501    0  0.00000000000E+00  0.00000000000E+00  0.52082718048E+03  0.52082718048E+03  0.00000000000E+00 0. -1.
         -1   -1    0    0    0  501 -0.00000000000E+00 -0.00000000000E+00 -0.52716637328E+02  0.52716637328E+02  0.00000000000E+00 0.  1.
         25    2    1    2    0    0  0.71131753636E+02  0.77893652485E+02  0.13051254670E+03  0.20930402035E+03  0.12508997009E+03 0.  0.
          5    1    3    3  502    0  0.37084688432E+02  0.73012888296E+02  0.84648887721E+01  0.82433504810E+02  0.41800000000E+01 0.  1.
         -5    1    3    3    0  502  0.34047065204E+02  0.48807641888E+01  0.12204765792E+03  0.12687051554E+03  0.41800000000E+01 0.  1.
        -11    1    1    2    0    0  0.13691996322E+02  0.51666825165E+01  0.17366043940E+02  0.22710016592E+02  0.00000000000E+00 0.  1.
         11    1    1    2    0    0 -0.84823749958E+02 -0.83060335001E+02  0.32023195252E+03  0.34152978087E+03  0.00000000000E+00 0. -1.
</event>
<event>
 7    1  0.2844572E-009  0.5948349E+02  0.7561462E-02  0.1400012E+00
          1   -1    0    0  501    0  0.00000000000E+00  0.00000000000E+00  0.11033948923E+04  0.11033948923E+04  0.00000000000E+00 0. -1.
         -1   -1    0    0    0  501 -0.00000000000E+00 -0.00000000000E+00 -0.32198914293E+02  0.32198914293E+02  0.00000000000E+00 0.  1.
         25    2    1    2    0    0 -0.43960063743E+02 -0.37985815218E+01  0.10068217305E+04  0.10155206563E+04  0.12508113348E+03 0.  0.
          5    1    3    3  502    0 -0.44178907494E+02  0.20904041483E+01  0.10073006334E+04  0.10082798143E+04  0.41800000000E+01 0.  1.
         -5    1    3    3    0  502  0.21884375101E+00 -0.58889856702E+01 -0.47890282673E+00  0.72408419903E+01  0.41800000000E+01 0.  1.
        -11    1    1    2    0    0  0.49991791249E+01 -0.20698866698E+02  0.70499114864E+02  0.73644823790E+02  0.00000000000E+00 0. -1.
         11    1    1    2    0    0  0.38960884618E+02  0.24497448220E+02 -0.61248673716E+01  0.46428326481E+02  0.00000000000E+00 0.  1.
</event>
<event>
 7    1  0.2844572E-009  0.1790518E+03  0.7561462E-02  0.1168724E+00
         -1   -1    0    0    0  501 -0.00000000000E+00  0.00000000000E+00  0.31216666013E+03  0.31216666013E+03  0.00000000000E+00 0.  1.
          1   -1    0    0  501    0  0.00000000000E+00 -0.00000000000E+00 -0.14108940811E+03  0.14108940811E+03  0.00000000000E+00 0. -1.
         25    2    1    2    0    0 -0.24098806683E+02 -0.15932918983E+03  0.32460628169E+01  0.20402290300E+03  0.12509302463E+03 0.  0.
          5    1    3    3  502    0 -0.38743588406E+02 -0.15792760116E+03 -0.31837492089E+02  0.16575068975E+03  0.41800000000E+01 0. -1.
         -5    1    3    3    0  502  0.14644781723E+02 -0.14015886707E+01  0.35083554906E+02  0.38272213254E+02  0.41800000000E+01 0. -1.
        -11    1    1    2    0    0 -0.29692272428E+02  0.67098497334E+02  0.94784061874E+02  0.11986599923E+03  0.00000000000E+00 0.  1.
         11    1    1    2    0    0  0.53791079111E+02  0.92230692495E+02  0.73047127328E+02  0.12936716601E+03  0.00000000000E+00 0. -1.
</event>
<event>
 7    1  0.2844572E-009  0.1190159E+03  0.7561462E-02  0.1244729E+00
          2   -1    0    0  501    0  0.00000000000E+00  0.00000000000E+00  0.40440888168E+03  0.40440888168E+03  0.00000000000E+00 0. -1.
         -2   -1    0    0    0  501 -0.00000000000E+00 -0.00000000000E+00 -0.59290818435E+02  0.59290818435E+02  0.00000000000E+00 0.  1.
         25    2    1    2    0    0 -0.87121320200E+02  0.68463371041E+01  0.31575109228E+03  0.35069423395E+03  0.12510274451E+03 0.  0.
          5    1    3    3  502    0 -0.63825317669E+02 -0.51486950271E+02  0.23072523326E+03  0.24490035297E+03  0.41800000000E+01 0. -1.
         -5    1    3    3    0  502 -0.23296002531E+02  0.58333287375E+02  0.85025859019E+02  0.10579388098E+03  0.41800000000E+01 0. -1.
        -11    1    1    2    0    0  0.71327286276E+02 -0.18086310735E+02 -0.47799384192E+01  0.73739705822E+02  0.00000000000E+00 0.  1.
         11    1    1    2    0    0  0.15794033924E+02  0.11239973631E+02  0.34146909388E+02  0.39265760346E+02  0.00000000000E+00 0. -1.
</event>
<event>
 7    1  0.2844572E-009  0.1098338E+03  0.7561462E-02  0.1260878E+00
         -2   -1    0    0    0  501 -0.00000000000E+00  0.00000000000E+00  0.33325127701E+02  0.33325127701E+02  0.00000000000E+00 0.  1.
          2   -1    0    0  501    0  0.00000000000E+00 -0.00000000000E+00 -0.49304373080E+03  0.49304373080E+03  0.00000000000E+00 0. -1.
         25    2    1    2    0    0  0.46284357626E+02  0.39214764892E+02 -0.28919017041E+03  0.32087192081E+03  0.12509114820E+03 0.  0.
          5    1    3    3  502    0 -0.21427177999E+01  0.63862945206E+02 -0.23668735217E+03  0.24519674159E+03  0.41800000000E+01 0. -1.
         -5    1    3    3    0  502  0.48427075426E+02 -0.24648180314E+02 -0.52502818244E+02  0.75675179224E+02  0.41800000000E+01 0. -1.
        -11    1    1    2    0    0 -0.39008954434E+02  0.18350473464E+02 -0.12350215341E+03  0.13080986316E+03  0.00000000000E+00 0. -1.
         11    1    1    2    0    0 -0.72754031921E+01 -0.57565238356E+02 -0.47026279269E+02  0.74687074521E+02  0.00000000000E+00 0.  1.
</event>
<event>
 7    1  0.2844572E-009  0.9591844E+02  0.7561462E-02  0.1289121E+00
         -3   -1    0    0    0  501 -0.00000000000E+00  0.00000000000E+00  0.22700467099E+02  0.22700467099E+02  0.00000000000E+00 0.  1.
          3   -1    0    0  501    0  0.00000000000E+00 -0.00000000000E+00 -0.60312066970E+03  0.60312066970E+03  0.00000000000E+00 0. -1.
         25    2    1    2    0    0  0.39036555038E+02  0.84881250844E+01 -0.27418936886E+03  0.30401108018E+03  0.12508807290E+03 0.  0.
          5    1    3    3  502    0  0.62593764221E+02  0.21007824597E+02 -0.26834907598E+03  0.27638380378E+03  0.41800000000E+01 0. -1.
         -5    1    3    3    0  502 -0.23557209183E+02 -0.12519699513E+02 -0.58402928800E+01  0.27627276400E+02  0.41800000000E+01 0. -1.
        -11    1    1    2    0    0  0.29216822875E+02  0.33362291255E+01 -0.81320987541E+02  0.86474598457E+02  0.00000000000E+00 0. -1.
         11    1    1    2    0    0 -0.68253377913E+02 -0.11824354210E+02 -0.22490984619E+03  0.23533545815E+03  0.00000000000E+00 0.  1.
</event>
<event>
 7    1  0.2844572E-009  0.1258558E+03  0.7561462E-02  0.1233738E+00
         -2   -1    0    0    0  501 -0.00000000000E+00  0.00000000000E+00  0.16200901483E+03  0.16200901483E+03  0.00000000000E+00 0.  1.
          2   -1    0    0  501    0  0.00000000000E+00 -0.00000000000E+00 -0.11954335099E+03  0.11954335099E+03  0.00000000000E+00 0. -1.
         25    2    1    2    0    0  0.60920258947E+01 -0.79052287039E+02 -0.11545974812E+02  0.14855169446E+03  0.12509164451E+03 0.  0.
          5    1    3    3  502    0  0.54288835732E+02 -0.34803879491E+02 -0.41154467866E+02  0.76614295912E+02  0.41800000000E+01 0. -1.
         -5    1    3    3    0  502 -0.48196809838E+02 -0.44248407548E+02  0.29608493054E+02  0.71937398549E+02  0.41800000000E+01 0. -1.
        -11    1    1    2    0    0  0.42109335736E+02  0.49500545622E+02  0.29821870001E+02  0.71504154448E+02  0.00000000000E+00 0.  1.
         11    1    1    2    0    0 -0.48201361631E+02  0.29551741417E+02  0.24189768654E+02  0.61496516904E+02  0.00000000000E+00 0. -1.
</event>
<event>
 7    1  0.2844572E-009  0.9770310E+02  0.7561462E-02  0.1285202E+00
         -1   -1    0    0    0  501 -0.00000000000E+00  0.00000000000E+00  0.70216309426E+02  0.70216309426E+02  0.00000000000E+00 0.  1.
          1   -1    0    0  501    0  0.00000000000E+00 -0.00000000000E+00 -0.19573742533E+03  0.19573742533E+03  0.00000000000E+00 0. -1.
         25    2    1    2    0    0 -0.26166308456E+02 -0.19887216803E+02 -0.35148368632E+02  0.13403112978E+03  0.12509499927E+03 0.  0.
          5    1    3    3  502    0  0.68262175533E+01  0.45539480891E+02  0.10745413418E+02  0.47469757482E+02  0.41800000000E+01 0. -1.
         -5    1    3    3    0  502 -0.32992526009E+02 -0.65426697694E+02 -0.45893782050E+02  0.86561372300E+02  0.41800000000E+01 0. -1.
        -11    1    1    2    0    0  0.49642141684E+02  0.13347216091E+02 -0.16274560797E+02  0.53919864035E+02  0.00000000000E+00 0.  1.
         11    1    1    2    0    0 -0.23475833229E+02  0.65400007125E+01 -0.74098186475E+02  0.78002740939E+02  0.00000000000E+00 0. -1.
</event>
<event>
 7    1  0.2844572E-009  0.9649830E+02  0.7561462E-02  0.1287837E+00
          4   -1    0    0  501    0  0.00000000000E+00  0.00000000000E+00  0.22610035432E+02  0.22610035432E+02  0.00000000000E+00 0. -1.
         -4   -1    0    0    0  501 -0.00000000000E+00 -0.00000000000E+00 -0.68908149299E+03  0.68908149299E+03  0.00000000000E+00 0.  1.
         25    2    1    2    0    0  0.83551790791E+01 -0.45858020552E+02 -0.48362318156E+03  0.50170888816E+03  0.12509060576E+03 0.  0.
          5    1    3    3  502    0 -0.41664838047E+02 -0.34425927579E+02 -0.92512156083E+02  0.10722441253E+03  0.41800000000E+01 0.  1.
         -5    1    3    3    0  502  0.50020017126E+02 -0.11432092973E+02 -0.39111102548E+03  0.39448447563E+03  0.41800000000E+01 0.  1.
        -11    1    1    2    0    0 -0.15416971955E+02  0.65053274806E+02 -0.76113413974E+02  0.10130579141E+03  0.00000000000E+00 0. -1.
         11    1    1    2    0    0  0.70617928756E+01 -0.19195254255E+02 -0.10673486203E+03  0.10867684885E+03  0.00000000000E+00 0.  1.
</event>
<event>
 7    1  0.2844572E-009  0.1861174E+03  0.7561462E-02  0.1162010E+00
          2   -1    0    0  501    0  0.00000000000E+00  0.00000000000E+00  0.14903160026E+04  0.14903160026E+04  0.00000000000E+00 0. -1.
         -2   -1    0    0    0  501 -0.00000000000E+00 -0.00000000000E+00 -0.25423584588E+02  0.25423584588E+02  0.00000000000E+00 0.  1.
         25    2    1    2    0    0 -0.37703922765E+02  0.15679359420E+03  0.73106064713E+03  0.75901447316E+03  0.12508990252E+03 0.  0.
          5    1    3    3  502    0 -0.40594475217E+02  0.84196337525E+01  0.30490970350E+03  0.30774372673E+03  0.41800000000E+01 0. -1.
         -5    1    3    3    0  502  0.28905524521E+01  0.14837396045E+03  0.42615094363E+03  0.45127074643E+03  0.41800000000E+01 0. -1.
        -11    1    1    2    0    0 -0.20560153723E+02 -0.94902247682E+02  0.32723806915E+03  0.34134134006E+03  0.00000000000E+00 0.  1.
         11    1    1    2    0    0  0.58264076488E+02 -0.61891346516E+02  0.40659370176E+03  0.41538377399E+03  0.00000000000E+00 0. -1.
</event>
<event>
 7    1  0.2844572E-009  0.9926114E+02  0.7561462E-02  0.1281857E+00
         -2   -1    0    0    0  501 -0.00000000000E+00  0.00000000000E+00  0.18030830040E+03  0.18030830040E+03  0.00000000000E+00 0.  1.
          2   -1    0    0  501    0  0.00000000000E+00 -0.00000000000E+00 -0.76265505940E+02  0.76265505940E+02  0.00000000000E+00 0. -1.
         25    2    1    2    0    0 -0.42429884952E+02 -0.49515835673E+01  0.77096799388E+02  0.15302222230E+03  0.12508825174E+03 0.  0.
          5    1    3    3  502    0 -0.71788947895E+02 -0.54520733418E+01  0.94314981700E+02  0.11872727705E+03  0.41800000000E+01 0. -1.
         -5    1    3    3    0  502  0.29359062944E+02  0.50048977453E+00 -0.17218182312E+02  0.34294945241E+02  0.41800000000E+01 0. -1.
        -11    1    1    2    0    0  0.78973475323E+01 -0.39599046853E+02 -0.15137149582E+01  0.40407226367E+02  0.00000000000E+00 0.  1.
         11    1    1    2    0    0  0.34532537419E+02  0.44550630420E+02  0.28459710028E+02  0.63144357676E+02  0.00000000000E+00 0. -1.
</event>
<event>
 7    1  0.2844572E-009  0.9720522E+02  0.7561462E-02  0.1286285E+00
          2   -1    0    0  501    0  0.00000000000E+00  0.00000000000E+00  0.33406177951E+02  0.33406177951E+02  0.00000000000E+00 0. -1.
         -2   -1    0    0    0  501 -0.00000000000E+00 -0.00000000000E+00 -0.40581122603E+03  0.40581122603E+03  0.00000000000E+00 0.  1.
         25    2    1    2    0    0  0.12760087119E+02  0.79099159612E+01 -0.29529508995E+03  0.32104866395E+03  0.12509063868E+03 0.  0.
          5    1    3    3  502    0 -0.30124045464E+01 -0.57613348221E+02 -0.15222494565E+03  0.16284433964E+03  0.41800000000E+01 0. -1.
         -5    1    3    3    0  502  0.15772491666E+02  0.65523264182E+02 -0.14307014429E+03  0.15820432431E+03  0.41800000000E+01 0. -1.
        -11    1    1    2    0    0  0.17898807193E+02 -0.27389244127E+02  0.23401311639E+00  0.32719913737E+02  0.00000000000E+00 0.  1.
         11    1    1    2    0    0 -0.30658894312E+02  0.19479328166E+02 -0.77343971252E+02  0.85448826295E+02  0.00000000000E+00 0. -1.
</event>
<event>
 7    1  0.2844572E-009  0.1312653E+03  0.7561462E-02  0.1225590E+00
         -1   -1    0    0    0  501 -0.00000000000E+00  0.00000000000E+00  0.25202420872E+03  0.25202420872E+03  0.00000000000E+00 0.  1.
          1   -1    0    0  501    0  0.00000000000E+00 -0.00000000000E+00 -0.86745821107E+02  0.86745821107E+02  0.00000000000E+00 0. -1.
         25    2    1    2    0    0  0.87062350531E+01  0.86431360088E+02  0.32001922026E+02  0.15562173651E+03  0.12509125999E+03 0.  0.
          5    1    3    3  502    0 -0.23053429145E+02  0.10745797845E+03  0.38955998799E+02  0.11667784696E+03  0.41800000000E+01 0. -1.
         -5    1    3    3    0  502  0.31759664198E+02 -0.21026618364E+02 -0.69540767739E+01  0.38943889554E+02  0.41800000000E+01 0. -1.
        -11    1    1    2    0    0  0.31763919733E+02 -0.23925336009E+02  0.86522543356E+02  0.95223520249E+02  0.00000000000E+00 0.  1.
         11    1    1    2    0    0 -0.40470154786E+02 -0.62506024079E+02  0.46753922233E+02  0.87924773066E+02  0.00000000000E+00 0. -1.
</event>
<event>
 7    1  0.2844572E-009  0.1122684E+03  0.7561462E-02  0.1256426E+00
         -1   -1    0    0    0  501 -0.00000000000E+00  0.00000000000E+00  0.10040242247E+04  0.10040242247E+04  0.00000000000E+00 0.  1.
          1   -1    0    0  501    0  0.00000000000E+00 -0.00000000000E+00 -0.16702355003E+02  0.16702355003E+02  0.00000000000E+00 0. -1.
         25    2    1    2    0    0 -0.54152868689E+02  0.48792736186E+02  0.44765623270E+03  0.47048583073E+03  0.12509016731E+03 0.  0.
          5    1    3    3  502    0  0.51427665910E+01 -0.23192361565E+02  0.16225398781E+02  0.29070081678E+02  0.41800000000E+01 0.  1.
         -5    1    3    3    0  502 -0.59295635280E+02  0.71985097751E+02  0.43143083392E+03  0.44141574906E+03  0.41800000000E+01 0.  1.
        -11    1    1    2    0    0  0.56503617183E+01 -0.57504671276E+02  0.31157653005E+03  0.31688901509E+03  0.00000000000E+00 0.  1.
         11    1    1    2    0    0  0.48502506971E+02  0.87119350897E+01  0.22808910696E+03  0.23335173389E+03  0.00000000000E+00 0. -1.
</event>
<event>
 7    1  0.2844572E-009  0.1215454E+03  0.7561462E-02  0.1240569E+00
         -3   -1    0    0    0  501 -0.00000000000E+00  0.00000000000E+00  0.41082610517E+02  0.41082610517E+02  0.00000000000E+00 0. -1.
          3   -1    0    0  501    0  0.00000000000E+00 -0.00000000000E+00 -0.51615865754E+03  0.51615865754E+03  0.00000000000E+00 0.  1.
         25    2    1    2    0    0  0.45924486411E+02  0.37338557471E+02 -0.11114914218E+03  0.17749503020E+03  0.12508847914E+03 0.  0.
          5    1    3    3  502    0 -0.36077876895E+02 -0.15035666401E+02 -0.45068181191E+02  0.59802155657E+02  0.41800000000E+01 0. -1.
         -5    1    3    3    0  502  0.82002363306E+02  0.52374223871E+02 -0.66080960984E+02  0.11769287454E+03  0.41800000000E+01 0. -1.
        -11    1    1    2    0    0  0.96661713787E+01  0.22637602778E+02 -0.11928848649E+03  0.12180163767E+03  0.00000000000E+00 0.  1.
         11    1    1    2    0    0 -0.55590657790E+02 -0.59976160248E+02 -0.24463841835E+03  0.25794460019E+03  0.00000000000E+00 0. -1.
</event>
<event>
 7    1  0.5224630E-009  0.1025225E+03  0.7561462E-02  0.1275079E+00
          1   -1    0    0  501    0  0.00000000000E+00  0.00000000000E+00  0.12247461927E+03  0.12247461927E+03  0.00000000000E+00 0. -1.
         -1   -1    0    0    0  501 -0.00000000000E+00 -0.00000000000E+00 -0.12125298396E+03  0.12125298396E+03  0.00000000000E+00 0.  1.
         25    2    1    2    0    0 -0.95193009953E+01 -0.84424304462E+00  0.55422089634E+02  0.13715072180E+03  0.12508949849E+03 0.  0.
          5    1    3    3  502    0  0.88848655416E+01 -0.60303875158E+02  0.15318176572E+02  0.62989023871E+02  0.41800000000E+01 0.  1.
         -5    1    3    3    0  502 -0.18404166537E+02  0.59459632113E+02  0.40103913063E+02  0.74161697930E+02  0.41800000000E+01 0.  1.
        -11    1    1    2    0    0  0.44937911024E+02 -0.64608332346E+01 -0.53819316730E+02  0.70410773796E+02  0.00000000000E+00 0.  1.
         11    1    1    2    0    0 -0.35418610028E+02  0.73050762792E+01 -0.38113759316E+00  0.36166107638E+02  0.00000000000E+00 0. -1.
</event>
<event>
 7    1  0.2844572E-009  0.9942617E+02  0.7561462E-02  0.1281507E+00
          4   -1    0    0  501    0  0.00000000000E+00  0.00000000000E+00  0.10191501355E+03  0.10191501355E+03  0.00000000000E+00 0.  1.
         -4   -1    0    0    0  501 -0.00000000000E+00 -0.00000000000E+00 -0.10687320448E+03  0.10687320448E+03  0.00000000000E+00 0. -1.
         25    2    1    2    0    0  0.47249189226E+00  0.20844534182E+02  0.19954340433E+02  0.12838453831E+03  0.12509874548E+03 0.  0.
          5    1    3    3  502    0  0.50119336231E+02  0.45560732780E+02 -0.36653014108E+01  0.67960540537E+02  0.41800000000E+01 0. -1.
         -5    1    3    3    0  502 -0.49646844338E+02 -0.24716198598E+02  0.23619641844E+02  0.60423997772E+02  0.41800000000E+01 0. -1.
        -11    1    1    2    0    0 -0.37188385380E+01 -0.47940574687E+02 -0.22254190580E+02  0.52984690806E+02  0.00000000000E+00 0. -1.
         11    1    1    2    0    0  0.32463466458E+01  0.27096040505E+02 -0.26583407791E+01  0.27418988919E+02  0.00000000000E+00 0.  1.
</event>
<event>
 7    1  0.2844572E-009  0.1340962E+03  0.7561462E-02  0.1221501E+00
          2   -1    0    0  501    0  0.00000000000E+00  0.00000000000E+00  0.26923785080E+03  0.26923785080E+03  0.00000000000E+00 0.  1.
         -2   -1    0    0    0  501 -0.00000000000E+00 -0.00000000000E+00 -0.99809396352E+02  0.99809396352E+02  0.00000000000E+00 0. -1.
         25    2    1    2    0    0 -0.23361070071E+02 -0.11811978464E+03  0.77726919164E+02  0.19023115330E+03  0.12509354342E+03 0.  0.
          5    1    3    3  502    0 -0.10930579707E+02 -0.96753346231E+02 -0.10956318753E+02  0.98072426809E+02  0.41800000000E+01 0.  1.
         -5    1    3    3    0  502 -0.12430490364E+02 -0.21366438406E+02  0.88683237917E+02  0.92158726490E+02  0.41800000000E+01 0.  1.
        -11    1    1    2    0    0 -0.30672820812E+02  0.50787272723E+02  0.65980654575E+02  0.88733397238E+02  0.00000000000E+00 0.  1.
         11    1    1    2    0    0  0.54033890883E+02  0.67332511913E+02  0.25720880706E+02  0.90082696612E+02  0.00000000000E+00 0. -1.
</event>
<event>
 7    1  0.2844572E-009  0.1907235E+03  0.7561462E-02  0.1157810E+00
         -2   -1    0    0    0  501 -0.00000000000E+00  0.00000000000E+00  0.16800123194E+03  0.16800123194E+03  0.00000000000E+00 0.  1.
          2   -1    0    0  501    0  0.00000000000E+00 -0.00000000000E+00 -0.33444388343E+03  0.33444388343E+03  0.00000000000E+00 0. -1.
         25    2    1    2    0    0 -0.15016116695E+03  0.79034001800E+02 -0.21758071981E+03  0.30295769225E+03  0.12508894501E+03 0.  0.
          5    1    3    3  502    0  0.21125379684E+02  0.15633562178E+02 -0.40986756743E+02  0.48867950248E+02  0.41800000000E+01 0.  1.
         -5    1    3    3    0  502 -0.17128654663E+03  0.63400439623E+02 -0.17659396307E+03  0.25408974201E+03  0.41800000000E+01 0.  1.
        -11    1    1    2    0    0  0.79195015449E+02 -0.25327364329E+02  0.69792568389E+02  0.10855564683E+03  0.00000000000E+00 0.  1.
         11    1    1    2    0    0  0.70966151496E+02 -0.53706637471E+02 -0.18654500071E+02  0.90931776291E+02  0.00000000000E+00 0. -1.
</event>
<event>
 7    1  0.2844572E-009  0.1387916E+03  0.7561462E-02  0.1214964E+00
          2   -1    0    0  501    0  0.00000000000E+00  0.00000000000E+00  0.40696912337E+03  0.40696912337E+03  0.00000000000E+00 0. -1.
         -2   -1    0    0    0  501 -0.00000000000E+00 -0.00000000000E+00 -0.64245408630E+02  0.64245408630E+02  0.00000000000E+00 0.  1.
         25    2    1    2    0    0 -0.95887863510E+02  0.56874707852E+02  0.25578253971E+03  0.30578047443E+03  0.12509107144E+03 0.  0.
          5    1    3    3  502    0 -0.10746858548E+03  0.33547426242E+02  0.25568297162E+03  0.27940325883E+03  0.41800000000E+01 0.  1.
         -5    1    3    3    0  502  0.11580721968E+02  0.23327281610E+02  0.99568099124E-01  0.26377215593E+02  0.41800000000E+01 0.  1.
        -11    1    1    2    0    0  0.23871086696E+02 -0.61910367530E+02  0.56254403381E+02  0.86990116033E+02  0.00000000000E+00 0.  1.
         11    1    1    2    0    0  0.72016776814E+02  0.50356596781E+01  0.30686771647E+02  0.78443941545E+02  0.00000000000E+00 0. -1.
</event>
<event>
 7    1  0.2844572E-009  0.1124603E+03  0.7561462E-02  0.1256080E+00
         -2   -1    0    0    0  501 -0.00000000000E+00  0.00000000000E+00  0.88216321895E+01  0.88216321895E+01  0.00000000000E+00 0. -1.
          2   -1    0    0  501    0  0.00000000000E+00 -0.00000000000E+00 -0.15899938297E+04  0.15899938297E+04  0.00000000000E+00 0.  1.
         25    2    1    2    0    0 -0.35233992242E+02 -0.12128885327E+02 -0.11045106139E+04  0.11121958968E+04  0.12508985790E+03 0.  0.
          5    1    3    3  502    0 -0.29337923400E+02  0.55277779961E+02 -0.53728196457E+03  0.54093042858E+03  0.41800000000E+01 0. -1.
         -5    1    3    3    0  502 -0.58960688418E+01 -0.67406665288E+02 -0.56722864936E+03  0.57126546825E+03  0.41800000000E+01 0. -1.
        -11    1    1    2    0    0 -0.27623691991E+02  0.15096659379E+02 -0.10323371732E+03  0.10792672457E+03  0.00000000000E+00 0.  1.
         11    1    1    2    0    0  0.62857684233E+02 -0.29677740522E+01 -0.37342786627E+03  0.37869284051E+03  0.00000000000E+00 0. -1.
</event>
<event>
 7    1  0.2844572E-009  0.1311583E+03  0.7561462E-02  0.1225747E+00
         -1   -1    0    0    0  501 -0.00000000000E+00  0.00000000000E+00  0.46127657803E+02  0.46127657803E+02  0.00000000000E+00 0.  1.
          1   -1    0    0  501    0  0.00000000000E+00 -0.00000000000E+00 -0.53565529542E+03  0.53565529542E+03  0.00000000000E+00 0. -1.
         25    2    1    2    0    0 -0.37348627195E+02 -0.94769787775E+02 -0.35456820551E+03  0.38954003243E+03  0.12508633768E+03 0.  0.
          5    1    3    3  502    0 -0.82265949826E+02 -0.54170860084E+02 -0.18841364727E+03  0.21264840338E+03  0.41800000000E+01 0. -1.
         -5    1    3    3    0  502  0.44917322631E+02 -0.40598927691E+02 -0.16615455824E+03  0.17689162905E+03  0.41800000000E+01 0. -1.
        -11    1    1    2    0    0  0.14733719620E+02  0.58238178153E+02 -0.11030298712E+02  0.61077290199E+02  0.00000000000E+00 0.  1.
         11    1    1    2    0    0  0.22614907575E+02  0.36531609622E+02 -0.12392913339E+03  0.13116563060E+03  0.00000000000E+00 0. -1.
</event>
<event>
 7    1  0.2844572E-009  0.8138530E+02  0.7561462E-02  0.1325165E+00
         -1   -1    0    0    0  501 -0.00000000000E+00  0.00000000000E+00  0.16923136981E+02  0.16923136981E+02  0.00000000000E+00 0.  1.
          1   -1    0    0  501    0  0.00000000000E+00 -0.00000000000E+00 -0.13825279362E+04  0.13825279362E+04  0.00000000000E+00 0. -1.
         25    2    1    2    0    0 -0.26970342228E+02 -0.21085918823E+02 -0.11984098413E+04  0.12054066310E+04  0.12508790080E+03 0.  0.
          5    1    3    3  502    0 -0.55705852770E+02 -0.13650983580E+02 -0.11198037470E+04  0.11212793567E+04  0.41800000000E+01 0. -1.
         -5    1    3    3    0  502  0.28735510542E+02 -0.74349352427E+01 -0.78606094291E+02  0.84127274340E+02  0.41800000000E+01 0. -1.
        -11    1    1    2    0    0 -0.21731929326E+02  0.14544944576E+02 -0.12949536717E+03  0.13210935729E+03  0.00000000000E+00 0. -1.
         11    1    1    2    0    0  0.48702271554E+02  0.65409742469E+01 -0.37699590684E+02  0.61935084858E+02  0.00000000000E+00 0.  1.
</event>
<event>
 7    1  0.2844572E-009  0.9834707E+02  0.7561462E-02  0.1283811E+00
         -1   -1    0    0    0  501 -0.00000000000E+00  0.00000000000E+00  0.26643234863E+02  0.26643234863E+02  0.00000000000E+00 0.  1.
          1   -1    0    0  501    0  0.00000000000E+00 -0.00000000000E+00 -0.54613937157E+03  0.54613937157E+03  0.00000000000E+00 0. -1.
         25    2    1    2    0    0 -0.18885814843E+02 -0.44592153173E+02 -0.33065194371E+03  0.35682374210E+03  0.12508933177E+03 0.  0.
          5    1    3    3  502    0 -0.20500333169E+02  0.25915729525E+02 -0.21365845437E+02  0.39570954602E+02  0.41800000000E+01 0. -1.
         -5    1    3    3    0  502  0.16145183269E+01 -0.70507882697E+02 -0.30928609827E+03  0.31725278750E+03  0.41800000000E+01 0. -1.
        -11    1    1    2    0    0  0.36228878512E+02 -0.82202758662E+01 -0.30258829828E+02  0.47913477812E+02  0.00000000000E+00 0.  1.
         11    1    1    2    0    0 -0.17343063669E+02  0.52812429039E+02 -0.15858536317E+03  0.16804538652E+03  0.00000000000E+00 0. -1.
</event>
<event>
 7    1  0.2844572E-009  0.3821973E+02  0.7561462E-02  0.1521736E+00
          2   -1    0    0  501    0  0.00000000000E+00  0.00000000000E+00  0.38924625379E+03  0.38924625379E+03  0.00000000000E+00 0. -1.
         -2   -1    0    0    0  501 -0.00000000000E+00 -0.00000000000E+00 -0.30867732929E+02  0.30867732929E+02  0.00000000000E+00 0.  1.
         25    2    1    2    0    0 -0.20903688459E+02 -0.28850798261E+01  0.20702389365E+03  0.24281450886E+03  0.12511876476E+03 0.  0.
          5    1    3    3  502    0 -0.16328825687E+02 -0.44401560948E+01 -0.13593683694E+02  0.22104437809E+02  0.41800000000E+01 0. -1.
         -5    1    3    3    0  502 -0.45748627712E+01  0.15550762688E+01  0.22061757735E+03  0.22071007106E+03  0.41800000000E+01 0. -1.
        -11    1    1    2    0    0 -0.12511591489E+02  0.12665109076E+02 -0.38693975970E+01  0.18218593449E+02  0.00000000000E+00 0.  1.
         11    1    1    2    0    0  0.33415279948E+02 -0.97800292502E+01  0.15522402481E+03  0.15908088441E+03  0.00000000000E+00 0. -1.
</event>
<event>
 7    1  0.2844572E-009  0.1039431E+03  0.7561462E-02  0.1272216E+00
         -1   -1    0    0    0  501 -0.00000000000E+00  0.00000000000E+00  0.28172866744E+02  0.28172866744E+02  0.00000000000E+00 0.  1.
          1   -1    0    0  501    0  0.00000000000E+00 -0.00000000000E+00 -0.57989873017E+03  0.57989873017E+03  0.00000000000E+00 0. -1.
         25    2    1    2    0    0  0.57687116663E+02  0.33898918518E+02 -0.36452618027E+03  0.39115611806E+03  0.12508729944E+03 0.  0.
          5    1    3    3  502    0  0.28212151879E+02 -0.30702277337E+02 -0.36706244216E+02  0.55707953757E+02  0.41800000000E+01 0. -1.
         -5    1    3    3    0  502  0.29474964784E+02  0.64601195855E+02 -0.32781993606E+03  0.33544816430E+03  0.41800000000E+01 0. -1.
        -11    1    1    2    0    0  0.51699486897E+01 -0.31527806124E+02 -0.18610716959E+02  0.36974176315E+02  0.00000000000E+00 0.  1.
         11    1    1    2    0    0 -0.62857065353E+02 -0.23711123937E+01 -0.16858896619E+03  0.17994130254E+03  0.00000000000E+00 0. -1.
</event>
<event>
 7    1  0.2844572E-009  0.9083771E+02  0.7561462E-02  0.1300836E+00
          2   -1    0    0  501    0  0.00000000000E+00  0.00000000000E+00  0.17190015371E+02  0.17190015371E+02  0.00000000000E+00 0. -1.
         -2   -1    0    0    0  501 -0.00000000000E+00 -0.00000000000E+00 -0.77115708620E+03  0.77115708620E+03  0.00000000000E+00 0.  1.
         25    2    1    2    0    0  0.39272083157E+02  0.94828194212E+00 -0.44335436110E+03  0.46233499348E+03  0.12508941175E+03 0.  0.
          5    1    3    3  502    0  0.29089123571E+02 -0.37607150175E+02 -0.40167369901E+03  0.40449932970E+03  0.41800000000E+01 0. -1.
         -5    1    3    3    0  502  0.10182959586E+02  0.38555432117E+02 -0.41680662089E+02  0.57835663771E+02  0.41800000000E+01 0. -1.
        -11    1    1    2    0    0 -0.66521657947E+02  0.10377873103E+01 -0.26129721540E+03  0.26963390505E+03  0.00000000000E+00 0.  1.
         11    1    1    2    0    0  0.27249574790E+02 -0.19860692524E+01 -0.49315494331E+02  0.56378203043E+02  0.00000000000E+00 0. -1.
</event>
<event>
 7    1  0.2844572E-009  0.1950758E+03  0.7561462E-02  0.1153961E+00
         -2   -1    0    0    0  501 -0.00000000000E+00  0.00000000000E+00  0.82600102188E+02  0.82600102188E+02  0.00000000000E+00 0.  1.
          2   -1    0    0  501    0  0.00000000000E+00 -0.00000000000E+00 -0.10348006750E+04  0.10348006750E+04  0.00000000000E+00 0. -1.
         25    2    1    2    0    0  0.16012300585E+03  0.91364562327E+02 -0.10635182430E+03  0.24687043155E+03  0.12508972455E+03 0.  0.
          5    1    3    3  502    0  0.12128406650E+03  0.45254211918E+02 -0.59151351737E+01  0.12965426991E+03  0.41800000000E+01 0.  1.
         -5    1    3    3    0  502  0.38838939353E+02  0.46110350409E+02 -0.10043668913E+03  0.11721616163E+03  0.41800000000E+01 0.  1.
        -11    1    1    2    0    0 -0.10605901411E+03 -0.15714839610E+02 -0.55217770342E+03  0.56249061042E+03  0.00000000000E+00 0. -1.
         11    1    1    2    0    0 -0.54063991741E+02 -0.75649722718E+02 -0.29367104508E+03  0.30803973521E+03  0.00000000000E+00 0.  1.
</event>
<event>
 7    1  0.2844572E-009  0.9026067E+02  0.7561462E-02  0.1302222E+00
         -4   -1    0    0    0  501 -0.00000000000E+00  0.00000000000E+00  0.66438728998E+03  0.66438728998E+03  0.00000000000E+00 0.  1.
          4   -1    0    0  501    0  0.00000000000E+00 -0.00000000000E+00 -0.29836608461E+02  0.29836608461E+02  0.00000000000E+00 0. -1.
         25    2    1    2    0    0 -0.61603814572E+02  0.22749667332E+02  0.49590475920E+03  0.51563712174E+03  0.12509010266E+03 0.  0.
          5    1    3    3  502    0 -0.49785326919E+02  0.31626818690E+02  0.80161076059E+02  0.99609763336E+02  0.41800000000E+01 0. -1.
         -5    1    3    3    0  502 -0.11818487653E+02 -0.88771513584E+01  0.41574368314E+03  0.41602735840E+03  0.41800000000E+01 0. -1.
        -11    1    1    2    0    0  0.27579926551E+02  0.31579373145E+02  0.85847238295E+02  0.95538774745E+02  0.00000000000E+00 0.  1.
         11    1    1    2    0    0  0.34023888021E+02 -0.54329040477E+02  0.52798684029E+02  0.83048001965E+02  0.00000000000E+00 0. -1.
</event>
<event>
 7    1  0.2844572E-009  0.8200041E+02  0.7561462E-02  0.1323469E+00
          2   -1    0    0  501    0  0.00000000000E+00  0.00000000000E+00  0.88180208519E+02  0.88180208519E+02  0.00000000000E+00 0. -1.
         -2   -1    0    0    0  501 -0.00000000000E+00 -0.00000000000E+00 -0.15594696134E+03  0.15594696134E+03  0.00000000000E+00 0.  1.
         25    2    1    2    0    0  0.47992942216E+00  0.18443357395E+02  0.15396319710E+01  0.12645321510E+03  0.12509059668E+03 0.  0.
          5    1    3    3  502    0  0.57342135995E+02 -0.23029044587E+01 -0.21679835099E+02  0.61489117569E+02  0.41800000000E+01 0. -1.
         -5    1    3    3    0  502 -0.56862206573E+02  0.20746261854E+02  0.23219467070E+02  0.64964097533E+02  0.41800000000E+01 0. -1.
        -11    1    1    2    0    0 -0.19469269763E+02 -0.18414510252E+02 -0.87417352249E+02  0.91432708191E+02  0.00000000000E+00 0.  1.
         11    1    1    2    0    0  0.18989340341E+02 -0.28847142990E-01  0.18110967461E+02  0.26241246562E+02  0.00000000000E+00 0. -1.
</event>
<event>
 7    1  0.2844572E-009  0.2027931E+03  0.7561462E-02  0.1147404E+00
         -2   -1    0    0    0  501 -0.00000000000E+00  0.00000000000E+00  0.35236566471E+02  0.35236566471E+02  0.00000000000E+00 0.  1.
          2   -1    0    0  501    0  0.00000000000E+00 -0.00000000000E+00 -0.12218140874E+04  0.12218140874E+04  0.00000000000E+00 0. -1.
         25    2    1    2    0    0 -0.17885729172E+03  0.44670942286E+02 -0.68710888972E+03  0.72232405623E+03  0.12509193416E+03 0.  0.
          5    1    3    3  502    0  0.26388703046E+01 -0.21504839655E+02 -0.14792308330E+03  0.14955979653E+03  0.41800000000E+01 0.  1.
         -5    1    3    3    0  502 -0.18149616202E+03  0.66175781941E+02 -0.53918580641E+03  0.57276425969E+03  0.41800000000E+01 0.  1.
        -11    1    1    2    0    0  0.34412859767E+02  0.10016491695E+02 -0.77705371779E+02  0.85572775031E+02  0.00000000000E+00 0. -1.
         11    1    1    2    0    0  0.14444443195E+03 -0.54687433980E+02 -0.42176325939E+03  0.44915382257E+03  0.00000000000E+00 0.  1.
</event>
<event>
 7    1  0.2844572E-009  0.1546766E+03  0.7561462E-02  0.1194841E+00
         -1   -1    0    0    0  501 -0.00000000000E+00  0.00000000000E+00  0.52306200176E+02  0.52306200176E+02  0.00000000000E+00 0.  1.
          1   -1    0    0  501    0  0.00000000000E+00 -0.00000000000E+00 -0.77129978652E+03  0.77129978652E+03  0.00000000000E+00 0. -1.
         25    2    1    2    0    0 -0.42977207393E+02  0.12100203669E+03 -0.60229022096E+03  0.62840255701E+03  0.12509088757E+03 0.  0.
          5    1    3    3  502    0  0.23202288703E+02  0.12758667003E+02 -0.29089657960E+03  0.29212911907E+03  0.41800000000E+01 0.  1.
         -5    1    3    3    0  502 -0.66179496096E+02  0.10824336969E+03 -0.31139364136E+03  0.33627343795E+03  0.41800000000E+01 0.  1.
        -11    1    1    2    0    0 -0.13859311277E+02  0.70191269719E+01 -0.18391150219E+02  0.24074531333E+02  0.00000000000E+00 0. -1.
         11    1    1    2    0    0  0.56836518670E+02 -0.12802116367E+03 -0.98312215165E+02  0.17112889835E+03  0.00000000000E+00 0.  1.
</event>
<event>
 7    1  0.3090127E-009  0.1890098E+03  0.7561462E-02  0.1159357E+00
          1   -1    0    0  501    0  0.00000000000E+00  0.00000000000E+00  0.14753272170E+04  0.14753272170E+04  0.00000000000E+00 0. -1.
         -1   -1    0    0    0  501 -0.00000000000E+00 -0.00000000000E+00 -0.26552249579E+02  0.26552249579E+02  0.00000000000E+00 0.  1.
         25    2    1    2    0    0 -0.12757352740E+03 -0.96489467358E+02  0.91729074836E+03  0.93949726260E+03  0.12509023621E+03 0.  0.
          5    1    3    3  502    0 -0.60774728333E+02 -0.11087842152E+03  0.45875994462E+03  0.47588417830E+03  0.41800000000E+01 0.  1.
         -5    1    3    3    0  502 -0.66798799066E+02  0.14388954158E+02  0.45853080374E+03  0.46361308430E+03  0.41800000000E+01 0.  1.
        -11    1    1    2    0    0  0.46354366295E+02  0.90413313781E+02  0.32069065519E+03  0.33640123500E+03  0.00000000000E+00 0. -1.
         11    1    1    2    0    0  0.81219161104E+02  0.60761535769E+01  0.21079356384E+03  0.22598096896E+03  0.00000000000E+00 0.  1.
</event>
<event>
 7    1  0.2844572E-009  0.1398955E+03  0.7561462E-02  0.1213470E+00
          1   -1    0    0  501    0  0.00000000000E+00  0.00000000000E+00  0.39862279282E+03  0.39862279282E+03  0.00000000000E+00 0. -1.
         -1   -1    0    0    0  501 -0.00000000000E+00 -0.00000000000E+00 -0.58204818669E+02  0.58204818669E+02  0.00000000000E+00 0.  1.
         25    2    1    2    0    0  0.20384772240E+01  0.97881755976E+02  0.11247645256E+03  0.19463653628E+03  0.12508970914E+03 0.  0.
          5    1    3    3  502    0  0.55254986995E+02  0.87125765078E+02  0.62319103854E+02  0.12060329860E+03  0.41800000000E+01 0. -1.
         -5    1    3    3    0  502 -0.53216509771E+02  0.10755990898E+02  0.50157348702E+02  0.74033237679E+02  0.41800000000E+01 0. -1.
        -11    1    1    2    0    0  0.32153487423E+02 -0.22307366249E+02  0.36339670593E+02  0.53404466117E+02  0.00000000000E+00 0.  1.
         11    1    1    2    0    0 -0.34191964647E+02 -0.75574389727E+02  0.19160185100E+03  0.20878660910E+03  0.00000000000E+00 0. -1.
</event>
<event>
 7    1  0.2844572E-009  0.1447459E+03  0.7561462E-02  0.1207082E+00
         -2   -1    0    0    0  501 -0.00000000000E+00  0.00000000000E+00  0.37846738922E+02  0.37846738922E+02  0.00000000000E+00 0.  1.
          2   -1    0    0  501    0  0.00000000000E+00 -0.00000000000E+00 -0.63061580676E+03  0.63061580676E+03  0.00000000000E+00 0. -1.
         25    2    1    2    0    0  0.64226653286E+02 -0.60340452684E+02 -0.42556010899E+03  0.45223287876E+03  0.12508851683E+03 0.  0.
          5    1    3    3  502    0  0.43026356928E+02  0.34747157815E+02 -0.15923251483E+03  0.16861523818E+03  0.41800000000E+01 0. -1.
         -5    1    3    3    0  502  0.21200296358E+02 -0.95087610499E+02 -0.26632759416E+03  0.28361764058E+03  0.41800000000E+01 0. -1.
        -11    1    1    2    0    0 -0.88708634787E+02  0.66974620409E+02 -0.12792718426E+03  0.16947031049E+03  0.00000000000E+00 0.  1.
         11    1    1    2    0    0  0.24481981501E+02 -0.66341677252E+01 -0.39281774592E+02  0.46759356441E+02  0.00000000000E+00 0. -1.
</event>
<event>
 7    1  0.2844572E-009  0.1246066E+03  0.7561462E-02  0.1235685E+00
          2   -1    0    0  501    0  0.00000000000E+00  0.00000000000E+00  0.51284023332E+03  0.51284023332E+03  0.00000000000E+00 0. -1.
         -2   -1    0    0    0  501 -0.00000000000E+00 -0.00000000000E+00 -0.47164492752E+02  0.47164492752E+02  0.00000000000E+00 0.  1.
         25    2    1    2    0    0 -0.11938118424E+02  0.90985510046E+02  0.36824921128E+03  0.39959265873E+03  0.12508369035E+03 0.  0.
          5    1    3    3  502    0  0.56305269495E+02  0.44707277237E+02  0.18852526821E+03  0.20181247029E+03  0.41800000000E+01 0.  1.
         -5    1    3    3    0  502 -0.68243387920E+02  0.46278232809E+02  0.17972394306E+03  0.19778018844E+03  0.41800000000E+01 0.  1.
        -11    1    1    2    0    0 -0.70105701391E+01 -0.21643247737E+02 -0.14797452737E+02  0.27139323384E+02  0.00000000000E+00 0.  1.
         11    1    1    2    0    0  0.18948688563E+02 -0.69342262309E+02  0.11222398203E+03  0.13327274396E+03  0.00000000000E+00 0. -1.
</event>
<event>
 7    1  0.2844572E-009  0.1113581E+03  0.7561462E-02  0.1258075E+00
         -1   -1    0    0    0  501 -0.00000000000E+00  0.00000000000E+00  0.23371772210E+02  0.23371772210E+02  0.00000000000E+00 0.  1.
          1   -1    0    0  501    0  0.00000000000E+00 -0.00000000000E+00 -0.71596342786E+03  0.71596342786E+03  0.00000000000E+00 0. -1.
         25    2    1    2    0    0 -0.33350415434E+02 -0.11432398824E+02 -0.56486588184E+03  0.57962356393E+03  0.12508821465E+03 0.  0.
          5    1    3    3  502    0  0.39020063655E+02 -0.36160393413E+02 -0.22923130763E+03  0.23536058339E+03  0.41800000000E+01 0. -1.
         -5    1    3    3    0  502 -0.72370479088E+02  0.24727994588E+02 -0.33563457421E+03  0.34426298053E+03  0.41800000000E+01 0. -1.
        -11    1    1    2    0    0 -0.25292767253E+02  0.21577517028E+02 -0.27491647419E+02  0.43140514533E+02  0.00000000000E+00 0.  1.
         11    1    1    2    0    0  0.58643182687E+02 -0.10145118204E+02 -0.10023412639E+03  0.11657112160E+03  0.00000000000E+00 0. -1.
</event>
<event>
 7    1  0.2844572E-009  0.1021280E+03  0.7561462E-02  0.1275884E+00
         -2   -1    0    0    0  501 -0.00000000000E+00  0.00000000000E+00  0.46420552541E+02  0.46420552541E+02  0.00000000000E+00 0.  1.
          2   -1    0    0  501    0  0.00000000000E+00 -0.00000000000E+00 -0.30031452856E+03  0.30031452856E+03  0.00000000000E+00 0. -1.
         25    2    1    2    0    0  0.18636557367E+02  0.25462400691E+02 -0.19958653856E+03  0.23765024747E+03  0.12508876300E+03 0.  0.
          5    1    3    3  502    0  0.55714896667E+02 -0.27631672103E+02 -0.78158906303E+02  0.99969725659E+02  0.41800000000E+01 0.  1.
         -5    1    3    3    0  502 -0.37078339300E+02  0.53094072794E+02 -0.12142763226E+03  0.13768052181E+03  0.41800000000E+01 0.  1.
        -11    1    1    2    0    0 -0.32798935604E+01  0.24522149126E+02  0.95763886972E+01  0.26529242733E+02  0.00000000000E+00 0.  1.
         11    1    1    2    0    0 -0.15356663806E+02 -0.49984549816E+02 -0.63883826154E+02  0.82555590893E+02  0.00000000000E+00 0. -1.
</event>
<event>
 7    1  0.2844572E-009  0.8824138E+02  0.7561462E-02  0.1307167E+00
         -4   -1    0    0    0  501 -0.00000000000E+00  0.00000000000E+00  0.64747830803E+02  0.64747830803E+02  0.00000000000E+00 0. -1.
          4   -1    0    0  501    0  0.00000000000E+00 -0.00000000000E+00 -0.19811244256E+03  0.19811244256E+03  0.00000000000E+00 0.  1.
         25    2    1    2    0    0  0.36605248466E+02 -0.40119448837E+01 -0.11071318491E+03  0.17105544332E+03  0.12508603224E+03 0.  0.
          5    1    3    3  502    0  0.53844827989E+02  0.44950534081E+02 -0.91900159738E+02  0.11568460475E+03  0.41800000000E+01 0.  1.
         -5    1    3    3    0  502 -0.17239579523E+02 -0.48962478965E+02 -0.18813025167E+02  0.55370838575E+02  0.41800000000E+01 0.  1.
        -11    1    1    2    0    0 -0.32194016813E+02  0.19767634842E+02 -0.48338189316E+02  0.61349773041E+02  0.00000000000E+00 0.  1.
         11    1    1    2    0    0 -0.44112316529E+01 -0.15755689958E+02  0.25686762467E+02  0.30455056998E+02  0.00000000000E+00 0. -1.
</event>
<event>
 7    1  0.2844572E-009  0.1187365E+03  0.7561462E-02  0.1245196E+00
         -2   -1    0    0    0  501 -0.00000000000E+00  0.00000000000E+00  0.27927532623E+02  0.27927532623E+02  0.00000000000E+00 0.  1.
          2   -1    0    0  501    0  0.00000000000E+00 -0.00000000000E+00 -0.60310637136E+03  0.60310637136E+03  0.00000000000E+00 0. -1.
         25    2    1    2    0    0 -0.66796568213E+02 -0.82746136585E+01 -0.37003696717E+03  0.39636465517E+03  0.12508929624E+03 0.  0.
          5    1    3    3  502    0  0.36641604328E+02  0.53210034094E+00 -0.12181022185E+03  0.12727172838E+03  0.41800000000E+01 0. -1.
         -5    1    3    3    0  502 -0.10343817254E+03 -0.88067139994E+01 -0.24822674533E+03  0.26909292679E+03  0.41800000000E+01 0. -1.
        -11    1    1    2    0    0  0.35492384199E+02 -0.30543661678E+02 -0.16231838212E+03  0.16893750850E+03  0.00000000000E+00 0. -1.
         11    1    1    2    0    0  0.31304184015E+02  0.38818275336E+02 -0.42823489443E+02  0.65731740316E+02  0.00000000000E+00 0.  1.
</event>
<event>
 7    1  0.2844572E-009  0.1442844E+03  0.7561462E-02  0.1207677E+00
         -4   -1    0    0    0  501 -0.00000000000E+00  0.00000000000E+00  0.11674532642E+03  0.11674532642E+03  0.00000000000E+00 0.  1.
          4   -1    0    0  501    0  0.00000000000E+00 -0.00000000000E+00 -0.19121194564E+03  0.19121194564E+03  0.00000000000E+00 0. -1.
         25    2    1    2    0    0 -0.10406623443E+03  0.14552329980E+02 -0.40562517803E+02  0.16832679002E+03  0.12508812467E+03 0.  0.
          5    1    3    3  502    0  0.26077504864E+02 -0.77560410754E+01 -0.21336975168E+02  0.34827163858E+02  0.41800000000E+01 0. -1.
         -5    1    3    3    0  502 -0.13014373929E+03  0.22308371055E+02 -0.19225542635E+02  0.13349962616E+03  0.41800000000E+01 0. -1.
        -11    1    1    2    0    0  0.13173607908E+02  0.26199471494E+02  0.97097034231E+01  0.30890687795E+02  0.00000000000E+00 0.  1.
         11    1    1    2    0    0  0.90892626521E+02 -0.40751801474E+02 -0.43613804837E+02  0.10873979424E+03  0.00000000000E+00 0. -1.
</event>
<event>
 7    1  0.2844572E-009  0.1388689E+03  0.7561462E-02  0.1214859E+00
          1   -1    0    0  501    0  0.00000000000E+00  0.00000000000E+00  0.28980700537E+03  0.28980700537E+03  0.00000000000E+00 0. -1.
         -1   -1    0    0    0  501 -0.00000000000E+00 -0.00000000000E+00 -0.10164705851E+03  0.10164705851E+03  0.00000000000E+00 0.  1.
         25    2    1    2    0    0 -0.30209266379E+02  0.12012973106E+03  0.47490355347E+02  0.18233891215E+03  0.12509353690E+03 0.  0.
          5    1    3    3  502    0 -0.55487297021E+02  0.37583130791E+02  0.65773982495E+02  0.93994792537E+02  0.41800000000E+01 0. -1.
         -5    1    3    3    0  502  0.25278030642E+02  0.82546600269E+02 -0.18283627148E+02  0.88344119616E+02  0.41800000000E+01 0. -1.
        -11    1    1    2    0    0  0.17611980339E+02 -0.85844660318E+02  0.14786945062E+03  0.17188618904E+03  0.00000000000E+00 0. -1.
         11    1    1    2    0    0  0.12597286040E+02 -0.34285070742E+02 -0.71998591009E+01  0.37228962683E+02  0.00000000000E+00 0.  1.
</event>
<event>
 7    1  0.2844572E-009  0.1176763E+03  0.7561462E-02  0.1246980E+00
         -2   -1    0    0    0  501 -0.00000000000E+00  0.00000000000E+00  0.44628014491E+02  0.44628014491E+02  0.00000000000E+00 0.  1.
          2   -1    0    0  501    0  0.00000000000E+00 -0.00000000000E+00 -0.53810267115E+03  0.53810267115E+03  0.00000000000E+00 0. -1.
         25    2    1    2    0    0 -0.24940268816E+02 -0.40910189524E+02 -0.45156192288E+03  0.47101110209E+03  0.12509047717E+03 0.  0.
          5    1    3    3  502    0  0.30937334205E+02 -0.64731226514E+02 -0.27546236451E+03  0.28468269529E+03  0.41800000000E+01 0. -1.
         -5    1    3    3    0  502 -0.55877603021E+02  0.23821036989E+02 -0.17609955836E+03  0.18632840680E+03  0.41800000000E+01 0. -1.
        -11    1    1    2    0    0 -0.26831865316E+02 -0.11261814018E+02 -0.51992311722E+01  0.29560268201E+02  0.00000000000E+00 0.  1.
         11    1    1    2    0    0  0.51772134132E+02  0.52172003542E+02 -0.36713502610E+02  0.82159315358E+02  0.00000000000E+00 0. -1.
</event>
<event>
 7    1  0.2844572E-009  0.7910587E+02  0.7561462E-02  0.1331608E+00
         -2   -1    0    0    0  501 -0.00000000000E+00  0.00000000000E+00  0.35279371788E+03  0.35279371788E+03  0.00000000000E+00 0.  1.
          2   -1    0    0  501    0  0.00000000000E+00 -0.00000000000E+00 -0.36383208977E+02  0.36383208977E+02  0.00000000000E+00 0. -1.
         25    2    1    2    0    0 -0.21734948983E+02 -0.13248722216E+02  0.14683523214E+03  0.19456885518E+03  0.12509403408E+03 0.  0.
          5    1    3    3  502    0 -0.25571132029E+02  0.25320967097E+02  0.15107136838E+03  0.15535464239E+03  0.41800000000E+01 0. -1.
         -5    1    3    3    0  502  0.38361830465E+01 -0.38569689313E+02 -0.42361362487E+01  0.39214212785E+02  0.41800000000E+01 0. -1.
        -11    1    1    2    0    0 -0.25829825247E+02  0.22836118936E+02  0.12152414404E+03  0.12632017172E+03  0.00000000000E+00 0.  1.
         11    1    1    2    0    0  0.47564774229E+02 -0.95873967196E+01  0.48051132731E+02  0.68287899954E+02  0.00000000000E+00 0. -1.
</event>
<event>
 7    1  0.2844572E-009  0.9898588E+02  0.7561462E-02  0.1282443E+00
         -1   -1    0    0    0  501 -0.00000000000E+00  0.00000000000E+00  0.26380511947E+03  0.26380511947E+03  0.00000000000E+00 0.  1.
          1   -1    0    0  501    0  0.00000000000E+00 -0.00000000000E+00 -0.43097321284E+02  0.43097321284E+02  0.00000000000E+00 0. -1.
         25    2    1    2    0    0 -0.10789951419E+02  0.77067996967E+01  0.12165692939E+03  0.17499622788E+03  0.12508978171E+03 0.  0.
          5    1    3    3  502    0 -0.33638544402E+01  0.58928217484E+02  0.10489257388E+03  0.12043161872E+03  0.41800000000E+01 0.  1.
         -5    1    3    3    0  502 -0.74260969790E+01 -0.51221417787E+02  0.16764355506E+02  0.54564609153E+02  0.41800000000E+01 0.  1.
        -11    1    1    2    0    0 -0.34525122877E+02  0.13208309835E+02  0.37390914064E+02  0.52578741073E+02  0.00000000000E+00 0.  1.
         11    1    1    2    0    0  0.45315074296E+02 -0.20915109531E+02  0.61659954730E+02  0.79327471802E+02  0.00000000000E+00 0. -1.
</event>
<event>
 7    1  0.2844572E-009  0.1017496E+03  0.7561462E-02  0.1276659E+00
          2   -1    0    0  501    0  0.00000000000E+00  0.00000000000E+00  0.24640636656E+03  0.24640636656E+03  0.00000000000E+00 0. -1.
         -2   -1    0    0    0  501 -0.00000000000E+00 -0.00000000000E+00 -0.61486925567E+02  0.61486925567E+02  0.00000000000E+00 0.  1.
         25    2    1    2    0    0 -0.45339382055E+02 -0.22942180172E+02  0.14187257838E+03  0.19585108618E+03  0.12509123177E+03 0.  0.
          5    1    3    3  502    0 -0.71263989619E+02 -0.25530008436E+02  0.15014318114E+03  0.16819864682E+03  0.41800000000E+01 0. -1.
         -5    1    3    3    0  502  0.25924607564E+02  0.25878282643E+01 -0.82706027682E+01  0.27652439361E+02  0.41800000000E+01 0. -1.
        -11    1    1    2    0    0  0.46057720977E+02  0.53578318509E+02  0.19210668064E+02  0.73218847597E+02  0.00000000000E+00 0.  1.
         11    1    1    2    0    0 -0.71833892203E+00 -0.30636138338E+02  0.23836194557E+02  0.38823358356E+02  0.00000000000E+00 0. -1.
</event>
<event>
 7    1  0.3424520E-009  0.1065821E+03  0.7561462E-02  0.1267033E+00
          1   -1    0    0  501    0  0.00000000000E+00  0.00000000000E+00  0.95301877971E+03  0.95301877971E+03  0.00000000000E+00 0. -1.
         -1   -1    0    0    0  501 -0.00000000000E+00 -0.00000000000E+00 -0.19952619010E+02  0.19952619010E+02  0.00000000000E+00 0.  1.
         25    2    1    2    0    0  0.45433022565E+02 -0.67557189161E+02  0.59916651466E+03  0.61746879612E+03  0.12505626154E+03 0.  0.
          5    1    3    3  502    0  0.71430457464E+02 -0.56706043487E+02  0.23379422389E+03  0.25098824105E+03  0.41800000000E+01 0. -1.
         -5    1    3    3    0  502 -0.25997434900E+02 -0.10851145674E+02  0.36537229077E+03  0.36648055507E+03  0.41800000000E+01 0. -1.
        -11    1    1    2    0    0  0.32565517238E+01  0.34227170407E+02  0.29097682781E+02  0.45041974496E+02  0.00000000000E+00 0.  1.
         11    1    1    2    0    0 -0.48689574288E+02  0.33330018754E+02  0.30480196326E+03  0.31046062810E+03  0.00000000000E+00 0. -1.
</event>
<event>
 7    1  0.2844572E-009  0.9835788E+02  0.7561462E-02  0.1283787E+00
          2   -1    0    0  501    0  0.00000000000E+00  0.00000000000E+00  0.40854254886E+03  0.40854254886E+03  0.00000000000E+00 0. -1.
         -2   -1    0    0    0  501 -0.00000000000E+00 -0.00000000000E+00 -0.34386655470E+02  0.34386655470E+02  0.00000000000E+00 0.  1.
         25    2    1    2    0    0 -0.18204059419E+02 -0.31954859079E+02  0.16490433828E+03  0.21024149609E+03  0.12512212074E+03 0.  0.
          5    1    3    3  502    0  0.34924981827E+02 -0.27437690340E+02  0.14734265793E+03  0.15394775884E+03  0.41800000000E+01 0.  1.
         -5    1    3    3    0  502 -0.53129041246E+02 -0.45171687388E+01  0.17561680350E+02  0.56293737253E+02  0.41800000000E+01 0.  1.
        -11    1    1    2    0    0  0.49192321563E+02 -0.60737636361E+01  0.13385429167E+03  0.14273663336E+03  0.00000000000E+00 0.  1.
         11    1    1    2    0    0 -0.30988262144E+02  0.38028622715E+02  0.75397263447E+02  0.89951074877E+02  0.00000000000E+00 0. -1.
</event>
<event>
 7    1  0.2844572E-009  0.9716351E+02  0.7561462E-02  0.1286376E+00
         -2   -1    0    0    0  501 -0.00000000000E+00  0.00000000000E+00  0.28676220410E+02  0.28676220410E+02  0.00000000000E+00 0.  1.
          2   -1    0    0  501    0  0.00000000000E+00 -0.00000000000E+00 -0.79189697247E+03  0.79189697247E+03  0.00000000000E+00 0. -1.
         25    2    1    2    0    0  0.51282144451E+01  0.70962628902E+02 -0.63205866128E+03  0.64823433263E+03  0.12509038897E+03 0.  0.
          5    1    3    3  502    0 -0.12803246521E+02  0.65624250849E+02 -0.13405862296E+03  0.14986544702E+03  0.41800000000E+01 0. -1.
         -5    1    3    3    0  502  0.17931460966E+02  0.53383780531E+01 -0.49800003833E+03  0.49836888561E+03  0.41800000000E+01 0. -1.
        -11    1    1    2    0    0  0.37133402843E+02 -0.45863824495E+02 -0.92861840696E+02  0.11002591268E+03  0.00000000000E+00 0.  1.
         11    1    1    2    0    0 -0.42261617288E+02 -0.25098804408E+02 -0.38300250085E+02  0.62312947572E+02  0.00000000000E+00 0. -1.
</event>
<event>
 7    1  0.2844572E-009  0.1689660E+03  0.7561462E-02  0.1178930E+00
          2   -1    0    0  501    0  0.00000000000E+00  0.00000000000E+00  0.92086678523E+02  0.92086678523E+02  0.00000000000E+00 0. -1.
         -2   -1    0    0    0  501 -0.00000000000E+00 -0.00000000000E+00 -0.46754619510E+03  0.46754619510E+03  0.00000000000E+00 0.  1.
         25    2    1    2    0    0 -0.20994653802E+02 -0.16451889979E+03 -0.11361937712E+03  0.23677949064E+03  0.12509164822E+03 0.  0.
          5    1    3    3  502    0 -0.32884195566E+02 -0.95025790364E+02  0.27221996995E+01  0.10067846802E+03  0.41800000000E+01 0.  1.
         -5    1    3    3    0  502  0.11889541764E+02 -0.69493109429E+02 -0.11634157682E+03  0.13610102262E+03  0.41800000000E+01 0.  1.
        -11    1    1    2    0    0  0.23573413745E+02  0.13595502875E+03 -0.13583292215E+03  0.19362349655E+03  0.00000000000E+00 0. -1.
         11    1    1    2    0    0 -0.25787599428E+01  0.28563871041E+02 -0.12600721731E+03  0.12922988643E+03  0.00000000000E+00 0.  1.
</event>
<event>
 7    1  0.2844572E-009  0.1039718E+03  0.7561462E-02  0.1272159E+00
          2   -1    0    0  501    0  0.00000000000E+00  0.00000000000E+00  0.28127787216E+03  0.28127787216E+03  0.00000000000E+00 0.  1.
         -2   -1    0    0    0  501 -0.00000000000E+00 -0.00000000000E+00 -0.62990305057E+02  0.62990305057E+02  0.00000000000E+00 0. -1.
         25    2    1    2    0    0 -0.35149323509E+02  0.26126682379E+02  0.38520373168E+02  0.13802332086E+03  0.12509412247E+03 0.  0.
          5    1    3    3  502    0 -0.28939470685E+02 -0.48920222405E+02  0.13591245071E+02  0.58590745568E+02  0.41800000000E+01 0.  1.
         -5    1    3    3    0  502 -0.62098528241E+01  0.75046904783E+02  0.24929128097E+02  0.79432575291E+02  0.41800000000E+01 0.  1.
        -11    1    1    2    0    0  0.15210651328E+02 -0.45351538298E+02  0.17043059698E+03  0.17701614143E+03  0.00000000000E+00 0.  1.
         11    1    1    2    0    0  0.19938672181E+02  0.19224855920E+02  0.93365969515E+01  0.29228714924E+02  0.00000000000E+00 0. -1.
</event>
<event>
 7    1  0.2844572E-009  0.1107037E+03  0.7561462E-02  0.1259272E+00
         -1   -1    0    0    0  501 -0.00000000000E+00  0.00000000000E+00  0.62295604417E+02  0.62295604417E+02  0.00000000000E+00 0.  1.
          1   -1    0    0  501    0  0.00000000000E+00 -0.00000000000E+00 -0.31713485968E+03  0.31713485968E+03  0.00000000000E+00 0. -1.
         25    2    1    2    0    0 -0.15630976591E+02 -0.44758652484E+02 -0.36745741392E+02  0.13872629508E+03  0.12508825299E+03 0.  0.
          5    1    3    3  502    0  0.50826747903E+02  0.37440357716E+01 -0.18249738844E+02  0.54294580523E+02  0.41800000000E+01 0. -1.
         -5    1    3    3    0  502 -0.66457724494E+02 -0.48502688256E+02 -0.18496002549E+02  0.84431714558E+02  0.41800000000E+01 0. -1.
        -11    1    1    2    0    0  0.20150538707E+02 -0.16758150208E+02 -0.19264200574E+02  0.32526746414E+02  0.00000000000E+00 0. -1.
         11    1    1    2    0    0 -0.45195621160E+01  0.61516802692E+02 -0.19882931330E+03  0.20817742260E+03  0.00000000000E+00 0.  1.
</event>
<event>
 7    1  0.2844572E-009  0.1366388E+03  0.7561462E-02  0.1217925E+00
          2   -1    0    0  501    0  0.00000000000E+00  0.00000000000E+00  0.10206329750E+04  0.10206329750E+04  0.00000000000E+00 0. -1.
         -2   -1    0    0    0  501 -0.00000000000E+00 -0.00000000000E+00 -0.21788354694E+02  0.21788354694E+02  0.00000000000E+00 0.  1.
         25    2    1    2    0    0  0.41120381994E+02  0.76419926084E+02  0.72643787670E+03  0.74221957921E+03  0.12508806557E+03 0.  0.
          5    1    3    3  502    0 -0.89328625699E+01  0.96410271516E+02  0.41870261318E+03  0.42977213401E+03  0.41800000000E+01 0.  1.
         -5    1    3    3    0  502  0.50053244564E+02 -0.19990345432E+02  0.30773526352E+03  0.31244744520E+03  0.41800000000E+01 0.  1.
        -11    1    1    2    0    0  0.26468993700E+02 -0.12478944992E+02  0.10120802513E+03  0.10535367125E+03  0.00000000000E+00 0. -1.
         11    1    1    2    0    0 -0.67589375693E+02 -0.63940981092E+02  0.17119871846E+03  0.19484807921E+03  0.00000000000E+00 0.  1.
</event>
<event>
 7    1  0.2844572E-009  0.8848807E+02  0.7561462E-02  0.1306555E+00
          1   -1    0    0  501    0  0.00000000000E+00  0.00000000000E+00  0.34458272741E+02  0.34458272741E+02  0.00000000000E+00 0. -1.
         -1   -1    0    0    0  501 -0.00000000000E+00 -0.00000000000E+00 -0.34093302789E+03  0.34093302789E+03  0.00000000000E+00 0.  1.
         25    2    1    2    0    0  0.24369223522E+00 -0.64241051837E+01 -0.20517285954E+03  0.24038458497E+03  0.12509003911E+03 0.  0.
          5    1    3    3  502    0  0.59261901595E+02  0.12011597364E+02 -0.76803232756E+02  0.97838951414E+02  0.41800000000E+01 0. -1.
         -5    1    3    3    0  502 -0.59018209360E+02 -0.18435702548E+02 -0.12836962679E+03  0.14254563355E+03  0.41800000000E+01 0. -1.
        -11    1    1    2    0    0  0.49071904982E+01  0.29929942833E+02 -0.10620316759E+03  0.11044905976E+03  0.00000000000E+00 0.  1.
         11    1    1    2    0    0 -0.51508827334E+01 -0.23505837650E+02  0.49012719757E+01  0.24557655905E+02  0.00000000000E+00 0. -1.
</event>
<event>
 7    1  0.2844572E-009  0.1780763E+03  0.7561462E-02  0.1169678E+00
         -2   -1    0    0    0  501 -0.00000000000E+00  0.00000000000E+00  0.74587750010E+02  0.74587750010E+02  0.00000000000E+00 0.  1.
          2   -1    0    0  501    0  0.00000000000E+00 -0.00000000000E+00 -0.53418741405E+03  0.53418741405E+03  0.00000000000E+00 0. -1.
         25    2    1    2    0    0 -0.15801947805E+03 -0.54629132018E+02 -0.22548950455E+03  0.30732581213E+03  0.12509652525E+03 0.  0.
          5    1    3    3  502    0 -0.38252105903E+02 -0.16653904293E+01 -0.15261607932E+03  0.15740119821E+03  0.41800000000E+01 0.  1.
         -5    1    3    3    0  502 -0.11976737215E+03 -0.52963741588E+02 -0.72873425234E+02  0.14992461392E+03  0.41800000000E+01 0.  1.
        -11    1    1    2    0    0  0.22707130172E+02  0.45672828664E+02 -0.40797797777E+02  0.65315245864E+02  0.00000000000E+00 0.  1.
         11    1    1    2    0    0  0.13531234788E+03  0.89563033539E+01 -0.19331236171E+03  0.23613410607E+03  0.00000000000E+00 0. -1.
</event>
<event>
 7    1  0.2844572E-009  0.1602424E+03  0.7561462E-02  0.1188423E+00
         -1   -1    0    0    0  501 -0.00000000000E+00  0.00000000000E+00  0.70438532856E+02  0.70438532856E+02  0.00000000000E+00 0.  1.
          1   -1    0    0  501    0  0.00000000000E+00 -0.00000000000E+00 -0.51935642796E+03  0.51935642796E+03  0.00000000000E+00 0. -1.
         25    2    1    2    0    0 -0.44098922013E+02  0.12502039970E+03 -0.10518390193E+03  0.21043112196E+03  0.12507113416E+03 0.  0.
          5    1    3    3  502    0 -0.86020686939E+02  0.95786312539E+02 -0.60055457644E+02  0.14212215395E+03  0.41800000000E+01 0.  1.
         -5    1    3    3    0  502  0.41921764926E+02  0.29234087157E+02 -0.45128444286E+02  0.68308968006E+02  0.41800000000E+01 0.  1.
        -11    1    1    2    0    0 -0.93043644326E+01 -0.29842762060E+02 -0.18537611057E+02  0.36342876449E+02  0.00000000000E+00 0.  1.
         11    1    1    2    0    0  0.53403286445E+02 -0.95177637636E+02 -0.32519638211E+03  0.34302096240E+03  0.00000000000E+00 0. -1.
</event>
<event>
 7    1  0.2844572E-009  0.1125043E+03  0.7561462E-02  0.1256001E+00
         -2   -1    0    0    0  501 -0.00000000000E+00  0.00000000000E+00  0.12298068253E+03  0.12298068253E+03  0.00000000000E+00 0.  1.
          2   -1    0    0  501    0  0.00000000000E+00 -0.00000000000E+00 -0.21528163677E+03  0.21528163677E+03  0.00000000000E+00 0. -1.
         25    2    1    2    0    0  0.38203971011E+02  0.50154441158E+02  0.54140486390E+02  0.15017967524E+03  0.12509089183E+03 0.  0.
          5    1    3    3  502    0  0.51386074251E+02 -0.19901617704E+02 -0.75972973305E+01  0.55783459384E+02  0.41800000000E+01 0. -1.
         -5    1    3    3    0  502 -0.13182103239E+02  0.70056058862E+02  0.61737783720E+02  0.94396215855E+02  0.41800000000E+01 0. -1.
        -11    1    1    2    0    0 -0.40643213141E+02 -0.68597211319E+02 -0.60333174079E+02  0.99987699591E+02  0.00000000000E+00 0.  1.
         11    1    1    2    0    0  0.24392421294E+01  0.18442770161E+02 -0.86108266553E+02  0.88094944476E+02  0.00000000000E+00 0. -1.
</event>
<event>
 7    1  0.2844572E-009  0.2237321E+03  0.7561462E-02  0.1131131E+00
          2   -1    0    0  501    0  0.00000000000E+00  0.00000000000E+00  0.25257042771E+04  0.25257042771E+04  0.00000000000E+00 0.  1.
         -2   -1    0    0    0  501 -0.00000000000E+00 -0.00000000000E+00 -0.30991636325E+02  0.30991636325E+02  0.00000000000E+00 0. -1.
         25    2    1    2    0    0  0.21341201284E+03 -0.20564921629E+02  0.19297107917E+04  0.19456101528E+04  0.12509006233E+03 0.  0.
          5    1    3    3  502    0  0.13294920263E+03  0.18103347746E+02  0.15373561816E+04  0.15432059886E+04  0.41800000000E+01 0.  1.
         -5    1    3    3    0  502  0.80462810217E+02 -0.38668269375E+02  0.39235461009E+03  0.40240416417E+03  0.41800000000E+01 0.  1.
        -11    1    1    2    0    0 -0.13293950051E+03  0.44010009878E+02  0.26665918482E+03  0.30119248432E+03  0.00000000000E+00 0. -1.
         11    1    1    2    0    0 -0.80472512336E+02 -0.23445088249E+02  0.29834266422E+03  0.30989327630E+03  0.00000000000E+00 0.  1.
</event>
<event>
 7    1  0.2844572E-009  0.5619917E+02  0.7561462E-02  0.1414512E+00
          2   -1    0    0  501    0  0.00000000000E+00  0.00000000000E+00  0.17655300800E+03  0.17655300800E+03  0.00000000000E+00 0.  1.
         -2   -1    0    0    0  501 -0.00000000000E+00 -0.00000000000E+00 -0.83686738248E+02  0.83686738248E+02  0.00000000000E+00 0. -1.
         25    2    1    2    0    0 -0.22798496529E+02  0.33668765691E+02  0.95381224855E+02  0.16247975664E+03  0.12509490812E+03 0.  0.
          5    1    3    3  502    0 -0.21798497171E+02  0.20555869977E+02  0.12563583803E+03  0.12922675601E+03  0.41800000000E+01 0.  1.
         -5    1    3    3    0  502 -0.99999935753E+00  0.13112895715E+02 -0.30254613179E+02  0.33253000636E+02  0.41800000000E+01 0.  1.
        -11    1    1    2    0    0  0.31653418714E+02  0.18826455260E+01 -0.36106543462E+02  0.48053779781E+02  0.00000000000E+00 0. -1.
         11    1    1    2    0    0 -0.88549221851E+01 -0.35551411217E+02  0.33591588356E+02  0.49706209820E+02  0.00000000000E+00 0.  1.
</event>
<event>
 7    1  0.2844572E-009  0.9410097E+02  0.7561462E-02  0.1293214E+00
         -2   -1    0    0    0  501 -0.00000000000E+00  0.00000000000E+00  0.13833618416E+03  0.13833618416E+03  0.00000000000E+00 0.  1.
          2   -1    0    0  501    0  0.00000000000E+00 -0.00000000000E+00 -0.13545276150E+03  0.13545276150E+03  0.00000000000E+00 0. -1.
         25    2    1    2    0    0 -0.22019248876E+02 -0.69636114945E+02  0.35546838346E+02  0.14914949296E+03  0.12509179713E+03 0.  0.
          5    1    3    3  502    0 -0.56906768399E+01 -0.59920753522E+02  0.80247212022E+02  0.10039904354E+03  0.41800000000E+01 0. -1.
         -5    1    3    3    0  502 -0.16328572036E+02 -0.97153614229E+01 -0.44700373677E+02  0.48750449425E+02  0.41800000000E+01 0. -1.
        -11    1    1    2    0    0  0.47744372162E+02  0.67390000629E+02  0.52208835840E+00  0.82590615897E+02  0.00000000000E+00 0.  1.
         11    1    1    2    0    0 -0.25725123286E+02  0.22461143154E+01 -0.33185504046E+02  0.42048836802E+02  0.00000000000E+00 0. -1.
</event>
<event>
 7    1  0.2844572E-009  0.1181352E+03  0.7561462E-02  0.1246206E+00
          2   -1    0    0  501    0  0.00000000000E+00  0.00000000000E+00  0.45548552407E+03  0.45548552407E+03  0.00000000000E+00 0. -1.
         -2   -1    0    0    0  501 -0.00000000000E+00 -0.00000000000E+00 -0.39497843509E+02  0.39497843509E+02  0.00000000000E+00 0.  1.
         25    2    1    2    0    0  0.68896372539E+02  0.27312000583E+02  0.27384858603E+03  0.31005148420E+03  0.12508484823E+03 0.  0.
          5    1    3    3  502    0  0.75915927128E+02 -0.13183454212E+02  0.77356403804E+02  0.10926352121E+03  0.41800000000E+01 0.  1.
         -5    1    3    3    0  502 -0.70195545896E+01  0.40495454795E+02  0.19649218223E+03  0.20078796299E+03  0.41800000000E+01 0.  1.
        -11    1    1    2    0    0 -0.20803862635E+02 -0.57407329729E+02  0.65067575813E+02  0.89231113572E+02  0.00000000000E+00 0. -1.
         11    1    1    2    0    0 -0.48092509904E+02  0.30095329146E+02  0.77071518720E+02  0.95700769814E+02  0.00000000000E+00 0.  1.
</event>
<event>
 6    1  0.4300907E-009  0.1099530E+03  0.7561462E-02  0.1260657E+00
         -2   -1    0    0    0  501 -0.00000000000E+00  0.00000000000E+00  0.41602241706E+02  0.41602241706E+02  0.00000000000E+00 0.  1.
          2   -1    0    0  501    0  0.00000000000E+00 -0.00000000000E+00 -0.35071545098E+03  0.35071545098E+03  0.00000000000E+00 0. -1.
          5    1    1    2  502    0  0.48121047010E+02 -0.71194691137E+02 -0.16481237101E+03  0.18591640393E+03  0.41800000000E+01 0. -1.
         -5    1    1    2    0  502 -0.35917983720E+02  0.20419178577E+02 -0.29064614188E+02  0.50687953264E+02  0.41800000000E+01 0. -1.
        -11    1    1    2    0    0 -0.44529527839E+02  0.25530922938E+02 -0.26079736998E+02  0.57574817043E+02  0.00000000000E+00 0.  1.
         11    1    1    2    0    0  0.32326464549E+02  0.25244589622E+02 -0.89156487080E+02  0.98138518451E+02  0.00000000000E+00 0. -1.
</event>
<event>
 7    1  0.2844572E-009  0.1285550E+03  0.7561462E-02  0.1229616E+00
          3   -1    0    0  501    0  0.00000000000E+00  0.00000000000E+00  0.45519369905E+03  0.45519369905E+03  0.00000000000E+00 0. -1.
         -3   -1    0    0    0  501 -0.00000000000E+00 -0.00000000000E+00 -0.49950986191E+02  0.49950986191E+02  0.00000000000E+00 0.  1.
         25    2    1    2    0    0  0.85221800306E+02 -0.46105057234E+02  0.28080168201E+03  0.32231335902E+03  0.12509150746E+03 0.  0.
          5    1    3    3  502    0  0.89160158311E+02  0.19454050094E+02  0.18133516944E+03  0.20304657094E+03  0.41800000000E+01 0.  1.
         -5    1    3    3    0  502 -0.39383580049E+01 -0.65559107329E+02  0.99466512568E+02  0.11926678808E+03  0.41800000000E+01 0.  1.
        -11    1    1    2    0    0 -0.47010461501E+02  0.38996005759E+02  0.99009721309E+01  0.61876499617E+02  0.00000000000E+00 0.  1.
         11    1    1    2    0    0 -0.38211338804E+02  0.71090514756E+01  0.11454005872E+03  0.12095482660E+03  0.00000000000E+00 0. -1.
</event>
<event>
 6    1  0.2844572E-009  0.5662936E+02  0.7561462E-02  0.1412547E+00
         -3   -1    0    0    0  501 -0.00000000000E+00  0.00000000000E+00  0.93481869216E+02  0.93481869216E+02  0.00000000000E+00 0.  1.
          3   -1    0    0  501    0  0.00000000000E+00 -0.00000000000E+00 -0.13823131422E+03  0.13823131422E+03  0.00000000000E+00 0. -1.
          5    1    1    2  502    0  0.12793923358E+02  0.16257386218E+01  0.51933901030E+02  0.53674295311E+02  0.41800000000E+01 0. -1.
         -5    1    1    2    0  502  0.29403921797E+01 -0.29553123697E+02 -0.70810816496E+02  0.76900436665E+02  0.41800000000E+01 0. -1.
        -11    1    1    2    0    0  0.23482351773E+02  0.17028363400E+02  0.23371150020E+02  0.37250458496E+02  0.00000000000E+00 0.  1.
         11    1    1    2    0    0 -0.39216667311E+02  0.10899021675E+02 -0.49243679554E+02  0.63887992960E+02  0.00000000000E+00 0. -1.
</event>
<event>
 7    1  0.2844572E-009  0.1288316E+03  0.7561462E-02  0.1229200E+00
         -2   -1    0    0    0  501 -0.00000000000E+00  0.00000000000E+00  0.43224067620E+03  0.43224067620E+03  0.00000000000E+00 0. -1.
          2   -1    0    0  501    0  0.00000000000E+00 -0.00000000000E+00 -0.53824250448E+02  0.53824250448E+02  0.00000000000E+00 0.  1.
         25    2    1    2    0    0  0.77733928752E+02 -0.43539486600E+02  0.29970601018E+03  0.33676261978E+03  0.12508844458E+03 0.  0.
          5    1    3    3  502    0 -0.31432092349E+02 -0.15293687892E+02  0.11547345391E+03  0.12072060420E+03  0.41800000000E+01 0. -1.
         -5    1    3    3    0  502  0.10916602110E+03 -0.28245798708E+02  0.18423255627E+03  0.21604201558E+03  0.41800000000E+01 0. -1.
        -11    1    1    2    0    0 -0.59129250527E+02  0.60391111545E+02  0.88485312153E+02  0.12236423125E+03  0.00000000000E+00 0. -1.
         11    1    1    2    0    0 -0.18604678225E+02 -0.16851624945E+02 -0.97748965837E+01  0.26938075624E+02  0.00000000000E+00 0.  1.
</event>
<event>
 7    1  0.2844572E-009  0.1136711E+03  0.7561462E-02  0.1253919E+00
         -2   -1    0    0    0  501 -0.00000000000E+00  0.00000000000E+00  0.19413437701E+03  0.19413437701E+03  0.00000000000E+00 0.  1.
          2   -1    0    0  501    0  0.00000000000E+00 -0.00000000000E+00 -0.84701854845E+02  0.84701854845E+02  0.00000000000E+00 0. -1.
         25    2    1    2    0    0 -0.14917229368E+02  0.33399068323E+02 -0.93128507071E+00  0.13031104981E+03  0.12506830499E+03 0.  0.
          5    1    3    3  502    0  0.45406713210E+02  0.47998811888E+02  0.10590460786E+02  0.67046892597E+02  0.41800000000E+01 0.  1.
         -5    1    3    3    0  502 -0.60323942579E+02 -0.14599743565E+02 -0.11521745857E+02  0.63264157214E+02  0.41800000000E+01 0.  1.
        -11    1    1    2    0    0 -0.39094382982E+02 -0.13102814522E+02  0.39005832157E+02  0.56758342747E+02  0.00000000000E+00 0. -1.
         11    1    1    2    0    0  0.54011612351E+02 -0.20296253801E+02  0.71357975075E+02  0.91766839293E+02  0.00000000000E+00 0.  1.
</event>
<event>
 7    1  0.2844572E-009  0.2147291E+03  0.7561462E-02  0.1137875E+00
          1   -1    0    0  501    0  0.00000000000E+00  0.00000000000E+00  0.22009607384E+03  0.22009607384E+03  0.00000000000E+00 0. -1.
         -1   -1    0    0    0  501 -0.00000000000E+00 -0.00000000000E+00 -0.26705450227E+03  0.26705450227E+03  0.00000000000E+00 0.  1.
         25    2    1    2    0    0  0.16678056221E+03 -0.98847352832E+02  0.72736088450E+02  0.24191809804E+03  0.12508905828E+03 0.  0.
          5    1    3    3  502    0  0.45081119014E+02  0.28429245832E+02  0.70513935327E+01  0.53923314631E+02  0.41800000000E+01 0.  1.
         -5    1    3    3    0  502  0.12169944320E+03 -0.12727659866E+03  0.65684694917E+02  0.18799478341E+03  0.41800000000E+01 0.  1.
        -11    1    1    2    0    0 -0.10956863711E+03  0.90342833170E+02 -0.12218253353E+03  0.18733842437E+03  0.00000000000E+00 0.  1.
         11    1    1    2    0    0 -0.57211925097E+02  0.85045196621E+01  0.24880166521E+01  0.57894053708E+02  0.00000000000E+00 0. -1.
</event>
<event>
 7    1  0.2844572E-009  0.1481604E+03  0.7561462E-02  0.1202752E+00
         -2   -1    0    0    0  501 -0.00000000000E+00  0.00000000000E+00  0.31476332710E+02  0.31476332710E+02  0.00000000000E+00 0.  1.
          2   -1    0    0  501    0  0.00000000000E+00 -0.00000000000E+00 -0.27907755954E+04  0.27907755954E+04  0.00000000000E+00 0. -1.
         25    2    1    2    0    0  0.28823433657E+02  0.11707283801E+03 -0.25885425733E+04  0.25943660025E+04  0.12508181925E+03 0.  0.
          5    1    3    3  502    0 -0.21346495951E+02  0.11022619894E+03 -0.13081797400E+04  0.13129955036E+04  0.41800000000E+01 0.  1.
         -5    1    3    3    0  502  0.50169929608E+02  0.68466390658E+01 -0.12803628333E+04  0.12813704989E+04  0.41800000000E+01 0.  1.
        -11    1    1    2    0    0 -0.45803233475E+02 -0.76266634908E+02 -0.56525631318E+02  0.10540248001E+03  0.00000000000E+00 0.  1.
         11    1    1    2    0    0  0.16979799818E+02 -0.40806203098E+02 -0.11423105808E+03  0.12248344559E+03  0.00000000000E+00 0. -1.
</event>
<event>
 7    1  0.3357752E-009  0.9321491E+02  0.7561462E-02  0.1295248E+00
         -2   -1    0    0    0  501 -0.00000000000E+00  0.00000000000E+00  0.21372417065E+02  0.21372417065E+02  0.00000000000E+00 0.  1.
          2   -1    0    0  501    0  0.00000000000E+00 -0.00000000000E+00 -0.83856277838E+03  0.83856277838E+03  0.00000000000E+00 0. -1.
         25    2    1    2    0    0  0.43337130014E+02  0.61040867043E+02 -0.52762585858E+03  0.54739124628E+03  0.12507611915E+03 0.  0.
          5    1    3    3  502    0 -0.84773137701E+01  0.20030486778E+02 -0.42296656169E+03  0.42354606592E+03  0.41800000000E+01 0. -1.
         -5    1    3    3    0  502  0.51814443784E+02  0.41010380265E+02 -0.10465929688E+03  0.12384518036E+03  0.41800000000E+01 0. -1.
        -11    1    1    2    0    0  0.21299868278E+01  0.11915608446E+02 -0.18296121330E+01  0.12241978969E+02  0.00000000000E+00 0.  1.
         11    1    1    2    0    0 -0.45467116841E+02 -0.72956475488E+02 -0.28773489061E+03  0.30030197019E+03  0.00000000000E+00 0. -1.
</event>
<event>
 7    1  0.2844572E-009  0.2019171E+03  0.7561462E-02  0.1148132E+00
         -2   -1    0    0    0  501 -0.00000000000E+00  0.00000000000E+00  0.18579042194E+02  0.18579042194E+02  0.00000000000E+00 0. -1.
          2   -1    0    0  501    0  0.00000000000E+00 -0.00000000000E+00 -0.27852263615E+04  0.27852263615E+04  0.00000000000E+00 0.  1.
         25    2    1    2    0    0  0.17640244745E+03 -0.12962541276E+02 -0.19972000892E+04  0.20089164931E+04  0.12510567092E+03 0.  0.
          5    1    3    3  502    0  0.16557423598E+03  0.23214111217E+02 -0.13048136413E+04  0.13154884391E+04  0.41800000000E+01 0.  1.
         -5    1    3    3    0  502  0.10828211469E+02 -0.36176652493E+02 -0.69238644793E+03  0.69342805396E+03  0.41800000000E+01 0.  1.
        -11    1    1    2    0    0 -0.97632419522E+02  0.52071734754E+02 -0.46583098188E+03  0.47879229169E+03  0.00000000000E+00 0.  1.
         11    1    1    2    0    0 -0.78770027928E+02 -0.39109193478E+02 -0.30361624825E+03  0.31609661896E+03  0.00000000000E+00 0. -1.
</event>
<event>
 7    1  0.2844572E-009  0.8245101E+02  0.7561462E-02  0.1322236E+00
         -2   -1    0    0    0  501 -0.00000000000E+00  0.00000000000E+00  0.21954571646E+03  0.21954571646E+03  0.00000000000E+00 0.  1.
          2   -1    0    0  501    0  0.00000000000E+00 -0.00000000000E+00 -0.78742648418E+02  0.78742648418E+02  0.00000000000E+00 0. -1.
         25    2    1    2    0    0 -0.15623055534E+02 -0.70737488352E+02  0.60390201507E+02  0.15665923267E+03  0.12508903477E+03 0.  0.
          5    1    3    3  502    0 -0.17278061939E+01 -0.65052925232E+02 -0.25015375788E+02  0.69843466561E+02  0.41800000000E+01 0. -1.
         -5    1    3    3    0  502 -0.13895249341E+02 -0.56845631200E+01  0.85405577295E+02  0.86815766110E+02  0.41800000000E+01 0. -1.
        -11    1    1    2    0    0 -0.83350404007E+01  0.54574989269E+02  0.94525914754E+02  0.10946712252E+03  0.00000000000E+00 0.  1.
         11    1    1    2    0    0  0.23958095935E+02  0.16162499083E+02 -0.14113048217E+02  0.32162009692E+02  0.00000000000E+00 0. -1.
</event>
<event>
 7    1  0.2844572E-009  0.1429797E+03  0.7561462E-02  0.1209375E+00
         -1   -1    0    0    0  501 -0.00000000000E+00  0.00000000000E+00  0.28047592608E+02  0.28047592608E+02  0.00000000000E+00 0.  1.
          1   -1    0    0  501    0  0.00000000000E+00 -0.00000000000E+00 -0.78862376922E+03  0.78862376922E+03  0.00000000000E+00 0. -1.
         25    2    1    2    0    0  0.91514175301E+02 -0.15187695516E+02 -0.30107100627E+03  0.33896433536E+03  0.12509020527E+03 0.  0.
          5    1    3    3  502    0  0.28561401127E+02 -0.67692524311E+02 -0.14714151894E+03  0.16451787282E+03  0.41800000000E+01 0.  1.
         -5    1    3    3    0  502  0.62952774174E+02  0.52504828795E+02 -0.15392948733E+03  0.17444646254E+03  0.41800000000E+01 0.  1.
        -11    1    1    2    0    0  0.65624273075E+01 -0.23843835624E+02 -0.74760196776E+02  0.78744402794E+02  0.00000000000E+00 0. -1.
         11    1    1    2    0    0 -0.98076602608E+02  0.39031531139E+02 -0.38474497356E+03  0.39896262367E+03  0.00000000000E+00 0.  1.
</event>
<event>
 7    1  0.2844572E-009  0.1258146E+03  0.7561462E-02  0.1233802E+00
         -2   -1    0    0    0  501 -0.00000000000E+00  0.00000000000E+00  0.69110170188E+02  0.69110170188E+02  0.00000000000E+00 0.  1.
          2   -1    0    0  501    0  0.00000000000E+00 -0.00000000000E+00 -0.35377646614E+03  0.35377646614E+03  0.00000000000E+00 0. -1.
         25    2    1    2    0    0  0.16190672661E+02 -0.83194939350E+02 -0.25351573746E+03  0.29512980323E+03  0.12509130986E+03 0.  0.
          5    1    3    3  502    0 -0.54183610866E+02 -0.26129508358E+02 -0.95997708348E+02  0.11336510619E+03  0.41800000000E+01 0. -1.
         -5    1    3    3    0  502  0.70374283527E+02 -0.57065430992E+02 -0.15751802911E+03  0.18176469704E+03  0.41800000000E+01 0. -1.
        -11    1    1    2    0    0 -0.18761904286E+02  0.14218276908E+01 -0.41234163562E+02  0.45324241760E+02  0.00000000000E+00 0. -1.
         11    1    1    2    0    0  0.25712316248E+01  0.81773111660E+02  0.10083605072E+02  0.82432591333E+02  0.00000000000E+00 0.  1.
</event>
<event>
 7    1  0.2844572E-009  0.1072853E+03  0.7561462E-02  0.1265681E+00
          2   -1    0    0  501    0  0.00000000000E+00  0.00000000000E+00  0.43224786134E+03  0.43224786134E+03  0.00000000000E+00 0. -1.
         -2   -1    0    0    0  501 -0.00000000000E+00 -0.00000000000E+00 -0.43490512808E+02  0.43490512808E+02  0.00000000000E+00 0.  1.
         25    2    1    2    0    0  0.54295006469E+02 -0.62180023668E+02  0.19808879994E+03  0.24839721745E+03  0.12509077467E+03 0.  0.
          5    1    3    3  502    0 -0.71090536640E+01  0.20501471851E+02 -0.31265468142E+01  0.22318079824E+02  0.41800000000E+01 0. -1.
         -5    1    3    3    0  502  0.61404060133E+02 -0.82681495519E+02  0.20121534675E+03  0.22607913763E+03  0.41800000000E+01 0. -1.
        -11    1    1    2    0    0 -0.33356865854E+02  0.59603909845E+02  0.19428116867E+03  0.20593804668E+03  0.00000000000E+00 0. -1.
         11    1    1    2    0    0 -0.20938140615E+02  0.25761138231E+01 -0.36126200739E+01  0.21403110023E+02  0.00000000000E+00 0.  1.
</event>
<event>
 7    1  0.2844572E-009  0.1110877E+03  0.7561462E-02  0.1258569E+00
         -3   -1    0    0    0  501 -0.00000000000E+00  0.00000000000E+00  0.57249772421E+03  0.57249772421E+03  0.00000000000E+00 0.  1.
          3   -1    0    0  501    0  0.00000000000E+00 -0.00000000000E+00 -0.24890646683E+02  0.24890646683E+02  0.00000000000E+00 0. -1.
         25    2    1    2    0    0 -0.30850175359E+02 -0.29818284793E+02  0.24708581122E+03  0.28024982803E+03  0.12509078532E+03 0.  0.
          5    1    3    3  502    0 -0.21172548209E+02  0.47389463346E+02  0.74571587239E+02  0.90952911208E+02  0.41800000000E+01 0. -1.
         -5    1    3    3    0  502 -0.96776271502E+01 -0.77207748139E+02  0.17251422398E+03  0.18929691682E+03  0.41800000000E+01 0. -1.
        -11    1    1    2    0    0  0.60940910027E+01 -0.28331187786E+02  0.16600396387E+03  0.16851442125E+03  0.00000000000E+00 0.  1.
         11    1    1    2    0    0  0.24756084356E+02  0.58149472580E+02  0.13451730243E+03  0.14862412162E+03  0.00000000000E+00 0. -1.
</event>
<event>
 7    1  0.2844572E-009  0.1472782E+03  0.7561462E-02  0.1203858E+00
         -1   -1    0    0    0  501 -0.00000000000E+00  0.00000000000E+00  0.21396690628E+02  0.21396690628E+02  0.00000000000E+00 0.  1.
          1   -1    0    0  501    0  0.00000000000E+00 -0.00000000000E+00 -0.14364137311E+04  0.14364137311E+04  0.00000000000E+00 0. -1.
         25    2    1    2    0    0 -0.10668263921E+02  0.10855244260E+03 -0.10995200821E+04  0.11119754633E+04  0.12509026888E+03 0.  0.
          5    1    3    3  502    0 -0.43993308267E+02 -0.50472063417E+01 -0.21453878344E+03  0.21910099832E+03  0.41800000000E+01 0. -1.
         -5    1    3    3    0  502  0.33325044346E+02  0.11359964894E+03 -0.88498129871E+03  0.89287446502E+03  0.41800000000E+01 0. -1.
        -11    1    1    2    0    0  0.43813966891E+01  0.11030550764E+02 -0.46977323028E+01  0.12764731721E+02  0.00000000000E+00 0.  1.
         11    1    1    2    0    0  0.62868672321E+01 -0.11958299336E+03 -0.31079922605E+03  0.33307022670E+03  0.00000000000E+00 0. -1.
</event>
<event>
 7    1  0.2844572E-009  0.2672406E+03  0.7561462E-02  0.1102869E+00
         -2   -1    0    0    0  501 -0.00000000000E+00  0.00000000000E+00  0.15923446401E+03  0.15923446401E+03  0.00000000000E+00 0.  1.
          2   -1    0    0  501    0  0.00000000000E+00 -0.00000000000E+00 -0.48553845068E+03  0.48553845068E+03  0.00000000000E+00 0. -1.
         25    2    1    2    0    0 -0.23116802099E+03 -0.10904147726E+03 -0.18162865424E+03  0.33758740817E+03  0.12509033704E+03 0.  0.
          5    1    3    3  502    0 -0.12833577620E+03 -0.25345399956E+02 -0.15397022264E+03  0.20208107930E+03  0.41800000000E+01 0.  1.
         -5    1    3    3    0  502 -0.10283224479E+03 -0.83696077305E+02 -0.27658431602E+02  0.13550632887E+03  0.41800000000E+01 0.  1.
        -11    1    1    2    0    0  0.66727694924E+02 -0.10631144473E+02 -0.33887019321E+02  0.75590585268E+02  0.00000000000E+00 0.  1.
         11    1    1    2    0    0  0.16444032607E+03  0.11967262173E+03 -0.11078831311E+03  0.23159492126E+03  0.00000000000E+00 0. -1.
</event>
<event>
 7    1  0.2844572E-009  0.1984863E+03  0.7561462E-02  0.1151022E+00
         -1   -1    0    0    0  501 -0.00000000000E+00  0.00000000000E+00  0.83749219104E+02  0.83749219104E+02  0.00000000000E+00 0.  1.
          1   -1    0    0  501    0  0.00000000000E+00 -0.00000000000E+00 -0.63348797584E+03  0.63348797584E+03  0.00000000000E+00 0. -1.
         25    2    1    2    0    0  0.17356147438E+03 -0.22583411552E+02 -0.12525502603E+03  0.24893755043E+03  0.12508991406E+03 0.  0.
          5    1    3    3  502    0  0.18505167880E+03 -0.44007140481E+02 -0.10732106808E+03  0.21844000616E+03  0.41800000000E+01 0.  1.
         -5    1    3    3    0  502 -0.11490204411E+02  0.21423728928E+02 -0.17933957950E+02  0.30497544267E+02  0.41800000000E+01 0.  1.
        -11    1    1    2    0    0 -0.13220117081E+03 -0.50623119902E+01 -0.21060448036E+03  0.24871072296E+03  0.00000000000E+00 0.  1.
         11    1    1    2    0    0 -0.41360303570E+02  0.27645723543E+02 -0.21387925034E+03  0.21958892155E+03  0.00000000000E+00 0. -1.
</event>
<event>
 7    1  0.2844572E-009  0.1436068E+03  0.7561462E-02  0.1208557E+00
          3   -1    0    0  501    0  0.00000000000E+00  0.00000000000E+00  0.19969833313E+03  0.19969833313E+03  0.00000000000E+00 0. -1.
         -3   -1    0    0    0  501 -0.00000000000E+00 -0.00000000000E+00 -0.11153744932E+03  0.11153744932E+03  0.00000000000E+00 0.  1.
         25    2    1    2    0    0 -0.76066750205E+02  0.50472489609E+02  0.41021249197E+02  0.16019696491E+03  0.12508677782E+03 0.  0.
          5    1    3    3  502    0 -0.10891281469E+03  0.36009828185E+02  0.15205600672E+02  0.11579029157E+03  0.41800000000E+01 0.  1.
         -5    1    3    3    0  502  0.32846064490E+02  0.14462661424E+02  0.25815648524E+02  0.44406673335E+02  0.41800000000E+01 0.  1.
        -11    1    1    2    0    0 -0.13097873098E+02 -0.45104962735E+02 -0.56073278015E+01  0.47301734303E+02  0.00000000000E+00 0.  1.
         11    1    1    2    0    0  0.89164623303E+02 -0.53675268744E+01  0.52746962421E+02  0.10373708324E+03  0.00000000000E+00 0. -1.
</event>
<event>
 7    1  0.2844572E-009  0.8974052E+02  0.7561462E-02  0.1303481E+00
         -1   -1    0    0    0  501 -0.00000000000E+00  0.00000000000E+00  0.38300828640E+02  0.38300828640E+02  0.00000000000E+00 0.  1.
          1   -1    0    0  501    0  0.00000000000E+00 -0.00000000000E+00 -0.34313685113E+03  0.34313685113E+03  0.00000000000E+00 0. -1.
         25    2    1    2    0    0 -0.22994629523E+02  0.18063092784E+02 -0.20013152682E+03  0.23781308600E+03  0.12508959804E+03 0.  0.
          5    1    3    3  502    0 -0.34522433326E+02  0.43813286084E+02 -0.26574082207E+02  0.61927834496E+02  0.41800000000E+01 0. -1.
         -5    1    3    3    0  502  0.11527803803E+02 -0.25750193300E+02 -0.17355744461E+03  0.17588525150E+03  0.41800000000E+01 0. -1.
        -11    1    1    2    0    0  0.33121218405E+02  0.30735892575E+02 -0.31564168125E+02  0.55118117806E+02  0.00000000000E+00 0.  1.
         11    1    1    2    0    0 -0.10126588882E+02 -0.48798985359E+02 -0.73140327545E+02  0.88506475966E+02  0.00000000000E+00 0. -1.
</event>
<event>
 7    1  0.2844572E-009  0.9568125E+02  0.7561462E-02  0.1289649E+00
         -1   -1    0    0    0  501 -0.00000000000E+00  0.00000000000E+00  0.93215209229E+02  0.93215209229E+02  0.00000000000E+00 0.  1.
          1   -1    0    0  501    0  0.00000000000E+00 -0.00000000000E+00 -0.18698093355E+03  0.18698093355E+03  0.00000000000E+00 0. -1.
         25    2    1    2    0    0 -0.52730612387E+02  0.49342625351E+02 -0.65793566933E+02  0.15871811997E+03  0.12508971180E+03 0.  0.
          5    1    3    3  502    0 -0.19245583399E+02  0.31845256322E+02  0.34839954765E+02  0.51144967285E+02  0.41800000000E+01 0.  1.
         -5    1    3    3    0  502 -0.33485028988E+02  0.17497369029E+02 -0.10063352170E+03  0.10757315268E+03  0.41800000000E+01 0.  1.
        -11    1    1    2    0    0  0.71934345600E+02 -0.10658916881E+02 -0.58524015117E+01  0.72954870910E+02  0.00000000000E+00 0. -1.
         11    1    1    2    0    0 -0.19203733213E+02 -0.38683708470E+02 -0.22119755879E+02  0.48523151901E+02  0.00000000000E+00 0.  1.
</event>
<event>
 7    1  0.2844572E-009  0.1211907E+03  0.7561462E-02  0.1241146E+00
          2   -1    0    0  501    0  0.00000000000E+00  0.00000000000E+00  0.44570157302E+02  0.44570157302E+02  0.00000000000E+00 0. -1.
         -2   -1    0    0    0  501 -0.00000000000E+00 -0.00000000000E+00 -0.53875719406E+03  0.53875719406E+03  0.00000000000E+00 0.  1.
         25    2    1    2    0    0  0.33403457061E+01 -0.83366682935E+02 -0.12964632398E+03  0.19853801789E+03  0.12509202010E+03 0.  0.
          5    1    3    3  502    0  0.39370358118E+02 -0.15855679353E+02  0.56725313334E+01  0.43024152261E+02  0.41800000000E+01 0. -1.
         -5    1    3    3    0  502 -0.36030012412E+02 -0.67511003582E+02 -0.13531885531E+03  0.15551386562E+03  0.41800000000E+01 0. -1.
        -11    1    1    2    0    0  0.43139060809E+02  0.49039542205E+02 -0.18634160845E+03  0.19745645167E+03  0.00000000000E+00 0.  1.
         11    1    1    2    0    0 -0.46479406515E+02  0.34327140730E+02 -0.17819910433E+03  0.18733288180E+03  0.00000000000E+00 0. -1.
</event>
<event>
 7    1  0.2844572E-009  0.1027814E+03  0.7561462E-02  0.1274554E+00
         -1   -1    0    0    0  501 -0.00000000000E+00  0.00000000000E+00  0.18859574552E+02  0.18859574552E+02  0.00000000000E+00 0.  1.
          1   -1    0    0  501    0  0.00000000000E+00 -0.00000000000E+00 -0.72347048558E+03  0.72347048558E+03  0.00000000000E+00 0. -1.
         25    2    1    2    0    0 -0.44932023462E+02 -0.64176355013E+01 -0.43683646684E+03  0.45665486828E+03  0.12508995636E+03 0.  0.
          5    1    3    3  502    0  0.29666915509E+02  0.21090958283E+02 -0.26191871093E+03  0.26446897348E+03  0.41800000000E+01 0.  1.
         -5    1    3    3    0  502 -0.74598938972E+02 -0.27508593784E+02 -0.17491775591E+03  0.19218589480E+03  0.41800000000E+01 0.  1.
        -11    1    1    2    0    0  0.31962234643E+02  0.41222246390E+02 -0.21436627409E+03  0.22062129886E+03  0.00000000000E+00 0. -1.
         11    1    1    2    0    0  0.12969788820E+02 -0.34804610889E+02 -0.53408170097E+02  0.65053892998E+02  0.00000000000E+00 0.  1.
</event>
<event>
 7    1  0.2844572E-009  0.1282284E+03  0.7561462E-02  0.1230108E+00
         -1   -1    0    0    0  501 -0.00000000000E+00  0.00000000000E+00  0.18855362099E+02  0.18855362099E+02  0.00000000000E+00 0.  1.
          1   -1    0    0  501    0  0.00000000000E+00 -0.00000000000E+00 -0.88586411312E+03  0.88586411312E+03  0.00000000000E+00 0. -1.
         25    2    1    2    0    0  0.58195545865E+02 -0.43374219326E+02 -0.49726086282E+03  0.51786478670E+03  0.12509007616E+03 0.  0.
          5    1    3    3  502    0  0.10645918429E+02  0.42827397673E+02 -0.11924788245E+03  0.12722048357E+03  0.41800000000E+01 0.  1.
         -5    1    3    3    0  502  0.47549627436E+02 -0.86201616999E+02 -0.37801298037E+03  0.39064430313E+03  0.41800000000E+01 0.  1.
        -11    1    1    2    0    0 -0.54870615790E+02  0.68771794234E+02 -0.29500690053E+03  0.30784641547E+03  0.00000000000E+00 0. -1.
         11    1    1    2    0    0 -0.33249300751E+01 -0.25397574908E+02 -0.74740987674E+02  0.79008273046E+02  0.00000000000E+00 0.  1.
</event>
<event>
 7    1  0.2844572E-009  0.1005019E+03  0.7561462E-02  0.1279244E+00
          2   -1    0    0  501    0  0.00000000000E+00  0.00000000000E+00  0.29712942154E+03  0.29712942154E+03  0.00000000000E+00 0. -1.
         -2   -1    0    0    0  501 -0.00000000000E+00 -0.00000000000E+00 -0.48818378595E+02  0.48818378595E+02  0.00000000000E+00 0.  1.
         25    2    1    2    0    0 -0.45493811771E+02  0.17704146286E+02  0.11940540393E+03  0.17969072702E+03  0.12509189896E+03 0.  0.
          5    1    3    3  502    0 -0.67337425687E+01 -0.39837149987E+02  0.99378738340E+02  0.10735896722E+03  0.41800000000E+01 0. -1.
         -5    1    3    3    0  502 -0.38760069202E+02  0.57541296273E+02  0.20026665588E+02  0.72331759801E+02  0.41800000000E+01 0. -1.
        -11    1    1    2    0    0 -0.16273999964E+02 -0.23780530871E+02  0.72967987170E+01  0.29725409919E+02  0.00000000000E+00 0.  1.
         11    1    1    2    0    0  0.61767811734E+02  0.60763845846E+01  0.12160884030E+03  0.13653166320E+03  0.00000000000E+00 0. -1.
</event>
<event>
 7    1  0.2844572E-009  0.1718863E+03  0.7561462E-02  0.1175895E+00
         -2   -1    0    0    0  501 -0.00000000000E+00  0.00000000000E+00  0.37289489480E+02  0.37289489480E+02  0.00000000000E+00 0.  1.
          2   -1    0    0  501    0  0.00000000000E+00 -0.00000000000E+00 -0.86012156469E+03  0.86012156469E+03  0.00000000000E+00 0. -1.
         25    2    1    2    0    0  0.44896027976E+02 -0.13518131061E+03 -0.44361105654E+03  0.48241852940E+03  0.12508888025E+03 0.  0.
          5    1    3    3  502    0 -0.42956343556E+02 -0.59102054628E+02 -0.17887579908E+03  0.19326749393E+03  0.41800000000E+01 0. -1.
         -5    1    3    3    0  502  0.87852371531E+02 -0.76079255981E+02 -0.26473525745E+03  0.28915103547E+03  0.41800000000E+01 0. -1.
        -11    1    1    2    0    0  0.14464115298E+02  0.19529416759E+02 -0.15713958681E+02  0.28940235792E+02  0.00000000000E+00 0.  1.
         11    1    1    2    0    0 -0.59360143273E+02  0.11565189385E+03 -0.36350706000E+03  0.38605228898E+03  0.00000000000E+00 0. -1.
</event>
<event>
 7    1  0.2844572E-009  0.1326289E+03  0.7561462E-02  0.1223606E+00
          1   -1    0    0  501    0  0.00000000000E+00  0.00000000000E+00  0.91794550776E+02  0.91794550776E+02  0.00000000000E+00 0. -1.
         -1   -1    0    0    0  501 -0.00000000000E+00 -0.00000000000E+00 -0.65115749480E+03  0.65115749480E+03  0.00000000000E+00 0.  1.
         25    2    1    2    0    0  0.63923138140E+02  0.59467356645E+02 -0.59249919723E+03  0.61182111382E+03  0.12508893837E+03 0.  0.
          5    1    3    3  502    0  0.23687568343E+02  0.87796426148E+02 -0.25570827529E+03  0.27142864217E+03  0.41800000000E+01 0. -1.
         -5    1    3    3    0  502  0.40235569796E+02 -0.28329069503E+02 -0.33679092194E+03  0.34039247165E+03  0.41800000000E+01 0. -1.
        -11    1    1    2    0    0 -0.37068017600E+02 -0.81868363786E+02  0.34165294549E+02  0.96144340808E+02  0.00000000000E+00 0. -1.
         11    1    1    2    0    0 -0.26855120540E+02  0.22401007141E+02 -0.10290413456E+01  0.34986590949E+02  0.00000000000E+00 0.  1.
</event>
<event>
 7    1  0.2844572E-009  0.1240516E+03  0.7561462E-02  0.1236559E+00
          3   -1    0    0  501    0  0.00000000000E+00  0.00000000000E+00  0.15303254173E+03  0.15303254173E+03  0.00000000000E+00 0. -1.
         -3   -1    0    0    0  501 -0.00000000000E+00 -0.00000000000E+00 -0.17365966562E+03  0.17365966562E+03  0.00000000000E+00 0.  1.
         25    2    1    2    0    0  0.28253995259E+02  0.85980130590E+02  0.59217416228E+02  0.16536518655E+03  0.12509225169E+03 0.  0.
          5    1    3    3  502    0  0.37626048454E+02  0.99410357890E+02  0.83879362771E+02  0.13546718672E+03  0.41800000000E+01 0.  1.
         -5    1    3    3    0  502 -0.93720531946E+01 -0.13430227300E+02 -0.24661946544E+02  0.29897999828E+02  0.41800000000E+01 0.  1.
        -11    1    1    2    0    0 -0.58227137031E+02 -0.42809691338E+02 -0.85786879314E+01  0.72778176990E+02  0.00000000000E+00 0. -1.
         11    1    1    2    0    0  0.29973141772E+02 -0.43170439252E+02 -0.71265852187E+02  0.88548843815E+02  0.00000000000E+00 0.  1.
</event>
<event>
 7    1  0.2844572E-009  0.1152162E+03  0.7561462E-02  0.1251204E+00
         -2   -1    0    0    0  501 -0.00000000000E+00  0.00000000000E+00  0.59138859644E+02  0.59138859644E+02  0.00000000000E+00 0.  1.
          2   -1    0    0  501    0  0.00000000000E+00 -0.00000000000E+00 -0.31209022896E+03  0.31209022896E+03  0.00000000000E+00 0. -1.
         25    2    1    2    0    0 -0.34781208834E+02 -0.34035300784E+02 -0.50052756731E+02  0.14325207881E+03  0.12509094867E+03 0.  0.
          5    1    3    3  502    0 -0.47380812013E+02  0.33741083040E+02 -0.45628813352E+02  0.74046357369E+02  0.41800000000E+01 0.  1.
         -5    1    3    3    0  502  0.12599603179E+02 -0.67776383824E+02 -0.44239433794E+01  0.69205721437E+02  0.41800000000E+01 0.  1.
        -11    1    1    2    0    0  0.82442458907E+01  0.63133467840E+02 -0.11040115449E+03  0.12744495778E+03  0.00000000000E+00 0.  1.
         11    1    1    2    0    0  0.26536962943E+02 -0.29098167056E+02 -0.92497458094E+02  0.10053205201E+03  0.00000000000E+00 0. -1.
</event>
<event>
 7    1  0.2844572E-009  0.1189953E+03  0.7561462E-02  0.1244764E+00
          2   -1    0    0  501    0  0.00000000000E+00  0.00000000000E+00  0.40429407336E+03  0.40429407336E+03  0.00000000000E+00 0. -1.
         -2   -1    0    0    0  501 -0.00000000000E+00 -0.00000000000E+00 -0.70238733166E+02  0.70238733166E+02  0.00000000000E+00 0.  1.
         25    2    1    2    0    0  0.83700446346E+02  0.49030068149E+02  0.48029132959E+02  0.16543239368E+03  0.12510542341E+03 0.  0.
          5    1    3    3  502    0  0.94304973625E+02  0.58506783090E+02  0.75448541635E+02  0.13426252848E+03  0.41800000000E+01 0.  1.
         -5    1    3    3    0  502 -0.10604527278E+02 -0.94767149409E+01 -0.27419408676E+02  0.31169865207E+02  0.41800000000E+01 0.  1.
        -11    1    1    2    0    0 -0.39261798721E+02  0.77365949390E+01  0.14883603230E+03  0.15412173192E+03  0.00000000000E+00 0. -1.
         11    1    1    2    0    0 -0.44438647625E+02 -0.56766663088E+02  0.13719017494E+03  0.15497868092E+03  0.00000000000E+00 0.  1.
</event>
<event>
 7    1  0.2844572E-009  0.2014439E+03  0.7561462E-02  0.1148526E+00
         -1   -1    0    0    0  501 -0.00000000000E+00  0.00000000000E+00  0.64074558744E+03  0.64074558744E+03  0.00000000000E+00 0.  1.
          1   -1    0    0  501    0  0.00000000000E+00 -0.00000000000E+00 -0.10875606779E+03  0.10875606779E+03  0.00000000000E+00 0. -1.
         25    2    1    2    0    0 -0.10549446272E+02  0.18832777257E+03  0.61579958013E+02  0.23456027039E+03  0.12509112071E+03 0.  0.
          5    1    3    3  502    0  0.38545772032E+02  0.10363698167E+03 -0.13015281747E+02  0.11141485749E+03  0.41800000000E+01 0. -1.
         -5    1    3    3    0  502 -0.49095218304E+02  0.84690790903E+02  0.74595239761E+02  0.12314541290E+03  0.41800000000E+01 0. -1.
        -11    1    1    2    0    0 -0.11081053368E+02 -0.14866046443E+03  0.25971775251E+03  0.29945957056E+03  0.00000000000E+00 0. -1.
         11    1    1    2    0    0  0.21630499639E+02 -0.39667308133E+02  0.21069180913E+03  0.21548181428E+03  0.00000000000E+00 0.  1.
</event>
<event>
 7    1  0.2844572E-009  0.9845612E+02  0.7561462E-02  0.1283576E+00
          2   -1    0    0  501    0  0.00000000000E+00  0.00000000000E+00  0.92055123217E+03  0.92055123217E+03  0.00000000000E+00 0. -1.
         -2   -1    0    0    0  501 -0.00000000000E+00 -0.00000000000E+00 -0.14639262303E+02  0.14639262303E+02  0.00000000000E+00 0.  1.
         25    2    1    2    0    0 -0.26538105321E+02 -0.10388220339E+02  0.61584504361E+03  0.62906592181E+03  0.12508649042E+03 0.  0.
          5    1    3    3  502    0  0.30085259916E+02 -0.50389954869E+02  0.28085532449E+03  0.28695201011E+03  0.41800000000E+01 0.  1.
         -5    1    3    3    0  502 -0.56623365237E+02  0.40001734531E+02  0.33498971913E+03  0.34211391170E+03  0.41800000000E+01 0.  1.
        -11    1    1    2    0    0 -0.20569977132E+02  0.52864849825E+01  0.12713801944E+02  0.24753012797E+02  0.00000000000E+00 0.  1.
         11    1    1    2    0    0  0.47108082453E+02  0.51017353562E+01  0.27735312431E+03  0.28137155986E+03  0.00000000000E+00 0. -1.
</event>
<event>
 7    1  0.2844572E-009  0.1488550E+03  0.7561462E-02  0.1201887E+00
          2   -1    0    0  501    0  0.00000000000E+00  0.00000000000E+00  0.16593034441E+03  0.16593034441E+03  0.00000000000E+00 0. -1.
         -2   -1    0    0    0  501 -0.00000000000E+00 -0.00000000000E+00 -0.17839464800E+03  0.17839464800E+03  0.00000000000E+00 0.  1.
         25    2    1    2    0    0  0.57645180419E+02  0.11227249444E+03 -0.48984232719E+02  0.18432305953E+03  0.12508978930E+03 0.  0.
          5    1    3    3  502    0  0.72827257374E+02  0.76942974627E+02  0.17446560895E+02  0.10745178290E+03  0.41800000000E+01 0. -1.
         -5    1    3    3    0  502 -0.15182076955E+02  0.35329519810E+02 -0.66430793614E+02  0.76871276631E+02  0.41800000000E+01 0. -1.
        -11    1    1    2    0    0 -0.56410178168E+02 -0.12661279101E+03  0.23490325213E+02  0.14058699238E+03  0.00000000000E+00 0. -1.
         11    1    1    2    0    0 -0.12350022505E+01  0.14340296577E+02  0.13029603915E+02  0.19414940501E+02  0.00000000000E+00 0.  1.
</event>
<event>
 7    1  0.2844572E-009  0.1486959E+03  0.7561462E-02  0.1202085E+00
         -1   -1    0    0    0  501 -0.00000000000E+00  0.00000000000E+00  0.20415067483E+03  0.20415067483E+03  0.00000000000E+00 0.  1.
          1   -1    0    0  501    0  0.00000000000E+00 -0.00000000000E+00 -0.12636845999E+03  0.12636845999E+03  0.00000000000E+00 0. -1.
         25    2    1    2    0    0 -0.41518951897E+02 -0.95247173154E+02  0.97077350102E+02  0.18938778624E+03  0.12509146379E+03 0.  0.
          5    1    3    3  502    0  0.44023498250E+02 -0.33320808980E+02  0.21228871352E+02  0.59299933289E+02  0.41800000000E+01 0.  1.
         -5    1    3    3    0  502 -0.85542450147E+02 -0.61926364175E+02  0.75848478750E+02  0.13008785295E+03  0.41800000000E+01 0.  1.
        -11    1    1    2    0    0 -0.66425571062E+01  0.87263139825E+02 -0.27269100829E+02  0.91665604221E+02  0.00000000000E+00 0. -1.
         11    1    1    2    0    0  0.48161509003E+02  0.79840333290E+01  0.79739655661E+01  0.49465744354E+02  0.00000000000E+00 0.  1.
</event>
<event>
 7    1  0.2844572E-009  0.2548505E+03  0.7561462E-02  0.1110277E+00
         -2   -1    0    0    0  501 -0.00000000000E+00  0.00000000000E+00  0.11300440040E+03  0.11300440040E+03  0.00000000000E+00 0.  1.
          2   -1    0    0  501    0  0.00000000000E+00 -0.00000000000E+00 -0.64440645746E+03  0.64440645746E+03  0.00000000000E+00 0. -1.
         25    2    1    2    0    0 -0.69925978273E+02  0.22328069930E+03 -0.37222705894E+03  0.45710019684E+03  0.12507475137E+03 0.  0.
          5    1    3    3  502    0  0.10107028851E+02  0.16646356889E+03 -0.24366528560E+03  0.29530072063E+03  0.41800000000E+01 0.  1.
         -5    1    3    3    0  502 -0.80033007123E+02  0.56817130405E+02 -0.12856177334E+03  0.16179947621E+03  0.41800000000E+01 0.  1.
        -11    1    1    2    0    0 -0.32454880309E+01 -0.10831180476E+03 -0.29756851001E+02  0.11237192899E+03  0.00000000000E+00 0. -1.
         11    1    1    2    0    0  0.73171466304E+02 -0.11496889454E+03 -0.12941814712E+03  0.18793873203E+03  0.00000000000E+00 0.  1.
</event>
<event>
 7    1  0.2844572E-009  0.1225650E+03  0.7561462E-02  0.1238925E+00
          2   -1    0    0  501    0  0.00000000000E+00  0.00000000000E+00  0.21158291016E+03  0.21158291016E+03  0.00000000000E+00 0. -1.
         -2   -1    0    0    0  501 -0.00000000000E+00 -0.00000000000E+00 -0.15271756365E+03  0.15271756365E+03  0.00000000000E+00 0.  1.
         25    2    1    2    0    0  0.44953607030E+02  0.76297550157E+02 -0.82972576852E+02  0.17428215223E+03  0.12509067564E+03 0.  0.
          5    1    3    3  502    0 -0.19874129305E+02  0.26544729529E+01  0.22326768538E+02  0.30298254663E+02  0.41800000000E+01 0. -1.
         -5    1    3    3    0  502  0.64827736335E+02  0.73643077205E+02 -0.10529934539E+03  0.14398389757E+03  0.41800000000E+01 0. -1.
        -11    1    1    2    0    0  0.26771607072E+02 -0.33651531298E+02  0.48136559029E+02  0.64546671634E+02  0.00000000000E+00 0. -1.
         11    1    1    2    0    0 -0.71725214102E+02 -0.42646018860E+02  0.93701364334E+02  0.12547164995E+03  0.00000000000E+00 0.  1.
</event>
<event>
 7    1  0.2844572E-009  0.1101871E+03  0.7561462E-02  0.1260224E+00
         -2   -1    0    0    0  501 -0.00000000000E+00  0.00000000000E+00  0.22055709865E+02  0.22055709865E+02  0.00000000000E+00 0.  1.
          2   -1    0    0  501    0  0.00000000000E+00 -0.00000000000E+00 -0.70735198765E+03  0.70735198765E+03  0.00000000000E+00 0. -1.
         25    2    1    2    0    0 -0.54101739824E+02 -0.16309393542E+02 -0.46026692316E+03  0.48029838332E+03  0.12509157406E+03 0.  0.
          5    1    3    3  502    0  0.14313478250E+02  0.41659129814E+02 -0.20459453882E+03  0.20932452430E+03  0.41800000000E+01 0.  1.
         -5    1    3    3    0  502 -0.68415218074E+02 -0.57968523357E+02 -0.25567238434E+03  0.27097385903E+03  0.41800000000E+01 0.  1.
        -11    1    1    2    0    0  0.27987217620E+02 -0.24972955012E+02 -0.29927939817E+02  0.47985564640E+02  0.00000000000E+00 0.  1.
         11    1    1    2    0    0  0.26114522204E+02  0.41282348554E+02 -0.19510141481E+03  0.20112374955E+03  0.00000000000E+00 0. -1.
</event>
<event>
 7    1  0.2844572E-009  0.1322250E+03  0.7561462E-02  0.1224191E+00
         -2   -1    0    0    0  501 -0.00000000000E+00  0.00000000000E+00  0.27162899599E+02  0.27162899599E+02  0.00000000000E+00 0.  1.
          2   -1    0    0  501    0  0.00000000000E+00 -0.00000000000E+00 -0.79450079216E+03  0.79450079216E+03  0.00000000000E+00 0. -1.
         25    2    1    2    0    0  0.89444184673E+02 -0.18492438365E+02 -0.31460785579E+03  0.35066648486E+03  0.12508656294E+03 0.  0.
          5    1    3    3  502    0  0.50100650591E+02 -0.59392097638E+02 -0.90058348307E+02  0.11901880083E+03  0.41800000000E+01 0.  1.
         -5    1    3    3    0  502  0.39343534081E+02  0.40899659273E+02 -0.22454950748E+03  0.23164768403E+03  0.41800000000E+01 0.  1.
        -11    1    1    2    0    0 -0.43417224997E+02 -0.37415576316E+02 -0.21197409098E+03  0.21958596499E+03  0.00000000000E+00 0.  1.
         11    1    1    2    0    0 -0.46026959676E+02  0.55908014681E+02 -0.24075594579E+03  0.25141124191E+03  0.00000000000E+00 0. -1.
</event>
<event>
 7    1  0.2844572E-009  0.1326517E+03  0.7561462E-02  0.1223573E+00
         -1   -1    0    0    0  501 -0.00000000000E+00  0.00000000000E+00  0.11413675044E+03  0.11413675044E+03  0.00000000000E+00 0.  1.
          1   -1    0    0  501    0  0.00000000000E+00 -0.00000000000E+00 -0.56380032991E+03  0.56380032991E+03  0.00000000000E+00 0. -1.
         25    2    1    2    0    0  0.58424035097E+02  0.10429876485E+03 -0.49165771777E+03  0.52121512953E+03  0.12508516932E+03 0.  0.
          5    1    3    3  502    0  0.38405691693E+02  0.10049068190E+03 -0.48844199819E+03  0.50016640461E+03  0.41800000000E+01 0.  1.
         -5    1    3    3    0  502  0.20018343404E+02  0.38080829433E+01 -0.32157195767E+01  0.21048724919E+02  0.41800000000E+01 0.  1.
        -11    1    1    2    0    0 -0.25315441890E+02  0.21072454196E+01  0.37371902928E+02  0.45188175553E+02  0.00000000000E+00 0.  1.
         11    1    1    2    0    0 -0.33108593207E+02 -0.10640601027E+03  0.46222353648E+01  0.11153377527E+03  0.00000000000E+00 0. -1.
</event>
<event>
 7    1  0.2844572E-009  0.1045040E+03  0.7561462E-02  0.1271100E+00
          1   -1    0    0  501    0  0.00000000000E+00  0.00000000000E+00  0.94738253305E+02  0.94738253305E+02  0.00000000000E+00 0. -1.
         -1   -1    0    0    0  501 -0.00000000000E+00 -0.00000000000E+00 -0.14251234113E+03  0.14251234113E+03  0.00000000000E+00 0.  1.
         25    2    1    2    0    0 -0.34162847580E+02 -0.16567156093E+02 -0.36263687676E+02  0.13560908697E+03  0.12503279014E+03 0.  0.
          5    1    3    3  502    0 -0.71024642909E+02 -0.26498088787E+02 -0.54139753549E+02  0.93248238182E+02  0.41800000000E+01 0.  1.
         -5    1    3    3    0  502  0.36861795329E+02  0.99309326934E+01  0.17876065874E+02  0.42360848789E+02  0.41800000000E+01 0.  1.
        -11    1    1    2    0    0  0.52234666254E+02  0.39497149323E+02  0.88015642177E+01  0.66075356193E+02  0.00000000000E+00 0.  1.
         11    1    1    2    0    0 -0.18071818675E+02 -0.22929993229E+02 -0.20311964364E+02  0.35566151268E+02  0.00000000000E+00 0. -1.
</event>
<event>
 7    1  0.2844572E-009  0.7389591E+02  0.7561462E-02  0.1347325E+00
         -1   -1    0    0    0  501 -0.00000000000E+00  0.00000000000E+00  0.76786226806E+03  0.76786226806E+03  0.00000000000E+00 0.  1.
          1   -1    0    0  501    0  0.00000000000E+00 -0.00000000000E+00 -0.19320660015E+02  0.19320660015E+02  0.00000000000E+00 0. -1.
         25    2    1    2    0    0  0.39790687260E+01 -0.38036625099E+02  0.55118857273E+03  0.56649746540E+03  0.12509163747E+03 0.  0.
          5    1    3    3  502    0 -0.12648034380E+02 -0.24278446286E+02  0.54194289688E+03  0.54264997153E+03  0.41800000000E+01 0. -1.
         -5    1    3    3    0  502  0.16627103105E+02 -0.13758178813E+02  0.92456758474E+01  0.23847493869E+02  0.41800000000E+01 0. -1.
        -11    1    1    2    0    0  0.22720671979E+02  0.59608304177E+02  0.13994041559E+03  0.15379433922E+03  0.00000000000E+00 0.  1.
         11    1    1    2    0    0 -0.26699740705E+02 -0.21571679077E+02  0.57412619727E+02  0.66891123446E+02  0.00000000000E+00 0. -1.
</event>
<event>
 7    1  0.2844572E-009  0.1058016E+03  0.7561462E-02  0.1268548E+00
         -2   -1    0    0    0  501 -0.00000000000E+00  0.00000000000E+00  0.32875413390E+02  0.32875413390E+02  0.00000000000E+00 0.  1.
          2   -1    0    0  501    0  0.00000000000E+00 -0.00000000000E+00 -0.40365577983E+03  0.40365577983E+03  0.00000000000E+00 0. -1.
         25    2    1    2    0    0  0.12990292931E+02 -0.33454497524E+02 -0.21559775115E+03  0.25182999287E+03  0.12509198172E+03 0.  0.
          5    1    3    3  502    0  0.45299430356E+02  0.21216979721E+02 -0.37367604717E+02  0.62578022511E+02  0.41800000000E+01 0. -1.
         -5    1    3    3    0  502 -0.32309137425E+02 -0.54671477245E+02 -0.17823014643E+03  0.18925197036E+03  0.41800000000E+01 0. -1.
        -11    1    1    2    0    0 -0.50094280952E+02  0.37487197556E+01 -0.59549923683E+02  0.77908172194E+02  0.00000000000E+00 0.  1.
         11    1    1    2    0    0  0.37103988021E+02  0.29705777768E+02 -0.95632691604E+02  0.10679302816E+03  0.00000000000E+00 0. -1.
</event>
<event>
 7    1  0.2960270E-009  0.1371762E+03  0.7561462E-02  0.1217180E+00
         -1   -1    0    0    0  501 -0.00000000000E+00  0.00000000000E+00  0.20219615309E+03  0.20219615309E+03  0.00000000000E+00 0.  1.
          1   -1    0    0  501    0  0.00000000000E+00 -0.00000000000E+00 -0.11113262592E+03  0.11113262592E+03  0.00000000000E+00 0. -1.
         25    2    1    2    0    0  0.85545570692E+02 -0.50256203784E+02  0.20667157217E+02  0.16099167640E+03  0.12508979895E+03 0.  0.
          5    1    3    3  502    0  0.39281176001E+02 -0.88524087962E+02  0.26580721677E+02  0.10051632754E+03  0.41800000000E+01 0. -1.
         -5    1    3    3    0  502  0.46264394691E+02  0.38267884178E+02 -0.59135644600E+01  0.60475348864E+02  0.41800000000E+01 0. -1.
        -11    1    1    2    0    0 -0.14792942716E+02  0.43743441226E+02  0.66783810778E+02  0.81193578481E+02  0.00000000000E+00 0.  1.
         11    1    1    2    0    0 -0.70752627976E+02  0.65127625583E+01  0.36125591706E+01  0.71143524128E+02  0.00000000000E+00 0. -1.
</event>
<event>
 7    1  0.2844572E-009  0.1090436E+03  0.7561462E-02  0.1262351E+00
         -1   -1    0    0    0  501 -0.00000000000E+00  0.00000000000E+00  0.11823672460E+03  0.11823672460E+03  0.00000000000E+00 0.  1.
          1   -1    0    0  501    0  0.00000000000E+00 -0.00000000000E+00 -0.10892475185E+03  0.10892475185E+03  0.00000000000E+00 0. -1.
         25    2    1    2    0    0  0.11411664931E+02  0.13642135985E+02 -0.16068402531E+02  0.12737376927E+03  0.12509815972E+03 0.  0.
          5    1    3    3  502    0  0.55413248501E+02  0.41488978207E+02  0.80852485646E+01  0.69819818579E+02  0.41800000000E+01 0.  1.
         -5    1    3    3    0  502 -0.44001583570E+02 -0.27846842222E+02 -0.24153651096E+02  0.57553950687E+02  0.41800000000E+01 0.  1.
        -11    1    1    2    0    0  0.41537228509E+02 -0.13068864565E+02  0.12147460841E+02  0.45207271297E+02  0.00000000000E+00 0. -1.
         11    1    1    2    0    0 -0.52948893440E+02 -0.57327142082E+00  0.13232914438E+02  0.54580435883E+02  0.00000000000E+00 0.  1.
</event>
<event>
 7    1  0.2844572E-009  0.1374240E+03  0.7561462E-02  0.1216838E+00
          2   -1    0    0  501    0  0.00000000000E+00  0.00000000000E+00  0.35681639241E+03  0.35681639241E+03  0.00000000000E+00 0. -1.
         -2   -1    0    0    0  501 -0.00000000000E+00 -0.00000000000E+00 -0.59912908751E+02  0.59912908751E+02  0.00000000000E+00 0.  1.
         25    2    1    2    0    0 -0.15859267798E+02  0.95455603580E+02  0.17020914844E+03  0.23234107048E+03  0.12509168713E+03 0.  0.
          5    1    3    3  502    0  0.49713430687E+02  0.28713417887E+02  0.33417479528E+02  0.66558890431E+02  0.41800000000E+01 0. -1.
         -5    1    3    3    0  502 -0.65572698485E+02  0.66742185693E+02  0.13679166891E+03  0.16578218005E+03  0.41800000000E+01 0. -1.
        -11    1    1    2    0    0 -0.13109155007E+02  0.85585949611E+01  0.48802022905E+02  0.51251701750E+02  0.00000000000E+00 0. -1.
         11    1    1    2    0    0  0.28968422805E+02 -0.10401419854E+03  0.77892312312E+02  0.13313652893E+03  0.00000000000E+00 0.  1.
</event>
<event>
 7    1  0.2844572E-009  0.1604977E+03  0.7561462E-02  0.1188136E+00
          2   -1    0    0  501    0  0.00000000000E+00  0.00000000000E+00  0.72097787842E+03  0.72097787842E+03  0.00000000000E+00 0. -1.
         -2   -1    0    0    0  501 -0.00000000000E+00 -0.00000000000E+00 -0.42905384698E+02  0.42905384698E+02  0.00000000000E+00 0.  1.
         25    2    1    2    0    0  0.13560593093E+03 -0.16584171388E+02  0.37996516264E+03  0.42271014068E+03  0.12508531076E+03 0.  0.
          5    1    3    3  502    0 -0.19524527843E+02 -0.18541306924E+02  0.87114477659E+02  0.91276458453E+02  0.41800000000E+01 0.  1.
         -5    1    3    3    0  502  0.15513045877E+03  0.19571355366E+01  0.29285068498E+03  0.33143368222E+03  0.41800000000E+01 0.  1.
        -11    1    1    2    0    0 -0.84894173136E+02  0.21571004679E+02  0.84986490943E+02  0.12204520686E+03  0.00000000000E+00 0.  1.
         11    1    1    2    0    0 -0.50711757792E+02 -0.49868332916E+01  0.21312084014E+03  0.21912791558E+03  0.00000000000E+00 0. -1.
</event>
<event>
 7    1  0.2844572E-009  0.1026184E+03  0.7561462E-02  0.1274884E+00
         -2   -1    0    0    0  501 -0.00000000000E+00  0.00000000000E+00  0.36235014237E+02  0.36235014237E+02  0.00000000000E+00 0.  1.
          2   -1    0    0  501    0  0.00000000000E+00 -0.00000000000E+00 -0.56857430319E+03  0.56857430319E+03  0.00000000000E+00 0. -1.
         25    2    1    2    0    0  0.46389321704E+02 -0.48690186762E+02 -0.14983453633E+03  0.20644770466E+03  0.12509021955E+03 0.  0.
          5    1    3    3  502    0  0.30303696433E+02  0.12968311698E+02  0.96950361805E+01  0.34611519070E+02  0.41800000000E+01 0.  1.
         -5    1    3    3    0  502  0.16085625271E+02 -0.61658498459E+02 -0.15952957251E+03  0.17183618559E+03  0.41800000000E+01 0.  1.
        -11    1    1    2    0    0  0.23821500711E+02  0.21538307137E+01 -0.51118901137E+02  0.56437974240E+02  0.00000000000E+00 0.  1.
         11    1    1    2    0    0 -0.70210822416E+02  0.46536356048E+02 -0.33138585149E+03  0.34192363853E+03  0.00000000000E+00 0. -1.
</event>
<event>
 7    1  0.2844572E-009  0.1351065E+03  0.7561462E-02  0.1220069E+00
         -2   -1    0    0    0  501 -0.00000000000E+00  0.00000000000E+00  0.51328273457E+03  0.51328273457E+03  0.00000000000E+00 0.  1.
          2   -1    0    0  501    0  0.00000000000E+00 -0.00000000000E+00 -0.40448369111E+02  0.40448369111E+02  0.00000000000E+00 0. -1.
         25    2    1    2    0    0  0.53195718727E+02  0.69425519470E+02  0.33663821730E+03  0.36962314148E+03  0.12508513150E+03 0.  0.
          5    1    3    3  502    0 -0.13492821756E+02 -0.29323759019E+02  0.89285830212E+02  0.95033525445E+02  0.41800000000E+01 0.  1.
         -5    1    3    3    0  502  0.66688540483E+02  0.98749278489E+02  0.24735238709E+03  0.27458961603E+03  0.41800000000E+01 0.  1.
        -11    1    1    2    0    0  0.12252609938E+02  0.97856744082E+01  0.41544502891E+02  0.44405310430E+02  0.00000000000E+00 0.  1.
         11    1    1    2    0    0 -0.65448328665E+02 -0.79211193878E+02  0.94651645268E+02  0.13970265177E+03  0.00000000000E+00 0. -1.
</event>
<event>
 7    1  0.2844572E-009  0.7649384E+02  0.7561462E-02  0.1339307E+00
          1   -1    0    0  501    0  0.00000000000E+00  0.00000000000E+00  0.33768390056E+03  0.33768390056E+03  0.00000000000E+00 0. -1.
         -1   -1    0    0    0  501 -0.00000000000E+00 -0.00000000000E+00 -0.50132452786E+02  0.50132452786E+02  0.00000000000E+00 0.  1.
         25    2    1    2    0    0  0.72048709187E+02  0.13111190229E+02  0.20679501888E+03  0.25253532671E+03  0.12508793547E+03 0.  0.
          5    1    3    3  502    0  0.18172466470E+02  0.13948442943E+02 -0.12672397899E+02  0.26511500649E+02  0.41800000000E+01 0.  1.
         -5    1    3    3    0  502  0.53876242717E+02 -0.83725271384E+00  0.21946741678E+03  0.22602382606E+03  0.41800000000E+01 0.  1.
        -11    1    1    2    0    0 -0.20663230413E+02 -0.12729387145E+02 -0.13613849335E+02  0.27827024310E+02  0.00000000000E+00 0.  1.
         11    1    1    2    0    0 -0.51385478773E+02 -0.38180308361E+00  0.94370278237E+02  0.10745400233E+03  0.00000000000E+00 0. -1.
</event>
<event>
 7    1  0.2844572E-009  0.8581785E+02  0.7561462E-02  0.1313308E+00
          3   -1    0    0  501    0  0.00000000000E+00  0.00000000000E+00  0.10722791406E+03  0.10722791406E+03  0.00000000000E+00 0. -1.
         -3   -1    0    0    0  501 -0.00000000000E+00 -0.00000000000E+00 -0.11973734365E+03  0.11973734365E+03  0.00000000000E+00 0.  1.
         25    2    1    2    0    0 -0.14471933007E+01 -0.29073681365E+02 -0.23347219079E+02  0.13054583683E+03  0.12509895906E+03 0.  0.
          5    1    3    3  502    0 -0.58969813838E+02 -0.22012345697E+02  0.95075885705E+01  0.63795367760E+02  0.41800000000E+01 0.  1.
         -5    1    3    3    0  502  0.57522620538E+02 -0.70613356688E+01 -0.32854807650E+02  0.66750469067E+02  0.41800000000E+01 0.  1.
        -11    1    1    2    0    0  0.10936867448E+02  0.36686435741E+02  0.45629835610E+02  0.59561661619E+02  0.00000000000E+00 0. -1.
         11    1    1    2    0    0 -0.94896741476E+01 -0.76127543761E+01 -0.34792046118E+02  0.36857759260E+02  0.00000000000E+00 0.  1.
</event>
<event>
 7    1  0.2844572E-009  0.1194829E+03  0.7561462E-02  0.1243953E+00
         -4   -1    0    0    0  501 -0.00000000000E+00  0.00000000000E+00  0.10524638895E+04  0.10524638895E+04  0.00000000000E+00 0.  1.
          4   -1    0    0  501    0  0.00000000000E+00 -0.00000000000E+00 -0.15253096777E+02  0.15253096777E+02  0.00000000000E+00 0. -1.
         25    2    1    2    0    0 -0.79486961599E+00  0.58618172717E+02  0.71372187668E+03  0.72696939344E+03  0.12509540264E+03 0.  0.
          5    1    3    3  502    0 -0.58655668524E+02  0.58561243173E+01  0.34174737053E+03  0.34681914495E+03  0.41800000000E+01 0.  1.
         -5    1    3    3    0  502  0.57860798908E+02  0.52762048399E+02  0.37197450615E+03  0.38015024849E+03  0.41800000000E+01 0.  1.
        -11    1    1    2    0    0 -0.24771570499E+02 -0.69413811523E+02  0.27669968786E+03  0.28634703630E+03  0.00000000000E+00 0.  1.
         11    1    1    2    0    0  0.25566440115E+02  0.10795638806E+02  0.46789228188E+02  0.54400556539E+02  0.00000000000E+00 0. -1.
</event>
<event>
 7    1  0.2844572E-009  0.1406571E+03  0.7561462E-02  0.1212448E+00
         -2   -1    0    0    0  501 -0.00000000000E+00  0.00000000000E+00  0.19981306978E+02  0.19981306978E+02  0.00000000000E+00 0.  1.
          2   -1    0    0  501    0  0.00000000000E+00 -0.00000000000E+00 -0.16848034684E+04  0.16848034684E+04  0.00000000000E+00 0. -1.
         25    2    1    2    0    0  0.11840879287E+03  0.74152484944E+02 -0.11010127550E+04  0.11168685365E+04  0.12508800035E+03 0.  0.
          5    1    3    3  502    0  0.55488787102E+02  0.31944011552E+02 -0.89547897759E+03  0.89777474741E+03  0.41800000000E+01 0. -1.
         -5    1    3    3    0  502  0.62920005764E+02  0.42208473392E+02 -0.20553377743E+03  0.21909378908E+03  0.41800000000E+01 0. -1.
        -11    1    1    2    0    0 -0.27166810987E+02 -0.72179813637E+01 -0.25865089681E+02  0.38198661474E+02  0.00000000000E+00 0.  1.
         11    1    1    2    0    0 -0.91241981878E+02 -0.66934503580E+02 -0.53794431670E+03  0.54971757739E+03  0.00000000000E+00 0. -1.
</event>
<event>
 7    1  0.2844572E-009  0.1437061E+03  0.7561462E-02  0.1208427E+00
          2   -1    0    0  501    0  0.00000000000E+00  0.00000000000E+00  0.12722276264E+03  0.12722276264E+03  0.00000000000E+00 0. -1.
         -2   -1    0    0    0  501 -0.00000000000E+00 -0.00000000000E+00 -0.22922984627E+03  0.22922984627E+03  0.00000000000E+00 0.  1.
         25    2    1    2    0    0 -0.12636064406E+03 -0.97305833887E+00 -0.14644519647E+02  0.17840691647E+03  0.12508639687E+03 0.  0.
          5    1    3    3  502    0 -0.41859544965E+02 -0.18468942082E+02 -0.64095545553E+02  0.78860856488E+02  0.41800000000E+01 0.  1.
         -5    1    3    3    0  502 -0.84501099091E+02  0.17495883744E+02  0.49451025906E+02  0.99546059986E+02  0.41800000000E+01 0.  1.
        -11    1    1    2    0    0  0.22562275027E+02  0.38563542071E+02 -0.22860226414E+02  0.50187577977E+02  0.00000000000E+00 0.  1.
         11    1    1    2    0    0  0.10379836903E+03 -0.37590483733E+02 -0.64502337570E+02  0.12785811446E+03  0.00000000000E+00 0. -1.
</event>
<event>
 7    1  0.2844572E-009  0.1126131E+03  0.7561462E-02  0.1255806E+00
          1   -1    0    0  501    0  0.00000000000E+00  0.00000000000E+00  0.85101668756E+02  0.85101668756E+02  0.00000000000E+00 0. -1.
         -1   -1    0    0    0  501 -0.00000000000E+00 -0.00000000000E+00 -0.26300261014E+03  0.26300261014E+03  0.00000000000E+00 0.  1.
         25    2    1    2    0    0  0.72081989136E+02  0.24755815063E+02 -0.18729542389E+03  0.23777320676E+03  0.12509140062E+03 0.  0.
          5    1    3    3  502    0  0.34273132232E+02 -0.50015752726E+02 -0.60637752161E+02  0.85852387858E+02  0.41800000000E+01 0. -1.
         -5    1    3    3    0  502  0.37808856904E+02  0.74771567789E+02 -0.12665767173E+03  0.15192081891E+03  0.41800000000E+01 0. -1.
        -11    1    1    2    0    0 -0.19876609379E+02  0.49635246984E+01 -0.31560252791E+02  0.37626662542E+02  0.00000000000E+00 0.  1.
         11    1    1    2    0    0 -0.52205379757E+02 -0.29719339762E+02  0.40954735291E+02  0.72704409592E+02  0.00000000000E+00 0. -1.
</event>
<event>
 7    1  0.2844572E-009  0.6067290E+02  0.7561462E-02  0.1395029E+00
         -1   -1    0    0    0  501 -0.00000000000E+00  0.00000000000E+00  0.29074126497E+03  0.29074126497E+03  0.00000000000E+00 0.  1.
          1   -1    0    0  501    0  0.00000000000E+00 -0.00000000000E+00 -0.49252971687E+02  0.49252971687E+02  0.00000000000E+00 0. -1.
         25    2    1    2    0    0 -0.30113808908E+02 -0.30013570572E+02  0.98759052597E+02  0.16494898568E+03  0.12508861460E+03 0.  0.
          5    1    3    3  502    0 -0.13572596636E+01  0.55317191535E+01  0.11577139357E+03  0.11598676666E+03  0.41800000000E+01 0.  1.
         -5    1    3    3    0  502 -0.28756549245E+02 -0.35545289726E+02 -0.17012340973E+02  0.48962219022E+02  0.41800000000E+01 0.  1.
        -11    1    1    2    0    0  0.15587740789E+02 -0.14656820637E+02 -0.32980616501E+01  0.21648955280E+02  0.00000000000E+00 0. -1.
         11    1    1    2    0    0  0.14526068120E+02  0.44670391209E+02  0.14602730233E+03  0.15339629569E+03  0.00000000000E+00 0.  1.
</event>
<event>
 7    1  0.2844572E-009  0.9331157E+02  0.7561462E-02  0.1295025E+00
         -1   -1    0    0    0  501 -0.00000000000E+00  0.00000000000E+00  0.39197194402E+03  0.39197194402E+03  0.00000000000E+00 0.  1.
          1   -1    0    0  501    0  0.00000000000E+00 -0.00000000000E+00 -0.52200052837E+02  0.52200052837E+02  0.00000000000E+00 0. -1.
         25    2    1    2    0    0 -0.36058049990E+02 -0.48582260334E+02  0.30503129066E+03  0.33519029300E+03  0.12509206709E+03 0.  0.
          5    1    3    3  502    0 -0.34994850277E+02 -0.83617826662E+02  0.14301783438E+03  0.16937577699E+03  0.41800000000E+01 0.  1.
         -5    1    3    3    0  502 -0.10631997138E+01  0.35035566328E+02  0.16201345629E+03  0.16581451601E+03  0.41800000000E+01 0.  1.
        -11    1    1    2    0    0  0.77445417197E+01  0.83935882123E+01  0.54732530821E+02  0.55911360023E+02  0.00000000000E+00 0.  1.
         11    1    1    2    0    0  0.28313508271E+02  0.40188672122E+02 -0.19991930301E+02  0.53070343834E+02  0.00000000000E+00 0. -1.
</event>
<event>
 7    1  0.2844572E-009  0.1249039E+03  0.7561462E-02  0.1235220E+00
          2   -1    0    0  501    0  0.00000000000E+00  0.00000000000E+00  0.11157014100E+03  0.11157014100E+03  0.00000000000E+00 0. -1.
         -2   -1    0    0    0  501 -0.00000000000E+00 -0.00000000000E+00 -0.16042464558E+03  0.16042464558E+03  0.00000000000E+00 0.  1.
         25    2    1    2    0    0  0.63648922182E+02  0.16460916526E+02 -0.65858256674E+02  0.15590648924E+03  0.12508947336E+03 0.  0.
          5    1    3    3  502    0  0.48704273788E+01 -0.51177732628E+02 -0.22557056693E+02  0.56295422429E+02  0.41800000000E+01 0. -1.
         -5    1    3    3    0  502  0.58778494803E+02  0.67638649154E+02 -0.43301199982E+02  0.99611066808E+02  0.41800000000E+01 0. -1.
        -11    1    1    2    0    0 -0.60865322974E+02 -0.47594287591E+02  0.29112655109E+02  0.82567247983E+02  0.00000000000E+00 0. -1.
         11    1    1    2    0    0 -0.27835992086E+01  0.31133371065E+02 -0.12108903015E+02  0.33521049367E+02  0.00000000000E+00 0.  1.
</event>
<event>
 7    1  0.2844572E-009  0.1961130E+03  0.7561462E-02  0.1153061E+00
         -1   -1    0    0    0  501 -0.00000000000E+00  0.00000000000E+00  0.17959062227E+03  0.17959062227E+03  0.00000000000E+00 0.  1.
          1   -1    0    0  501    0  0.00000000000E+00 -0.00000000000E+00 -0.23007248044E+03  0.23007248044E+03  0.00000000000E+00 0. -1.
         25    2    1    2    0    0 -0.68158774031E+02  0.14854296566E+03 -0.78121558010E+02  0.22015052445E+03  0.12511052899E+03 0.  0.
          5    1    3    3  502    0 -0.16278172743E+02  0.15223927755E+03 -0.64723943663E+02  0.16627819406E+03  0.41800000000E+01 0. -1.
         -5    1    3    3    0  502 -0.51880601288E+02 -0.36963118842E+01 -0.13397614347E+02  0.53872330391E+02  0.41800000000E+01 0. -1.
        -11    1    1    2    0    0 -0.22559951793E+02 -0.33152826120E+02  0.12232067224E+02  0.41924751320E+02  0.00000000000E+00 0.  1.
         11    1    1    2    0    0  0.90718725824E+02 -0.11539013954E+03  0.15407632611E+02  0.14758782694E+03  0.00000000000E+00 0. -1.
</event>
<event>
 7    1  0.3853822E-009  0.1229669E+03  0.7561462E-02  0.1238281E+00
         -2   -1    0    0    0  501 -0.00000000000E+00  0.00000000000E+00  0.31647453928E+02  0.31647453928E+02  0.00000000000E+00 0.  1.
          2   -1    0    0  501    0  0.00000000000E+00 -0.00000000000E+00 -0.69286850063E+03  0.69286850063E+03  0.00000000000E+00 0. -1.
         25    2    1    2    0    0 -0.29939958734E+02 -0.84346097880E+02 -0.46945607206E+03  0.49401099068E+03  0.12508872838E+03 0.  0.
          5    1    3    3  502    0 -0.51084772720E+02  0.13997792516E+02 -0.16270646656E+03  0.17116208359E+03  0.41800000000E+01 0.  1.
         -5    1    3    3    0  502  0.21144813986E+02 -0.98343890397E+02 -0.30674960549E+03  0.32284890709E+03  0.41800000000E+01 0.  1.
        -11    1    1    2    0    0  0.13978219083E+02  0.67436174807E+02 -0.19520574532E+03  0.20699833643E+03  0.00000000000E+00 0. -1.
         11    1    1    2    0    0  0.15961739651E+02  0.16909923074E+02  0.34407706695E+01  0.23506627445E+02  0.00000000000E+00 0.  1.
</event>
<event>
 7    1  0.2844572E-009  0.2481348E+03  0.7561462E-02  0.1114489E+00
          1   -1    0    0  501    0  0.00000000000E+00  0.00000000000E+00  0.15180132576E+03  0.15180132576E+03  0.00000000000E+00 0. -1.
         -1   -1    0    0    0  501 -0.00000000000E+00 -0.00000000000E+00 -0.45965073791E+03  0.45965073791E+03  0.00000000000E+00 0.  1.
         25    2    1    2    0    0  0.20078845736E+03  0.13372088384E+03 -0.16792054598E+03  0.31944091251E+03  0.12509159620E+03 0.  0.
          5    1    3    3  502    0  0.75325160217E+01 -0.23487623666E+01 -0.58107349781E+02  0.58789386634E+02  0.41800000000E+01 0. -1.
         -5    1    3    3    0  502  0.19325594134E+03  0.13606964621E+03 -0.10981319620E+03  0.26065152588E+03  0.41800000000E+01 0. -1.
        -11    1    1    2    0    0 -0.45552148935E+02 -0.69183409988E+02 -0.19182240989E+02  0.85025295410E+02  0.00000000000E+00 0.  1.
         11    1    1    2    0    0 -0.15523630843E+03 -0.64537473853E+02 -0.12074662518E+03  0.20698585574E+03  0.00000000000E+00 0. -1.
</event>
<event>
 7    1  0.2844572E-009  0.9952851E+02  0.7561462E-02  0.1281291E+00
          1   -1    0    0  501    0  0.00000000000E+00  0.00000000000E+00  0.55493236215E+02  0.55493236215E+02  0.00000000000E+00 0. -1.
         -1   -1    0    0    0  501 -0.00000000000E+00 -0.00000000000E+00 -0.26571333837E+03  0.26571333837E+03  0.00000000000E+00 0.  1.
         25    2    1    2    0    0 -0.18819235596E+02  0.43853420174E+02 -0.15673771636E+03  0.20613426002E+03  0.12508930943E+03 0.  0.
          5    1    3    3  502    0  0.47700996141E+02  0.46775120362E+02 -0.72475216936E+02  0.98658128847E+02  0.41800000000E+01 0.  1.
         -5    1    3    3    0  502 -0.66520231737E+02 -0.29217001884E+01 -0.84262499426E+02  0.10747613117E+03  0.41800000000E+01 0.  1.
        -11    1    1    2    0    0  0.33520678454E+02 -0.27029519301E+02 -0.73427628640E+02  0.85122543697E+02  0.00000000000E+00 0.  1.
         11    1    1    2    0    0 -0.14701442858E+02 -0.16823900872E+02  0.19945242848E+02  0.29949770866E+02  0.00000000000E+00 0. -1.
</event>
<event>
 7    1  0.2844572E-009  0.1337051E+03  0.7561462E-02  0.1222059E+00
          1   -1    0    0  501    0  0.00000000000E+00  0.00000000000E+00  0.21513294933E+03  0.21513294933E+03  0.00000000000E+00 0. -1.
         -1   -1    0    0    0  501 -0.00000000000E+00 -0.00000000000E+00 -0.13465080008E+03  0.13465080008E+03  0.00000000000E+00 0.  1.
         25    2    1    2    0    0  0.40145920186E+02  0.84547380060E+02  0.13791707341E+03  0.20839536806E+03  0.12509019110E+03 0.  0.
          5    1    3    3  502    0 -0.18818094820E+02  0.88595395006E+02  0.53550100664E+02  0.10530123641E+03  0.41800000000E+01 0.  1.
         -5    1    3    3    0  502  0.58964015006E+02 -0.40480149464E+01  0.84366972745E+02  0.10309413165E+03  0.41800000000E+01 0.  1.
        -11    1    1    2    0    0 -0.56000240761E+02 -0.36374591647E+02 -0.61139947327E+02  0.90538561077E+02  0.00000000000E+00 0.  1.
         11    1    1    2    0    0  0.15854320575E+02 -0.48172788413E+02  0.37050231671E+01  0.50849820265E+02  0.00000000000E+00 0. -1.
</event>
<event>
 7    1  0.2844572E-009  0.8573279E+02  0.7561462E-02  0.1313527E+00
          1   -1    0    0  501    0  0.00000000000E+00  0.00000000000E+00  0.10905694370E+03  0.10905694370E+03  0.00000000000E+00 0. -1.
         -1   -1    0    0    0  501 -0.00000000000E+00 -0.00000000000E+00 -0.11411491363E+03  0.11411491363E+03  0.00000000000E+00 0.  1.
         25    2    1    2    0    0 -0.36462421215E+01 -0.29715377013E+02  0.15500684853E+01  0.12862857629E+03  0.12508640699E+03 0.  0.
          5    1    3    3  502    0 -0.80636411401E+01  0.41503165788E+02 -0.28427817428E+02  0.51118962065E+02  0.41800000000E+01 0.  1.
         -5    1    3    3    0  502  0.44173990186E+01 -0.71218542801E+02  0.29977885914E+02  0.77509614221E+02  0.41800000000E+01 0.  1.
        -11    1    1    2    0    0  0.26429438081E+02  0.15210375820E+02 -0.40821742134E+02  0.50953757082E+02  0.00000000000E+00 0.  1.
         11    1    1    2    0    0 -0.22783195960E+02  0.14505001193E+02  0.34213703717E+02  0.43589523968E+02  0.00000000000E+00 0. -1.
</event>
<event>
 7    1  0.2844572E-009  0.7054733E+02  0.7561462E-02  0.1358242E+00
         -1   -1    0    0    0  501 -0.00000000000E+00  0.00000000000E+00  0.15397577747E+02  0.15397577747E+02  0.00000000000E+00 0.  1.
          1   -1    0    0  501    0  0.00000000000E+00 -0.00000000000E+00 -0.84393901933E+03  0.84393901933E+03  0.00000000000E+00 0. -1.
         25    2    1    2    0    0  0.54631983816E+01 -0.12908309680E+02 -0.57878726757E+03  0.59231589786E+03  0.12508777226E+03 0.  0.
          5    1    3    3  502    0 -0.17990702707E+02 -0.16260739910E+02 -0.56300616673E+03  0.56354369238E+03  0.41800000000E+01 0. -1.
         -5    1    3    3    0  502  0.23453901088E+02  0.33524302296E+01 -0.15781100837E+02  0.28772205483E+02  0.41800000000E+01 0. -1.
        -11    1    1    2    0    0  0.41959667395E+02  0.15995941742E+02 -0.93953874089E+02  0.10413363672E+03  0.00000000000E+00 0. -1.
         11    1    1    2    0    0 -0.47422865777E+02 -0.30876320615E+01 -0.15580029993E+03  0.16288706249E+03  0.00000000000E+00 0.  1.
</event>
<event>
 7    1  0.2844572E-009  0.9369448E+02  0.7561462E-02  0.1294144E+00
          2   -1    0    0  501    0  0.00000000000E+00  0.00000000000E+00  0.69004556968E+02  0.69004556968E+02  0.00000000000E+00 0. -1.
         -2   -1    0    0    0  501 -0.00000000000E+00 -0.00000000000E+00 -0.21148601865E+03  0.21148601865E+03  0.00000000000E+00 0.  1.
         25    2    1    2    0    0  0.47614969911E+02 -0.81409478125E+01 -0.54731908696E+02  0.14482784935E+03  0.12508422654E+03 0.  0.
          5    1    3    3  502    0 -0.52656105679E+01 -0.50738595186E+02  0.85768038274E+01  0.51895719092E+02  0.41800000000E+01 0.  1.
         -5    1    3    3    0  502  0.52880580479E+02  0.42597647374E+02 -0.63308712524E+02  0.92932130262E+02  0.41800000000E+01 0.  1.
        -11    1    1    2    0    0 -0.26400281891E+02 -0.19865993039E+02 -0.94301748274E+02  0.99922231214E+02  0.00000000000E+00 0.  1.
         11    1    1    2    0    0 -0.21214688020E+02  0.28006940851E+02  0.65521952848E+01  0.35740495054E+02  0.00000000000E+00 0. -1.
</event>
<event>
 7    1  0.2844572E-009  0.2360960E+03  0.7561462E-02  0.1122421E+00
          2   -1    0    0  501    0  0.00000000000E+00  0.00000000000E+00  0.43930384627E+03  0.43930384627E+03  0.00000000000E+00 0. -1.
         -2   -1    0    0    0  501 -0.00000000000E+00 -0.00000000000E+00 -0.14297016097E+03  0.14297016097E+03  0.00000000000E+00 0.  1.
         25    2    1    2    0    0 -0.38702561791E+02  0.21838578354E+03  0.10363507374E+03  0.27491469112E+03  0.12509044785E+03 0.  0.
          5    1    3    3  502    0 -0.64663914248E+02  0.21328921888E+03  0.73785706596E+02  0.23480953046E+03  0.41800000000E+01 0.  1.
         -5    1    3    3    0  502  0.25961352457E+02  0.50965646555E+01  0.29849367143E+02  0.40105160660E+02  0.41800000000E+01 0.  1.
        -11    1    1    2    0    0  0.30592815386E+02 -0.12244696855E+03  0.51177950953E+02  0.13619237542E+03  0.00000000000E+00 0.  1.
         11    1    1    2    0    0  0.81097464052E+01 -0.95938814990E+02  0.14152066061E+03  0.17116694070E+03  0.00000000000E+00 0. -1.
</event>
<event>
 7    1  0.2844572E-009  0.1110937E+03  0.7561462E-02  0.1258558E+00
         -2   -1    0    0    0  501 -0.00000000000E+00  0.00000000000E+00  0.13078230034E+03  0.13078230034E+03  0.00000000000E+00 0.  1.
          2   -1    0    0  501    0  0.00000000000E+00 -0.00000000000E+00 -0.17867520407E+03  0.17867520407E+03  0.00000000000E+00 0. -1.
         25    2    1    2    0    0  0.53326109559E+01  0.57035321061E+02  0.63689304071E+02  0.15160771914E+03  0.12508840258E+03 0.  0.
          5    1    3    3  502    0  0.17904476886E+02 -0.36936580155E+02  0.95524457522E+01  0.42350948820E+02  0.41800000000E+01 0. -1.
         -5    1    3    3    0  502 -0.12571865930E+02  0.93971901216E+02  0.54136858319E+02  0.10925677032E+03  0.41800000000E+01 0. -1.
        -11    1    1    2    0    0  0.90414087090E+01 -0.67591052716E+02 -0.12008208148E+03  0.13809418443E+03  0.00000000000E+00 0. -1.
         11    1    1    2    0    0 -0.14374019665E+02  0.10555731655E+02  0.84998736843E+01  0.19755600845E+02  0.00000000000E+00 0.  1.
</event>
<event>
 7    1  0.2844572E-009  0.1138997E+03  0.7561462E-02  0.1253514E+00
          1   -1    0    0  501    0  0.00000000000E+00  0.00000000000E+00  0.45717812570E+02  0.45717812570E+02  0.00000000000E+00 0. -1.
         -1   -1    0    0    0  501 -0.00000000000E+00 -0.00000000000E+00 -0.32620316239E+03  0.32620316239E+03  0.00000000000E+00 0.  1.
         25    2    1    2    0    0 -0.17568654930E+02  0.50364331272E+02 -0.15058146182E+03  0.20289478382E+03  0.12508514363E+03 0.  0.
          5    1    3    3  502    0 -0.58269485671E+02 -0.88812243767E+01 -0.95245664542E+02  0.11208665452E+03  0.41800000000E+01 0. -1.
         -5    1    3    3    0  502  0.40700830741E+02  0.59245555649E+02 -0.55335797277E+02  0.90808129302E+02  0.41800000000E+01 0. -1.
        -11    1    1    2    0    0  0.21208093008E+02  0.18261065823E+02 -0.80361343486E+01  0.29117506577E+02  0.00000000000E+00 0. -1.
         11    1    1    2    0    0 -0.36394380773E+01 -0.68625397095E+02 -0.12186775366E+03  0.13990868457E+03  0.00000000000E+00 0.  1.
</event>
<event>
 7    1  0.2844572E-009  0.1273269E+03  0.7561462E-02  0.1231477E+00
          1   -1    0    0  501    0  0.00000000000E+00  0.00000000000E+00  0.59342742408E+02  0.59342742408E+02  0.00000000000E+00 0. -1.
         -1   -1    0    0    0  501 -0.00000000000E+00 -0.00000000000E+00 -0.38713003537E+03  0.38713003537E+03  0.00000000000E+00 0.  1.
         25    2    1    2    0    0 -0.10517130713E+03  0.85900432281E+01 -0.17454707366E+03  0.23926902873E+03  0.12509274359E+03 0.  0.
          5    1    3    3  502    0  0.13557629142E+02  0.25020925280E+02 -0.16023605903E+01  0.28807915046E+02  0.41800000000E+01 0.  1.
         -5    1    3    3    0  502 -0.11872893628E+03 -0.16430882052E+02 -0.17294471307E+03  0.21046111369E+03  0.41800000000E+01 0.  1.
        -11    1    1    2    0    0  0.57737848685E+02  0.79572517839E-01 -0.13384581888E+02  0.59268984594E+02  0.00000000000E+00 0. -1.
         11    1    1    2    0    0  0.47433458450E+02 -0.86696157460E+01 -0.13985563741E+03  0.14793476445E+03  0.00000000000E+00 0.  1.
</event>
<event>
 7    1  0.2844572E-009  0.1057140E+03  0.7561462E-02  0.1268719E+00
          2   -1    0    0  501    0  0.00000000000E+00  0.00000000000E+00  0.41038881481E+02  0.41038881481E+02  0.00000000000E+00 0. -1.
         -2   -1    0    0    0  501 -0.00000000000E+00 -0.00000000000E+00 -0.35318178720E+03  0.35318178720E+03  0.00000000000E+00 0.  1.
         25    2    1    2    0    0  0.23790194926E+02 -0.33278592663E+02 -0.22858356406E+03  0.26376601767E+03  0.12509447715E+03 0.  0.
          5    1    3    3  502    0 -0.43087072159E+02 -0.22913352798E+02 -0.39595031729E+02  0.62982191621E+02  0.41800000000E+01 0. -1.
         -5    1    3    3    0  502  0.66877267085E+02 -0.10365239865E+02 -0.18898853233E+03  0.20078382605E+03  0.41800000000E+01 0. -1.
        -11    1    1    2    0    0 -0.30545347898E+02  0.59867843750E+02 -0.37823752064E+02  0.77122066970E+02  0.00000000000E+00 0. -1.
         11    1    1    2    0    0  0.67551529726E+01 -0.26589251087E+02 -0.45735589603E+02  0.53332584050E+02  0.00000000000E+00 0.  1.
</event>
<event>
 7    1  0.2844572E-009  0.7696210E+02  0.7561462E-02  0.1337901E+00
          1   -1    0    0  501    0  0.00000000000E+00  0.00000000000E+00  0.26286445394E+02  0.26286445394E+02  0.00000000000E+00 0. -1.
         -1   -1    0    0    0  501 -0.00000000000E+00 -0.00000000000E+00 -0.54236510962E+03  0.54236510962E+03  0.00000000000E+00 0.  1.
         25    2    1    2    0    0 -0.16258740883E+01 -0.38889775512E+02 -0.21424780266E+03  0.25112943469E+03  0.12509521940E+03 0.  0.
          5    1    3    3  502    0  0.19096886818E+02 -0.20696289169E+01 -0.20715262974E+03  0.20808329789E+03  0.41800000000E+01 0. -1.
         -5    1    3    3    0  502 -0.20722760906E+02 -0.36820146595E+02 -0.70951729178E+01  0.43046136802E+02  0.41800000000E+01 0. -1.
        -11    1    1    2    0    0 -0.16838743195E+02 -0.22271598130E+02 -0.45791480850E+02  0.53632332357E+02  0.00000000000E+00 0. -1.
         11    1    1    2    0    0  0.18464617283E+02  0.61161373641E+02 -0.25603938072E+03  0.26388978797E+03  0.00000000000E+00 0.  1.
</event>
<event>
 7    1  0.2844572E-009  0.9114186E+02  0.7561462E-02  0.1300110E+00
          4   -1    0    0  501    0  0.00000000000E+00  0.00000000000E+00  0.46343396941E+02  0.46343396941E+02  0.00000000000E+00 0. -1.
         -4   -1    0    0    0  501 -0.00000000000E+00 -0.00000000000E+00 -0.30602086417E+03  0.30602086417E+03  0.00000000000E+00 0.  1.
         25    2    1    2    0    0  0.30887436149E+02  0.17412514296E+02 -0.98527263412E+02  0.16313040176E+03  0.12508667785E+03 0.  0.
          5    1    3    3  502    0  0.62626210070E+02  0.26255059663E+02 -0.10238558313E+02  0.68801677465E+02  0.41800000000E+01 0. -1.
         -5    1    3    3    0  502 -0.31738773921E+02 -0.88425453665E+01 -0.88288705099E+02  0.94328724292E+02  0.41800000000E+01 0. -1.
        -11    1    1    2    0    0 -0.54052567210E+02 -0.38416512168E+01 -0.46261740861E+02  0.71250171744E+02  0.00000000000E+00 0.  1.
         11    1    1    2    0    0  0.23165131061E+02 -0.13570863079E+02 -0.11488846295E+03  0.11798368761E+03  0.00000000000E+00 0. -1.
</event>
<event>
 7    1  0.2844572E-009  0.8902203E+02  0.7561462E-02  0.1305237E+00
          1   -1    0    0  501    0  0.00000000000E+00  0.00000000000E+00  0.22579315781E+02  0.22579315781E+02  0.00000000000E+00 0. -1.
         -1   -1    0    0    0  501 -0.00000000000E+00 -0.00000000000E+00 -0.51895093756E+03  0.51895093756E+03  0.00000000000E+00 0.  1.
         25    2    1    2    0    0  0.13094207501E+02  0.26885123008E+00 -0.33823418285E+03  0.36086124011E+03  0.12508773567E+03 0.  0.
          5    1    3    3  502    0 -0.52575697723E+02 -0.38074997624E+01 -0.93655635354E+02  0.10755255217E+03  0.41800000000E+01 0.  1.
         -5    1    3    3    0  502  0.65669905224E+02  0.40763509925E+01 -0.24457854749E+03  0.25330868793E+03  0.41800000000E+01 0.  1.
        -11    1    1    2    0    0  0.19167039009E+02 -0.14442078650E+02 -0.13802505692E+03  0.14009591485E+03  0.00000000000E+00 0.  1.
         11    1    1    2    0    0 -0.32261246511E+02  0.14173227420E+02 -0.20112382008E+02  0.40573098377E+02  0.00000000000E+00 0. -1.
</event>
<event>
 7    1  0.3287620E-009  0.8919911E+02  0.7561462E-02  0.1304803E+00
          1   -1    0    0  501    0  0.00000000000E+00  0.00000000000E+00  0.65237236317E+03  0.65237236317E+03  0.00000000000E+00 0. -1.
         -1   -1    0    0    0  501 -0.00000000000E+00 -0.00000000000E+00 -0.27827605429E+02  0.27827605429E+02  0.00000000000E+00 0.  1.
         25    2    1    2    0    0 -0.71366480390E+02 -0.35423885283E+02  0.35778603154E+03  0.38730569144E+03  0.12508728188E+03 0.  0.
          5    1    3    3  502    0 -0.56875768828E+02 -0.38643384806E+02  0.66953544071E+02  0.96064633100E+02  0.41800000000E+01 0. -1.
         -5    1    3    3    0  502 -0.14490711562E+02  0.32194995229E+01  0.29083248747E+03  0.29124105834E+03  0.41800000000E+01 0. -1.
        -11    1    1    2    0    0  0.53731994265E+02 -0.86783754062E+00  0.53419262311E+02  0.75772672749E+02  0.00000000000E+00 0.  1.
         11    1    1    2    0    0  0.17634486125E+02  0.36291722824E+02  0.21333946389E+03  0.21712160440E+03  0.00000000000E+00 0. -1.
</event>
<event>
 7    1  0.2844572E-009  0.9706330E+02  0.7561462E-02  0.1286595E+00
          2   -1    0    0  501    0  0.00000000000E+00  0.00000000000E+00  0.92255748709E+02  0.92255748709E+02  0.00000000000E+00 0. -1.
         -2   -1    0    0    0  501 -0.00000000000E+00 -0.00000000000E+00 -0.16819337910E+03  0.16819337910E+03  0.00000000000E+00 0.  1.
         25    2    1    2    0    0 -0.14937188432E+02  0.20274047302E+02  0.15768747322E+02  0.12857096717E+03  0.12509070155E+03 0.  0.
          5    1    3    3  502    0 -0.51440616595E+01  0.66823579571E+02  0.36594529940E+02  0.76475382827E+02  0.41800000000E+01 0.  1.
         -5    1    3    3    0  502 -0.97931267724E+01 -0.46549532269E+02 -0.20825782618E+02  0.52095584343E+02  0.41800000000E+01 0.  1.
        -11    1    1    2    0    0 -0.30650885076E+02 -0.44787711661E+01 -0.32847213375E+01  0.31150048818E+02  0.00000000000E+00 0. -1.
         11    1    1    2    0    0  0.45588073508E+02 -0.15795276136E+02 -0.88421656373E+02  0.10072811182E+03  0.00000000000E+00 0.  1.
</event>
<event>
 7    1  0.2844572E-009  0.1280489E+03  0.7561462E-02  0.1230380E+00
         -1   -1    0    0    0  501 -0.00000000000E+00  0.00000000000E+00  0.16107470111E+03  0.16107470111E+03  0.00000000000E+00 0.  1.
          1   -1    0    0  501    0  0.00000000000E+00 -0.00000000000E+00 -0.15310836277E+03  0.15310836277E+03  0.00000000000E+00 0. -1.
         25    2    1    2    0    0  0.74712148155E+02  0.57825468204E+02  0.67244185511E+02  0.17057187182E+03  0.12508914068E+03 0.  0.
          5    1    3    3  502    0  0.30536310644E+02 -0.22852339423E+02  0.68470724799E+02  0.78488268164E+02  0.41800000000E+01 0. -1.
         -5    1    3    3    0  502  0.44175837512E+02  0.80677807628E+02 -0.12265392886E+01  0.92083603655E+02  0.41800000000E+01 0. -1.
        -11    1    1    2    0    0 -0.69948226001E+01 -0.57511734723E+02 -0.76101393424E+01  0.58433221671E+02  0.00000000000E+00 0.  1.
         11    1    1    2    0    0 -0.67717325555E+02 -0.31373348136E+00 -0.51667707829E+02  0.85177970399E+02  0.00000000000E+00 0. -1.
</event>
<event>
 7    1  0.2844572E-009  0.1559143E+03  0.7561462E-02  0.1193388E+00
          2   -1    0    0  501    0  0.00000000000E+00  0.00000000000E+00  0.95622973669E+03  0.95622973669E+03  0.00000000000E+00 0. -1.
         -2   -1    0    0    0  501 -0.00000000000E+00 -0.00000000000E+00 -0.34301643198E+02  0.34301643198E+02  0.00000000000E+00 0.  1.
         25    2    1    2    0    0 -0.10419862163E+03  0.46818444329E+02  0.72748918962E+03  0.74695107616E+03  0.12508425038E+03 0.  0.
          5    1    3    3  502    0 -0.79598752269E+02  0.88719986651E+02  0.47094091379E+03  0.48580861878E+03  0.41800000000E+01 0. -1.
         -5    1    3    3    0  502 -0.24599869365E+02 -0.41901542322E+02  0.25654827582E+03  0.26114245739E+03  0.41800000000E+01 0. -1.
        -11    1    1    2    0    0  0.70079105783E+02  0.16384091097E+02  0.12149346610E+03  0.14120970864E+03  0.00000000000E+00 0.  1.
         11    1    1    2    0    0  0.34119515850E+02 -0.63202535426E+02  0.72945437774E+02  0.10237059509E+03  0.00000000000E+00 0. -1.
</event>
<event>
 7    1  0.2844572E-009  0.9949121E+02  0.7561462E-02  0.1281370E+00
          4   -1    0    0  501    0  0.00000000000E+00  0.00000000000E+00  0.16353450161E+02  0.16353450161E+02  0.00000000000E+00 0. -1.
         -4   -1    0    0    0  501 -0.00000000000E+00 -0.00000000000E+00 -0.11446611333E+04  0.11446611333E+04  0.00000000000E+00 0.  1.
         25    2    1    2    0    0 -0.72918436810E+02 -0.11434375306E+02 -0.76167923730E+03  0.77540329972E+03  0.12508866179E+03 0.  0.
          5    1    3    3  502    0 -0.34062088109E+02 -0.24363764002E+02 -0.69991239103E+03  0.70117661567E+03  0.41800000000E+01 0. -1.
         -5    1    3    3    0  502 -0.38856348701E+02  0.12929388696E+02 -0.61766846272E+02  0.74226684048E+02  0.41800000000E+01 0. -1.
        -11    1    1    2    0    0 -0.20218674569E+02  0.10063564332E+02 -0.11723337870E+03  0.11938900791E+03  0.00000000000E+00 0.  1.
         11    1    1    2    0    0  0.93137111379E+02  0.13708109742E+01 -0.24939506716E+03  0.26622227585E+03  0.00000000000E+00 0. -1.
</event>
<event>
 7    1  0.2844572E-009  0.9700110E+02  0.7561462E-02  0.1286732E+00
          1   -1    0    0  501    0  0.00000000000E+00  0.00000000000E+00  0.18319773273E+03  0.18319773273E+03  0.00000000000E+00 0. -1.
         -1   -1    0    0    0  501 -0.00000000000E+00 -0.00000000000E+00 -0.91950871372E+02  0.91950871372E+02  0.00000000000E+00 0.  1.
         25    2    1    2    0    0 -0.63922269215E+02  0.31748463655E+02  0.31622276454E+02  0.14745142000E+03  0.12509169216E+03 0.  0.
          5    1    3    3  502    0 -0.21164309581E+02  0.32123650942E+02 -0.45157376083E+02  0.59468630089E+02  0.41800000000E+01 0. -1.
         -5    1    3    3    0  502 -0.42757959634E+02 -0.37518728763E+00  0.76779652537E+02  0.87982789916E+02  0.41800000000E+01 0. -1.
        -11    1    1    2    0    0  0.47766599765E+02  0.24596957420E+02  0.34979849735E+02  0.64111217856E+02  0.00000000000E+00 0.  1.
         11    1    1    2    0    0  0.16155669450E+02 -0.56345421075E+02  0.24644735169E+02  0.63585966243E+02  0.00000000000E+00 0. -1.
</event>
<event>
 6    1  0.2844572E-009  0.1447678E+03  0.7561462E-02  0.1207054E+00
          2   -1    0    0  501    0  0.00000000000E+00  0.00000000000E+00  0.24469370306E+03  0.24469370306E+03  0.00000000000E+00 0.  1.
         -2   -1    0    0    0  501 -0.00000000000E+00 -0.00000000000E+00 -0.10329786691E+03  0.10329786691E+03  0.00000000000E+00 0. -1.
          5    1    1    2  502    0 -0.11783116366E+02 -0.36061019101E+02  0.35545019925E+02  0.52155150957E+02  0.41800000000E+01 0. -1.
         -5    1    1    2    0  502 -0.88001086415E+02  0.94536981309E+02  0.50423512620E+02  0.13871349996E+03  0.41800000000E+01 0. -1.
        -11    1    1    2    0    0  0.78524115600E+02 -0.62679603953E+02  0.76969100485E+02  0.12656623528E+03  0.00000000000E+00 0.  1.
         11    1    1    2    0    0  0.21260087181E+02  0.42036417456E+01 -0.21541796876E+02  0.30556683778E+02  0.00000000000E+00 0. -1.
</event>
<event>
 7    1  0.2844572E-009  0.1033317E+03  0.7561462E-02  0.1273442E+00
         -1   -1    0    0    0  501 -0.00000000000E+00  0.00000000000E+00  0.28620457358E+03  0.28620457358E+03  0.00000000000E+00 0.  1.
          1   -1    0    0  501    0  0.00000000000E+00 -0.00000000000E+00 -0.53112573250E+02  0.53112573250E+02  0.00000000000E+00 0. -1.
         25    2    1    2    0    0  0.28272864829E+02 -0.50657752328E+01  0.20032075357E+03  0.23790881245E+03  0.12508869559E+03 0.  0.
          5    1    3    3  502    0  0.60529876507E+02 -0.39942947196E+02  0.77835372633E+02  0.10646653283E+03  0.41800000000E+01 0. -1.
         -5    1    3    3    0  502 -0.32257011678E+02  0.34877171964E+02  0.12248538094E+03  0.13144227962E+03  0.41800000000E+01 0. -1.
        -11    1    1    2    0    0 -0.25163008748E+02  0.42164615422E+02 -0.37647021552E+01  0.49246368244E+02  0.00000000000E+00 0. -1.
         11    1    1    2    0    0 -0.31098560812E+01 -0.37098840189E+02  0.36535948911E+02  0.52161966135E+02  0.00000000000E+00 0.  1.
</event>
<event>
 6    1  0.2844572E-009  0.1233802E+03  0.7561462E-02  0.1237623E+00
         -2   -1    0    0    0  501 -0.00000000000E+00  0.00000000000E+00  0.29803042471E+03  0.29803042471E+03  0.00000000000E+00 0.  1.
          2   -1    0    0  501    0  0.00000000000E+00 -0.00000000000E+00 -0.54067866811E+02  0.54067866811E+02  0.00000000000E+00 0. -1.
          5    1    1    2  502    0  0.15105059429E+02  0.94792190051E+02  0.13665541614E+03  0.16705058298E+03  0.41800000000E+01 0. -1.
         -5    1    1    2    0  502  0.28975633767E+02 -0.34952658469E+02  0.35122929316E+02  0.57553177584E+02  0.41800000000E+01 0. -1.
        -11    1    1    2    0    0  0.14178745189E+02 -0.41739049484E+02  0.29745021682E+02  0.53178486080E+02  0.00000000000E+00 0.  1.
         11    1    1    2    0    0 -0.58259438385E+02 -0.18100482099E+02  0.42439190761E+02  0.74316044873E+02  0.00000000000E+00 0. -1.
</event>
<event>
 7    1  0.2844572E-009  0.1141346E+03  0.7561462E-02  0.1253099E+00
          3   -1    0    0  501    0  0.00000000000E+00  0.00000000000E+00  0.10426385920E+03  0.10426385920E+03  0.00000000000E+00 0. -1.
         -3   -1    0    0    0  501 -0.00000000000E+00 -0.00000000000E+00 -0.18957135019E+03  0.18957135019E+03  0.00000000000E+00 0.  1.
         25    2    1    2    0    0 -0.12894506348E+02 -0.57931597174E+02 -0.11411421695E+03  0.17941981860E+03  0.12508828304E+03 0.  0.
          5    1    3    3  502    0 -0.24094274941E+02 -0.95012623597E+02 -0.69748191398E+02  0.12037531031E+03  0.41800000000E+01 0. -1.
         -5    1    3    3    0  502  0.11199768593E+02  0.37081026423E+02 -0.44366025551E+02  0.59044508299E+02  0.41800000000E+01 0. -1.
        -11    1    1    2    0    0 -0.27281367108E+02  0.10987019020E+02  0.41960880382E+02  0.51241614540E+02  0.00000000000E+00 0. -1.
         11    1    1    2    0    0  0.40175873456E+02  0.46944578153E+02 -0.13154154426E+02  0.63173776241E+02  0.00000000000E+00 0.  1.
</event>
<event>
 7    1  0.2844572E-009  0.1113663E+03  0.7561462E-02  0.1258060E+00
          1   -1    0    0  501    0  0.00000000000E+00  0.00000000000E+00  0.21877674419E+03  0.21877674419E+03  0.00000000000E+00 0. -1.
         -1   -1    0    0    0  501 -0.00000000000E+00 -0.00000000000E+00 -0.69974599980E+02  0.69974599980E+02  0.00000000000E+00 0.  1.
         25    2    1    2    0    0  0.22866052212E+02  0.45952867229E+02  0.11907748802E+03  0.18017195473E+03  0.12509181736E+03 0.  0.
          5    1    3    3  502    0 -0.34820713630E+02 -0.12044659567E+02  0.18024325488E+01  0.37125154341E+02  0.41800000000E+01 0.  1.
         -5    1    3    3    0  502  0.57686765841E+02  0.57997526796E+02  0.11727505547E+03  0.14304680039E+03  0.41800000000E+01 0.  1.
        -11    1    1    2    0    0  0.19736458058E+02 -0.56505449946E+02  0.23269183310E+02  0.64217198181E+02  0.00000000000E+00 0. -1.
         11    1    1    2    0    0 -0.42602510269E+02  0.10552582717E+02  0.64554728886E+01  0.44362191261E+02  0.00000000000E+00 0.  1.
</event>
<event>
 7    1  0.2844572E-009  0.9808589E+02  0.7561462E-02  0.1284373E+00
         -2   -1    0    0    0  501 -0.00000000000E+00  0.00000000000E+00  0.36417337785E+03  0.36417337785E+03  0.00000000000E+00 0.  1.
          2   -1    0    0  501    0  0.00000000000E+00 -0.00000000000E+00 -0.48108495385E+02  0.48108495385E+02  0.00000000000E+00 0. -1.
         25    2    1    2    0    0  0.86697669515E+01  0.12382694726E+02  0.59121547570E+02  0.13917657494E+03  0.12508503363E+03 0.  0.
          5    1    3    3  502    0  0.38161996979E+02  0.50721726719E+02  0.12334492296E+01  0.63624094271E+02  0.41800000000E+01 0.  1.
         -5    1    3    3    0  502 -0.29492230027E+02 -0.38339031993E+02  0.57888098341E+02  0.75552480672E+02  0.41800000000E+01 0.  1.
        -11    1    1    2    0    0 -0.39651482355E+02 -0.28742678853E+02  0.20269014350E+03  0.20852260289E+03  0.00000000000E+00 0.  1.
         11    1    1    2    0    0  0.30981715404E+02  0.16359984128E+02  0.54253191394E+02  0.64582695411E+02  0.00000000000E+00 0. -1.
</event>
<event>
 7    1  0.2844572E-009  0.1282879E+03  0.7561462E-02  0.1230019E+00
          1   -1    0    0  501    0  0.00000000000E+00  0.00000000000E+00  0.31218284905E+03  0.31218284905E+03  0.00000000000E+00 0. -1.
         -1   -1    0    0    0  501 -0.00000000000E+00 -0.00000000000E+00 -0.56993869874E+02  0.56993869874E+02  0.00000000000E+00 0.  1.
         25    2    1    2    0    0 -0.43239107678E+02  0.55810454103E+02  0.98483303685E+02  0.17415581156E+03  0.12508740295E+03 0.  0.
          5    1    3    3  502    0 -0.50032505068E+02  0.92537897163E+02  0.64374010829E+02  0.12340178137E+03  0.41800000000E+01 0.  1.
         -5    1    3    3    0  502  0.67933973899E+01 -0.36727443060E+02  0.34109292855E+02  0.50754030194E+02  0.41800000000E+01 0.  1.
        -11    1    1    2    0    0  0.70711793514E+02 -0.33137733546E+02  0.88162499123E+02  0.11777475696E+03  0.00000000000E+00 0.  1.
         11    1    1    2    0    0 -0.27472685836E+02 -0.22672720556E+02  0.68543176366E+02  0.77246150395E+02  0.00000000000E+00 0. -1.
</event>
<event>
 7    1  0.2844572E-009  0.1075670E+03  0.7561462E-02  0.1265143E+00
          1   -1    0    0  501    0  0.00000000000E+00  0.00000000000E+00  0.18146920816E+03  0.18146920816E+03  0.00000000000E+00 0. -1.
         -1   -1    0    0    0  501 -0.00000000000E+00 -0.00000000000E+00 -0.12262166564E+03  0.12262166564E+03  0.00000000000E+00 0.  1.
         25    2    1    2    0    0  0.14366157018E+02 -0.57407022022E+02  0.11754566260E+03  0.18156924749E+03  0.12509378958E+03 0.  0.
          5    1    3    3  502    0  0.68213946092E+02 -0.15752345549E+02  0.61889850892E+02  0.93536649904E+02  0.41800000000E+01 0. -1.
         -5    1    3    3    0  502 -0.53847789075E+02 -0.41654676472E+02  0.55655811712E+02  0.88032597585E+02  0.41800000000E+01 0. -1.
        -11    1    1    2    0    0  0.11716393291E+02 -0.20247075868E+01 -0.56334257251E+02  0.57575358032E+02  0.00000000000E+00 0.  1.
         11    1    1    2    0    0 -0.26082550309E+02  0.59431729609E+02 -0.23638628354E+01  0.64946268271E+02  0.00000000000E+00 0. -1.
</event>
<event>
 7    1  0.2844572E-009  0.8032896E+02  0.7561462E-02  0.1328120E+00
         -2   -1    0    0    0  501 -0.00000000000E+00  0.00000000000E+00  0.14146866624E+02  0.14146866624E+02  0.00000000000E+00 0.  1.
          2   -1    0    0  501    0  0.00000000000E+00 -0.00000000000E+00 -0.85085229214E+03  0.85085229214E+03  0.00000000000E+00 0. -1.
         25    2    1    2    0    0 -0.21719712143E+02  0.10430943411E+02 -0.54643913530E+03  0.56109152474E+03  0.12508964814E+03 0.  0.
          5    1    3    3  502    0  0.24136169001E+02  0.91254302868E+00 -0.17624830646E+02  0.30190966267E+02  0.41800000000E+01 0.  1.
         -5    1    3    3    0  502 -0.45855881145E+02  0.95184003822E+01 -0.52881430465E+03  0.53090055847E+03  0.41800000000E+01 0.  1.
        -11    1    1    2    0    0  0.54142402279E+02 -0.15481386484E+02 -0.16190313228E+03  0.17141673575E+03  0.00000000000E+00 0.  1.
         11    1    1    2    0    0 -0.32422690136E+02  0.50504430736E+01 -0.12836315794E+03  0.13249089828E+03  0.00000000000E+00 0. -1.
</event>
<event>
 7    1  0.2844572E-009  0.1004809E+03  0.7561462E-02  0.1279288E+00
         -3   -1    0    0    0  501 -0.00000000000E+00  0.00000000000E+00  0.35693738279E+03  0.35693738279E+03  0.00000000000E+00 0.  1.
          3   -1    0    0  501    0  0.00000000000E+00 -0.00000000000E+00 -0.43980100757E+02  0.43980100757E+02  0.00000000000E+00 0. -1.
         25    2    1    2    0    0  0.36370516371E+02 -0.39700791546E+02  0.28908176957E+03  0.31955273578E+03  0.12508682639E+03 0.  0.
          5    1    3    3  502    0  0.11160748409E+02 -0.79452721310E+02  0.12328660175E+03  0.14715419056E+03  0.41800000000E+01 0. -1.
         -5    1    3    3    0  502  0.25209767961E+02  0.39751929764E+02  0.16579516782E+03  0.17239854522E+03  0.41800000000E+01 0. -1.
        -11    1    1    2    0    0  0.11667155426E+02  0.15986139138E+02  0.19224297115E+02  0.27590809337E+02  0.00000000000E+00 0.  1.
         11    1    1    2    0    0 -0.48037671797E+02  0.23714652408E+02  0.46512153512E+01  0.53773938434E+02  0.00000000000E+00 0. -1.
</event>
<event>
 6    1  0.2844572E-009  0.1303364E+03  0.7561462E-02  0.1226957E+00
          2   -1    0    0  501    0  0.00000000000E+00  0.00000000000E+00  0.68967288858E+03  0.68967288858E+03  0.00000000000E+00 0. -1.
         -2   -1    0    0    0  501 -0.00000000000E+00 -0.00000000000E+00 -0.38693900381E+02  0.38693900381E+02  0.00000000000E+00 0.  1.
          5    1    1    2  502    0 -0.37674469093E+00 -0.11020001423E+02  0.15225378201E+03  0.15270975379E+03  0.41800000000E+01 0. -1.
         -5    1    1    2    0  502  0.10961234382E+03 -0.15381954556E+02  0.93001936129E+02  0.14463161123E+03  0.41800000000E+01 0. -1.
        -11    1    1    2    0    0 -0.10851727187E+02  0.37564360210E+02  0.61781672542E+02  0.73115088751E+02  0.00000000000E+00 0.  1.
         11    1    1    2    0    0 -0.98383871945E+02 -0.11162404231E+02  0.34394159752E+03  0.35791033519E+03  0.00000000000E+00 0. -1.
</event>
<event>
 7    1  0.2844572E-009  0.6114192E+02  0.7561462E-02  0.1393101E+00
         -2   -1    0    0    0  501 -0.00000000000E+00  0.00000000000E+00  0.67435686756E+02  0.67435686756E+02  0.00000000000E+00 0.  1.
          2   -1    0    0  501    0  0.00000000000E+00 -0.00000000000E+00 -0.27401039536E+03  0.27401039536E+03  0.00000000000E+00 0. -1.
         25    2    1    2    0    0 -0.32378689886E+01  0.34819165335E+02 -0.21827739825E+02  0.13170943818E+03  0.12509223721E+03 0.  0.
          5    1    3    3  502    0  0.31348683896E+01  0.33324855310E+01 -0.71848011901E+02  0.72114784017E+02  0.41800000000E+01 0.  1.
         -5    1    3    3    0  502 -0.63727373783E+01  0.31486679804E+02  0.50020272077E+02  0.59594654168E+02  0.41800000000E+01 0.  1.
        -11    1    1    2    0    0  0.12083892410E+02  0.22582048591E+02 -0.13589942264E+02  0.28994066722E+02  0.00000000000E+00 0.  1.
         11    1    1    2    0    0 -0.88460234213E+01 -0.57401213926E+02 -0.17115702651E+03  0.18074257721E+03  0.00000000000E+00 0. -1.
</event>
<event>
 7    1  0.2844572E-009  0.2691564E+03  0.7561462E-02  0.1101763E+00
          2   -1    0    0  501    0  0.00000000000E+00  0.00000000000E+00  0.52559634556E+03  0.52559634556E+03  0.00000000000E+00 0.  1.
         -2   -1    0    0    0  501 -0.00000000000E+00 -0.00000000000E+00 -0.16684131674E+03  0.16684131674E+03  0.00000000000E+00 0. -1.
         25    2    1    2    0    0 -0.20496718871E+03 -0.16324213137E+03  0.84636576495E+02  0.30244102306E+03  0.12509068890E+03 0.  0.
          5    1    3    3  502    0 -0.10628457109E+03 -0.90519299673E+02 -0.20155017248E+02  0.14111644406E+03  0.41800000000E+01 0. -1.
         -5    1    3    3    0  502 -0.98682617618E+02 -0.72722831699E+02  0.10479159374E+03  0.16132457900E+03  0.41800000000E+01 0. -1.
        -11    1    1    2    0    0  0.39271595593E+02 -0.53115608843E+01  0.54265173756E+02  0.67195088974E+02  0.00000000000E+00 0.  1.
         11    1    1    2    0    0  0.16569559312E+03  0.16855369226E+03  0.21985327857E+03  0.32280155026E+03  0.00000000000E+00 0. -1.
</event>
<event>
 7    1  0.2866652E-009  0.1139224E+03  0.7561462E-02  0.1253474E+00
          1   -1    0    0  501    0  0.00000000000E+00  0.00000000000E+00  0.18864911584E+03  0.18864911584E+03  0.00000000000E+00 0. -1.
         -1   -1    0    0    0  501 -0.00000000000E+00 -0.00000000000E+00 -0.94306955893E+02  0.94306955893E+02  0.00000000000E+00 0.  1.
         25    2    1    2    0    0  0.95727113634E+01 -0.76059517820E+02  0.64171592860E+02  0.16013355204E+03  0.12509226237E+03 0.  0.
          5    1    3    3  502    0  0.60554312923E+02 -0.75145767736E+01  0.25342108593E+02  0.66204142964E+02  0.41800000000E+01 0. -1.
         -5    1    3    3    0  502 -0.50981601560E+02 -0.68544941046E+02  0.38829484266E+02  0.93929409074E+02  0.41800000000E+01 0. -1.
        -11    1    1    2    0    0 -0.18349992432E+02  0.61252561475E+02  0.60449554653E+02  0.87992881344E+02  0.00000000000E+00 0. -1.
         11    1    1    2    0    0  0.87772810689E+01  0.14806956345E+02 -0.30278987570E+02  0.34829638347E+02  0.00000000000E+00 0.  1.
</event>
<event>
 7    1  0.2844572E-009  0.1009704E+03  0.7561462E-02  0.1278268E+00
          1   -1    0    0  501    0  0.00000000000E+00  0.00000000000E+00  0.70007503158E+03  0.70007503158E+03  0.00000000000E+00 0. -1.
         -1   -1    0    0    0  501 -0.00000000000E+00 -0.00000000000E+00 -0.22456521356E+02  0.22456521356E+02  0.00000000000E+00 0.  1.
         25    2    1    2    0    0 -0.43564290732E+02  0.32057753452E+02  0.46910660370E+03  0.48850406791E+03  0.12509864807E+03 0.  0.
          5    1    3    3  502    0  0.42195806331E+02  0.17264012153E+02  0.11364047502E+03  0.12251596692E+03  0.41800000000E+01 0. -1.
         -5    1    3    3    0  502 -0.85760097063E+02  0.14793741299E+02  0.35546612868E+03  0.36598810099E+03  0.41800000000E+01 0. -1.
        -11    1    1    2    0    0  0.19794091734E+02  0.88788384529E+01  0.15816445327E+01  0.21751814620E+02  0.00000000000E+00 0.  1.
         11    1    1    2    0    0  0.23770198998E+02 -0.40936591905E+02  0.20693026199E+03  0.21227567040E+03  0.00000000000E+00 0. -1.
</event>
<event>
 7    1  0.2844572E-009  0.2559157E+03  0.7561462E-02  0.1109622E+00
         -2   -1    0    0    0  501 -0.00000000000E+00  0.00000000000E+00  0.30087420597E+03  0.30087420597E+03  0.00000000000E+00 0.  1.
          2   -1    0    0  501    0  0.00000000000E+00 -0.00000000000E+00 -0.22940284485E+03  0.22940284485E+03  0.00000000000E+00 0. -1.
         25    2    1    2    0    0 -0.19955639673E+03  0.13159919032E+03  0.32038763948E+02  0.27168884071E+03  0.12508893398E+03 0.  0.
          5    1    3    3  502    0 -0.46518555856E+02 -0.20867719892E+02  0.21131403535E+02  0.55348409081E+02  0.41800000000E+01 0.  1.
         -5    1    3    3    0  502 -0.15303784087E+03  0.15246691021E+03  0.10907360413E+02  0.21634043163E+03  0.41800000000E+01 0.  1.
        -11    1    1    2    0    0  0.41658038092E+02 -0.55324038969E+02 -0.22185731870E+02  0.72721029449E+02  0.00000000000E+00 0.  1.
         11    1    1    2    0    0  0.15789835863E+03 -0.76275151350E+02  0.61618329045E+02  0.18586718066E+03  0.00000000000E+00 0. -1.
</event>
<event>
 7    1  0.2844572E-009  0.1026280E+03  0.7561462E-02  0.1274865E+00
         -2   -1    0    0    0  501 -0.00000000000E+00  0.00000000000E+00  0.67802536327E+02  0.67802536327E+02  0.00000000000E+00 0. -1.
          2   -1    0    0  501    0  0.00000000000E+00 -0.00000000000E+00 -0.27667564934E+03  0.27667564934E+03  0.00000000000E+00 0.  1.
         25    2    1    2    0    0 -0.30211139090E+02 -0.19412278673E+02 -0.21116323575E+03  0.24804486029E+03  0.12508713400E+03 0.  0.
          5    1    3    3  502    0  0.43262628457E+02 -0.11891121040E+02 -0.35252624651E+02  0.57212531191E+02  0.41800000000E+01 0.  1.
         -5    1    3    3    0  502 -0.73473767547E+02 -0.75211576328E+01 -0.17591061110E+03  0.19083232910E+03  0.41800000000E+01 0.  1.
        -11    1    1    2    0    0  0.56630516575E+02  0.19205585846E+02 -0.18738776284E+02  0.62665873264E+02  0.00000000000E+00 0.  1.
         11    1    1    2    0    0 -0.26419377485E+02  0.20669282737E+00  0.21028899021E+02  0.33767452120E+02  0.00000000000E+00 0. -1.
</event>
<event>
 7    1  0.2844572E-009  0.1020922E+03  0.7561462E-02  0.1275957E+00
          2   -1    0    0  501    0  0.00000000000E+00  0.00000000000E+00  0.69406598467E+03  0.69406598467E+03  0.00000000000E+00 0.  1.
         -2   -1    0    0    0  501 -0.00000000000E+00 -0.00000000000E+00 -0.24146399818E+02  0.24146399818E+02  0.00000000000E+00 0. -1.
         25    2    1    2    0    0  0.23155685816E+02 -0.59060000170E+02  0.29278761690E+03  0.32464275768E+03  0.12507622515E+03 0.  0.
          5    1    3    3  502    0  0.37784712749E+02 -0.68490978037E+02  0.29623195037E+03  0.30641400002E+03  0.41800000000E+01 0.  1.
         -5    1    3    3    0  502 -0.14629026933E+02  0.94309778670E+01 -0.34443334735E+01  0.18228757654E+02  0.41800000000E+01 0.  1.
        -11    1    1    2    0    0  0.28230311290E+02  0.47537826081E+02  0.24847914727E+03  0.25455585244E+03  0.00000000000E+00 0.  1.
         11    1    1    2    0    0 -0.51385997106E+02  0.11522174089E+02  0.12865282068E+03  0.13901377436E+03  0.00000000000E+00 0. -1.
</event>
<event>
 7    1  0.2844572E-009  0.9723822E+02  0.7561462E-02  0.1286213E+00
         -1   -1    0    0    0  501 -0.00000000000E+00  0.00000000000E+00  0.34517224468E+02  0.34517224468E+02  0.00000000000E+00 0.  1.
          1   -1    0    0  501    0  0.00000000000E+00 -0.00000000000E+00 -0.48400345895E+03  0.48400345895E+03  0.00000000000E+00 0. -1.
         25    2    1    2    0    0  0.51029472761E+02  0.43853392039E+02 -0.24159521002E+03  0.28025512181E+03  0.12509021031E+03 0.  0.
          5    1    3    3  502    0 -0.20142557623E+01  0.35109242150E+02 -0.21890921292E+03  0.22175534269E+03  0.41800000000E+01 0.  1.
         -5    1    3    3    0  502  0.53043728524E+02  0.87441498885E+01 -0.22685997096E+02  0.58499779121E+02  0.41800000000E+01 0.  1.
        -11    1    1    2    0    0  0.21731861304E+02 -0.37316674484E+01 -0.11172323549E+02  0.24718817755E+02  0.00000000000E+00 0.  1.
         11    1    1    2    0    0 -0.72761334066E+02 -0.40121724590E+02 -0.19671870092E+03  0.21354674385E+03  0.00000000000E+00 0. -1.
</event>
<event>
 7    1  0.2844572E-009  0.1396497E+03  0.7561462E-02  0.1213801E+00
         -3   -1    0    0    0  501 -0.00000000000E+00  0.00000000000E+00  0.48016817343E+03  0.48016817343E+03  0.00000000000E+00 0.  1.
          3   -1    0    0  501    0  0.00000000000E+00 -0.00000000000E+00 -0.50553132189E+02  0.50553132189E+02  0.00000000000E+00 0. -1.
         25    2    1    2    0    0  0.81205910972E+02  0.69310071018E+02  0.17328091950E+03  0.23889804335E+03  0.12509081554E+03 0.  0.
          5    1    3    3  502    0  0.87754315384E+02  0.92899901597E+02  0.17160932134E+03  0.21400570823E+03  0.41800000000E+01 0. -1.
         -5    1    3    3    0  502 -0.65484044114E+01 -0.23589830579E+02  0.16715981586E+01  0.24892335115E+02  0.41800000000E+01 0. -1.
        -11    1    1    2    0    0 -0.89475276390E+00  0.12165181942E+02  0.12532338478E+01  0.12262252210E+02  0.00000000000E+00 0. -1.
         11    1    1    2    0    0 -0.80311158208E+02 -0.81475252960E+02  0.25508088790E+03  0.27956101006E+03  0.00000000000E+00 0.  1.
</event>
<event>
 7    1  0.2844572E-009  0.3402520E+03  0.7561462E-02  0.1066689E+00
          2   -1    0    0  501    0  0.00000000000E+00  0.00000000000E+00  0.76921558820E+03  0.76921558820E+03  0.00000000000E+00 0. -1.
         -2   -1    0    0    0  501 -0.00000000000E+00 -0.00000000000E+00 -0.16066035491E+03  0.16066035491E+03  0.00000000000E+00 0.  1.
         25    2    1    2    0    0  0.32457871446E+03 -0.61714597116E+02  0.37622890608E+03  0.51609640518E+03  0.12508907343E+03 0.  0.
          5    1    3    3  502    0  0.15036076206E+03  0.75005281878E+01  0.94923056814E+02  0.17802380685E+03  0.41800000000E+01 0. -1.
         -5    1    3    3    0  502  0.17421795240E+03 -0.69215125304E+02  0.28130584926E+03  0.33807259833E+03  0.41800000000E+01 0. -1.
        -11    1    1    2    0    0 -0.22594683101E+03 -0.17451285374E+00  0.15164388251E+03  0.27211737908E+03  0.00000000000E+00 0.  1.
         11    1    1    2    0    0 -0.98631883450E+02  0.61889109970E+02  0.80682444703E+02  0.14166215885E+03  0.00000000000E+00 0. -1.
</event>
<event>
 7    1  0.2844572E-009  0.1200211E+03  0.7561462E-02  0.1243062E+00
          4   -1    0    0  501    0  0.00000000000E+00  0.00000000000E+00  0.22920333018E+03  0.22920333018E+03  0.00000000000E+00 0.  1.
         -4   -1    0    0    0  501 -0.00000000000E+00 -0.00000000000E+00 -0.78081509540E+02  0.78081509540E+02  0.00000000000E+00 0. -1.
         25    2    1    2    0    0 -0.48824649061E+02  0.50622671424E+02  0.43698541096E+02  0.15000475909E+03  0.12508142963E+03 0.  0.
          5    1    3    3  502    0  0.30654266003E+02 -0.18357313688E+00  0.46137574476E+02  0.55550570671E+02  0.41800000000E+01 0.  1.
         -5    1    3    3    0  502 -0.79478915064E+02  0.50806244561E+02 -0.24390333803E+01  0.94454188419E+02  0.41800000000E+01 0.  1.
        -11    1    1    2    0    0 -0.25448478565E+02 -0.12188793442E+01  0.20124726938E+02  0.32467142813E+02  0.00000000000E+00 0.  1.
         11    1    1    2    0    0  0.74273127626E+02 -0.49403792080E+02  0.87298552604E+02  0.12481293781E+03  0.00000000000E+00 0. -1.
</event>
<event>
 7    1  0.2844572E-009  0.1964159E+03  0.7561462E-02  0.1152799E+00
          2   -1    0    0  501    0  0.00000000000E+00  0.00000000000E+00  0.68574063912E+03  0.68574063912E+03  0.00000000000E+00 0. -1.
         -2   -1    0    0    0  501 -0.00000000000E+00 -0.00000000000E+00 -0.67577144224E+02  0.67577144224E+02  0.00000000000E+00 0.  1.
         25    2    1    2    0    0  0.60666068367E+02 -0.16541781924E+03  0.42390189895E+03  0.47579519987E+03  0.12507927691E+03 0.  0.
          5    1    3    3  502    0  0.39038642925E+02  0.67556400925E+01  0.53155811971E+02  0.66427908749E+02  0.41800000000E+01 0.  1.
         -5    1    3    3    0  502  0.21627425442E+02 -0.17217345933E+03  0.37074608698E+03  0.40936729112E+03  0.41800000000E+01 0.  1.
        -11    1    1    2    0    0 -0.16597732549E+02  0.94315095689E+02  0.43658239134E+02  0.10524668092E+03  0.00000000000E+00 0. -1.
         11    1    1    2    0    0 -0.44068335818E+02  0.71102723547E+02  0.15060335681E+03  0.17227590255E+03  0.00000000000E+00 0.  1.
</event>
<event>
 7    1  0.2844572E-009  0.1184257E+03  0.7561462E-02  0.1245717E+00
          1   -1    0    0  501    0  0.00000000000E+00  0.00000000000E+00  0.44075438146E+03  0.44075438146E+03  0.00000000000E+00 0. -1.
         -1   -1    0    0    0  501 -0.00000000000E+00 -0.00000000000E+00 -0.38482302879E+02  0.38482302879E+02  0.00000000000E+00 0.  1.
         25    2    1    2    0    0  0.16014158646E+02 -0.69238022470E+02  0.25737834160E+03  0.29485721247E+03  0.12508720153E+03 0.  0.
          5    1    3    3  502    0  0.14676930751E+02  0.35467937243E+02  0.59263344981E+02  0.70731911659E+02  0.41800000000E+01 0. -1.
         -5    1    3    3    0  502  0.13372278948E+01 -0.10470595971E+03  0.19811499662E+03  0.22412530081E+03  0.41800000000E+01 0. -1.
        -11    1    1    2    0    0  0.23059575185E+02  0.19556595762E+02  0.47035573437E+01  0.30599475440E+02  0.00000000000E+00 0.  1.
         11    1    1    2    0    0 -0.39073733831E+02  0.49681426708E+02  0.14019017963E+03  0.15377999643E+03  0.00000000000E+00 0. -1.
</event>
<event>
 7    1  0.2844572E-009  0.1055305E+03  0.7561462E-02  0.1269078E+00
         -1   -1    0    0    0  501 -0.00000000000E+00  0.00000000000E+00  0.96192564666E+02  0.96192564666E+02  0.00000000000E+00 0.  1.
          1   -1    0    0  501    0  0.00000000000E+00 -0.00000000000E+00 -0.24275989080E+03  0.24275989080E+03  0.00000000000E+00 0. -1.
         25    2    1    2    0    0  0.56226406009E+00  0.13056430400E+01  0.40558424800E+02  0.13150185976E+03  0.12508290232E+03 0.  0.
          5    1    3    3  502    0 -0.40490599909E+02 -0.46396784637E+02  0.24571874187E+02  0.66433423115E+02  0.41800000000E+01 0.  1.
         -5    1    3    3    0  502  0.41052863969E+02  0.47702427677E+02  0.15986550613E+02  0.65068436641E+02  0.41800000000E+01 0.  1.
        -11    1    1    2    0    0  0.31944986316E+02  0.28014026304E+02 -0.12011264298E+03  0.12740610199E+03  0.00000000000E+00 0.  1.
         11    1    1    2    0    0 -0.32507250376E+02 -0.29319669344E+02 -0.67013107953E+02  0.80044493720E+02  0.00000000000E+00 0. -1.
</event>
<event>
 7    1  0.2844572E-009  0.1972669E+03  0.7561462E-02  0.1152066E+00
          1   -1    0    0  501    0  0.00000000000E+00  0.00000000000E+00  0.21298551559E+03  0.21298551559E+03  0.00000000000E+00 0. -1.
         -1   -1    0    0    0  501 -0.00000000000E+00 -0.00000000000E+00 -0.20049000390E+03  0.20049000390E+03  0.00000000000E+00 0.  1.
         25    2    1    2    0    0  0.16714298768E+03 -0.50813655316E+02  0.21525476017E+02  0.21593911520E+03  0.12509016532E+03 0.  0.
          5    1    3    3  502    0  0.31559407199E+01 -0.35533398833E+02  0.35622403629E+02  0.50586662617E+02  0.41800000000E+01 0.  1.
         -5    1    3    3    0  502  0.16398704696E+03 -0.15280256483E+02 -0.14096927612E+02  0.16535245259E+03  0.41800000000E+01 0.  1.
        -11    1    1    2    0    0 -0.31834537157E+02 -0.23429906380E+02 -0.16919255290E+02  0.42996040149E+02  0.00000000000E+00 0.  1.
         11    1    1    2    0    0 -0.13530845052E+03  0.74243561695E+02  0.78892909644E+01  0.15454036414E+03  0.00000000000E+00 0. -1.
</event>
<event>
 7    1  0.2844572E-009  0.3308093E+03  0.7561462E-02  0.1070779E+00
          1   -1    0    0  501    0  0.00000000000E+00  0.00000000000E+00  0.25219881657E+03  0.25219881657E+03  0.00000000000E+00 0. -1.
         -1   -1    0    0    0  501 -0.00000000000E+00 -0.00000000000E+00 -0.46204065423E+03  0.46204065423E+03  0.00000000000E+00 0.  1.
         25    2    1    2    0    0 -0.29526969902E+03  0.12597247315E+03 -0.14574188512E+03  0.37408740748E+03  0.12508969663E+03 0.  0.
          5    1    3    3  502    0 -0.95746294318E+02  0.75077708305E+02  0.66495513278E-01  0.12174355006E+03  0.41800000000E+01 0. -1.
         -5    1    3    3    0  502 -0.19952340470E+03  0.50894764849E+02 -0.14580838064E+03  0.25234385742E+03  0.41800000000E+01 0. -1.
        -11    1    1    2    0    0  0.27905995790E+03 -0.87957184012E+02 -0.59361067033E+02  0.29855428753E+03  0.00000000000E+00 0.  1.
         11    1    1    2    0    0  0.16209741122E+02 -0.38015289142E+02 -0.47388855042E+01  0.41597775801E+02  0.00000000000E+00 0. -1.
</event>
<event>
 7    1  0.2844572E-009  0.1167040E+03  0.7561462E-02  0.1248636E+00
          2   -1    0    0  501    0  0.00000000000E+00  0.00000000000E+00  0.45345235416E+03  0.45345235416E+03  0.00000000000E+00 0. -1.
         -2   -1    0    0    0  501 -0.00000000000E+00 -0.00000000000E+00 -0.38407021367E+02  0.38407021367E+02  0.00000000000E+00 0.  1.
         25    2    1    2    0    0 -0.16046216658E+02  0.70266390543E+02  0.26927878075E+03  0.30553825791E+03  0.12509084129E+03 0.  0.
          5    1    3    3  502    0  0.23598748123E+02 -0.26035712648E+02  0.38371981807E+02  0.52198090328E+02  0.41800000000E+01 0.  1.
         -5    1    3    3    0  502 -0.39644964781E+02  0.96302103192E+02  0.23090679895E+03  0.25334016758E+03  0.41800000000E+01 0.  1.
        -11    1    1    2    0    0 -0.20330702521E+02 -0.83424324445E+01 -0.19592101378E+01  0.22062913417E+02  0.00000000000E+00 0.  1.
         11    1    1    2    0    0  0.36376919179E+02 -0.61923958099E+02  0.14772576218E+03  0.16425820420E+03  0.00000000000E+00 0. -1.
</event>
<event>
 7    1  0.2844572E-009  0.4341210E+03  0.7561462E-02  0.1032566E+00
          2   -1    0    0  501    0  0.00000000000E+00  0.00000000000E+00  0.28194749644E+04  0.28194749644E+04  0.00000000000E+00 0. -1.
         -2   -1    0    0    0  501 -0.00000000000E+00 -0.00000000000E+00 -0.73166834685E+02  0.73166834685E+02  0.00000000000E+00 0.  1.
         25    2    1    2    0    0  0.28965517752E+03 -0.31480245553E+03  0.10500119291E+04  0.11406898147E+04  0.12508994520E+03 0.  0.
          5    1    3    3  502    0  0.24294769071E+02 -0.11065407332E+02  0.17506895934E+02  0.32196938502E+02  0.41800000000E+01 0.  1.
         -5    1    3    3    0  502  0.26536040844E+03 -0.30373704820E+03  0.10325050331E+04  0.11084928762E+04  0.41800000000E+01 0.  1.
        -11    1    1    2    0    0 -0.90615973184E+02  0.16684496144E+03  0.70885096842E+03  0.73383798702E+03  0.00000000000E+00 0.  1.
         11    1    1    2    0    0 -0.19903920433E+03  0.14795749410E+03  0.98744523218E+03  0.10181139973E+04  0.00000000000E+00 0. -1.
</event>
<event>
 7    1  0.2844572E-009  0.2982043E+03  0.7561462E-02  0.1086142E+00
         -2   -1    0    0    0  501 -0.00000000000E+00  0.00000000000E+00  0.88189424678E+02  0.88189424678E+02  0.00000000000E+00 0.  1.
          2   -1    0    0  501    0  0.00000000000E+00 -0.00000000000E+00 -0.11309180155E+04  0.11309180155E+04  0.00000000000E+00 0. -1.
         25    2    1    2    0    0 -0.74810767224E+02 -0.28643632948E+03 -0.49630270906E+03  0.59127487598E+03  0.12508868140E+03 0.  0.
          5    1    3    3  502    0 -0.78658640678E+02 -0.26795471258E+03 -0.49890940113E+03  0.57176478790E+03  0.41800000000E+01 0.  1.
         -5    1    3    3    0  502  0.38478734535E+01 -0.18481616900E+02  0.26066920752E+01  0.19510088081E+02  0.41800000000E+01 0.  1.
        -11    1    1    2    0    0  0.78044428103E+02  0.27127392981E+03 -0.54295080174E+03  0.61194448348E+03  0.00000000000E+00 0. -1.
         11    1    1    2    0    0 -0.32336608786E+01  0.15162399669E+02 -0.34750799737E+01  0.15888080665E+02  0.00000000000E+00 0.  1.
</event>
<event>
 7    1  0.2844572E-009  0.1373022E+03  0.7561462E-02  0.1217006E+00
         -2   -1    0    0    0  501 -0.00000000000E+00  0.00000000000E+00  0.33129742298E+02  0.33129742298E+02  0.00000000000E+00 0.  1.
          2   -1    0    0  501    0  0.00000000000E+00 -0.00000000000E+00 -0.73953197624E+03  0.73953197624E+03  0.00000000000E+00 0. -1.
         25    2    1    2    0    0 -0.40704111232E+02  0.77789813594E+02 -0.20563901296E+03  0.25620539113E+03  0.12508284863E+03 0.  0.
          5    1    3    3  502    0 -0.18215012660E+02 -0.31828567573E+02 -0.78753473948E+02  0.86973711308E+02  0.41800000000E+01 0.  1.
         -5    1    3    3    0  502 -0.22489098572E+02  0.10961838117E+03 -0.12688553901E+03  0.16923167982E+03  0.41800000000E+01 0.  1.
        -11    1    1    2    0    0 -0.14767398275E+02 -0.67752342811E+02 -0.25032345935E+03  0.25975043852E+03  0.00000000000E+00 0.  1.
         11    1    1    2    0    0  0.55471509508E+02 -0.10037470783E+02 -0.25043976163E+03  0.25670588889E+03  0.00000000000E+00 0. -1.
</event>
<event>
 7    1  0.3445945E-009  0.1054485E+03  0.7561462E-02  0.1269238E+00
         -2   -1    0    0    0  501 -0.00000000000E+00  0.00000000000E+00  0.15916439264E+03  0.15916439264E+03  0.00000000000E+00 0.  1.
          2   -1    0    0  501    0  0.00000000000E+00 -0.00000000000E+00 -0.14807827000E+03  0.14807827000E+03  0.00000000000E+00 0. -1.
         25    2    1    2    0    0 -0.98735026040E+01  0.73187622445E+02  0.85244178670E+02  0.16842759239E+03  0.12508944699E+03 0.  0.
          5    1    3    3  502    0 -0.11056836996E+01 -0.10331506911E+02  0.83582079245E+02  0.84329110884E+02  0.41800000000E+01 0.  1.
         -5    1    3    3    0  502 -0.87678189045E+01  0.83519129355E+02  0.16620994254E+01  0.84098481503E+02  0.41800000000E+01 0.  1.
        -11    1    1    2    0    0  0.49608967417E+02 -0.44021911714E+02 -0.30629332533E+02  0.73055693622E+02  0.00000000000E+00 0. -1.
         11    1    1    2    0    0 -0.39735464813E+02 -0.29165710730E+02 -0.43528723491E+02  0.65759376632E+02  0.00000000000E+00 0.  1.
</event>
<event>
 7    1  0.2844572E-009  0.1837153E+03  0.7561462E-02  0.1164255E+00
         -2   -1    0    0    0  501 -0.00000000000E+00  0.00000000000E+00  0.62124662760E+03  0.62124662760E+03  0.00000000000E+00 0.  1.
          2   -1    0    0  501    0  0.00000000000E+00 -0.00000000000E+00 -0.57730251156E+02  0.57730251156E+02  0.00000000000E+00 0. -1.
         25    2    1    2    0    0 -0.14913758382E+03  0.20370719015E+02  0.36414140002E+03  0.41340488449E+03  0.12509058401E+03 0.  0.
          5    1    3    3  502    0 -0.11243793722E+03  0.70898608723E+02  0.25471735037E+03  0.28734526867E+03  0.41800000000E+01 0. -1.
         -5    1    3    3    0  502 -0.36699646607E+02 -0.50527889709E+02  0.10942404965E+03  0.12605961582E+03  0.41800000000E+01 0. -1.
        -11    1    1    2    0    0 -0.49573655099E+01  0.13236334389E+02  0.35114738136E+02  0.37852620189E+02  0.00000000000E+00 0.  1.
         11    1    1    2    0    0  0.15409494933E+03 -0.33607053404E+02  0.16426023829E+03  0.22771937408E+03  0.00000000000E+00 0. -1.
</event>
<event>
 7    1  0.3052077E-009  0.8040916E+02  0.7561462E-02  0.1327894E+00
         -1   -1    0    0    0  501 -0.00000000000E+00  0.00000000000E+00  0.42108353465E+02  0.42108353465E+02  0.00000000000E+00 0. -1.
          1   -1    0    0  501    0  0.00000000000E+00 -0.00000000000E+00 -0.37294183730E+03  0.37294183730E+03  0.00000000000E+00 0.  1.
         25    2    1    2    0    0  0.24428247530E+02 -0.45990635735E+02 -0.24182000356E+03  0.27718951317E+03  0.12508091076E+03 0.  0.
          5    1    3    3  502    0 -0.47495301563E+01 -0.18534735090E+02  0.10123149272E+02  0.22046428117E+02  0.41800000000E+01 0.  1.
         -5    1    3    3    0  502  0.29177777686E+02 -0.27455900645E+02 -0.25194315283E+03  0.25514308505E+03  0.41800000000E+01 0.  1.
        -11    1    1    2    0    0  0.14462013929E+02  0.58372771438E+02 -0.71553804164E+02  0.93469124220E+02  0.00000000000E+00 0.  1.
         11    1    1    2    0    0 -0.38890261459E+02 -0.12382135703E+02 -0.17459676108E+02  0.44391553371E+02  0.00000000000E+00 0. -1.
</event>
<event>
 7    1  0.2844572E-009  0.1217537E+03  0.7561462E-02  0.1240232E+00
         -2   -1    0    0    0  501 -0.00000000000E+00  0.00000000000E+00  0.46911116817E+02  0.46911116817E+02  0.00000000000E+00 0.  1.
          2   -1    0    0  501    0  0.00000000000E+00 -0.00000000000E+00 -0.36380922032E+03  0.36380922032E+03  0.00000000000E+00 0. -1.
         25    2    1    2    0    0  0.61982284070E+02 -0.16902148489E+02 -0.12623813506E+03  0.18897455468E+03  0.12509128431E+03 0.  0.
          5    1    3    3  502    0  0.80276944737E+02  0.32845920410E+02 -0.69576084165E+02  0.11127239654E+03  0.41800000000E+01 0. -1.
         -5    1    3    3    0  502 -0.18294660667E+02 -0.49748068900E+02 -0.56662050891E+02  0.77702158138E+02  0.41800000000E+01 0. -1.
        -11    1    1    2    0    0 -0.79421172273E+02  0.26335230226E+02 -0.18159508117E+03  0.19994509361E+03  0.00000000000E+00 0. -1.
         11    1    1    2    0    0  0.17438888202E+02 -0.94330817368E+01 -0.90648872845E+01  0.21800688848E+02  0.00000000000E+00 0.  1.
</event>
<event>
 7    1  0.2844572E-009  0.1148183E+03  0.7561462E-02  0.1251899E+00
          2   -1    0    0  501    0  0.00000000000E+00  0.00000000000E+00  0.23701341573E+02  0.23701341573E+02  0.00000000000E+00 0. -1.
         -2   -1    0    0    0  501 -0.00000000000E+00 -0.00000000000E+00 -0.61551302346E+03  0.61551302346E+03  0.00000000000E+00 0.  1.
         25    2    1    2    0    0  0.72374163291E+01  0.50334126575E+02 -0.34154048084E+03  0.36726371843E+03  0.12508730682E+03 0.  0.
          5    1    3    3  502    0 -0.45227322201E+02 -0.82897351697E+01 -0.20014373460E+03  0.20540013944E+03  0.41800000000E+01 0. -1.
         -5    1    3    3    0  502  0.52464738531E+02  0.58623861744E+02 -0.14139674624E+03  0.16186357899E+03  0.41800000000E+01 0. -1.
        -11    1    1    2    0    0  0.58368761113E+01  0.26300911874E+02 -0.87746801691E+02  0.91789478129E+02  0.00000000000E+00 0. -1.
         11    1    1    2    0    0 -0.13074292440E+02 -0.76635038449E+02 -0.16252439935E+03  0.18016116847E+03  0.00000000000E+00 0.  1.
</event>
<event>
 7    1  0.2844572E-009  0.2636902E+03  0.7561462E-02  0.1104946E+00
          2   -1    0    0  501    0  0.00000000000E+00  0.00000000000E+00  0.23128628766E+03  0.23128628766E+03  0.00000000000E+00 0. -1.
         -2   -1    0    0    0  501 -0.00000000000E+00 -0.00000000000E+00 -0.48774654899E+03  0.48774654899E+03  0.00000000000E+00 0.  1.
         25    2    1    2    0    0 -0.74915691856E+02  0.24178916595E+03 -0.33534180857E+03  0.43837836234E+03  0.12508836214E+03 0.  0.
          5    1    3    3  502    0  0.26096811824E+02  0.51344862333E+02 -0.31422912800E+02  0.65743519256E+02  0.41800000000E+01 0. -1.
         -5    1    3    3    0  502 -0.10101250368E+03  0.19044430361E+03 -0.30391889577E+03  0.37263484309E+03  0.41800000000E+01 0. -1.
        -11    1    1    2    0    0  0.47373344730E+02 -0.11704761167E+03 -0.74202151832E+01  0.12648888008E+03  0.00000000000E+00 0.  1.
         11    1    1    2    0    0  0.27542347126E+02 -0.12474155427E+03  0.86301762421E+02  0.15416559423E+03  0.00000000000E+00 0. -1.
</event>
<event>
 7    1  0.2844572E-009  0.1504773E+03  0.7561462E-02  0.1199888E+00
          2   -1    0    0  501    0  0.00000000000E+00  0.00000000000E+00  0.66379222670E+03  0.66379222670E+03  0.00000000000E+00 0. -1.
         -2   -1    0    0    0  501 -0.00000000000E+00 -0.00000000000E+00 -0.43414438602E+02  0.43414438602E+02  0.00000000000E+00 0.  1.
         25    2    1    2    0    0 -0.12375941114E+03 -0.82651867031E+01  0.24433492863E+03  0.30121735022E+03  0.12509048552E+03 0.  0.
          5    1    3    3  502    0 -0.12951194566E+03  0.28744170289E+02  0.15381161211E+03  0.20316263390E+03  0.41800000000E+01 0. -1.
         -5    1    3    3    0  502  0.57525345201E+01 -0.37009356992E+02  0.90523316524E+02  0.98054716321E+02  0.41800000000E+01 0. -1.
        -11    1    1    2    0    0  0.65317746406E+02 -0.16018035806E+02  0.86273873454E+02  0.10938997535E+03  0.00000000000E+00 0.  1.
         11    1    1    2    0    0  0.58441664735E+02  0.24283222509E+02  0.28976898601E+03  0.29659933972E+03  0.00000000000E+00 0. -1.
</event>
<event>
 7    1  0.2844572E-009  0.1761134E+03  0.7561462E-02  0.1171618E+00
         -1   -1    0    0    0  501 -0.00000000000E+00  0.00000000000E+00  0.13928679431E+03  0.13928679431E+03  0.00000000000E+00 0.  1.
          1   -1    0    0  501    0  0.00000000000E+00 -0.00000000000E+00 -0.32291093406E+03  0.32291093406E+03  0.00000000000E+00 0. -1.
         25    2    1    2    0    0 -0.64422604829E+01  0.17536233059E+03 -0.14917189754E+03  0.26209587915E+03  0.12509414512E+03 0.  0.
          5    1    3    3  502    0 -0.12066748887E+02  0.13177636504E+03 -0.31038382671E+02  0.13598334608E+03  0.41800000000E+01 0.  1.
         -5    1    3    3    0  502  0.56244884041E+01  0.43585965549E+02 -0.11813351487E+03  0.12611253308E+03  0.41800000000E+01 0.  1.
        -11    1    1    2    0    0  0.84547848603E+01 -0.15345436616E+03  0.62719582974E+01  0.15381502964E+03  0.00000000000E+00 0.  1.
         11    1    1    2    0    0 -0.20125243774E+01 -0.21907964422E+02 -0.40724200512E+02  0.46286819580E+02  0.00000000000E+00 0. -1.
</event>
<event>
 7    1  0.2844572E-009  0.1363802E+03  0.7561462E-02  0.1218284E+00
          1   -1    0    0  501    0  0.00000000000E+00  0.00000000000E+00  0.23458858668E+03  0.23458858668E+03  0.00000000000E+00 0. -1.
         -1   -1    0    0    0  501 -0.00000000000E+00 -0.00000000000E+00 -0.11151136891E+03  0.11151136891E+03  0.00000000000E+00 0.  1.
         25    2    1    2    0    0 -0.14649173816E+01  0.99602230273E+02  0.13709535255E+03  0.21064288361E+03  0.12511010537E+03 0.  0.
          5    1    3    3  502    0 -0.50930441176E+02  0.96615895433E+02  0.83619900658E+02  0.13761650074E+03  0.41800000000E+01 0. -1.
         -5    1    3    3    0  502  0.49465523794E+02  0.29863348400E+01  0.53475451893E+02  0.73026382871E+02  0.41800000000E+01 0. -1.
        -11    1    1    2    0    0  0.24182641582E+02 -0.80486217951E+02 -0.42620916059E+02  0.94230429903E+02  0.00000000000E+00 0.  1.
         11    1    1    2    0    0 -0.22717724200E+02 -0.19116012322E+02  0.28602781287E+02  0.41226642081E+02  0.00000000000E+00 0. -1.
</event>
<event>
 7    1  0.2844572E-009  0.1345876E+03  0.7561462E-02  0.1220803E+00
          2   -1    0    0  501    0  0.00000000000E+00  0.00000000000E+00  0.75395258522E+03  0.75395258522E+03  0.00000000000E+00 0. -1.
         -2   -1    0    0    0  501 -0.00000000000E+00 -0.00000000000E+00 -0.30453960004E+02  0.30453960004E+02  0.00000000000E+00 0.  1.
         25    2    1    2    0    0  0.10073071143E+03 -0.16642432854E+02  0.27465416937E+03  0.31860046845E+03  0.12509076284E+03 0.  0.
          5    1    3    3  502    0  0.90272377145E+02  0.33055638704E+02  0.10954242102E+03  0.14580394963E+03  0.41800000000E+01 0. -1.
         -5    1    3    3    0  502  0.10458334286E+02 -0.49698071558E+02  0.16511174834E+03  0.17279651881E+03  0.41800000000E+01 0. -1.
        -11    1    1    2    0    0  0.44256851199E+01  0.16242674713E+02  0.35415120595E+02  0.39212777730E+02  0.00000000000E+00 0.  1.
         11    1    1    2    0    0 -0.10515639655E+03  0.39975814114E+00  0.41342933526E+03  0.42659329905E+03  0.00000000000E+00 0. -1.
</event>
<event>
 7    1  0.2844572E-009  0.2083589E+03  0.7561462E-02  0.1142872E+00
         -4   -1    0    0    0  501 -0.00000000000E+00  0.00000000000E+00  0.10008544825E+03  0.10008544825E+03  0.00000000000E+00 0.  1.
          4   -1    0    0  501    0  0.00000000000E+00 -0.00000000000E+00 -0.54993080721E+03  0.54993080721E+03  0.00000000000E+00 0. -1.
         25    2    1    2    0    0 -0.11732278146E+03 -0.15917957409E+03 -0.14557801327E+03  0.27557890620E+03  0.12509198109E+03 0.  0.
          5    1    3    3  502    0 -0.95036914554E+02 -0.11791096374E+03 -0.35141720296E+02  0.15552306389E+03  0.41800000000E+01 0.  1.
         -5    1    3    3    0  502 -0.22285866910E+02 -0.41268610359E+02 -0.11043629298E+03  0.12005584230E+03  0.41800000000E+01 0.  1.
        -11    1    1    2    0    0  0.93391583908E+02  0.49165122394E+02 -0.15292427302E+03  0.18580912379E+03  0.00000000000E+00 0.  1.
         11    1    1    2    0    0  0.23931197556E+02  0.11001445170E+03 -0.15134307268E+03  0.18862822548E+03  0.00000000000E+00 0. -1.
</event>
<event>
 7    1  0.2844572E-009  0.1263930E+03  0.7561462E-02  0.1232908E+00
          1   -1    0    0  501    0  0.00000000000E+00  0.00000000000E+00  0.12713683387E+04  0.12713683387E+04  0.00000000000E+00 0. -1.
         -1   -1    0    0    0  501 -0.00000000000E+00 -0.00000000000E+00 -0.13310033785E+02  0.13310033785E+02  0.00000000000E+00 0.  1.
         25    2    1    2    0    0 -0.27854920275E+02 -0.64029394975E+02  0.78042445129E+03  0.79346469227E+03  0.12509290028E+03 0.  0.
          5    1    3    3  502    0  0.27036245238E+02 -0.78473902116E+02  0.37742837381E+03  0.38646961281E+03  0.41800000000E+01 0.  1.
         -5    1    3    3    0  502 -0.54891165513E+02  0.14444507141E+02  0.40299607748E+03  0.40699507945E+03  0.41800000000E+01 0.  1.
        -11    1    1    2    0    0  0.12634771870E+02 -0.22016830829E+02  0.74105100098E+02  0.78332267684E+02  0.00000000000E+00 0.  1.
         11    1    1    2    0    0  0.15220148404E+02  0.86046225804E+02  0.40352875354E+03  0.41288141255E+03  0.00000000000E+00 0. -1.
</event>
<event>
 7    1  0.2844572E-009  0.1233991E+03  0.7561462E-02  0.1237593E+00
         -2   -1    0    0    0  501 -0.00000000000E+00  0.00000000000E+00  0.31342261494E+02  0.31342261494E+02  0.00000000000E+00 0.  1.
          2   -1    0    0  501    0  0.00000000000E+00 -0.00000000000E+00 -0.99474494395E+03  0.99474494395E+03  0.00000000000E+00 0. -1.
         25    2    1    2    0    0  0.55682118474E+02 -0.31539160965E+02 -0.86614438230E+03  0.87746484470E+03  0.12507296147E+03 0.  0.
          5    1    3    3  502    0  0.74873319929E+02  0.21765800258E+02 -0.37481867222E+03  0.38286586887E+03  0.41800000000E+01 0.  1.
         -5    1    3    3    0  502 -0.19191201455E+02 -0.53304961224E+02 -0.49132571008E+03  0.49459897583E+03  0.41800000000E+01 0.  1.
        -11    1    1    2    0    0 -0.38356788076E+02 -0.29541746907E+02 -0.48902105778E+02  0.68814053443E+02  0.00000000000E+00 0.  1.
         11    1    1    2    0    0 -0.17325330397E+02  0.61080907872E+02 -0.48356194371E+02  0.79808307298E+02  0.00000000000E+00 0. -1.
</event>
<event>
 7    1  0.2844572E-009  0.1069006E+03  0.7561462E-02  0.1266419E+00
         -2   -1    0    0    0  501 -0.00000000000E+00  0.00000000000E+00  0.14228464298E+02  0.14228464298E+02  0.00000000000E+00 0.  1.
          2   -1    0    0  501    0  0.00000000000E+00 -0.00000000000E+00 -0.94659361961E+03  0.94659361961E+03  0.00000000000E+00 0. -1.
         25    2    1    2    0    0 -0.28524280990E+02  0.52329551848E+01 -0.68093351100E+03  0.69293415925E+03  0.12508510793E+03 0.  0.
          5    1    3    3  502    0 -0.10837804290E+02  0.61657260390E+02 -0.24136058902E+03  0.24938220083E+03  0.41800000000E+01 0. -1.
         -5    1    3    3    0  502 -0.17686476700E+02 -0.56424305205E+02 -0.43957292199E+03  0.44355195842E+03  0.41800000000E+01 0. -1.
        -11    1    1    2    0    0  0.58211637564E+02 -0.15717329951E+02 -0.14938324202E+03  0.16109308553E+03  0.00000000000E+00 0.  1.
         11    1    1    2    0    0 -0.29687356574E+02  0.10484374767E+02 -0.10204840228E+03  0.10679483912E+03  0.00000000000E+00 0. -1.
</event>
<event>
 7    1  0.2844572E-009  0.1968608E+03  0.7561462E-02  0.1152415E+00
          1   -1    0    0  501    0  0.00000000000E+00  0.00000000000E+00  0.11184330776E+04  0.11184330776E+04  0.00000000000E+00 0. -1.
         -1   -1    0    0    0  501 -0.00000000000E+00 -0.00000000000E+00 -0.38494557170E+02  0.38494557170E+02  0.00000000000E+00 0.  1.
         25    2    1    2    0    0  0.53277931540E+02 -0.16482538551E+03  0.65667535178E+03  0.69056183596E+03  0.12508871232E+03 0.  0.
          5    1    3    3  502    0 -0.23043443110E+02 -0.92426786303E+02  0.19536763753E+03  0.21739295594E+03  0.41800000000E+01 0.  1.
         -5    1    3    3    0  502  0.76321374651E+02 -0.72398599205E+02  0.46130771425E+03  0.47316888002E+03  0.41800000000E+01 0.  1.
        -11    1    1    2    0    0 -0.50833813812E+02  0.31620374850E+02  0.97498574648E+02  0.11441108683E+03  0.00000000000E+00 0.  1.
         11    1    1    2    0    0 -0.24441177282E+01  0.13320501066E+03  0.32576459398E+03  0.35195471196E+03  0.00000000000E+00 0. -1.
</event>
<event>
 7    1  0.2844572E-009  0.1105633E+03  0.7561462E-02  0.1259530E+00
         -1   -1    0    0    0  501 -0.00000000000E+00  0.00000000000E+00  0.42285865784E+02  0.42285865784E+02  0.00000000000E+00 0.  1.
          1   -1    0    0  501    0  0.00000000000E+00 -0.00000000000E+00 -0.40446807075E+03  0.40446807075E+03  0.00000000000E+00 0. -1.
         25    2    1    2    0    0  0.62285023090E+02  0.26061650232E+02 -0.15337989606E+03  0.20912076359E+03  0.12508983785E+03 0.  0.
          5    1    3    3  502    0  0.99174224364E+02  0.27058074615E+02 -0.12760097994E+03  0.16391201500E+03  0.41800000000E+01 0. -1.
         -5    1    3    3    0  502 -0.36889201274E+02 -0.99642438344E+00 -0.25778916127E+02  0.45208748588E+02  0.41800000000E+01 0. -1.
        -11    1    1    2    0    0 -0.46479371060E+02  0.45003223899E+01 -0.29892728050E+02  0.55445108225E+02  0.00000000000E+00 0.  1.
         11    1    1    2    0    0 -0.15805652030E+02 -0.30561972622E+02 -0.17890958086E+03  0.18218806473E+03  0.00000000000E+00 0. -1.
</event>
<event>
 7    1  0.2844572E-009  0.8805245E+02  0.7561462E-02  0.1307638E+00
          3   -1    0    0  501    0  0.00000000000E+00  0.00000000000E+00  0.15094151598E+03  0.15094151598E+03  0.00000000000E+00 0. -1.
         -3   -1    0    0    0  501 -0.00000000000E+00 -0.00000000000E+00 -0.12771937221E+03  0.12771937221E+03  0.00000000000E+00 0.  1.
         25    2    1    2    0    0  0.83091648099E+01  0.31926647739E+01  0.10319840001E+03  0.16241287123E+03  0.12509514638E+03 0.  0.
          5    1    3    3  502    0  0.33831602705E+01  0.62066921345E+02  0.32775680780E+02  0.70395071910E+02  0.41800000000E+01 0.  1.
         -5    1    3    3    0  502  0.49260045394E+01 -0.58874256571E+02  0.70422719232E+02  0.92017799319E+02  0.41800000000E+01 0.  1.
        -11    1    1    2    0    0 -0.21401613149E+02  0.19125954405E+02 -0.85152711545E+02  0.89859976968E+02  0.00000000000E+00 0.  1.
         11    1    1    2    0    0  0.13092448339E+02 -0.22318619179E+02  0.51764553041E+01  0.26388040000E+02  0.00000000000E+00 0. -1.
</event>
<event>
 7    1  0.2844572E-009  0.1058876E+03  0.7561462E-02  0.1268381E+00
          4   -1    0    0  501    0  0.00000000000E+00  0.00000000000E+00  0.18517300734E+03  0.18517300734E+03  0.00000000000E+00 0. -1.
         -4   -1    0    0    0  501 -0.00000000000E+00 -0.00000000000E+00 -0.10952857401E+03  0.10952857401E+03  0.00000000000E+00 0.  1.
         25    2    1    2    0    0  0.35887137361E+02  0.38994970957E+02 -0.35736365986E+02  0.14049277467E+03  0.12511050113E+03 0.  0.
          5    1    3    3  502    0  0.41981691520E+02  0.78999520049E+02 -0.53559423653E+01  0.89719257183E+02  0.41800000000E+01 0. -1.
         -5    1    3    3    0  502 -0.60945541583E+01 -0.40004549091E+02 -0.30380423621E+02  0.50773517485E+02  0.41800000000E+01 0. -1.
        -11    1    1    2    0    0 -0.19357961311E+02  0.15366494835E+02  0.90274059423E+02  0.93596290709E+02  0.00000000000E+00 0. -1.
         11    1    1    2    0    0 -0.16529176051E+02 -0.54361465793E+02  0.21106739890E+02  0.60612515975E+02  0.00000000000E+00 0.  1.
</event>
<event>
 7    1  0.2844572E-009  0.8834058E+02  0.7561462E-02  0.1306921E+00
          1   -1    0    0  501    0  0.00000000000E+00  0.00000000000E+00  0.10119349976E+04  0.10119349976E+04  0.00000000000E+00 0. -1.
         -1   -1    0    0    0  501 -0.00000000000E+00 -0.00000000000E+00 -0.13736274099E+02  0.13736274099E+02  0.00000000000E+00 0.  1.
         25    2    1    2    0    0 -0.17803645100E+02  0.33001652877E+02  0.67746803345E+03  0.68993903929E+03  0.12508742028E+03 0.  0.
          5    1    3    3  502    0  0.15381329830E+02 -0.13933477888E+02  0.17522184243E+02  0.27481383772E+02  0.41800000000E+01 0.  1.
         -5    1    3    3    0  502 -0.33184974930E+02  0.46935130765E+02  0.65994584921E+03  0.66245765552E+03  0.41800000000E+01 0.  1.
        -11    1    1    2    0    0  0.23791333926E+02 -0.62970891750E+02  0.19321909627E+03  0.20460933493E+03  0.00000000000E+00 0. -1.
         11    1    1    2    0    0 -0.59876888260E+01  0.29969238873E+02  0.12751159381E+03  0.13112289751E+03  0.00000000000E+00 0.  1.
</event>
<event>
 7    1  0.2844572E-009  0.1285679E+03  0.7561462E-02  0.1229596E+00
         -1   -1    0    0    0  501 -0.00000000000E+00  0.00000000000E+00  0.14304562193E+03  0.14304562193E+03  0.00000000000E+00 0.  1.
          1   -1    0    0  501    0  0.00000000000E+00 -0.00000000000E+00 -0.12638279451E+03  0.12638279451E+03  0.00000000000E+00 0. -1.
         25    2    1    2    0    0 -0.86760567644E+01 -0.74715542869E+02  0.17397956081E+00  0.14596347452E+03  0.12509044455E+03 0.  0.
          5    1    3    3  502    0 -0.63008317178E+02 -0.37465770331E+02 -0.21467288245E+02  0.76498685248E+02  0.41800000000E+01 0.  1.
         -5    1    3    3    0  502  0.54332260413E+02 -0.37249772538E+02  0.21641267806E+02  0.69464789268E+02  0.41800000000E+01 0.  1.
        -11    1    1    2    0    0  0.49777104980E+02  0.38614378415E+02  0.25610019538E+02  0.68005172606E+02  0.00000000000E+00 0.  1.
         11    1    1    2    0    0 -0.41101048215E+02  0.36101164454E+02 -0.91211716814E+01  0.55459769312E+02  0.00000000000E+00 0. -1.
</event>
<event>
 7    1  0.2844572E-009  0.1208563E+03  0.7561462E-02  0.1241691E+00
         -1   -1    0    0    0  501 -0.00000000000E+00  0.00000000000E+00  0.53230175110E+02  0.53230175110E+02  0.00000000000E+00 0.  1.
          1   -1    0    0  501    0  0.00000000000E+00 -0.00000000000E+00 -0.31274937772E+03  0.31274937772E+03  0.00000000000E+00 0. -1.
         25    2    1    2    0    0  0.97006033135E+01  0.56951327883E+02 -0.85678526300E+02  0.16224790548E+03  0.12508404180E+03 0.  0.
          5    1    3    3  502    0 -0.55877356022E+02  0.36159906524E+02 -0.56498180534E+02  0.87403286892E+02  0.41800000000E+01 0.  1.
         -5    1    3    3    0  502  0.65577959336E+02  0.20791421358E+02 -0.29180345766E+02  0.74844618589E+02  0.41800000000E+01 0.  1.
        -11    1    1    2    0    0  0.36177358290E+02 -0.46734682836E+02 -0.10186594239E+03  0.11776927465E+03  0.00000000000E+00 0. -1.
         11    1    1    2    0    0 -0.45877961604E+02 -0.10216645047E+02 -0.71974733912E+02  0.85962372691E+02  0.00000000000E+00 0.  1.
</event>
<event>
 7    1  0.3428235E-009  0.1219012E+03  0.7561462E-02  0.1239993E+00
          2   -1    0    0  501    0  0.00000000000E+00  0.00000000000E+00  0.39561791737E+03  0.39561791737E+03  0.00000000000E+00 0.  1.
         -2   -1    0    0    0  501 -0.00000000000E+00 -0.00000000000E+00 -0.55509115088E+02  0.55509115088E+02  0.00000000000E+00 0. -1.
         25    2    1    2    0    0 -0.43175011917E+02 -0.91058785416E+02  0.19428560955E+03  0.25206998424E+03  0.12504637069E+03 0.  0.
          5    1    3    3  502    0  0.16721717732E+02  0.73425942235E+00 -0.10187184720E+02  0.20035121994E+02  0.41800000000E+01 0.  1.
         -5    1    3    3    0  502 -0.59896729649E+02 -0.91793044839E+02  0.20447279427E+03  0.23203486225E+03  0.41800000000E+01 0.  1.
        -11    1    1    2    0    0 -0.37756481477E+01  0.60997994369E+02  0.12573102448E+03  0.13979735817E+03  0.00000000000E+00 0.  1.
         11    1    1    2    0    0  0.46950660064E+02  0.30060791048E+02  0.20092168261E+02  0.59259690046E+02  0.00000000000E+00 0. -1.
</event>
<event>
 7    1  0.2844572E-009  0.1442380E+03  0.7561462E-02  0.1207738E+00
          2   -1    0    0  501    0  0.00000000000E+00  0.00000000000E+00  0.67672998186E+03  0.67672998186E+03  0.00000000000E+00 0. -1.
         -2   -1    0    0    0  501 -0.00000000000E+00 -0.00000000000E+00 -0.42390910077E+02  0.42390910077E+02  0.00000000000E+00 0.  1.
         25    2    1    2    0    0  0.12885081118E+03 -0.95562930880E+01  0.35495096887E+03  0.39791330462E+03  0.12510377059E+03 0.  0.
          5    1    3    3  502    0  0.46915120797E+02 -0.90023455264E+01  0.18166197229E+02  0.51279176145E+02  0.41800000000E+01 0.  1.
         -5    1    3    3    0  502  0.81935690385E+02 -0.55394756162E+00  0.33678477164E+03  0.34663412848E+03  0.41800000000E+01 0.  1.
        -11    1    1    2    0    0 -0.11320225981E+03 -0.29008249357E+02  0.20699142018E+03  0.23770081654E+03  0.00000000000E+00 0. -1.
         11    1    1    2    0    0 -0.15648551377E+02  0.38564542445E+02  0.72396682741E+02  0.83506770779E+02  0.00000000000E+00 0.  1.
</event>
<event>
 7    1  0.2844572E-009  0.1029738E+03  0.7561462E-02  0.1274164E+00
          1   -1    0    0  501    0  0.00000000000E+00  0.00000000000E+00  0.13871373477E+03  0.13871373477E+03  0.00000000000E+00 0. -1.
         -1   -1    0    0    0  501 -0.00000000000E+00 -0.00000000000E+00 -0.12549296333E+03  0.12549296333E+03  0.00000000000E+00 0.  1.
         25    2    1    2    0    0 -0.52943946554E+02  0.26143809981E+02 -0.51229853377E+02  0.14750783741E+03  0.12508998339E+03 0.  0.
          5    1    3    3  502    0 -0.57548200300E+02  0.60011419226E+02 -0.69571716745E+02  0.10849360334E+03  0.41800000000E+01 0. -1.
         -5    1    3    3    0  502  0.46042537458E+01 -0.33867609245E+02  0.18341863367E+02  0.39014234073E+02  0.41800000000E+01 0. -1.
        -11    1    1    2    0    0  0.51152815355E+02 -0.45719023435E+02  0.68144237419E+02  0.96697863038E+02  0.00000000000E+00 0. -1.
         11    1    1    2    0    0  0.17911311984E+01  0.19575213454E+02 -0.36936125976E+01  0.20000997644E+02  0.00000000000E+00 0.  1.
</event>
<event>
 7    1  0.2844572E-009  0.1160153E+03  0.7561462E-02  0.1249819E+00
         -2   -1    0    0    0  501 -0.00000000000E+00  0.00000000000E+00  0.82806831339E+03  0.82806831339E+03  0.00000000000E+00 0.  1.
          2   -1    0    0  501    0  0.00000000000E+00 -0.00000000000E+00 -0.24442375415E+02  0.24442375415E+02  0.00000000000E+00 0. -1.
         25    2    1    2    0    0 -0.81832048267E+02 -0.97701490924E+01  0.55832991803E+03  0.57807554255E+03  0.12508835112E+03 0.  0.
          5    1    3    3  502    0 -0.62628865411E+02  0.39785041604E+02  0.46235051701E+03  0.46828484632E+03  0.41800000000E+01 0. -1.
         -5    1    3    3    0  502 -0.19203182856E+02 -0.49555190696E+02  0.95979401023E+02  0.10979069622E+03  0.41800000000E+01 0. -1.
        -11    1    1    2    0    0  0.34279715360E+02  0.36321169706E+02  0.19141601381E+03  0.19782420630E+03  0.00000000000E+00 0.  1.
         11    1    1    2    0    0  0.47552332907E+02 -0.26551020614E+02  0.53880006133E+02  0.76610939959E+02  0.00000000000E+00 0. -1.
</event>
<event>
 7    1  0.2844572E-009  0.8358163E+02  0.7561462E-02  0.1319184E+00
          2   -1    0    0  501    0  0.00000000000E+00  0.00000000000E+00  0.65982301631E+03  0.65982301631E+03  0.00000000000E+00 0. -1.
         -2   -1    0    0    0  501 -0.00000000000E+00 -0.00000000000E+00 -0.15760994897E+02  0.15760994897E+02  0.00000000000E+00 0.  1.
         25    2    1    2    0    0 -0.10556315955E+02 -0.32110835186E+01  0.39015359843E+03  0.40986454921E+03  0.12508945384E+03 0.  0.
          5    1    3    3  502    0  0.12763573735E+02 -0.44140363822E+02  0.56821957761E+02  0.73194861955E+02  0.41800000000E+01 0. -1.
         -5    1    3    3    0  502 -0.23319889691E+02  0.40929280303E+02  0.33333164067E+03  0.33666968725E+03  0.41800000000E+01 0. -1.
        -11    1    1    2    0    0 -0.19735050460E+02  0.28230988840E+02  0.74759485416E+02  0.82313070695E+02  0.00000000000E+00 0.  1.
         11    1    1    2    0    0  0.30291366415E+02 -0.25019905321E+02  0.17914893756E+03  0.18340639130E+03  0.00000000000E+00 0. -1.
</event>
<event>
 7    1  0.2844572E-009  0.9481675E+02  0.7561462E-02  0.1291589E+00
          2   -1    0    0  501    0  0.00000000000E+00  0.00000000000E+00  0.41781729328E+03  0.41781729328E+03  0.00000000000E+00 0. -1.
         -2   -1    0    0    0  501 -0.00000000000E+00 -0.00000000000E+00 -0.30893448201E+02  0.30893448201E+02  0.00000000000E+00 0.  1.
         25    2    1    2    0    0 -0.30228176250E+02  0.12558011007E+02  0.19955168382E+03  0.23778103220E+03  0.12508996155E+03 0.  0.
          5    1    3    3  502    0 -0.56238629917E+02 -0.19399699074E+02  0.18419573282E+03  0.19360958708E+03  0.41800000000E+01 0. -1.
         -5    1    3    3    0  502  0.26010453667E+02  0.31957710081E+02  0.15355950999E+02  0.44171445128E+02  0.41800000000E+01 0. -1.
        -11    1    1    2    0    0  0.12893383978E+02 -0.47690974429E+02  0.60289666376E+02  0.77945572447E+02  0.00000000000E+00 0.  1.
         11    1    1    2    0    0  0.17334792272E+02  0.35132963422E+02  0.12708249489E+03  0.13298413683E+03  0.00000000000E+00 0. -1.
</event>
<event>
 7    1  0.2844572E-009  0.1115112E+03  0.7561462E-02  0.1257797E+00
         -1   -1    0    0    0  501 -0.00000000000E+00  0.00000000000E+00  0.12438257778E+03  0.12438257778E+03  0.00000000000E+00 0.  1.
          1   -1    0    0  501    0  0.00000000000E+00 -0.00000000000E+00 -0.15942552705E+03  0.15942552705E+03  0.00000000000E+00 0. -1.
         25    2    1    2    0    0 -0.51404281446E+02 -0.57612165634E+02  0.24644525680E+02  0.14904870224E+03  0.12508637501E+03 0.  0.
          5    1    3    3  502    0 -0.83589710654E+02 -0.58765597783E+02 -0.85349776572E+01  0.10262043390E+03  0.41800000000E+01 0.  1.
         -5    1    3    3    0  502  0.32185429208E+02  0.11534321491E+01  0.33179503337E+02  0.46428268337E+02  0.41800000000E+01 0.  1.
        -11    1    1    2    0    0  0.14439693997E+01  0.32194468128E+02  0.19554605268E+02  0.37695509187E+02  0.00000000000E+00 0.  1.
         11    1    1    2    0    0  0.49960312046E+02  0.25417697506E+02 -0.79242080214E+02  0.97063893405E+02  0.00000000000E+00 0. -1.
</event>
<event>
 7    1  0.2844572E-009  0.1215726E+03  0.7561462E-02  0.1240525E+00
         -2   -1    0    0    0  501 -0.00000000000E+00  0.00000000000E+00  0.64503446442E+03  0.64503446442E+03  0.00000000000E+00 0.  1.
          2   -1    0    0  501    0  0.00000000000E+00 -0.00000000000E+00 -0.27318877960E+02  0.27318877960E+02  0.00000000000E+00 0. -1.
         25    2    1    2    0    0  0.34237896144E+02 -0.55786948603E+02  0.23951501944E+03  0.27802925562E+03  0.12509358607E+03 0.  0.
          5    1    3    3  502    0  0.42102457301E+02 -0.89503503163E+02  0.21067214888E+03  0.23277396913E+03  0.41800000000E+01 0.  1.
         -5    1    3    3    0  502 -0.78645611574E+01  0.33716554560E+02  0.28842870566E+02  0.45255286499E+02  0.41800000000E+01 0.  1.
        -11    1    1    2    0    0 -0.43541287188E+02 -0.84597099289E+01  0.11557135840E+03  0.12379074789E+03  0.00000000000E+00 0. -1.
         11    1    1    2    0    0  0.93033910446E+01  0.64246658532E+02  0.26262920862E+03  0.27053333886E+03  0.00000000000E+00 0.  1.
</event>
<event>
 7    1  0.2844572E-009  0.1396879E+03  0.7561462E-02  0.1213750E+00
          2   -1    0    0  501    0  0.00000000000E+00  0.00000000000E+00  0.35169951972E+03  0.35169951972E+03  0.00000000000E+00 0. -1.
         -2   -1    0    0    0  501 -0.00000000000E+00 -0.00000000000E+00 -0.78381651423E+02  0.78381651423E+02  0.00000000000E+00 0.  1.
         25    2    1    2    0    0  0.11284437254E+03 -0.43797472435E+02  0.10473173775E+03  0.20314617726E+03  0.12509021319E+03 0.  0.
          5    1    3    3  502    0  0.47723604514E+02  0.22597160530E+01 -0.22457993090E+02  0.52957365853E+02  0.41800000000E+01 0. -1.
         -5    1    3    3    0  502  0.65120768027E+02 -0.46057188488E+02  0.12718973084E+03  0.15018881141E+03  0.41800000000E+01 0. -1.
        -11    1    1    2    0    0 -0.10471725589E+03 -0.22937940716E+01  0.12368465035E+03  0.16207670377E+03  0.00000000000E+00 0.  1.
         11    1    1    2    0    0 -0.81271166517E+01  0.46091266507E+02  0.44901480200E+02  0.64858290121E+02  0.00000000000E+00 0. -1.
</event>
<event>
 7    1  0.2844572E-009  0.9501234E+02  0.7561462E-02  0.1291148E+00
         -2   -1    0    0    0  501 -0.00000000000E+00  0.00000000000E+00  0.41260494095E+03  0.41260494095E+03  0.00000000000E+00 0.  1.
          2   -1    0    0  501    0  0.00000000000E+00 -0.00000000000E+00 -0.36599970595E+02  0.36599970595E+02  0.00000000000E+00 0. -1.
         25    2    1    2    0    0  0.18422314779E+02 -0.53692099727E+02  0.22189260773E+03  0.26097124981E+03  0.12508973022E+03 0.  0.
          5    1    3    3  502    0 -0.74921190193E+01 -0.67299892304E+02  0.22122754459E+03  0.23139685874E+03  0.41800000000E+01 0.  1.
         -5    1    3    3    0  502  0.25914433799E+02  0.13607792578E+02  0.66506314105E+00  0.29574391066E+02  0.41800000000E+01 0.  1.
        -11    1    1    2    0    0  0.10533704272E+02  0.61682099037E+02  0.50668185399E+02  0.80516490727E+02  0.00000000000E+00 0. -1.
         11    1    1    2    0    0 -0.28956019051E+02 -0.79899993105E+01  0.10344417723E+03  0.10771717101E+03  0.00000000000E+00 0.  1.
</event>
<event>
 7    1  0.2844572E-009  0.9692371E+02  0.7561462E-02  0.1286901E+00
         -2   -1    0    0    0  501 -0.00000000000E+00  0.00000000000E+00  0.46762446028E+02  0.46762446028E+02  0.00000000000E+00 0.  1.
          2   -1    0    0  501    0  0.00000000000E+00 -0.00000000000E+00 -0.32499106242E+03  0.32499106242E+03  0.00000000000E+00 0. -1.
         25    2    1    2    0    0  0.24486879693E+01  0.71414697210E+01 -0.67975637615E+02  0.14256627744E+03  0.12508980570E+03 0.  0.
          5    1    3    3  502    0 -0.97270491608E+01  0.63901133840E+02 -0.22033042618E+02  0.68417086743E+02  0.41800000000E+01 0. -1.
         -5    1    3    3    0  502  0.12175737130E+02 -0.56759664119E+02 -0.45942594998E+02  0.74149190694E+02  0.41800000000E+01 0. -1.
        -11    1    1    2    0    0 -0.35083801379E+02 -0.13560995506E+02 -0.36967818984E+02  0.52738916928E+02  0.00000000000E+00 0.  1.
         11    1    1    2    0    0  0.32635113409E+02  0.64195257849E+01 -0.17328515979E+03  0.17644831408E+03  0.00000000000E+00 0. -1.
</event>
<event>
 7    1  0.2844572E-009  0.7290110E+02  0.7561462E-02  0.1350497E+00
         -1   -1    0    0    0  501 -0.00000000000E+00  0.00000000000E+00  0.18031423518E+02  0.18031423518E+02  0.00000000000E+00 0.  1.
          1   -1    0    0  501    0  0.00000000000E+00 -0.00000000000E+00 -0.92412598842E+03  0.92412598842E+03  0.00000000000E+00 0. -1.
         25    2    1    2    0    0  0.36093323337E+02 -0.12773161836E+02 -0.70554066514E+03  0.71756545122E+03  0.12508662983E+03 0.  0.
          5    1    3    3  502    0  0.13019040119E+02 -0.16169034750E+02 -0.13486108567E+02  0.25105390152E+02  0.41800000000E+01 0.  1.
         -5    1    3    3    0  502  0.23074283218E+02  0.33958729134E+01 -0.69205455658E+03  0.69246006107E+03  0.41800000000E+01 0.  1.
        -11    1    1    2    0    0  0.54065285626E+01 -0.36279145619E+02 -0.66888649879E+02  0.76285637184E+02  0.00000000000E+00 0. -1.
         11    1    1    2    0    0 -0.41499851900E+02  0.49052307455E+02 -0.13366524988E+03  0.14830632353E+03  0.00000000000E+00 0.  1.
</event>
<event>
 7    1  0.2844572E-009  0.8963252E+02  0.7561462E-02  0.1303744E+00
          2   -1    0    0  501    0  0.00000000000E+00  0.00000000000E+00  0.14037478773E+03  0.14037478773E+03  0.00000000000E+00 0. -1.
         -2   -1    0    0    0  501 -0.00000000000E+00 -0.00000000000E+00 -0.10175842394E+03  0.10175842394E+03  0.00000000000E+00 0.  1.
         25    2    1    2    0    0 -0.49607558130E+02 -0.85943997500E+01  0.30111121144E+02  0.13816289033E+03  0.12509009200E+03 0.  0.
          5    1    3    3  502    0 -0.22173405033E+02  0.27563869179E+02 -0.40614337484E+02  0.54022435933E+02  0.41800000000E+01 0.  1.
         -5    1    3    3    0  502 -0.27434153097E+02 -0.36158268929E+02  0.70725458628E+02  0.84140454398E+02  0.41800000000E+01 0.  1.
        -11    1    1    2    0    0  0.40380798986E+02 -0.35040114998E+02  0.21332514536E+02  0.57562963460E+02  0.00000000000E+00 0. -1.
         11    1    1    2    0    0  0.92267591436E+01  0.43634514748E+02 -0.12827271885E+02  0.46407357882E+02  0.00000000000E+00 0.  1.
</event>
<event>
 7    1  0.2844572E-009  0.7055799E+02  0.7561462E-02  0.1358206E+00
          4   -1    0    0  501    0  0.00000000000E+00  0.00000000000E+00  0.22037543052E+02  0.22037543052E+02  0.00000000000E+00 0. -1.
         -4   -1    0    0    0  501 -0.00000000000E+00 -0.00000000000E+00 -0.62187275717E+03  0.62187275717E+03  0.00000000000E+00 0.  1.
         25    2    1    2    0    0 -0.13575884863E+01  0.42343475355E+02 -0.29762855446E+03  0.32561497914E+03  0.12509014853E+03 0.  0.
          5    1    3    3  502    0 -0.18513439456E+02 -0.21306389948E+01 -0.26936263119E+03  0.27003886117E+03  0.41800000000E+01 0. -1.
         -5    1    3    3    0  502  0.17155850970E+02  0.44474114350E+02 -0.28265923269E+02  0.55576117964E+02  0.41800000000E+01 0. -1.
        -11    1    1    2    0    0 -0.12089055221E+02 -0.54629917101E+02 -0.29220876349E+03  0.29751728447E+03  0.00000000000E+00 0.  1.
         11    1    1    2    0    0  0.13446643707E+02  0.12286441746E+02 -0.99978961729E+01  0.20778036617E+02  0.00000000000E+00 0. -1.
</event>
<event>
 7    1  0.2844572E-009  0.9229476E+02  0.7561462E-02  0.1297388E+00
          2   -1    0    0  501    0  0.00000000000E+00  0.00000000000E+00  0.19230193717E+02  0.19230193717E+02  0.00000000000E+00 0. -1.
         -2   -1    0    0    0  501 -0.00000000000E+00 -0.00000000000E+00 -0.70920910298E+03  0.70920910298E+03  0.00000000000E+00 0.  1.
         25    2    1    2    0    0 -0.26371664389E+02 -0.19082515683E+02 -0.47908346520E+03  0.49620080457E+03  0.12503865299E+03 0.  0.
          5    1    3    3  502    0 -0.35733726001E+02  0.31821646827E+02 -0.76819775503E+02  0.90599485037E+02  0.41800000000E+01 0.  1.
         -5    1    3    3    0  502  0.93620616121E+01 -0.50904162510E+02 -0.40226368970E+03  0.40560131954E+03  0.41800000000E+01 0.  1.
        -11    1    1    2    0    0  0.30947155964E+02 -0.25325510456E+02 -0.15819421746E+03  0.16317021291E+03  0.00000000000E+00 0.  1.
         11    1    1    2    0    0 -0.45754915754E+01  0.44408026139E+02 -0.52701226595E+02  0.69068279212E+02  0.00000000000E+00 0. -1.
</event>
<event>
 7    1  0.2844572E-009  0.9330375E+02  0.7561462E-02  0.1295043E+00
         -2   -1    0    0    0  501 -0.00000000000E+00  0.00000000000E+00  0.73995040888E+02  0.73995040888E+02  0.00000000000E+00 0. -1.
          2   -1    0    0  501    0  0.00000000000E+00 -0.00000000000E+00 -0.16935713764E+03  0.16935713764E+03  0.00000000000E+00 0.  1.
         25    2    1    2    0    0 -0.93774903495E+01  0.18701847756E+02 -0.78505844494E+02  0.14916118766E+03  0.12509274898E+03 0.  0.
          5    1    3    3  502    0  0.97883250680E+01  0.70569159381E+02 -0.45108393690E+02  0.84427822101E+02  0.41800000000E+01 0. -1.
         -5    1    3    3    0  502 -0.19165815417E+02 -0.51867311625E+02 -0.33397450803E+02  0.64733365555E+02  0.41800000000E+01 0. -1.
        -11    1    1    2    0    0  0.71943498754E+01 -0.38855437478E+02  0.25641420490E+02  0.47106115701E+02  0.00000000000E+00 0. -1.
         11    1    1    2    0    0  0.21831404740E+01  0.20153589721E+02 -0.42497672750E+02  0.47084875174E+02  0.00000000000E+00 0.  1.
</event>
<event>
 7    1  0.2844572E-009  0.8999539E+02  0.7561462E-02  0.1302863E+00
          2   -1    0    0  501    0  0.00000000000E+00  0.00000000000E+00  0.64198773563E+03  0.64198773563E+03  0.00000000000E+00 0.  1.
         -2   -1    0    0    0  501 -0.00000000000E+00 -0.00000000000E+00 -0.24662446493E+02  0.24662446493E+02  0.00000000000E+00 0. -1.
         25    2    1    2    0    0  0.31237089553E+02 -0.16594603818E+02  0.20814658757E+03  0.24540470701E+03  0.12508929477E+03 0.  0.
          5    1    3    3  502    0  0.50535644447E+02 -0.27798195565E+02  0.28755697124E+02  0.64582919982E+02  0.41800000000E+01 0. -1.
         -5    1    3    3    0  502 -0.19298554894E+02  0.11203591747E+02  0.17939089045E+03  0.18082178703E+03  0.41800000000E+01 0. -1.
        -11    1    1    2    0    0  0.32309614416E+02 -0.42360392392E+01  0.15735111399E+03  0.16068985122E+03  0.00000000000E+00 0.  1.
         11    1    1    2    0    0 -0.63546703968E+02  0.20830643057E+02  0.25182758757E+03  0.26055562388E+03  0.00000000000E+00 0. -1.
</event>
<event>
 7    1  0.2844572E-009  0.1351412E+03  0.7561462E-02  0.1220021E+00
          2   -1    0    0  501    0  0.00000000000E+00  0.00000000000E+00  0.48219908083E+03  0.48219908083E+03  0.00000000000E+00 0. -1.
         -2   -1    0    0    0  501 -0.00000000000E+00 -0.00000000000E+00 -0.41880278882E+02  0.41880278882E+02  0.00000000000E+00 0.  1.
         25    2    1    2    0    0 -0.87796042157E+02  0.16417747898E+02  0.26993217325E+03  0.31062445619E+03  0.12508591912E+03 0.  0.
          5    1    3    3  502    0 -0.77260676057E+02  0.64688018771E+02  0.14900632089E+03  0.17992806313E+03  0.41800000000E+01 0. -1.
         -5    1    3    3    0  502 -0.10535366100E+02 -0.48270270874E+02  0.12092585236E+03  0.13069639306E+03  0.41800000000E+01 0. -1.
        -11    1    1    2    0    0  0.22705339015E+02 -0.43718187714E+02  0.33908494438E+02  0.59804668312E+02  0.00000000000E+00 0.  1.
         11    1    1    2    0    0  0.65090703142E+02  0.27300439816E+02  0.13647813426E+03  0.15365023522E+03  0.00000000000E+00 0. -1.
</event>
<event>
 7    1  0.2844572E-009  0.1494837E+03  0.7561462E-02  0.1201109E+00
         -2   -1    0    0    0  501 -0.00000000000E+00  0.00000000000E+00  0.95886525324E+02  0.95886525324E+02  0.00000000000E+00 0.  1.
          2   -1    0    0  501    0  0.00000000000E+00 -0.00000000000E+00 -0.41167192487E+03  0.41167192487E+03  0.00000000000E+00 0. -1.
         25    2    1    2    0    0 -0.68636658021E+02  0.10985274076E+03 -0.33894339606E+02  0.18323670968E+03  0.12509296559E+03 0.  0.
          5    1    3    3  502    0 -0.74425649668E+02  0.33139498006E+02 -0.60677549221E+02  0.10166927282E+03  0.41800000000E+01 0. -1.
         -5    1    3    3    0  502  0.57889916477E+01  0.76713242755E+02  0.26783209615E+02  0.81567436858E+02  0.41800000000E+01 0. -1.
        -11    1    1    2    0    0  0.46752134583E+02 -0.10881798709E+03 -0.27785528328E+03  0.30204416043E+03  0.00000000000E+00 0. -1.
         11    1    1    2    0    0  0.21884523437E+02 -0.10347536675E+01 -0.40357766616E+01  0.22277580086E+02  0.00000000000E+00 0.  1.
</event>
<event>
 7    1  0.2844572E-009  0.1284722E+03  0.7561462E-02  0.1229741E+00
         -2   -1    0    0    0  501 -0.00000000000E+00  0.00000000000E+00  0.13171960321E+03  0.13171960321E+03  0.00000000000E+00 0.  1.
          2   -1    0    0  501    0  0.00000000000E+00 -0.00000000000E+00 -0.19164102707E+03  0.19164102707E+03  0.00000000000E+00 0. -1.
         25    2    1    2    0    0  0.26419748609E+01  0.10891841631E+03  0.43874157601E+01  0.16593875039E+03  0.12508484330E+03 0.  0.
          5    1    3    3  502    0 -0.46943639205E+02  0.69202953317E+02  0.40213736744E+02  0.92883642438E+02  0.41800000000E+01 0. -1.
         -5    1    3    3    0  502  0.49585614066E+02  0.39715462993E+02 -0.35826320984E+02  0.73055107955E+02  0.41800000000E+01 0. -1.
        -11    1    1    2    0    0 -0.68733094495E+01 -0.48640622740E+02  0.20548606613E+02  0.53248453471E+02  0.00000000000E+00 0.  1.
         11    1    1    2    0    0  0.42313345886E+01 -0.60277793570E+02 -0.84857446233E+02  0.10417342642E+03  0.00000000000E+00 0. -1.
</event>
<event>
 7    1  0.2844572E-009  0.1056316E+03  0.7561462E-02  0.1268880E+00
         -2   -1    0    0    0  501 -0.00000000000E+00  0.00000000000E+00  0.27439514653E+02  0.27439514653E+02  0.00000000000E+00 0.  1.
          2   -1    0    0  501    0  0.00000000000E+00 -0.00000000000E+00 -0.58000160689E+03  0.58000160689E+03  0.00000000000E+00 0. -1.
         25    2    1    2    0    0  0.21658110337E+02  0.35873700225E+02 -0.39192038734E+03  0.41352746369E+03  0.12508947639E+03 0.  0.
          5    1    3    3  502    0  0.63069728536E+02 -0.10551501865E+02 -0.25743507054E+03  0.26529118492E+03  0.41800000000E+01 0.  1.
         -5    1    3    3    0  502 -0.41411618200E+02  0.46425202090E+02 -0.13448531680E+03  0.14823627877E+03  0.41800000000E+01 0.  1.
        -11    1    1    2    0    0  0.24639161555E+02 -0.28952277669E+02 -0.14890520901E+02  0.40829527025E+02  0.00000000000E+00 0.  1.
         11    1    1    2    0    0 -0.46297271892E+02 -0.69214225558E+01 -0.14575118400E+03  0.15308413083E+03  0.00000000000E+00 0. -1.
</event>
<event>
 7    1  0.2962307E-009  0.1750387E+03  0.7561462E-02  0.1172693E+00
         -2   -1    0    0    0  501 -0.00000000000E+00  0.00000000000E+00  0.37085226130E+02  0.37085226130E+02  0.00000000000E+00 0.  1.
          2   -1    0    0  501    0  0.00000000000E+00 -0.00000000000E+00 -0.87637911301E+03  0.87637911301E+03  0.00000000000E+00 0. -1.
         25    2    1    2    0    0  0.12185324773E+03 -0.75475410325E+02 -0.41858901465E+03  0.45979283182E+03  0.12509170022E+03 0.  0.
          5    1    3    3  502    0 -0.23602268517E+02 -0.27728295249E+02 -0.93819898711E+02  0.10072522639E+03  0.41800000000E+01 0. -1.
         -5    1    3    3    0  502  0.14545551625E+03 -0.47747115076E+02 -0.32476911593E+03  0.35906760543E+03  0.41800000000E+01 0. -1.
        -11    1    1    2    0    0 -0.34951610190E+02  0.63594169940E+02 -0.11810923134E+03  0.13862043151E+03  0.00000000000E+00 0.  1.
         11    1    1    2    0    0 -0.86901637541E+02  0.11881240385E+02 -0.30259564089E+03  0.31505107581E+03  0.00000000000E+00 0. -1.
</event>
<event>
 7    1  0.2844572E-009  0.9944882E+02  0.7561462E-02  0.1281459E+00
          3   -1    0    0  501    0  0.00000000000E+00  0.00000000000E+00  0.24864539267E+03  0.24864539267E+03  0.00000000000E+00 0. -1.
         -3   -1    0    0    0  501 -0.00000000000E+00 -0.00000000000E+00 -0.56037918927E+02  0.56037918927E+02  0.00000000000E+00 0.  1.
         25    2    1    2    0    0 -0.27063315002E+02 -0.45948728715E+01  0.59880464396E+02  0.14137571450E+03  0.12509151353E+03 0.  0.
          5    1    3    3  502    0  0.36196904617E+02  0.33594802643E+02  0.62026920703E+01  0.49947697218E+02  0.41800000000E+01 0. -1.
         -5    1    3    3    0  502 -0.63260219619E+02 -0.38189675514E+02  0.53677772326E+02  0.91428017281E+02  0.41800000000E+01 0. -1.
        -11    1    1    2    0    0  0.47425784497E+02 -0.12154409374E+02  0.30378615239E+02  0.57617661929E+02  0.00000000000E+00 0.  1.
         11    1    1    2    0    0 -0.20362469495E+02  0.16749282246E+02  0.10234839411E+03  0.10568993517E+03  0.00000000000E+00 0. -1.
</event>
<event>
 7    1  0.2844572E-009  0.1344078E+03  0.7561462E-02  0.1221058E+00
         -2   -1    0    0    0  501 -0.00000000000E+00  0.00000000000E+00  0.58451934859E+03  0.58451934859E+03  0.00000000000E+00 0.  1.
          2   -1    0    0  501    0  0.00000000000E+00 -0.00000000000E+00 -0.34579585686E+02  0.34579585686E+02  0.00000000000E+00 0. -1.
         25    2    1    2    0    0  0.18259180410E+02  0.78740102221E+02  0.20868746373E+03  0.25638173185E+03  0.12509090110E+03 0.  0.
          5    1    3    3  502    0  0.60766015635E+02  0.84551181241E+02  0.12947837833E+03  0.16620329047E+03  0.41800000000E+01 0. -1.
         -5    1    3    3    0  502 -0.42506835224E+02 -0.58110790198E+01  0.79209085401E+02  0.90178441382E+02  0.41800000000E+01 0. -1.
        -11    1    1    2    0    0  0.31520983034E+02 -0.60990770746E+02  0.21957782048E+03  0.23006056971E+03  0.00000000000E+00 0. -1.
         11    1    1    2    0    0 -0.49780163444E+02 -0.17749331475E+02  0.12167447869E+03  0.13265663272E+03  0.00000000000E+00 0.  1.
</event>
<event>
 7    1  0.2844572E-009  0.9638728E+02  0.7561462E-02  0.1288082E+00
         -2   -1    0    0    0  501 -0.00000000000E+00  0.00000000000E+00  0.38368629008E+02  0.38368629008E+02  0.00000000000E+00 0.  1.
          2   -1    0    0  501    0  0.00000000000E+00 -0.00000000000E+00 -0.32389996083E+03  0.32389996083E+03  0.00000000000E+00 0. -1.
         25    2    1    2    0    0 -0.58325373777E+01 -0.18850778416E+02 -0.13861867008E+03  0.18775341671E+03  0.12508732730E+03 0.  0.
          5    1    3    3  502    0 -0.87525433460E+01 -0.61560959040E+02 -0.26599028093E+02  0.67759422876E+02  0.41800000000E+01 0.  1.
         -5    1    3    3    0  502  0.29200059683E+01  0.42710180624E+02 -0.11201964199E+03  0.11999399383E+03  0.41800000000E+01 0.  1.
        -11    1    1    2    0    0  0.13467752112E+02 -0.32680533151E+02 -0.29408233831E+02  0.45980885279E+02  0.00000000000E+00 0.  1.
         11    1    1    2    0    0 -0.76352147346E+01  0.51531311567E+02 -0.11750442791E+03  0.12853428785E+03  0.00000000000E+00 0. -1.
</event>
<event>
 7    1  0.2844572E-009  0.1165141E+03  0.7561462E-02  0.1248961E+00
         -3   -1    0    0    0  501 -0.00000000000E+00  0.00000000000E+00  0.92713773816E+03  0.92713773816E+03  0.00000000000E+00 0.  1.
          3   -1    0    0  501    0  0.00000000000E+00 -0.00000000000E+00 -0.21081375385E+02  0.21081375385E+02  0.00000000000E+00 0. -1.
         25    2    1    2    0    0  0.89503627728E+02 -0.36998300829E+00  0.50932205244E+03  0.53204097322E+03  0.12509039859E+03 0.  0.
          5    1    3    3  502    0 -0.99786198393E+01 -0.10523902258E+02  0.29623520260E+03  0.29661944143E+03  0.41800000000E+01 0.  1.
         -5    1    3    3    0  502  0.99482247567E+02  0.10153919250E+02  0.21308684984E+03  0.23542153179E+03  0.41800000000E+01 0.  1.
        -11    1    1    2    0    0 -0.12391510330E+02 -0.31926201572E+02  0.19203434293E+03  0.19506414519E+03  0.00000000000E+00 0.  1.
         11    1    1    2    0    0 -0.77112117397E+02  0.32296184580E+02  0.20469996741E+03  0.22111399514E+03  0.00000000000E+00 0. -1.
</event>
<event>
 7    1  0.2844572E-009  0.1788932E+03  0.7561462E-02  0.1168879E+00
         -1   -1    0    0    0  501 -0.00000000000E+00  0.00000000000E+00  0.65720428146E+02  0.65720428146E+02  0.00000000000E+00 0.  1.
          1   -1    0    0  501    0  0.00000000000E+00 -0.00000000000E+00 -0.54483642846E+03  0.54483642846E+03  0.00000000000E+00 0. -1.
         25    2    1    2    0    0 -0.73973367248E+01 -0.15674310593E+03 -0.23038408351E+03  0.30552820275E+03  0.12509010710E+03 0.  0.
          5    1    3    3  502    0  0.42182181022E+02 -0.72463510489E+01 -0.45269309490E+02  0.62439000480E+02  0.41800000000E+01 0.  1.
         -5    1    3    3    0  502 -0.49579517747E+02 -0.14949675488E+03 -0.18511477402E+03  0.24308920227E+03  0.41800000000E+01 0.  1.
        -11    1    1    2    0    0 -0.11793892398E+01  0.78994303979E+02 -0.55454467359E+02  0.96522997105E+02  0.00000000000E+00 0.  1.
         11    1    1    2    0    0  0.85767259646E+01  0.77748801951E+02 -0.19327744944E+03  0.20850565675E+03  0.00000000000E+00 0. -1.
</event>
<event>
 7    1  0.2844572E-009  0.9239971E+02  0.7561462E-02  0.1297142E+00
          2   -1    0    0  501    0  0.00000000000E+00  0.00000000000E+00  0.92995427627E+03  0.92995427627E+03  0.00000000000E+00 0. -1.
         -2   -1    0    0    0  501 -0.00000000000E+00 -0.00000000000E+00 -0.15837558745E+02  0.15837558745E+02  0.00000000000E+00 0.  1.
         25    2    1    2    0    0 -0.70460584860E+01  0.67630534529E+01  0.73364835072E+03  0.74429991671E+03  0.12508827951E+03 0.  0.
          5    1    3    3  502    0 -0.51516511341E+02 -0.21278782520E+02  0.18866505990E+03  0.19677071620E+03  0.41800000000E+01 0. -1.
         -5    1    3    3    0  502  0.44470452855E+02  0.28041835973E+02  0.54498329082E+03  0.54752920051E+03  0.41800000000E+01 0. -1.
        -11    1    1    2    0    0  0.41123058264E+02  0.13149302532E+01  0.14842894119E+03  0.15402592492E+03  0.00000000000E+00 0. -1.
         11    1    1    2    0    0 -0.34076999778E+02 -0.80779837061E+01  0.32039425610E+02  0.47465993385E+02  0.00000000000E+00 0.  1.
</event>
<event>
 7    1  0.2844572E-009  0.1844743E+03  0.7561462E-02  0.1163542E+00
         -1   -1    0    0    0  501 -0.00000000000E+00  0.00000000000E+00  0.24596598672E+03  0.24596598672E+03  0.00000000000E+00 0.  1.
          1   -1    0    0  501    0  0.00000000000E+00 -0.00000000000E+00 -0.17997202557E+03  0.17997202557E+03  0.00000000000E+00 0. -1.
         25    2    1    2    0    0  0.16479915027E+03 -0.37807462770E+02 -0.26318932814E+02  0.21196585381E+03  0.12509465531E+03 0.  0.
          5    1    3    3  502    0  0.16064819854E+03 -0.81249166767E+01 -0.55221240619E+02  0.17011971015E+03  0.41800000000E+01 0.  1.
         -5    1    3    3    0  502  0.41509517291E+01 -0.29682546093E+02  0.28902307805E+02  0.41846143661E+02  0.41800000000E+01 0.  1.
        -11    1    1    2    0    0 -0.28232289920E+02  0.29691745841E+02 -0.11132962381E+02  0.42457093832E+02  0.00000000000E+00 0. -1.
         11    1    1    2    0    0 -0.13656686035E+03  0.81157169286E+01  0.10344585634E+03  0.17151506465E+03  0.00000000000E+00 0.  1.
</event>
<event>
 7    1  0.2844572E-009  0.7973383E+02  0.7561462E-02  0.1329808E+00
         -2   -1    0    0    0  501 -0.00000000000E+00  0.00000000000E+00  0.40786626569E+02  0.40786626569E+02  0.00000000000E+00 0.  1.
          2   -1    0    0  501    0  0.00000000000E+00 -0.00000000000E+00 -0.31882690508E+03  0.31882690508E+03  0.00000000000E+00 0. -1.
         25    2    1    2    0    0 -0.40061723298E+01 -0.35352272756E+02 -0.15469788740E+03  0.20210148316E+03  0.12509092903E+03 0.  0.
          5    1    3    3  502    0 -0.43920818032E+02 -0.24593054239E+02 -0.15232769728E+03  0.16048381954E+03  0.41800000000E+01 0.  1.
         -5    1    3    3    0  502  0.39914645703E+02 -0.10759218516E+02 -0.23701901148E+01  0.41617663628E+02  0.41800000000E+01 0.  1.
        -11    1    1    2    0    0 -0.26268752138E+02  0.22221588317E+02 -0.51390718780E+01  0.34788739356E+02  0.00000000000E+00 0.  1.
         11    1    1    2    0    0  0.30274924468E+02  0.13130684439E+02 -0.11820331923E+03  0.12272330913E+03  0.00000000000E+00 0. -1.
</event>
<event>
 7    1  0.2844572E-009  0.1152191E+03  0.7561462E-02  0.1251199E+00
         -1   -1    0    0    0  501 -0.00000000000E+00  0.00000000000E+00  0.58132258847E+03  0.58132258847E+03  0.00000000000E+00 0.  1.
          1   -1    0    0  501    0  0.00000000000E+00 -0.00000000000E+00 -0.47860561398E+02  0.47860561398E+02  0.00000000000E+00 0. -1.
         25    2    1    2    0    0  0.79722852993E+02 -0.15536138246E+02  0.13151338828E+03  0.19885439060E+03  0.12510072934E+03 0.  0.
          5    1    3    3  502    0 -0.14313050267E+02  0.36389945541E+02  0.51731855555E+02  0.64982680951E+02  0.41800000000E+01 0. -1.
         -5    1    3    3    0  502  0.94035903260E+02 -0.51926083787E+02  0.79781532726E+02  0.13387170965E+03  0.41800000000E+01 0. -1.
        -11    1    1    2    0    0 -0.69865640181E+02  0.63791119394E+01  0.40911381237E+03  0.41508554807E+03  0.00000000000E+00 0.  1.
         11    1    1    2    0    0 -0.98572128114E+01  0.91570263069E+01 -0.71651735801E+01  0.15243211198E+02  0.00000000000E+00 0. -1.
</event>
<event>
 7    1  0.2844572E-009  0.9539783E+02  0.7561462E-02  0.1290283E+00
         -1   -1    0    0    0  501 -0.00000000000E+00  0.00000000000E+00  0.16723920595E+02  0.16723920595E+02  0.00000000000E+00 0.  1.
          1   -1    0    0  501    0  0.00000000000E+00 -0.00000000000E+00 -0.10425778175E+04  0.10425778175E+04  0.00000000000E+00 0. -1.
         25    2    1    2    0    0  0.68613657263E+02 -0.19689675220E+02 -0.51299091534E+03  0.53282555087E+03  0.12509145120E+03 0.  0.
          5    1    3    3  502    0  0.20014705494E+02 -0.23658493991E+01 -0.45350204787E+03  0.45396890367E+03  0.41800000000E+01 0. -1.
         -5    1    3    3    0  502  0.48598951769E+02 -0.17323825821E+02 -0.59488867472E+02  0.78856647198E+02  0.41800000000E+01 0. -1.
        -11    1    1    2    0    0  0.12154518685E+02 -0.23794752910E+02 -0.96694619057E+02  0.10031835298E+03  0.00000000000E+00 0. -1.
         11    1    1    2    0    0 -0.80768175948E+02  0.43484428131E+02 -0.41616836250E+03  0.42615783424E+03  0.00000000000E+00 0.  1.
</event>
<event>
 7    1  0.2844572E-009  0.7835502E+02  0.7561462E-02  0.1333786E+00
         -1   -1    0    0    0  501 -0.00000000000E+00  0.00000000000E+00  0.35445498386E+02  0.35445498386E+02  0.00000000000E+00 0.  1.
          1   -1    0    0  501    0  0.00000000000E+00 -0.00000000000E+00 -0.41046054463E+03  0.41046054463E+03  0.00000000000E+00 0. -1.
         25    2    1    2    0    0  0.44165340320E+02  0.30893782363E+02 -0.20070759552E+03  0.24256164833E+03  0.12509041237E+03 0.  0.
          5    1    3    3  502    0  0.17861199468E+02 -0.15293117868E+01 -0.19974426788E+03  0.20059064333E+03  0.41800000000E+01 0. -1.
         -5    1    3    3    0  502  0.26304140852E+02  0.32423094150E+02 -0.96332763524E+00  0.41971004996E+02  0.41800000000E+01 0. -1.
        -11    1    1    2    0    0 -0.64670626852E+02 -0.72966026194E+01 -0.15075673965E+03  0.16420452167E+03  0.00000000000E+00 0. -1.
         11    1    1    2    0    0  0.20505286532E+02 -0.23597179744E+02 -0.23550711078E+02  0.39139873019E+02  0.00000000000E+00 0.  1.
</event>
<event>
 7    1  0.2844572E-009  0.2457795E+03  0.7561462E-02  0.1116001E+00
          1   -1    0    0  501    0  0.00000000000E+00  0.00000000000E+00  0.53945615471E+02  0.53945615471E+02  0.00000000000E+00 0. -1.
         -1   -1    0    0    0  501 -0.00000000000E+00 -0.00000000000E+00 -0.12125788753E+04  0.12125788753E+04  0.00000000000E+00 0.  1.
         25    2    1    2    0    0  0.13838354435E+03 -0.18169345214E+03 -0.66742832164E+03  0.71642998013E+03  0.12509530764E+03 0.  0.
          5    1    3    3  502    0  0.71026520059E+02 -0.17307773188E+03 -0.41968106342E+03  0.45951097399E+03  0.41800000000E+01 0.  1.
         -5    1    3    3    0  502  0.67357024295E+02 -0.86157202656E+01 -0.24774725823E+03  0.25691900614E+03  0.41800000000E+01 0.  1.
        -11    1    1    2    0    0 -0.74672516765E+02  0.14441304723E+03 -0.40611701733E+03  0.43744959108E+03  0.00000000000E+00 0.  1.
         11    1    1    2    0    0 -0.63711027590E+02  0.37280404916E+02 -0.85087920829E+02  0.11264491954E+03  0.00000000000E+00 0. -1.
</event>
<event>
 7    1  0.2844572E-009  0.5498800E+02  0.7561462E-02  0.1420156E+00
          1   -1    0    0  501    0  0.00000000000E+00  0.00000000000E+00  0.39017256789E+02  0.39017256789E+02  0.00000000000E+00 0. -1.
         -1   -1    0    0    0  501 -0.00000000000E+00 -0.00000000000E+00 -0.36201784750E+03  0.36201784750E+03  0.00000000000E+00 0.  1.
         25    2    1    2    0    0  0.96325772716E+01  0.35538530041E+01 -0.26379803212E+03  0.29214183833E+03  0.12510809541E+03 0.  0.
          5    1    3    3  502    0  0.97278932331E+01  0.39035546618E+02 -0.18886823121E+02  0.44638439647E+02  0.41800000000E+01 0. -1.
         -5    1    3    3    0  502 -0.95315961550E-01 -0.35481693614E+02 -0.24491120899E+03  0.24750339868E+03  0.41800000000E+01 0. -1.
        -11    1    1    2    0    0 -0.20749472149E+02  0.28956171972E+01 -0.80958112023E+02  0.83625002815E+02  0.00000000000E+00 0.  1.
         11    1    1    2    0    0  0.11116894877E+02 -0.64494702014E+01  0.21755553427E+02  0.25268263148E+02  0.00000000000E+00 0. -1.
</event>
<event>
 7    1  0.2844572E-009  0.1010311E+03  0.7561462E-02  0.1278142E+00
         -2   -1    0    0    0  501 -0.00000000000E+00  0.00000000000E+00  0.71813994942E+02  0.71813994942E+02  0.00000000000E+00 0. -1.
          2   -1    0    0  501    0  0.00000000000E+00 -0.00000000000E+00 -0.27810825727E+03  0.27810825727E+03  0.00000000000E+00 0.  1.
         25    2    1    2    0    0  0.41716333046E+02 -0.66876290408E+02 -0.16952732518E+03  0.22494331231E+03  0.12508912466E+03 0.  0.
          5    1    3    3  502    0  0.31812740971E+02 -0.82546940952E+02 -0.18186729623E+03  0.20228503105E+03  0.41800000000E+01 0.  1.
         -5    1    3    3    0  502  0.99035920756E+01  0.15670650544E+02  0.12339971046E+02  0.22658281265E+02  0.41800000000E+01 0.  1.
        -11    1    1    2    0    0 -0.31075737328E+02  0.47166998221E+01 -0.51391678223E+02  0.60241624299E+02  0.00000000000E+00 0.  1.
         11    1    1    2    0    0 -0.10640595718E+02  0.62159590586E+02  0.14624741080E+02  0.64737315597E+02  0.00000000000E+00 0. -1.
</event>
<event>
 7    1  0.2844572E-009  0.1259333E+03  0.7561462E-02  0.1233618E+00
          2   -1    0    0  501    0  0.00000000000E+00  0.00000000000E+00  0.89346127845E+03  0.89346127845E+03  0.00000000000E+00 0. -1.
         -2   -1    0    0    0  501 -0.00000000000E+00 -0.00000000000E+00 -0.35451105550E+02  0.35451105550E+02  0.00000000000E+00 0.  1.
         25    2    1    2    0    0  0.11065467705E+03  0.40649271826E+02  0.65507822499E+03  0.67725201722E+03  0.12508394432E+03 0.  0.
          5    1    3    3  502    0  0.59635368989E+02  0.52974714806E+02  0.58044328124E+03  0.58591345161E+03  0.41800000000E+01 0.  1.
         -5    1    3    3    0  502  0.51019308061E+02 -0.12325442980E+02  0.74634943747E+02  0.91338565610E+02  0.41800000000E+01 0.  1.
        -11    1    1    2    0    0 -0.75252821257E+02 -0.18215346850E+02  0.47858822941E+02  0.91023364591E+02  0.00000000000E+00 0.  1.
         11    1    1    2    0    0 -0.35401855793E+02 -0.22433924975E+02  0.15507312497E+03  0.16063700219E+03  0.00000000000E+00 0. -1.
</event>
<event>
 7    1  0.2844572E-009  0.1118604E+03  0.7561462E-02  0.1257163E+00
          2   -1    0    0  501    0  0.00000000000E+00  0.00000000000E+00  0.22465029795E+03  0.22465029795E+03  0.00000000000E+00 0. -1.
         -2   -1    0    0    0  501 -0.00000000000E+00 -0.00000000000E+00 -0.61178217868E+02  0.61178217868E+02  0.00000000000E+00 0.  1.
         25    2    1    2    0    0 -0.31090671657E+02 -0.17224343050E+02  0.62442912494E+02  0.14425514080E+03  0.12508845059E+03 0.  0.
          5    1    3    3  502    0  0.29093575248E+02  0.37143532093E+02  0.33597878308E+02  0.58072092470E+02  0.41800000000E+01 0.  1.
         -5    1    3    3    0  502 -0.60184246904E+02 -0.54367875143E+02  0.28845034187E+02  0.86183048335E+02  0.41800000000E+01 0.  1.
        -11    1    1    2    0    0  0.29655702214E+02 -0.33303729630E+02  0.27655132183E+02  0.52472901741E+02  0.00000000000E+00 0.  1.
         11    1    1    2    0    0  0.14349694430E+01  0.50528072679E+02  0.73374035405E+02  0.89100473274E+02  0.00000000000E+00 0. -1.
</event>
<event>
 7    1  0.2844572E-009  0.9813379E+02  0.7561462E-02  0.1284270E+00
          1   -1    0    0  501    0  0.00000000000E+00  0.00000000000E+00  0.26683588574E+02  0.26683588574E+02  0.00000000000E+00 0. -1.
         -1   -1    0    0    0  501 -0.00000000000E+00 -0.00000000000E+00 -0.50996095668E+03  0.50996095668E+03  0.00000000000E+00 0.  1.
         25    2    1    2    0    0 -0.16936450234E+02 -0.10868809970E+02 -0.33559595778E+03  0.35871703526E+03  0.12509312584E+03 0.  0.
          5    1    3    3  502    0  0.93297507208E+01  0.40501471552E+02 -0.26099080590E+03  0.26431247910E+03  0.41800000000E+01 0.  1.
         -5    1    3    3    0  502 -0.26266200955E+02 -0.51370281522E+02 -0.74605151880E+02  0.94404556157E+02  0.41800000000E+01 0.  1.
        -11    1    1    2    0    0  0.66378807499E+01  0.52930194121E+02 -0.61026355217E+02  0.81054814426E+02  0.00000000000E+00 0.  1.
         11    1    1    2    0    0  0.10298569484E+02 -0.42061384151E+02 -0.86655055115E+02  0.96872695571E+02  0.00000000000E+00 0. -1.
</event>
<event>
 7    1  0.2844572E-009  0.1194155E+03  0.7561462E-02  0.1244064E+00
          1   -1    0    0  501    0  0.00000000000E+00  0.00000000000E+00  0.73677844804E+02  0.73677844804E+02  0.00000000000E+00 0. -1.
         -1   -1    0    0    0  501 -0.00000000000E+00 -0.00000000000E+00 -0.28783637535E+03  0.28783637535E+03  0.00000000000E+00 0.  1.
         25    2    1    2    0    0 -0.27607882188E+02  0.57344763502E+02 -0.20724560655E+03  0.25029844081E+03  0.12509177022E+03 0.  0.
          5    1    3    3  502    0  0.45347372904E+00 -0.32932821923E+02 -0.15855976623E+02  0.36792129497E+02  0.41800000000E+01 0. -1.
         -5    1    3    3    0  502 -0.28061355917E+02  0.90277585425E+02 -0.19138962992E+03  0.21350631131E+03  0.41800000000E+01 0. -1.
        -11    1    1    2    0    0  0.59686745650E+02 -0.50534741452E+02 -0.50080098945E+01  0.78366752280E+02  0.00000000000E+00 0.  1.
         11    1    1    2    0    0 -0.32078863461E+02 -0.68100220497E+01 -0.19049140985E+01  0.32849027063E+02  0.00000000000E+00 0. -1.
</event>
<event>
 7    1  0.2844572E-009  0.1289203E+03  0.7561462E-02  0.1229067E+00
         -1   -1    0    0    0  501 -0.00000000000E+00  0.00000000000E+00  0.12052959218E+03  0.12052959218E+03  0.00000000000E+00 0.  1.
          1   -1    0    0  501    0  0.00000000000E+00 -0.00000000000E+00 -0.31864776061E+03  0.31864776061E+03  0.00000000000E+00 0. -1.
         25    2    1    2    0    0  0.55102993076E+02  0.77788004096E+02 -0.25139038008E+03  0.29653578879E+03  0.12509611269E+03 0.  0.
          5    1    3    3  502    0  0.93194085912E+02  0.34765897084E+02 -0.15386928637E+03  0.18326765927E+03  0.41800000000E+01 0.  1.
         -5    1    3    3    0  502 -0.38091092836E+02  0.43022107011E+02 -0.97521093714E+02  0.11326812952E+03  0.41800000000E+01 0.  1.
        -11    1    1    2    0    0 -0.26610026296E+02 -0.63387778690E+02  0.76731903113E+02  0.10302372999E+03  0.00000000000E+00 0.  1.
         11    1    1    2    0    0 -0.28492966780E+02 -0.14400225406E+02 -0.23459691459E+02  0.39617834002E+02  0.00000000000E+00 0. -1.
</event>
<event>
 7    1  0.2844572E-009  0.1088107E+03  0.7561462E-02  0.1262788E+00
         -1   -1    0    0    0  501 -0.00000000000E+00  0.00000000000E+00  0.66583362935E+02  0.66583362935E+02  0.00000000000E+00 0.  1.
          1   -1    0    0  501    0  0.00000000000E+00 -0.00000000000E+00 -0.25134303245E+03  0.25134303245E+03  0.00000000000E+00 0. -1.
         25    2    1    2    0    0  0.19567512138E+01  0.66678558156E+02 -0.12360401533E+03  0.18808269354E+03  0.12508912027E+03 0.  0.
          5    1    3    3  502    0  0.43376427807E+02  0.52976973342E+02 -0.13958869392E+02  0.70002833003E+02  0.41800000000E+01 0. -1.
         -5    1    3    3    0  502 -0.41419676593E+02  0.13701584813E+02 -0.10964514594E+03  0.11807986053E+03  0.41800000000E+01 0. -1.
        -11    1    1    2    0    0 -0.39069605843E+02 -0.15621130599E+02 -0.17411788269E+00  0.42077121324E+02  0.00000000000E+00 0. -1.
         11    1    1    2    0    0  0.37112854629E+02 -0.51057427557E+02 -0.60981536305E+02  0.87766580528E+02  0.00000000000E+00 0.  1.
</event>
<event>
 7    1  0.2844572E-009  0.4300798E+02  0.7561462E-02  0.1487175E+00
         -2   -1    0    0    0  501 -0.00000000000E+00  0.00000000000E+00  0.10078916571E+03  0.10078916571E+03  0.00000000000E+00 0.  1.
          2   -1    0    0  501    0  0.00000000000E+00 -0.00000000000E+00 -0.19622180097E+03  0.19622180097E+03  0.00000000000E+00 0. -1.
         25    2    1    2    0    0  0.28962672085E+01  0.33989325088E+02  0.34214019115E+02  0.13408989424E+03  0.12508332443E+03 0.  0.
          5    1    3    3  502    0  0.14235743184E+02  0.34002018457E+01  0.77919018724E+02  0.79391836076E+02  0.41800000000E+01 0.  1.
         -5    1    3    3    0  502 -0.11339475975E+02  0.30589123242E+02 -0.43704999609E+02  0.54698058164E+02  0.41800000000E+01 0.  1.
        -11    1    1    2    0    0 -0.87172476490E+01 -0.10219324531E+02  0.12700326509E+02  0.18485759219E+02  0.00000000000E+00 0.  1.
         11    1    1    2    0    0  0.58209804404E+01 -0.23770000557E+02 -0.14234698088E+03  0.14443531323E+03  0.00000000000E+00 0. -1.
</event>
<event>
 7    1  0.2844572E-009  0.1186870E+03  0.7561462E-02  0.1245279E+00
          1   -1    0    0  501    0  0.00000000000E+00  0.00000000000E+00  0.10570762525E+03  0.10570762525E+03  0.00000000000E+00 0. -1.
         -1   -1    0    0    0  501 -0.00000000000E+00 -0.00000000000E+00 -0.16059707088E+03  0.16059707088E+03  0.00000000000E+00 0.  1.
         25    2    1    2    0    0  0.51042474263E+02  0.43090114294E+02 -0.56836172424E+02  0.15276996111E+03  0.12508484477E+03 0.  0.
          5    1    3    3  502    0 -0.29924897708E+01  0.75886459651E+02 -0.44849828440E+02  0.88298863325E+02  0.41800000000E+01 0.  1.
         -5    1    3    3    0  502  0.54034964034E+02 -0.32796345357E+02 -0.11986343984E+02  0.64471097781E+02  0.41800000000E+01 0.  1.
        -11    1    1    2    0    0 -0.53222260577E+01 -0.51248537358E+02  0.29660859452E+02  0.59451705231E+02  0.00000000000E+00 0. -1.
         11    1    1    2    0    0 -0.45720248205E+02  0.81584230632E+01 -0.27714132663E+02  0.54083029798E+02  0.00000000000E+00 0.  1.
</event>
<event>
 7    1  0.2844572E-009  0.1345013E+03  0.7561462E-02  0.1220925E+00
          2   -1    0    0  501    0  0.00000000000E+00  0.00000000000E+00  0.21793263294E+03  0.21793263294E+03  0.00000000000E+00 0. -1.
         -2   -1    0    0    0  501 -0.00000000000E+00 -0.00000000000E+00 -0.13572264348E+03  0.13572264348E+03  0.00000000000E+00 0.  1.
         25    2    1    2    0    0 -0.76552860518E+02 -0.40874897399E+02 -0.60168467652E+02  0.16370320962E+03  0.12508956251E+03 0.  0.
          5    1    3    3  502    0 -0.10522504125E+03 -0.47005143882E+02 -0.66912074782E+02  0.13332850786E+03  0.41800000000E+01 0.  1.
         -5    1    3    3    0  502  0.28672180730E+02  0.61302464837E+01  0.67436071304E+01  0.30374701758E+02  0.41800000000E+01 0.  1.
        -11    1    1    2    0    0  0.88180324507E+00 -0.24226241099E+02  0.41316973015E+02  0.47903868256E+02  0.00000000000E+00 0.  1.
         11    1    1    2    0    0  0.75671057273E+02  0.65101138497E+02  0.10106148410E+03  0.14204819855E+03  0.00000000000E+00 0. -1.
</event>
<event>
 7    1  0.2844572E-009  0.9957341E+02  0.7561462E-02  0.1281196E+00
         -2   -1    0    0    0  501 -0.00000000000E+00  0.00000000000E+00  0.25582456588E+02  0.25582456588E+02  0.00000000000E+00 0.  1.
          2   -1    0    0  501    0  0.00000000000E+00 -0.00000000000E+00 -0.54465474260E+03  0.54465474260E+03  0.00000000000E+00 0. -1.
         25    2    1    2    0    0 -0.65307313257E+01 -0.29957540263E+02 -0.37791243920E+03  0.39925597690E+03  0.12508964273E+03 0.  0.
          5    1    3    3  502    0  0.58650705463E+02 -0.10442776817E+02 -0.15307924160E+03  0.16431580401E+03  0.41800000000E+01 0.  1.
         -5    1    3    3    0  502 -0.65181436788E+02 -0.19514763445E+02 -0.22483319760E+03  0.23494017289E+03  0.41800000000E+01 0.  1.
        -11    1    1    2    0    0 -0.29042474774E+02  0.12217329325E+02 -0.87020714161E+01  0.32687222638E+02  0.00000000000E+00 0.  1.
         11    1    1    2    0    0  0.35573206100E+02  0.17740210937E+02 -0.13245777540E+03  0.13829399965E+03  0.00000000000E+00 0. -1.
</event>
<event>
 7    1  0.2844572E-009  0.1146971E+03  0.7561462E-02  0.1252111E+00
         -2   -1    0    0    0  501 -0.00000000000E+00  0.00000000000E+00  0.16853345378E+03  0.16853345378E+03  0.00000000000E+00 0.  1.
          2   -1    0    0  501    0  0.00000000000E+00 -0.00000000000E+00 -0.16181756972E+03  0.16181756972E+03  0.00000000000E+00 0. -1.
         25    2    1    2    0    0 -0.37907018190E+02 -0.26172968205E+02  0.32081007560E+02  0.13711041769E+03  0.12509240305E+03 0.  0.
          5    1    3    3  502    0 -0.46772067195E+02 -0.45691881268E+02  0.68407768339E+02  0.94723119948E+02  0.41800000000E+01 0.  1.
         -5    1    3    3    0  502  0.88650490051E+01  0.19518913062E+02 -0.36326760779E+02  0.42387297740E+02  0.41800000000E+01 0.  1.
        -11    1    1    2    0    0  0.40223672892E+02  0.79266816247E+02  0.49260484609E+02  0.10162562355E+03  0.00000000000E+00 0.  1.
         11    1    1    2    0    0 -0.23166547020E+01 -0.53093848042E+02 -0.74625608106E+02  0.91614982258E+02  0.00000000000E+00 0. -1.
</event>
<event>
 7    1  0.2844572E-009  0.2330349E+03  0.7561462E-02  0.1124522E+00
         -1   -1    0    0    0  501 -0.00000000000E+00  0.00000000000E+00  0.54046773407E+02  0.54046773407E+02  0.00000000000E+00 0.  1.
          1   -1    0    0  501    0  0.00000000000E+00 -0.00000000000E+00 -0.11782669942E+04  0.11782669942E+04  0.00000000000E+00 0. -1.
         25    2    1    2    0    0 -0.45280523197E+01  0.22309050386E+03 -0.68662319375E+03  0.73272696760E+03  0.12509005832E+03 0.  0.
          5    1    3    3  502    0 -0.37577286688E+02  0.46043952007E+02 -0.78923797799E+02  0.98886481636E+02  0.41800000000E+01 0.  1.
         -5    1    3    3    0  502  0.33049234368E+02  0.17704655185E+03 -0.60769939595E+03  0.63384048597E+03  0.41800000000E+01 0.  1.
        -11    1    1    2    0    0  0.18197924389E+02 -0.60590091916E+02 -0.21188687733E+03  0.22112976389E+03  0.00000000000E+00 0.  1.
         11    1    1    2    0    0 -0.13669872069E+02 -0.16250041194E+03 -0.22571014975E+03  0.27845703615E+03  0.00000000000E+00 0. -1.
</event>
<event>
 7    1  0.2844572E-009  0.1043312E+03  0.7561462E-02  0.1271443E+00
         -1   -1    0    0    0  501 -0.00000000000E+00  0.00000000000E+00  0.27173468178E+03  0.27173468178E+03  0.00000000000E+00 0.  1.
          1   -1    0    0  501    0  0.00000000000E+00 -0.00000000000E+00 -0.52437822056E+02  0.52437822056E+02  0.00000000000E+00 0. -1.
         25    2    1    2    0    0 -0.15079903195E+02  0.43275339777E+02  0.11866373770E+03  0.17841071248E+03  0.12509652740E+03 0.  0.
          5    1    3    3  502    0 -0.18578270471E+02  0.80146039852E+02  0.40454873408E+02  0.91774773332E+02  0.41800000000E+01 0.  1.
         -5    1    3    3    0  502  0.34983672764E+01 -0.36870700075E+02  0.78208864292E+02  0.86635939145E+02  0.41800000000E+01 0.  1.
        -11    1    1    2    0    0  0.45015473852E+02 -0.37359965485E+02  0.99260700387E+02  0.11521652029E+03  0.00000000000E+00 0.  1.
         11    1    1    2    0    0 -0.29935570657E+02 -0.59153742916E+01  0.13724216416E+01  0.30545271070E+02  0.00000000000E+00 0. -1.
</event>
<event>
 7    1  0.2844572E-009  0.1111880E+03  0.7561462E-02  0.1258386E+00
         -3   -1    0    0    0  501 -0.00000000000E+00  0.00000000000E+00  0.34800551800E+02  0.34800551800E+02  0.00000000000E+00 0.  1.
          3   -1    0    0  501    0  0.00000000000E+00 -0.00000000000E+00 -0.37244670585E+03  0.37244670585E+03  0.00000000000E+00 0. -1.
         25    2    1    2    0    0 -0.27699627400E+02 -0.70873638907E+01 -0.19058441123E+03  0.22975492644E+03  0.12508960122E+03 0.  0.
          5    1    3    3  502    0 -0.74287869239E+02  0.56662676596E+01 -0.82186143428E+02  0.11100823698E+03  0.41800000000E+01 0.  1.
         -5    1    3    3    0  502  0.46588241839E+02 -0.12753631550E+02 -0.10839826780E+03  0.11874668946E+03  0.41800000000E+01 0.  1.
        -11    1    1    2    0    0  0.23119710056E+02 -0.43082419233E+02 -0.68305279821E+02  0.84001351724E+02  0.00000000000E+00 0.  1.
         11    1    1    2    0    0  0.45799173437E+01  0.50169783123E+02 -0.78756462999E+02  0.93490979488E+02  0.00000000000E+00 0. -1.
</event>
<event>
 7    1  0.2844572E-009  0.1170984E+03  0.7561462E-02  0.1247962E+00
          2   -1    0    0  501    0  0.00000000000E+00  0.00000000000E+00  0.21088758904E+03  0.21088758904E+03  0.00000000000E+00 0.  1.
         -2   -1    0    0    0  501 -0.00000000000E+00 -0.00000000000E+00 -0.91131531472E+02  0.91131531472E+02  0.00000000000E+00 0. -1.
         25    2    1    2    0    0 -0.36099079567E+02  0.50365547590E+02  0.13115478655E+03  0.19154377398E+03  0.12509039686E+03 0.  0.
          5    1    3    3  502    0  0.14566198936E+02  0.78289521943E+02  0.60291619259E+02  0.99969871213E+02  0.41800000000E+01 0. -1.
         -5    1    3    3    0  502 -0.50665278502E+02 -0.27923974353E+02  0.70863167292E+02  0.91573902767E+02  0.41800000000E+01 0. -1.
        -11    1    1    2    0    0 -0.22366786518E+02 -0.22355160193E+02  0.21040210485E+02  0.37983111822E+02  0.00000000000E+00 0.  1.
         11    1    1    2    0    0  0.58465866084E+02 -0.28010387397E+02 -0.32438939470E+02  0.72492234709E+02  0.00000000000E+00 0. -1.
</event>
<event>
 7    1  0.2844572E-009  0.1807258E+03  0.7561462E-02  0.1167102E+00
          2   -1    0    0  501    0  0.00000000000E+00  0.00000000000E+00  0.28805137530E+03  0.28805137530E+03  0.00000000000E+00 0.  1.
         -2   -1    0    0    0  501 -0.00000000000E+00 -0.00000000000E+00 -0.14875880198E+03  0.14875880198E+03  0.00000000000E+00 0. -1.
         25    2    1    2    0    0 -0.13487389950E+03 -0.75511536357E+02 -0.30065793768E+01  0.19886828206E+03  0.12508634299E+03 0.  0.
          5    1    3    3  502    0  0.14952123226E+01 -0.33487963327E+02  0.37502479538E+02  0.50473633901E+02  0.41800000000E+01 0.  1.
         -5    1    3    3    0  502 -0.13636911182E+03 -0.42023573030E+02 -0.40509058915E+02  0.14839464816E+03  0.41800000000E+01 0.  1.
        -11    1    1    2    0    0  0.97219232688E+02 -0.36112182735E+01  0.45588223347E+02  0.10743791793E+03  0.00000000000E+00 0. -1.
         11    1    1    2    0    0  0.37654666809E+02  0.79122754631E+02  0.96710929351E+02  0.13050397729E+03  0.00000000000E+00 0.  1.
</event>
<event>
 7    1  0.2844572E-009  0.2260408E+03  0.7561462E-02  0.1129458E+00
          4   -1    0    0  501    0  0.00000000000E+00  0.00000000000E+00  0.10773456019E+03  0.10773456019E+03  0.00000000000E+00 0. -1.
         -4   -1    0    0    0  501 -0.00000000000E+00 -0.00000000000E+00 -0.60697800751E+03  0.60697800751E+03  0.00000000000E+00 0.  1.
         25    2    1    2    0    0  0.13419819896E+03 -0.15490822041E+03 -0.40712535980E+03  0.47265674210E+03  0.12509046286E+03 0.  0.
          5    1    3    3  502    0  0.14094642197E+03 -0.84530312273E+02 -0.23761724365E+03  0.28894756347E+03  0.41800000000E+01 0. -1.
         -5    1    3    3    0  502 -0.67482230092E+01 -0.70377908141E+02 -0.16950811615E+03  0.18370917862E+03  0.41800000000E+01 0. -1.
        -11    1    1    2    0    0 -0.79573309005E+02  0.13864761401E+03 -0.93214803803E+02  0.18505153884E+03  0.00000000000E+00 0.  1.
         11    1    1    2    0    0 -0.54624889953E+02  0.16260606402E+02  0.10967162900E+01  0.57004286765E+02  0.00000000000E+00 0. -1.
</event>
<event>
 7    1  0.2844572E-009  0.1881514E+03  0.7561462E-02  0.1160139E+00
         -2   -1    0    0    0  501 -0.00000000000E+00  0.00000000000E+00  0.40529784657E+02  0.40529784657E+02  0.00000000000E+00 0.  1.
          2   -1    0    0  501    0  0.00000000000E+00 -0.00000000000E+00 -0.13275029139E+04  0.13275029139E+04  0.00000000000E+00 0. -1.
         25    2    1    2    0    0 -0.65478688085E+02 -0.16628136948E+03 -0.95965628324E+03  0.98413645302E+03  0.12508966296E+03 0.  0.
          5    1    3    3  502    0 -0.64057598713E+02 -0.16812279503E+03 -0.96208507790E+03  0.97877158708E+03  0.41800000000E+01 0. -1.
         -5    1    3    3    0  502 -0.14210893720E+01  0.18414255492E+01  0.24287946612E+01  0.53648659408E+01  0.41800000000E+01 0. -1.
        -11    1    1    2    0    0  0.75842678631E+02  0.10569030482E+03 -0.16357481159E+03  0.20899586461E+03  0.00000000000E+00 0.  1.
         11    1    1    2    0    0 -0.10363990546E+02  0.60591064661E+02 -0.16374203444E+03  0.17490038096E+03  0.00000000000E+00 0. -1.
</event>
<event>
 7    1  0.2844572E-009  0.7633129E+02  0.7561462E-02  0.1339797E+00
         -2   -1    0    0    0  501 -0.00000000000E+00  0.00000000000E+00  0.29472204252E+02  0.29472204252E+02  0.00000000000E+00 0.  1.
          2   -1    0    0  501    0  0.00000000000E+00 -0.00000000000E+00 -0.50111068119E+03  0.50111068119E+03  0.00000000000E+00 0. -1.
         25    2    1    2    0    0  0.19389822010E+02 -0.27439059105E+02 -0.36439675243E+03  0.38673130116E+03  0.12508892418E+03 0.  0.
          5    1    3    3  502    0  0.75733443754E+01  0.13304038977E+02  0.36013485731E+01  0.16272526223E+02  0.41800000000E+01 0.  1.
         -5    1    3    3    0  502  0.11816477634E+02 -0.40743098082E+02 -0.36799810100E+03  0.37045877493E+03  0.41800000000E+01 0.  1.
        -11    1    1    2    0    0  0.35248114794E+02  0.77594762862E+01 -0.28377904472E+02  0.45912357062E+02  0.00000000000E+00 0. -1.
         11    1    1    2    0    0 -0.54637936804E+02  0.19679582819E+02 -0.78863820038E+02  0.97939227223E+02  0.00000000000E+00 0.  1.
</event>
<event>
 7    1  0.2844572E-009  0.1353776E+03  0.7561462E-02  0.1219688E+00
         -1   -1    0    0    0  501 -0.00000000000E+00  0.00000000000E+00  0.89268178730E+02  0.89268178730E+02  0.00000000000E+00 0.  1.
          1   -1    0    0  501    0  0.00000000000E+00 -0.00000000000E+00 -0.28043669301E+03  0.28043669301E+03  0.00000000000E+00 0. -1.
         25    2    1    2    0    0 -0.48465177068E+02 -0.91106088342E+02 -0.43715219665E+02  0.16795106358E+03  0.12508935448E+03 0.  0.
          5    1    3    3  502    0 -0.38403788522E+02  0.55742885658E+01 -0.57697480806E+02  0.69659136925E+02  0.41800000000E+01 0. -1.
         -5    1    3    3    0  502 -0.10061388547E+02 -0.96680376907E+02  0.13982261141E+02  0.98291926652E+02  0.41800000000E+01 0. -1.
        -11    1    1    2    0    0  0.26147214820E+02  0.10495742879E+03 -0.98963651225E+02  0.14660676303E+03  0.00000000000E+00 0. -1.
         11    1    1    2    0    0  0.22317962249E+02 -0.13851340449E+02 -0.48489643394E+02  0.55147045140E+02  0.00000000000E+00 0.  1.
</event>
<event>
 7    1  0.2844572E-009  0.1410463E+03  0.7561462E-02  0.1211928E+00
          2   -1    0    0  501    0  0.00000000000E+00  0.00000000000E+00  0.18062777736E+03  0.18062777736E+03  0.00000000000E+00 0.  1.
         -2   -1    0    0    0  501 -0.00000000000E+00 -0.00000000000E+00 -0.11282570109E+03  0.11282570109E+03  0.00000000000E+00 0. -1.
         25    2    1    2    0    0 -0.61608366708E+02 -0.65491467728E+02  0.49982784254E+02  0.16195943114E+03  0.12509138827E+03 0.  0.
          5    1    3    3  502    0  0.31241165932E+02  0.11267424768E+02  0.12365896337E+02  0.35684073505E+02  0.41800000000E+01 0.  1.
         -5    1    3    3    0  502 -0.92849532640E+02 -0.76758892496E+02  0.37616887917E+02  0.12627535763E+03  0.41800000000E+01 0.  1.
        -11    1    1    2    0    0 -0.22077688651E+02  0.44042307842E+00  0.12479286545E+02  0.25364362821E+02  0.00000000000E+00 0.  1.
         11    1    1    2    0    0  0.83686055359E+02  0.65051044650E+02  0.53400054687E+01  0.10612968449E+03  0.00000000000E+00 0. -1.
</event>
<event>
 7    1  0.2844572E-009  0.1119841E+03  0.7561462E-02  0.1256939E+00
         -3   -1    0    0    0  501 -0.00000000000E+00  0.00000000000E+00  0.98106063777E+02  0.98106063777E+02  0.00000000000E+00 0.  1.
          3   -1    0    0  501    0  0.00000000000E+00 -0.00000000000E+00 -0.16074479808E+03  0.16074479808E+03  0.00000000000E+00 0. -1.
         25    2    1    2    0    0  0.42739382086E+02  0.16597048828E+01  0.10626973854E+02  0.13262422573E+03  0.12508734258E+03 0.  0.
          5    1    3    3  502    0 -0.95589748502E+01 -0.50402637402E+02 -0.16251990071E+02  0.53975915356E+02  0.41800000000E+01 0. -1.
         -5    1    3    3    0  502  0.52298356936E+02  0.52062342285E+02  0.26878963925E+02  0.78648310370E+02  0.41800000000E+01 0. -1.
        -11    1    1    2    0    0  0.26883634989E+02 -0.95192512653E+01 -0.38770975176E+02  0.48130390513E+02  0.00000000000E+00 0.  1.
         11    1    1    2    0    0 -0.69623017075E+02  0.78595463825E+01 -0.34494732980E+02  0.78096245616E+02  0.00000000000E+00 0. -1.
</event>
<event>
 7    1  0.2844572E-009  0.1241446E+03  0.7561462E-02  0.1236412E+00
          1   -1    0    0  501    0  0.00000000000E+00  0.00000000000E+00  0.33122276637E+03  0.33122276637E+03  0.00000000000E+00 0. -1.
         -1   -1    0    0    0  501 -0.00000000000E+00 -0.00000000000E+00 -0.49169920961E+02  0.49169920961E+02  0.00000000000E+00 0.  1.
         25    2    1    2    0    0  0.64991326443E+02 -0.17189454314E+02  0.14402744616E+03  0.20226237823E+03  0.12508722776E+03 0.  0.
          5    1    3    3  502    0 -0.37035807390E+01 -0.57254938701E+02  0.35310218931E+02  0.67499099823E+02  0.41800000000E+01 0. -1.
         -5    1    3    3    0  502  0.68694907182E+02  0.40065484387E+02  0.10871722723E+03  0.13476327841E+03  0.41800000000E+01 0. -1.
        -11    1    1    2    0    0  0.19213132257E+02  0.18837400924E+02  0.21977462411E+02  0.34741919618E+02  0.00000000000E+00 0.  1.
         11    1    1    2    0    0 -0.84204458700E+02 -0.16479466100E+01  0.11604793684E+03  0.14338838948E+03  0.00000000000E+00 0. -1.
</event>
<event>
 7    1  0.2844572E-009  0.1117226E+03  0.7561462E-02  0.1257413E+00
          2   -1    0    0  501    0  0.00000000000E+00  0.00000000000E+00  0.39110363172E+03  0.39110363172E+03  0.00000000000E+00 0.  1.
         -2   -1    0    0    0  501 -0.00000000000E+00 -0.00000000000E+00 -0.57288409917E+02  0.57288409917E+02  0.00000000000E+00 0. -1.
         25    2    1    2    0    0 -0.10130195614E+03 -0.19799071530E+02  0.18948043438E+03  0.24940888831E+03  0.12509144257E+03 0.  0.
          5    1    3    3  502    0 -0.32342400333E+02 -0.24913972735E+02  0.17353580540E+03  0.17832241882E+03  0.41800000000E+01 0.  1.
         -5    1    3    3    0  502 -0.68959555804E+02  0.51149012055E+01  0.15944628976E+02  0.71086469488E+02  0.41800000000E+01 0.  1.
        -11    1    1    2    0    0  0.81232370251E+02 -0.48112286427E+01  0.14604010692E+03  0.16718121523E+03  0.00000000000E+00 0.  1.
         11    1    1    2    0    0  0.20069585887E+02  0.24610300172E+02 -0.17053194938E+01  0.31801938099E+02  0.00000000000E+00 0. -1.
</event>
<event>
 7    1  0.2844572E-009  0.8259545E+02  0.7561462E-02  0.1321843E+00
          1   -1    0    0  501    0  0.00000000000E+00  0.00000000000E+00  0.39886805445E+03  0.39886805445E+03  0.00000000000E+00 0. -1.
         -1   -1    0    0    0  501 -0.00000000000E+00 -0.00000000000E+00 -0.52566532633E+02  0.52566532633E+02  0.00000000000E+00 0.  1.
         25    2    1    2    0    0 -0.37705811649E+02  0.44771477165E+02  0.30595130246E+03  0.33567902527E+03  0.12509194670E+03 0.  0.
          5    1    3    3  502    0 -0.88027799300E+01  0.25326264718E+02  0.29860175868E+03  0.29983227195E+03  0.41800000000E+01 0. -1.
         -5    1    3    3    0  502 -0.28903031719E+02  0.19445212446E+02  0.73495437834E+01  0.35846753318E+02  0.41800000000E+01 0. -1.
        -11    1    1    2    0    0 -0.20964761091E+02 -0.38663480394E+02  0.35587198739E+02  0.56575919240E+02  0.00000000000E+00 0. -1.
         11    1    1    2    0    0  0.58670572740E+02 -0.61079967711E+01  0.47630206218E+01  0.59179642578E+02  0.00000000000E+00 0.  1.
</event>
<event>
 7    1  0.2844572E-009  0.1641995E+03  0.7561462E-02  0.1184035E+00
         -2   -1    0    0    0  501 -0.00000000000E+00  0.00000000000E+00  0.19723253834E+03  0.19723253834E+03  0.00000000000E+00 0.  1.
          2   -1    0    0  501    0  0.00000000000E+00 -0.00000000000E+00 -0.16957467646E+03  0.16957467646E+03  0.00000000000E+00 0. -1.
         25    2    1    2    0    0 -0.79011488951E+01 -0.13080522556E+03  0.79913155265E+02  0.19800633211E+03  0.12509180622E+03 0.  0.
          5    1    3    3  502    0  0.23357367612E+01  0.19034131146E+02  0.36782416693E+02  0.41691394705E+02  0.41800000000E+01 0. -1.
         -5    1    3    3    0  502 -0.10236885656E+02 -0.14983935671E+03  0.43130738572E+02  0.15631493740E+03  0.41800000000E+01 0. -1.
        -11    1    1    2    0    0  0.47421951315E+02  0.52072025295E+02 -0.36435829301E+02  0.79296323633E+02  0.00000000000E+00 0.  1.
         11    1    1    2    0    0 -0.39520802420E+02  0.78733200265E+02 -0.15819464092E+02  0.89504559057E+02  0.00000000000E+00 0. -1.
</event>
<event>
 7    1  0.2844572E-009  0.8409397E+02  0.7561462E-02  0.1317819E+00
          1   -1    0    0  501    0  0.00000000000E+00  0.00000000000E+00  0.22031039224E+03  0.22031039224E+03  0.00000000000E+00 0. -1.
         -1   -1    0    0    0  501 -0.00000000000E+00 -0.00000000000E+00 -0.63449192598E+02  0.63449192598E+02  0.00000000000E+00 0.  1.
         25    2    1    2    0    0  0.43254894883E+00  0.43344481613E+02  0.68100876293E+02  0.14890657446E+03  0.12512596605E+03 0.  0.
          5    1    3    3  502    0 -0.49867841075E+02  0.40452619332E+02  0.73933667068E+02  0.98014669873E+02  0.41800000000E+01 0.  1.
         -5    1    3    3    0  502  0.50300390024E+02  0.28918622810E+01 -0.58327907749E+01  0.50891904584E+02  0.41800000000E+01 0.  1.
        -11    1    1    2    0    0  0.14415589293E+02 -0.30152565208E+02 -0.93882536387E+01  0.34714920563E+02  0.00000000000E+00 0.  1.
         11    1    1    2    0    0 -0.14848138242E+02 -0.13191916404E+02  0.98148576983E+02  0.10013808981E+03  0.00000000000E+00 0. -1.
</event>
<event>
 7    1  0.2844572E-009  0.1184515E+03  0.7561462E-02  0.1245674E+00
         -1   -1    0    0    0  501 -0.00000000000E+00  0.00000000000E+00  0.18471424112E+02  0.18471424112E+02  0.00000000000E+00 0.  1.
          1   -1    0    0  501    0  0.00000000000E+00 -0.00000000000E+00 -0.12587519743E+04  0.12587519743E+04  0.00000000000E+00 0. -1.
         25    2    1    2    0    0  0.67312041602E+02  0.65545663970E+02 -0.87714684732E+03  0.89098892658E+03  0.12509008960E+03 0.  0.
          5    1    3    3  502    0  0.34987050749E+02 -0.25954125557E+02 -0.48584060756E+03  0.48780762469E+03  0.41800000000E+01 0.  1.
         -5    1    3    3    0  502  0.32324990853E+02  0.91499789527E+02 -0.39130623976E+03  0.40318130188E+03  0.41800000000E+01 0.  1.
        -11    1    1    2    0    0 -0.13721392670E+02 -0.26026896221E+02 -0.17474654043E+02  0.34220454083E+02  0.00000000000E+00 0.  1.
         11    1    1    2    0    0 -0.53590648933E+02 -0.39518767749E+02 -0.34565904881E+03  0.35201401773E+03  0.00000000000E+00 0. -1.
</event>
<event>
 7    1  0.2844572E-009  0.1130226E+03  0.7561462E-02  0.1255073E+00
          1   -1    0    0  501    0  0.00000000000E+00  0.00000000000E+00  0.79885977981E+03  0.79885977981E+03  0.00000000000E+00 0. -1.
         -1   -1    0    0    0  501 -0.00000000000E+00 -0.00000000000E+00 -0.29039723452E+02  0.29039723452E+02  0.00000000000E+00 0.  1.
         25    2    1    2    0    0 -0.70748860948E+01  0.52756011761E+02  0.16751916442E+03  0.21573898922E+03  0.12508952888E+03 0.  0.
          5    1    3    3  502    0  0.25000954389E+01 -0.31421093010E+02  0.46893579980E+01  0.32140286894E+02  0.41800000000E+01 0. -1.
         -5    1    3    3    0  502 -0.95749815336E+01  0.84177104772E+02  0.16282980642E+03  0.18359870233E+03  0.41800000000E+01 0. -1.
        -11    1    1    2    0    0  0.15915026678E+02  0.25832583687E+02  0.16611719583E+03  0.16886542928E+03  0.00000000000E+00 0. -1.
         11    1    1    2    0    0 -0.88401405834E+01 -0.78588595448E+02  0.43618369610E+03  0.44329508475E+03  0.00000000000E+00 0.  1.
</event>
<event>
 7    1  0.2844572E-009  0.1390614E+03  0.7561462E-02  0.1214598E+00
         -1   -1    0    0    0  501 -0.00000000000E+00  0.00000000000E+00  0.20823553189E+03  0.20823553189E+03  0.00000000000E+00 0.  1.
          1   -1    0    0  501    0  0.00000000000E+00 -0.00000000000E+00 -0.22426025330E+03  0.22426025330E+03  0.00000000000E+00 0. -1.
         25    2    1    2    0    0 -0.12271208438E+03 -0.43611328629E+02 -0.14205677622E+03  0.22975650964E+03  0.12509085664E+03 0.  0.
          5    1    3    3  502    0 -0.23741652507E+02 -0.13770825634E+02  0.22259221814E+02  0.35584365361E+02  0.41800000000E+01 0. -1.
         -5    1    3    3    0  502 -0.98970431876E+02 -0.29840502995E+02 -0.16431599803E+03  0.19417214428E+03  0.41800000000E+01 0. -1.
        -11    1    1    2    0    0  0.84781456562E+02  0.61724738527E+02  0.50721586081E+02  0.11649256636E+03  0.00000000000E+00 0. -1.
         11    1    1    2    0    0  0.37930627821E+02 -0.18113409898E+02  0.75310468730E+02  0.86246709185E+02  0.00000000000E+00 0.  1.
</event>
<event>
 7    1  0.2844572E-009  0.1067892E+03  0.7561462E-02  0.1266634E+00
         -1   -1    0    0    0  501 -0.00000000000E+00  0.00000000000E+00  0.13774099925E+03  0.13774099925E+03  0.00000000000E+00 0.  1.
          1   -1    0    0  501    0  0.00000000000E+00 -0.00000000000E+00 -0.10078906995E+03  0.10078906995E+03  0.00000000000E+00 0. -1.
         25    2    1    2    0    0  0.37217646878E+02  0.16109275552E+02 -0.87327026786E+00  0.13151631319E+03  0.12510442054E+03 0.  0.
          5    1    3    3  502    0  0.35935568286E+02 -0.44730553773E+02  0.28056906030E+02  0.64006639381E+02  0.41800000000E+01 0. -1.
         -5    1    3    3    0  502  0.12820785919E+01  0.60839829325E+02 -0.28930176298E+02  0.67509673814E+02  0.41800000000E+01 0. -1.
        -11    1    1    2    0    0  0.24006739417E+02 -0.23241193602E+02  0.29954660779E+02  0.44874918606E+02  0.00000000000E+00 0.  1.
         11    1    1    2    0    0 -0.61224386295E+02  0.71319180501E+01  0.78705387893E+01  0.62138837398E+02  0.00000000000E+00 0. -1.
</event>
<event>
 7    1  0.2844572E-009  0.2312446E+03  0.7561462E-02  0.1125767E+00
          1   -1    0    0  501    0  0.00000000000E+00  0.00000000000E+00  0.18772144096E+04  0.18772144096E+04  0.00000000000E+00 0. -1.
         -1   -1    0    0    0  501 -0.00000000000E+00 -0.00000000000E+00 -0.31775885620E+02  0.31775885620E+02  0.00000000000E+00 0.  1.
         25    2    1    2    0    0 -0.19873269972E+03 -0.86717337617E+02  0.10604354703E+04  0.10895805987E+04  0.12509161436E+03 0.  0.
          5    1    3    3  502    0 -0.55082644706E+02  0.78530066843E+01  0.50602111115E+03  0.50908801281E+03  0.41800000000E+01 0.  1.
         -5    1    3    3    0  502 -0.14365005501E+03 -0.94570344301E+02  0.55441435911E+03  0.58049258593E+03  0.41800000000E+01 0.  1.
        -11    1    1    2    0    0  0.11225694188E+03  0.93539560388E-01  0.35506846251E+03  0.37239124965E+03  0.00000000000E+00 0.  1.
         11    1    1    2    0    0  0.86475757838E+02  0.86623798057E+02  0.42993459118E+03  0.44701844679E+03  0.00000000000E+00 0. -1.
</event>
<event>
 7    1  0.2844572E-009  0.9205042E+02  0.7561462E-02  0.1297961E+00
          3   -1    0    0  501    0  0.00000000000E+00  0.00000000000E+00  0.21532320882E+03  0.21532320882E+03  0.00000000000E+00 0. -1.
         -3   -1    0    0    0  501 -0.00000000000E+00 -0.00000000000E+00 -0.59689351525E+02  0.59689351525E+02  0.00000000000E+00 0.  1.
         25    2    1    2    0    0 -0.33447785330E+02  0.16770669052E+02  0.97839929965E+02  0.16315721339E+03  0.12509042610E+03 0.  0.
          5    1    3    3  502    0 -0.60635383299E+02 -0.34033323821E+02  0.35571659336E+02  0.78215933070E+02  0.41800000000E+01 0. -1.
         -5    1    3    3    0  502  0.27187597969E+02  0.50803992873E+02  0.62268270629E+02  0.84941280319E+02  0.41800000000E+01 0. -1.
        -11    1    1    2    0    0  0.35228909735E+02 -0.28185256401E+02 -0.73358846686E+01  0.45708860884E+02  0.00000000000E+00 0.  1.
         11    1    1    2    0    0 -0.17811244048E+01  0.11414587349E+02  0.65129812003E+02  0.66146486074E+02  0.00000000000E+00 0. -1.
</event>
<event>
 7    1  0.2844572E-009  0.1201586E+03  0.7561462E-02  0.1242836E+00
         -4   -1    0    0    0  501 -0.00000000000E+00  0.00000000000E+00  0.16827280554E+03  0.16827280554E+03  0.00000000000E+00 0.  1.
          4   -1    0    0  501    0  0.00000000000E+00 -0.00000000000E+00 -0.13216893756E+03  0.13216893756E+03  0.00000000000E+00 0. -1.
         25    2    1    2    0    0  0.48204042102E+02 -0.80450501175E+02 -0.18846605574E+02  0.15747147895E+03  0.12508460868E+03 0.  0.
          5    1    3    3  502    0 -0.27325438901E+02 -0.62985234799E+02 -0.36479455074E+02  0.77859119288E+02  0.41800000000E+01 0. -1.
         -5    1    3    3    0  502  0.75529481002E+02 -0.17465266376E+02  0.17632849500E+02  0.79612359666E+02  0.41800000000E+01 0. -1.
        -11    1    1    2    0    0 -0.30342069291E+02  0.46268594617E+02 -0.19873844033E+02  0.58791102162E+02  0.00000000000E+00 0. -1.
         11    1    1    2    0    0 -0.17861972811E+02  0.34181906558E+02  0.74824317590E+02  0.84179161978E+02  0.00000000000E+00 0.  1.
</event>
<event>
 7    1  0.2844572E-009  0.2318100E+03  0.7561462E-02  0.1125372E+00
         -2   -1    0    0    0  501 -0.00000000000E+00  0.00000000000E+00  0.90639166939E+02  0.90639166939E+02  0.00000000000E+00 0.  1.
          2   -1    0    0  501    0  0.00000000000E+00 -0.00000000000E+00 -0.70065996450E+03  0.70065996450E+03  0.00000000000E+00 0. -1.
         25    2    1    2    0    0  0.21730827985E+03 -0.47086800229E+02 -0.41517349787E+03  0.48729565210E+03  0.12509182219E+03 0.  0.
          5    1    3    3  502    0  0.59303157007E+02  0.16736525518E+02 -0.21836137265E+03  0.22692760340E+03  0.41800000000E+01 0. -1.
         -5    1    3    3    0  502  0.15800512285E+03 -0.63823325746E+02 -0.19681212521E+03  0.26036804870E+03  0.41800000000E+01 0. -1.
        -11    1    1    2    0    0 -0.13105357322E+03  0.60084336315E+02 -0.10197261278E+03  0.17658873203E+03  0.00000000000E+00 0. -1.
         11    1    1    2    0    0 -0.86254706634E+02 -0.12997536087E+02 -0.92874686919E+02  0.12741474731E+03  0.00000000000E+00 0.  1.
</event>
<event>
 7    1  0.2844572E-009  0.1817594E+03  0.7561462E-02  0.1166111E+00
         -2   -1    0    0    0  501 -0.00000000000E+00  0.00000000000E+00  0.17603510872E+02  0.17603510872E+02  0.00000000000E+00 0.  1.
          2   -1    0    0  501    0  0.00000000000E+00 -0.00000000000E+00 -0.19500052656E+04  0.19500052656E+04  0.00000000000E+00 0. -1.
         25    2    1    2    0    0  0.78441910210E+02 -0.12776282958E+03 -0.10043507416E+04  0.10231541986E+04  0.12509047982E+03 0.  0.
          5    1    3    3  502    0  0.90017529501E+02 -0.14278700765E+03 -0.78542331334E+03  0.80336700126E+03  0.41800000000E+01 0. -1.
         -5    1    3    3    0  502 -0.11575619291E+02  0.15024178071E+02 -0.21892742822E+03  0.21978719735E+03  0.41800000000E+01 0. -1.
        -11    1    1    2    0    0 -0.98828799558E+02  0.98031483105E+02 -0.73369182394E+03  0.74678042009E+03  0.00000000000E+00 0.  1.
         11    1    1    2    0    0  0.20386889348E+02  0.29731346476E+02 -0.19435918924E+03  0.19767415780E+03  0.00000000000E+00 0. -1.
</event>
<event>
 7    1  0.2844572E-009  0.1149515E+03  0.7561462E-02  0.1251666E+00
         -2   -1    0    0    0  501 -0.00000000000E+00  0.00000000000E+00  0.47211132231E+03  0.47211132231E+03  0.00000000000E+00 0.  1.
          2   -1    0    0  501    0  0.00000000000E+00 -0.00000000000E+00 -0.30587816394E+02  0.30587816394E+02  0.00000000000E+00 0. -1.
         25    2    1    2    0    0  0.46227783736E+02  0.16704372988E+02  0.20998228153E+03  0.24931489466E+03  0.12509721850E+03 0.  0.
          5    1    3    3  502    0  0.70535673871E+02 -0.33674966795E+02  0.11928152137E+03  0.14267038382E+03  0.41800000000E+01 0. -1.
         -5    1    3    3    0  502 -0.24307890134E+02  0.50379339783E+02  0.90700760155E+02  0.10664451084E+03  0.41800000000E+01 0. -1.
        -11    1    1    2    0    0 -0.75703405918E+01 -0.46259733171E+02  0.66795189238E+02  0.81601901173E+02  0.00000000000E+00 0. -1.
         11    1    1    2    0    0 -0.38657443144E+02  0.29555360183E+02  0.16474603515E+03  0.17178234288E+03  0.00000000000E+00 0.  1.
</event>
<event>
 7    1  0.2844572E-009  0.7929182E+02  0.7561462E-02  0.1331073E+00
         -1   -1    0    0    0  501 -0.00000000000E+00  0.00000000000E+00  0.15003995178E+03  0.15003995178E+03  0.00000000000E+00 0. -1.
          1   -1    0    0  501    0  0.00000000000E+00 -0.00000000000E+00 -0.77260750257E+02  0.77260750257E+02  0.00000000000E+00 0.  1.
         25    2    1    2    0    0 -0.11461366815E+02  0.11416062907E+02  0.53495801933E+02  0.13701195036E+03  0.12509510101E+03 0.  0.
          5    1    3    3  502    0 -0.55487351315E+01 -0.37347204960E+02  0.74343770368E+02  0.83486949713E+02  0.41800000000E+01 0.  1.
         -5    1    3    3    0  502 -0.59126316832E+01  0.48763267867E+02 -0.20847968434E+02  0.53525000648E+02  0.41800000000E+01 0.  1.
        -11    1    1    2    0    0  0.39553816899E+02  0.31028588247E+01 -0.16114514152E+02  0.42823004688E+02  0.00000000000E+00 0.  1.
         11    1    1    2    0    0 -0.28092450084E+02 -0.14518921732E+02  0.35397913746E+02  0.47465746992E+02  0.00000000000E+00 0. -1.
</event>
<event>
 6    1  0.2844572E-009  0.1000873E+03  0.7561462E-02  0.1280112E+00
          1   -1    0    0  501    0  0.00000000000E+00  0.00000000000E+00  0.36055673185E+03  0.36055673185E+03  0.00000000000E+00 0. -1.
         -1   -1    0    0    0  501 -0.00000000000E+00 -0.00000000000E+00 -0.41095041486E+02  0.41095041486E+02  0.00000000000E+00 0.  1.
          5    1    1    2  502    0 -0.33363032451E+01  0.56244690848E+02  0.16241175897E+03  0.17195827406E+03  0.41800000000E+01 0.  1.
         -5    1    1    2    0  502  0.49959159663E+02 -0.43295471728E+02  0.69487746198E+02  0.96002264442E+02  0.41800000000E+01 0.  1.
        -11    1    1    2    0    0 -0.60500227790E+02 -0.34116884031E+01  0.19620034271E+02  0.63693507717E+02  0.00000000000E+00 0.  1.
         11    1    1    2    0    0  0.13877371373E+02 -0.95375307174E+01  0.67942150927E+02  0.69997727113E+02  0.00000000000E+00 0. -1.
</event>
<event>
 7    1  0.2844572E-009  0.9858366E+02  0.7561462E-02  0.1283303E+00
         -3   -1    0    0    0  501 -0.00000000000E+00  0.00000000000E+00  0.13084508662E+03  0.13084508662E+03  0.00000000000E+00 0.  1.
          3   -1    0    0  501    0  0.00000000000E+00 -0.00000000000E+00 -0.15860061597E+03  0.15860061597E+03  0.00000000000E+00 0. -1.
         25    2    1    2    0    0  0.34835276896E+02 -0.82641887089E+02 -0.43532019150E+02  0.15997186613E+03  0.12511108362E+03 0.  0.
          5    1    3    3  502    0  0.17112027327E+02 -0.12002133893E+02 -0.76866691813E+02  0.79767370569E+02  0.41800000000E+01 0. -1.
         -5    1    3    3    0  502  0.17723249568E+02 -0.70639753196E+02  0.33334672663E+02  0.80204495562E+02  0.41800000000E+01 0. -1.
        -11    1    1    2    0    0  0.83360642673E+01  0.44568017167E+02 -0.31314505170E+02  0.55103505839E+02  0.00000000000E+00 0. -1.
         11    1    1    2    0    0 -0.43171341163E+02  0.38073869922E+02  0.47090994967E+02  0.74370330614E+02  0.00000000000E+00 0.  1.
</event>
<event>
 7    1  0.2844572E-009  0.8602698E+02  0.7561462E-02  0.1312769E+00
         -1   -1    0    0    0  501 -0.00000000000E+00  0.00000000000E+00  0.34323561006E+03  0.34323561006E+03  0.00000000000E+00 0.  1.
          1   -1    0    0  501    0  0.00000000000E+00 -0.00000000000E+00 -0.42928169747E+02  0.42928169747E+02  0.00000000000E+00 0. -1.
         25    2    1    2    0    0  0.29056369837E+02 -0.27598489669E+02  0.11090665182E+03  0.17191282002E+03  0.12509109884E+03 0.  0.
          5    1    3    3  502    0 -0.18556348850E+01  0.21212899405E+02 -0.19528225782E+02  0.29193397956E+02  0.41800000000E+01 0. -1.
         -5    1    3    3    0  502  0.30912004722E+02 -0.48811389074E+02  0.13043487760E+03  0.14271942206E+03  0.41800000000E+01 0. -1.
        -11    1    1    2    0    0 -0.12054690108E+02 -0.30021009778E+02  0.11015797173E+03  0.11481008370E+03  0.00000000000E+00 0. -1.
         11    1    1    2    0    0 -0.17001679729E+02  0.57619499447E+02  0.79242816761E+02  0.99440876094E+02  0.00000000000E+00 0.  1.
</event>
<event>
 7    1  0.2844572E-009  0.1091015E+03  0.7561462E-02  0.1262243E+00
         -2   -1    0    0    0  501 -0.00000000000E+00  0.00000000000E+00  0.58362097960E+02  0.58362097960E+02  0.00000000000E+00 0.  1.
          2   -1    0    0  501    0  0.00000000000E+00 -0.00000000000E+00 -0.29714912129E+03  0.29714912129E+03  0.00000000000E+00 0. -1.
         25    2    1    2    0    0  0.48371067544E+02  0.15450972095E+02 -0.20924902193E+03  0.24900689816E+03  0.12506314181E+03 0.  0.
          5    1    3    3  502    0  0.61303873767E+02 -0.41274669880E+02 -0.92277516908E+02  0.11829782686E+03  0.41800000000E+01 0. -1.
         -5    1    3    3    0  502 -0.12932806223E+02  0.56725641975E+02 -0.11697150502E+03  0.13070907131E+03  0.41800000000E+01 0. -1.
        -11    1    1    2    0    0 -0.58357762863E+01  0.25886998228E+02  0.16650792102E+02  0.31327972162E+02  0.00000000000E+00 0.  1.
         11    1    1    2    0    0 -0.42535291258E+02 -0.41337970323E+02 -0.46188793506E+02  0.75176348929E+02  0.00000000000E+00 0. -1.
</event>
<event>
 7    1  0.2844572E-009  0.1953687E+03  0.7561462E-02  0.1153706E+00
          1   -1    0    0  501    0  0.00000000000E+00  0.00000000000E+00  0.11495406145E+04  0.11495406145E+04  0.00000000000E+00 0. -1.
         -1   -1    0    0    0  501 -0.00000000000E+00 -0.00000000000E+00 -0.34991857631E+02  0.34991857631E+02  0.00000000000E+00 0.  1.
         25    2    1    2    0    0  0.96356071516E+02 -0.13791586862E+03  0.56193355215E+03  0.59976829328E+03  0.12508960490E+03 0.  0.
          5    1    3    3  502    0  0.11561814474E+03 -0.78061813373E+02  0.45197419837E+03  0.47303208188E+03  0.41800000000E+01 0. -1.
         -5    1    3    3    0  502 -0.19262073226E+02 -0.59854055242E+02  0.10995935378E+03  0.12673621139E+03  0.41800000000E+01 0. -1.
        -11    1    1    2    0    0 -0.64914935940E+01  0.82124176927E+02  0.19128972379E+03  0.20827452642E+03  0.00000000000E+00 0.  1.
         11    1    1    2    0    0 -0.89864577922E+02  0.55791691689E+02  0.36132548089E+03  0.37648965240E+03  0.00000000000E+00 0. -1.
</event>
<event>
 6    1  0.2844572E-009  0.9644063E+02  0.7561462E-02  0.1287964E+00
          1   -1    0    0  501    0  0.00000000000E+00  0.00000000000E+00  0.48659479943E+03  0.48659479943E+03  0.00000000000E+00 0. -1.
         -1   -1    0    0    0  501 -0.00000000000E+00 -0.00000000000E+00 -0.42746271525E+02  0.42746271525E+02  0.00000000000E+00 0.  1.
          5    1    1    2  502    0  0.42150573567E+02  0.33442100021E+02  0.90556227543E+02  0.10541796646E+03  0.41800000000E+01 0.  1.
         -5    1    1    2    0  502 -0.11472597503E+02 -0.45555978221E+02 -0.82213371084E+01  0.47875154610E+02  0.41800000000E+01 0.  1.
        -11    1    1    2    0    0 -0.50876268472E+02  0.34597637274E+02  0.31223470034E+03  0.31823874574E+03  0.00000000000E+00 0. -1.
         11    1    1    2    0    0  0.20198292408E+02 -0.22483759073E+02  0.49278937133E+02  0.57809204139E+02  0.00000000000E+00 0.  1.
</event>
<event>
 7    1  0.2844572E-009  0.7159963E+02  0.7561462E-02  0.1354736E+00
         -2   -1    0    0    0  501 -0.00000000000E+00  0.00000000000E+00  0.12389334937E+03  0.12389334937E+03  0.00000000000E+00 0.  1.
          2   -1    0    0  501    0  0.00000000000E+00 -0.00000000000E+00 -0.11566497949E+03  0.11566497949E+03  0.00000000000E+00 0. -1.
         25    2    1    2    0    0  0.75038649614E+00  0.38345208756E+02  0.20787199047E+02  0.13247486225E+03  0.12508622374E+03 0.  0.
          5    1    3    3  502    0 -0.23087793539E+02  0.56176635141E+02 -0.34184387662E+02  0.69820522098E+02  0.41800000000E+01 0.  1.
         -5    1    3    3    0  502  0.23838180035E+02 -0.17831426385E+02  0.54971586709E+02  0.62654340150E+02  0.41800000000E+01 0.  1.
        -11    1    1    2    0    0  0.14721229130E+02 -0.32572474425E+02  0.39024928799E+02  0.52920938626E+02  0.00000000000E+00 0.  1.
         11    1    1    2    0    0 -0.15471615626E+02 -0.57727343307E+01 -0.51583757967E+02  0.54162527985E+02  0.00000000000E+00 0. -1.
</event>
<event>
 7    1  0.2844572E-009  0.1105442E+03  0.7561462E-02  0.1259565E+00
          1   -1    0    0  501    0  0.00000000000E+00  0.00000000000E+00  0.19607372631E+03  0.19607372631E+03  0.00000000000E+00 0.  1.
         -1   -1    0    0    0  501 -0.00000000000E+00 -0.00000000000E+00 -0.90204336551E+02  0.90204336551E+02  0.00000000000E+00 0. -1.
         25    2    1    2    0    0 -0.57905914197E+02 -0.19171037345E+02  0.10773501892E+03  0.17599738075E+03  0.12509044790E+03 0.  0.
          5    1    3    3  502    0 -0.86522234746E+02 -0.25276101249E+02  0.33774099253E+02  0.96349055938E+02  0.41800000000E+01 0.  1.
         -5    1    3    3    0  502  0.28616320549E+02  0.61050639037E+01  0.73960919669E+02  0.79648324812E+02  0.41800000000E+01 0.  1.
        -11    1    1    2    0    0 -0.39220613879E+01  0.36795959498E+02 -0.21826972422E+02  0.42962098715E+02  0.00000000000E+00 0. -1.
         11    1    1    2    0    0  0.61827975585E+02 -0.17624922153E+02  0.19961343260E+02  0.67318583397E+02  0.00000000000E+00 0.  1.
</event>
<event>
 7    1  0.2844572E-009  0.8559883E+02  0.7561462E-02  0.1313874E+00
          1   -1    0    0  501    0  0.00000000000E+00  0.00000000000E+00  0.40807167163E+03  0.40807167163E+03  0.00000000000E+00 0. -1.
         -1   -1    0    0    0  501 -0.00000000000E+00 -0.00000000000E+00 -0.39168165882E+02  0.39168165882E+02  0.00000000000E+00 0.  1.
         25    2    1    2    0    0  0.60657136693E+02 -0.44704514135E+01  0.17621325092E+03  0.22449624639E+03  0.12509269235E+03 0.  0.
          5    1    3    3  502    0  0.81725640491E+01 -0.45245979702E+00 -0.19621620414E+02  0.21667392798E+02  0.41800000000E+01 0. -1.
         -5    1    3    3    0  502  0.52484572644E+02 -0.40179916165E+01  0.19583487133E+03  0.20282885360E+03  0.41800000000E+01 0. -1.
        -11    1    1    2    0    0 -0.23128889169E+02 -0.42918654693E+02  0.63035646950E+02  0.79689705867E+02  0.00000000000E+00 0.  1.
         11    1    1    2    0    0 -0.37528247524E+02  0.47389106106E+02  0.12965460788E+03  0.14305388525E+03  0.00000000000E+00 0. -1.
</event>
<event>
 7    1  0.2844572E-009  0.1709686E+03  0.7561462E-02  0.1176841E+00
          1   -1    0    0  501    0  0.00000000000E+00  0.00000000000E+00  0.82324092403E+02  0.82324092403E+02  0.00000000000E+00 0. -1.
         -1   -1    0    0    0  501 -0.00000000000E+00 -0.00000000000E+00 -0.46651797327E+03  0.46651797327E+03  0.00000000000E+00 0.  1.
         25    2    1    2    0    0  0.57070501667E+02 -0.13796652694E+03 -0.20865662839E+03  0.28543384216E+03  0.12507231894E+03 0.  0.
          5    1    3    3  502    0  0.43969853872E+02 -0.15986213201E+03 -0.19566229931E+03  0.25649650499E+03  0.41800000000E+01 0. -1.
         -5    1    3    3    0  502  0.13100647795E+02  0.21895605076E+02 -0.12994329079E+02  0.28937337170E+02  0.41800000000E+01 0. -1.
        -11    1    1    2    0    0 -0.58522947140E+01  0.32046349187E+02 -0.13514224080E+03  0.13901310405E+03  0.00000000000E+00 0.  1.
         11    1    1    2    0    0 -0.51218206953E+02  0.10592017775E+03 -0.40395011682E+02  0.12439511947E+03  0.00000000000E+00 0. -1.
</event>
<event>
 7    1  0.2844572E-009  0.6555829E+02  0.7561462E-02  0.1375884E+00
          1   -1    0    0  501    0  0.00000000000E+00  0.00000000000E+00  0.33558469238E+03  0.33558469238E+03  0.00000000000E+00 0. -1.
         -1   -1    0    0    0  501 -0.00000000000E+00 -0.00000000000E+00 -0.37551971282E+02  0.37551971282E+02  0.00000000000E+00 0.  1.
         25    2    1    2    0    0  0.18737567286E+02 -0.15993597962E+02  0.19783554393E+03  0.23535694397E+03  0.12508835688E+03 0.  0.
          5    1    3    3  502    0  0.37260104631E+02  0.22380425945E+02  0.12901630528E+02  0.45531564138E+02  0.41800000000E+01 0. -1.
         -5    1    3    3    0  502 -0.18522537344E+02 -0.38374023907E+02  0.18493391341E+03  0.18982537983E+03  0.41800000000E+01 0. -1.
        -11    1    1    2    0    0 -0.14524791098E+02 -0.10428188513E+02 -0.12586211366E+02  0.21866169959E+02  0.00000000000E+00 0.  1.
         11    1    1    2    0    0 -0.42127761880E+01  0.26421786475E+02  0.11278338853E+03  0.11591354974E+03  0.00000000000E+00 0. -1.
</event>
<event>
 7    1  0.2844572E-009  0.1334715E+03  0.7561462E-02  0.1222394E+00
          2   -1    0    0  501    0  0.00000000000E+00  0.00000000000E+00  0.57659495694E+03  0.57659495694E+03  0.00000000000E+00 0. -1.
         -2   -1    0    0    0  501 -0.00000000000E+00 -0.00000000000E+00 -0.37270606864E+02  0.37270606864E+02  0.00000000000E+00 0.  1.
         25    2    1    2    0    0  0.23308642631E+02 -0.91700532882E+02  0.35312681172E+03  0.38639300491E+03  0.12509487812E+03 0.  0.
          5    1    3    3  502    0 -0.20315726357E+02 -0.10092939805E+03  0.17840333177E+03  0.20602109920E+03  0.41800000000E+01 0.  1.
         -5    1    3    3    0  502  0.43624368987E+02  0.92288651730E+01  0.17472347995E+03  0.18037190571E+03  0.41800000000E+01 0.  1.
        -11    1    1    2    0    0 -0.49227553474E+02  0.68355104029E+02  0.16844261909E+03  0.18833132557E+03  0.00000000000E+00 0. -1.
         11    1    1    2    0    0  0.25918910843E+02  0.23345428852E+02  0.17754919263E+02  0.39141233318E+02  0.00000000000E+00 0.  1.
</event>
<event>
 7    1  0.2844572E-009  0.1977874E+03  0.7561462E-02  0.1151619E+00
          2   -1    0    0  501    0  0.00000000000E+00  0.00000000000E+00  0.47252306904E+03  0.47252306904E+03  0.00000000000E+00 0.  1.
         -2   -1    0    0    0  501 -0.00000000000E+00 -0.00000000000E+00 -0.10446794182E+03  0.10446794182E+03  0.00000000000E+00 0. -1.
         25    2    1    2    0    0  0.28878118949E+02 -0.18805327547E+03  0.23769373507E+03  0.32915582856E+03  0.12508903875E+03 0.  0.
          5    1    3    3  502    0 -0.58683760331E+01 -0.14212069932E+03  0.23060336354E+03  0.27097622532E+03  0.41800000000E+01 0. -1.
         -5    1    3    3    0  502  0.34746494982E+02 -0.45932576144E+02  0.70903715321E+01  0.58179603241E+02  0.41800000000E+01 0. -1.
        -11    1    1    2    0    0 -0.38802252149E+02  0.10607977704E+03  0.11969592315E+03  0.16457717912E+03  0.00000000000E+00 0.  1.
         11    1    1    2    0    0  0.99241331997E+01  0.81973498430E+02  0.10665469001E+02  0.83258003181E+02  0.00000000000E+00 0. -1.
</event>
<event>
 7    1  0.2844572E-009  0.9520444E+02  0.7561462E-02  0.1290716E+00
          2   -1    0    0  501    0  0.00000000000E+00  0.00000000000E+00  0.96426224811E+02  0.96426224811E+02  0.00000000000E+00 0.  1.
         -2   -1    0    0    0  501 -0.00000000000E+00 -0.00000000000E+00 -0.14767912679E+03  0.14767912679E+03  0.00000000000E+00 0. -1.
         25    2    1    2    0    0  0.29062382877E+02 -0.31109940202E+02 -0.26702748369E+01  0.13216729917E+03  0.12509442083E+03 0.  0.
          5    1    3    3  502    0 -0.26839689611E+02  0.33569520444E+00 -0.46861491634E+02  0.54165980355E+02  0.41800000000E+01 0. -1.
         -5    1    3    3    0  502  0.55902072488E+02 -0.31445635407E+02  0.44191216797E+02  0.78001318813E+02  0.41800000000E+01 0. -1.
        -11    1    1    2    0    0 -0.19591450934E+02  0.62856467098E+02 -0.42192479751E+02  0.78198246485E+02  0.00000000000E+00 0. -1.
         11    1    1    2    0    0 -0.94709319434E+01 -0.31746526896E+02 -0.63901473948E+01  0.33739805951E+02  0.00000000000E+00 0.  1.
</event>
<event>
 7    1  0.2844572E-009  0.1542334E+03  0.7561462E-02  0.1195365E+00
         -1   -1    0    0    0  501 -0.00000000000E+00  0.00000000000E+00  0.79836002197E+02  0.79836002197E+02  0.00000000000E+00 0.  1.
          1   -1    0    0  501    0  0.00000000000E+00 -0.00000000000E+00 -0.45407529561E+03  0.45407529561E+03  0.00000000000E+00 0. -1.
         25    2    1    2    0    0  0.13395638365E+03 -0.32813961993E+02 -0.94058453095E+02  0.20861481447E+03  0.12510827069E+03 0.  0.
          5    1    3    3  502    0  0.43663441732E+01 -0.32703909693E+02  0.17490081424E+02  0.37576402420E+02  0.41800000000E+01 0.  1.
         -5    1    3    3    0  502  0.12959003948E+03 -0.11005230042E+00 -0.11154853452E+03  0.17103841205E+03  0.41800000000E+01 0.  1.
        -11    1    1    2    0    0 -0.50540563316E+02 -0.10410774196E+02 -0.18296412761E+03  0.19010156430E+03  0.00000000000E+00 0. -1.
         11    1    1    2    0    0 -0.83415820338E+02  0.43224736189E+02 -0.97216712712E+02  0.13519491903E+03  0.00000000000E+00 0.  1.
</event>
<event>
 7    1  0.2844572E-009  0.1688901E+03  0.7561462E-02  0.1179010E+00
          1   -1    0    0  501    0  0.00000000000E+00  0.00000000000E+00  0.34260899657E+03  0.34260899657E+03  0.00000000000E+00 0. -1.
         -1   -1    0    0    0  501 -0.00000000000E+00 -0.00000000000E+00 -0.10318843628E+03  0.10318843628E+03  0.00000000000E+00 0.  1.
         25    2    1    2    0    0  0.77647731772E+02 -0.11464466676E+03  0.48435713272E+02  0.19278442841E+03  0.12508895895E+03 0.  0.
          5    1    3    3  502    0  0.40694634480E+02  0.97333436888E+01  0.46853017485E+02  0.62956087095E+02  0.41800000000E+01 0.  1.
         -5    1    3    3    0  502  0.36953097292E+02 -0.12437801045E+03  0.15826957870E+01  0.12982834132E+03  0.41800000000E+01 0.  1.
        -11    1    1    2    0    0 -0.78881790129E+02  0.35069823354E+02  0.96520332304E+02  0.12949287190E+03  0.00000000000E+00 0. -1.
         11    1    1    2    0    0  0.12340583569E+01  0.79574843408E+02  0.94464514707E+02  0.12352013254E+03  0.00000000000E+00 0.  1.
</event>
<event>
 7    1  0.2844572E-009  0.1952959E+03  0.7561462E-02  0.1153770E+00
         -1   -1    0    0    0  501 -0.00000000000E+00  0.00000000000E+00  0.25777114590E+03  0.25777114590E+03  0.00000000000E+00 0.  1.
          1   -1    0    0  501    0  0.00000000000E+00 -0.00000000000E+00 -0.16531762548E+03  0.16531762548E+03  0.00000000000E+00 0. -1.
         25    2    1    2    0    0 -0.88131135204E+01  0.16485266372E+03  0.99093907746E+02  0.22961031499E+03  0.12508885839E+03 0.  0.
          5    1    3    3  502    0 -0.60038896218E+02  0.94216702218E+02  0.86493211645E+02  0.14135064236E+03  0.41800000000E+01 0. -1.
         -5    1    3    3    0  502  0.51225782697E+02  0.70635961506E+02  0.12600696101E+02  0.88259672632E+02  0.41800000000E+01 0. -1.
        -11    1    1    2    0    0 -0.24541994716E+02 -0.15460927433E+03  0.52009496996E+01  0.15663137327E+03  0.00000000000E+00 0.  1.
         11    1    1    2    0    0  0.33355108236E+02 -0.10243389392E+02 -0.11841337020E+02  0.36847083115E+02  0.00000000000E+00 0. -1.
</event>
<event>
 7    1  0.2844572E-009  0.1328774E+03  0.7561462E-02  0.1223248E+00
         -2   -1    0    0    0  501 -0.00000000000E+00  0.00000000000E+00  0.38948657713E+02  0.38948657713E+02  0.00000000000E+00 0.  1.
          2   -1    0    0  501    0  0.00000000000E+00 -0.00000000000E+00 -0.73997761907E+03  0.73997761907E+03  0.00000000000E+00 0. -1.
         25    2    1    2    0    0  0.66847918270E+02 -0.87899507685E+02 -0.52934652573E+03  0.55502601254E+03  0.12510460687E+03 0.  0.
          5    1    3    3  502    0 -0.21929302650E+02  0.31877782303E+01 -0.21074017490E+03  0.21194327062E+03  0.41800000000E+01 0.  1.
         -5    1    3    3    0  502  0.88777220920E+02 -0.91087285915E+02 -0.31860635083E+03  0.34308274192E+03  0.41800000000E+01 0.  1.
        -11    1    1    2    0    0 -0.43457766239E+02  0.28153576568E+02 -0.13963443460E+02  0.53630020262E+02  0.00000000000E+00 0.  1.
         11    1    1    2    0    0 -0.23390152031E+02  0.59745931116E+02 -0.15771899217E+03  0.17027024399E+03  0.00000000000E+00 0. -1.
</event>
<event>
 7    1  0.2844572E-009  0.1039908E+03  0.7561462E-02  0.1272121E+00
          1   -1    0    0  501    0  0.00000000000E+00  0.00000000000E+00  0.15643252794E+03  0.15643252794E+03  0.00000000000E+00 0. -1.
         -1   -1    0    0    0  501 -0.00000000000E+00 -0.00000000000E+00 -0.77910823968E+02  0.77910823968E+02  0.00000000000E+00 0.  1.
         25    2    1    2    0    0  0.19647171202E+02  0.13028397577E+02  0.31642979680E+02  0.13116868348E+03  0.12509274512E+03 0.  0.
          5    1    3    3  502    0 -0.90416483574E+01 -0.50541985481E+02  0.33193287649E+02  0.61282219660E+02  0.41800000000E+01 0. -1.
         -5    1    3    3    0  502  0.28688819559E+02  0.63570383059E+02 -0.15503079692E+01  0.69886463816E+02  0.41800000000E+01 0. -1.
        -11    1    1    2    0    0  0.32749958537E+02 -0.94153321019E+01  0.20756121964E+01  0.34139660642E+02  0.00000000000E+00 0.  1.
         11    1    1    2    0    0 -0.52397129739E+02 -0.36130654753E+01  0.44803112095E+02  0.69035007789E+02  0.00000000000E+00 0. -1.
</event>
<event>
 7    1  0.2844572E-009  0.1027571E+03  0.7561462E-02  0.1274603E+00
          2   -1    0    0  501    0  0.00000000000E+00  0.00000000000E+00  0.13335927886E+04  0.13335927886E+04  0.00000000000E+00 0. -1.
         -2   -1    0    0    0  501 -0.00000000000E+00 -0.00000000000E+00 -0.14278144446E+02  0.14278144446E+02  0.00000000000E+00 0.  1.
         25    2    1    2    0    0  0.82128348819E+02  0.42518769379E+01  0.62037308641E+03  0.63817916661E+03  0.12508692268E+03 0.  0.
          5    1    3    3  502    0  0.46118444827E+02  0.26099173287E+00  0.56166682999E+02  0.72795245374E+02  0.41800000000E+01 0.  1.
         -5    1    3    3    0  502  0.36009903992E+02  0.39908852051E+01  0.56420640341E+03  0.56538392124E+03  0.41800000000E+01 0.  1.
        -11    1    1    2    0    0  0.11087270775E+02  0.23071827640E+02  0.12596257469E+03  0.12853718149E+03  0.00000000000E+00 0.  1.
         11    1    1    2    0    0 -0.93215619595E+02 -0.27323704578E+02  0.57297898305E+03  0.58115458493E+03  0.00000000000E+00 0. -1.
</event>
<event>
 7    1  0.2844572E-009  0.9276463E+02  0.7561462E-02  0.1296292E+00
         -1   -1    0    0    0  501 -0.00000000000E+00  0.00000000000E+00  0.11204964503E+03  0.11204964503E+03  0.00000000000E+00 0.  1.
          1   -1    0    0  501    0  0.00000000000E+00 -0.00000000000E+00 -0.15994096380E+03  0.15994096380E+03  0.00000000000E+00 0. -1.
         25    2    1    2    0    0 -0.56775108270E+02  0.35511445674E+02 -0.69884066966E+02  0.15813826013E+03  0.12505778987E+03 0.  0.
          5    1    3    3  502    0  0.33981837224E+01  0.72236456322E+01 -0.88505240036E+02  0.88962793474E+02  0.41800000000E+01 0.  1.
         -5    1    3    3    0  502 -0.60173291993E+02  0.28287800042E+02  0.18621173070E+02  0.69175466655E+02  0.41800000000E+01 0.  1.
        -11    1    1    2    0    0  0.75871260018E+02 -0.45373523342E+02  0.92992232175E+01  0.88891395926E+02  0.00000000000E+00 0.  1.
         11    1    1    2    0    0 -0.19096151748E+02  0.98620776680E+01  0.12693524978E+02  0.24960952784E+02  0.00000000000E+00 0. -1.
</event>
<event>
 7    1  0.2844572E-009  0.1106214E+03  0.7561462E-02  0.1259423E+00
         -2   -1    0    0    0  501 -0.00000000000E+00  0.00000000000E+00  0.47590666750E+02  0.47590666750E+02  0.00000000000E+00 0.  1.
          2   -1    0    0  501    0  0.00000000000E+00 -0.00000000000E+00 -0.27818007752E+03  0.27818007752E+03  0.00000000000E+00 0. -1.
         25    2    1    2    0    0  0.69647314679E+02  0.17945020081E+02 -0.14919362122E+03  0.20755526193E+03  0.12509067892E+03 0.  0.
          5    1    3    3  502    0  0.62098732093E+02  0.68758740520E+02 -0.96917102120E+02  0.13414325927E+03  0.41800000000E+01 0.  1.
         -5    1    3    3    0  502  0.75485825860E+01 -0.50813720439E+02 -0.52276519102E+02  0.73412002652E+02  0.41800000000E+01 0.  1.
        -11    1    1    2    0    0 -0.48818539065E+02 -0.25152184797E+02 -0.30652974614E+02  0.62892662602E+02  0.00000000000E+00 0. -1.
         11    1    1    2    0    0 -0.20828775614E+02  0.72071647164E+01 -0.50742814934E+02  0.55322819742E+02  0.00000000000E+00 0.  1.
</event>
<event>
 7    1  0.2844572E-009  0.1176618E+03  0.7561462E-02  0.1247005E+00
          2   -1    0    0  501    0  0.00000000000E+00  0.00000000000E+00  0.19647017035E+04  0.19647017035E+04  0.00000000000E+00 0. -1.
         -2   -1    0    0    0  501 -0.00000000000E+00 -0.00000000000E+00 -0.18819241557E+02  0.18819241557E+02  0.00000000000E+00 0.  1.
         25    2    1    2    0    0 -0.61887195773E+02 -0.60503010215E+02  0.16982876961E+04  0.17050865761E+04  0.12509394143E+03 0.  0.
          5    1    3    3  502    0 -0.48427019051E+02 -0.74422493233E+02  0.59334884139E+03  0.59997016897E+03  0.41800000000E+01 0.  1.
         -5    1    3    3    0  502 -0.13460176721E+02  0.13919483018E+02  0.11049388547E+04  0.11051164072E+04  0.41800000000E+01 0.  1.
        -11    1    1    2    0    0 -0.43816764632E+01  0.60196161298E+02  0.10308638515E+03  0.11945534616E+03  0.00000000000E+00 0. -1.
         11    1    1    2    0    0  0.66268872236E+02  0.30684891711E+00  0.14450838071E+03  0.15897902276E+03  0.00000000000E+00 0.  1.
</event>
<event>
 7    1  0.2844572E-009  0.9261941E+02  0.7561462E-02  0.1296630E+00
         -2   -1    0    0    0  501 -0.00000000000E+00  0.00000000000E+00  0.92936602802E+02  0.92936602802E+02  0.00000000000E+00 0. -1.
          2   -1    0    0  501    0  0.00000000000E+00 -0.00000000000E+00 -0.19608348746E+03  0.19608348746E+03  0.00000000000E+00 0.  1.
         25    2    1    2    0    0 -0.57106886456E+02 -0.56387298005E+02 -0.59520512641E+02  0.16009883164E+03  0.12509284796E+03 0.  0.
          5    1    3    3  502    0 -0.35598853574E+02 -0.65261568245E+01 -0.90418007804E+02  0.97482088785E+02  0.41800000000E+01 0.  1.
         -5    1    3    3    0  502 -0.21508032882E+02 -0.49861141181E+02  0.30897495163E+02  0.62616742854E+02  0.41800000000E+01 0.  1.
        -11    1    1    2    0    0  0.10887551969E+02  0.45600056619E+02  0.18792095846E+02  0.50507888669E+02  0.00000000000E+00 0. -1.
         11    1    1    2    0    0  0.46219334487E+02  0.10787241386E+02 -0.62418467868E+02  0.78413369958E+02  0.00000000000E+00 0.  1.
</event>
<event>
 7    1  0.2844572E-009  0.1158646E+03  0.7561462E-02  0.1250079E+00
         -1   -1    0    0    0  501 -0.00000000000E+00  0.00000000000E+00  0.30298522335E+02  0.30298522335E+02  0.00000000000E+00 0.  1.
          1   -1    0    0  501    0  0.00000000000E+00 -0.00000000000E+00 -0.69559195389E+03  0.69559195389E+03  0.00000000000E+00 0. -1.
         25    2    1    2    0    0  0.37728988224E+02 -0.85986533989E+02 -0.30550582370E+03  0.34321745811E+03  0.12508898696E+03 0.  0.
          5    1    3    3  502    0  0.44219257478E+02 -0.10492667345E+03 -0.30158644872E+03  0.32239231999E+03  0.41800000000E+01 0. -1.
         -5    1    3    3    0  502 -0.64902692539E+01  0.18940139459E+02 -0.39193749759E+01  0.20825138125E+02  0.41800000000E+01 0. -1.
        -11    1    1    2    0    0 -0.20145664777E+02  0.72298346677E+02 -0.35064490581E+03  0.35858715637E+03  0.00000000000E+00 0. -1.
         11    1    1    2    0    0 -0.17583323447E+02  0.13688187312E+02 -0.91427020477E+01  0.24085861746E+02  0.00000000000E+00 0.  1.
</event>
<event>
 7    1  0.2844572E-009  0.1150486E+03  0.7561462E-02  0.1251496E+00
          2   -1    0    0  501    0  0.00000000000E+00  0.00000000000E+00  0.14417888596E+04  0.14417888596E+04  0.00000000000E+00 0. -1.
         -2   -1    0    0    0  501 -0.00000000000E+00 -0.00000000000E+00 -0.10008541147E+02  0.10008541147E+02  0.00000000000E+00 0.  1.
         25    2    1    2    0    0  0.52243990934E+00  0.50932032901E+02  0.88567219909E+03  0.89591219346E+03  0.12509623988E+03 0.  0.
          5    1    3    3  502    0 -0.55571595619E+02  0.48046450068E+01  0.52541053134E+03  0.52837958486E+03  0.41800000000E+01 0. -1.
         -5    1    3    3    0  502  0.56094035529E+02  0.46127387895E+02  0.36026166775E+03  0.36753260860E+03  0.41800000000E+01 0. -1.
        -11    1    1    2    0    0  0.10865432207E+02 -0.74475792994E+02  0.45143520704E+03  0.45766630585E+03  0.00000000000E+00 0.  1.
         11    1    1    2    0    0 -0.11387872117E+02  0.23543760093E+02  0.94672912342E+02  0.98218901449E+02  0.00000000000E+00 0. -1.
</event>
<event>
 7    1  0.2844572E-009  0.1590595E+03  0.7561462E-02  0.1189763E+00
          2   -1    0    0  501    0  0.00000000000E+00  0.00000000000E+00  0.49205527006E+03  0.49205527006E+03  0.00000000000E+00 0. -1.
         -2   -1    0    0    0  501 -0.00000000000E+00 -0.00000000000E+00 -0.65967683401E+02  0.65967683401E+02  0.00000000000E+00 0.  1.
         25    2    1    2    0    0 -0.72073858937E+02 -0.11247574098E+03  0.28756493121E+03  0.34086220892E+03  0.12509205553E+03 0.  0.
          5    1    3    3  502    0 -0.58379991027E+02 -0.12537799528E+03  0.15863789283E+03  0.21050253798E+03  0.41800000000E+01 0. -1.
         -5    1    3    3    0  502 -0.13693867910E+02  0.12902254296E+02  0.12892703838E+03  0.13035967095E+03  0.41800000000E+01 0. -1.
        -11    1    1    2    0    0  0.83852541598E+02  0.12007937394E+03  0.10322460920E+03  0.17918042505E+03  0.00000000000E+00 0.  1.
         11    1    1    2    0    0 -0.11778682661E+02 -0.76036329540E+01  0.35298046242E+02  0.37980319480E+02  0.00000000000E+00 0. -1.
</event>
<event>
 7    1  0.2844572E-009  0.1328939E+03  0.7561462E-02  0.1223224E+00
         -2   -1    0    0    0  501 -0.00000000000E+00  0.00000000000E+00  0.28675358891E+02  0.28675358891E+02  0.00000000000E+00 0.  1.
          2   -1    0    0  501    0  0.00000000000E+00 -0.00000000000E+00 -0.79731732164E+03  0.79731732164E+03  0.00000000000E+00 0. -1.
         25    2    1    2    0    0 -0.10797479382E+03  0.86379567631E+01 -0.47017187304E+03  0.49843917107E+03  0.12508735610E+03 0.  0.
          5    1    3    3  502    0 -0.39909237999E+02 -0.35089204865E+02 -0.59635812519E+02  0.79986887116E+02  0.41800000000E+01 0. -1.
         -5    1    3    3    0  502 -0.68065555817E+02  0.43727161628E+02 -0.41053606053E+03  0.41845228395E+03  0.41800000000E+01 0. -1.
        -11    1    1    2    0    0  0.61105427818E+02 -0.41821078737E+02 -0.13057714059E+03  0.15011084431E+03  0.00000000000E+00 0.  1.
         11    1    1    2    0    0  0.46869365998E+02  0.33183121974E+02 -0.16789294911E+03  0.17744266515E+03  0.00000000000E+00 0. -1.
</event>
<event>
 7    1  0.2844572E-009  0.1458949E+03  0.7561462E-02  0.1205610E+00
          1   -1    0    0  501    0  0.00000000000E+00  0.00000000000E+00  0.43881427717E+03  0.43881427717E+03  0.00000000000E+00 0. -1.
         -1   -1    0    0    0  501 -0.00000000000E+00 -0.00000000000E+00 -0.55460521193E+02  0.55460521193E+02  0.00000000000E+00 0.  1.
         25    2    1    2    0    0 -0.46439330291E+02 -0.92026945018E+02  0.14420561279E+03  0.21695195903E+03  0.12508926316E+03 0.  0.
          5    1    3    3  502    0 -0.74026616107E+02 -0.10704422300E+03  0.12002445642E+03  0.17709248462E+03  0.41800000000E+01 0. -1.
         -5    1    3    3    0  502  0.27587285815E+02  0.15017277981E+02  0.24181156370E+02  0.39859474407E+02  0.41800000000E+01 0. -1.
        -11    1    1    2    0    0 -0.19724504197E+02  0.46112242134E+01  0.85431547785E+01  0.21984197692E+02  0.00000000000E+00 0.  1.
         11    1    1    2    0    0  0.66163834489E+02  0.87415720805E+02  0.23060498841E+03  0.25533864165E+03  0.00000000000E+00 0. -1.
</event>
<event>
 7    1  0.2844572E-009  0.1098192E+03  0.7561462E-02  0.1260905E+00
         -1   -1    0    0    0  501 -0.00000000000E+00  0.00000000000E+00  0.78563838845E+02  0.78563838845E+02  0.00000000000E+00 0.  1.
          1   -1    0    0  501    0  0.00000000000E+00 -0.00000000000E+00 -0.18647709204E+03  0.18647709204E+03  0.00000000000E+00 0. -1.
         25    2    1    2    0    0 -0.25073846343E+02  0.36343205248E+02 -0.45243314326E+02  0.14015016482E+03  0.12508231238E+03 0.  0.
          5    1    3    3  502    0 -0.39126475824E+02 -0.36318463381E+02 -0.38020672652E+02  0.65673098311E+02  0.41800000000E+01 0. -1.
         -5    1    3    3    0  502  0.14052629481E+02  0.72661668629E+02 -0.72226416735E+01  0.74477066510E+02  0.41800000000E+01 0. -1.
        -11    1    1    2    0    0 -0.18058029433E+01  0.24960946585E+02 -0.51183559726E+02  0.56974262302E+02  0.00000000000E+00 0. -1.
         11    1    1    2    0    0  0.26879649286E+02 -0.61304151833E+02 -0.11486379147E+02  0.67916503765E+02  0.00000000000E+00 0.  1.
</event>
<event>
 7    1  0.2844572E-009  0.2007245E+03  0.7561462E-02  0.1149129E+00
          1   -1    0    0  501    0  0.00000000000E+00  0.00000000000E+00  0.90357545880E+03  0.90357545880E+03  0.00000000000E+00 0. -1.
         -1   -1    0    0    0  501 -0.00000000000E+00 -0.00000000000E+00 -0.56746654366E+02  0.56746654366E+02  0.00000000000E+00 0.  1.
         25    2    1    2    0    0  0.60238419228E+02  0.15909369649E+03  0.22209457147E+03  0.30645192725E+03  0.12508922265E+03 0.  0.
          5    1    3    3  502    0  0.72019751389E+02  0.25215972757E+02  0.73050638146E+02  0.10571924142E+03  0.41800000000E+01 0.  1.
         -5    1    3    3    0  502 -0.11781332161E+02  0.13387772373E+03  0.14904393332E+03  0.20073268583E+03  0.41800000000E+01 0.  1.
        -11    1    1    2    0    0 -0.22807007251E+02 -0.15042729591E+03  0.45219000615E+03  0.47709991888E+03  0.00000000000E+00 0.  1.
         11    1    1    2    0    0 -0.37431411977E+02 -0.86664005774E+01  0.17254422682E+03  0.17677026704E+03  0.00000000000E+00 0. -1.
</event>
<event>
 7    1  0.2844572E-009  0.1017505E+03  0.7561462E-02  0.1276657E+00
          2   -1    0    0  501    0  0.00000000000E+00  0.00000000000E+00  0.23105197639E+03  0.23105197639E+03  0.00000000000E+00 0. -1.
         -2   -1    0    0    0  501 -0.00000000000E+00 -0.00000000000E+00 -0.51924447312E+02  0.51924447312E+02  0.00000000000E+00 0.  1.
         25    2    1    2    0    0  0.19713237051E+02  0.99824962798E-02  0.99056617138E+02  0.16077313335E+03  0.12508866933E+03 0.  0.
          5    1    3    3  502    0 -0.23583711733E+02  0.48234604071E+02  0.73188609613E+02  0.90867009778E+02  0.41800000000E+01 0. -1.
         -5    1    3    3    0  502  0.43296948783E+02 -0.48224621574E+02  0.25868007526E+02  0.69906123575E+02  0.41800000000E+01 0. -1.
        -11    1    1    2    0    0  0.23064420430E+02  0.25907546221E+02  0.99751743807E+01  0.36092555256E+02  0.00000000000E+00 0. -1.
         11    1    1    2    0    0 -0.42777657481E+02 -0.25917528718E+02  0.70095737555E+02  0.86110735090E+02  0.00000000000E+00 0.  1.
</event>
<event>
 7    1  0.2844572E-009  0.1587394E+03  0.7561462E-02  0.1190127E+00
          2   -1    0    0  501    0  0.00000000000E+00  0.00000000000E+00  0.82520669039E+03  0.82520669039E+03  0.00000000000E+00 0. -1.
         -2   -1    0    0    0  501 -0.00000000000E+00 -0.00000000000E+00 -0.34286343875E+02  0.34286343875E+02  0.00000000000E+00 0.  1.
         25    2    1    2    0    0 -0.81852447556E+02  0.10213120162E+03  0.35159187157E+03  0.39546809636E+03  0.12509022971E+03 0.  0.
          5    1    3    3  502    0 -0.10221318465E+03  0.30959905901E+02  0.20453433831E+03  0.23077655608E+03  0.41800000000E+01 0. -1.
         -5    1    3    3    0  502  0.20360737096E+02  0.71171295718E+02  0.14705753326E+03  0.16469154028E+03  0.41800000000E+01 0. -1.
        -11    1    1    2    0    0  0.12942994583E+02 -0.45359862337E+02  0.25361419933E+03  0.25796356394E+03  0.00000000000E+00 0. -1.
         11    1    1    2    0    0  0.68909452973E+02 -0.56771339281E+02  0.18571427562E+03  0.20606137397E+03  0.00000000000E+00 0.  1.
</event>
<event>
 7    1  0.2844572E-009  0.9455311E+02  0.7561462E-02  0.1292186E+00
         -2   -1    0    0    0  501 -0.00000000000E+00  0.00000000000E+00  0.40246311669E+02  0.40246311669E+02  0.00000000000E+00 0.  1.
          2   -1    0    0  501    0  0.00000000000E+00 -0.00000000000E+00 -0.33535936298E+03  0.33535936298E+03  0.00000000000E+00 0. -1.
         25    2    1    2    0    0  0.28502433949E+02 -0.25875581391E+02 -0.19322091574E+03  0.23337546079E+03  0.12509136248E+03 0.  0.
          5    1    3    3  502    0 -0.36633702042E+02 -0.47621631428E+02 -0.70833649589E+02  0.92977019845E+02  0.41800000000E+01 0. -1.
         -5    1    3    3    0  502  0.65136135991E+02  0.21746050037E+02 -0.12238726615E+03  0.14039844094E+03  0.41800000000E+01 0. -1.
        -11    1    1    2    0    0 -0.92728978179E+01  0.36810428491E+02  0.40947120845E-02  0.37960430667E+02  0.00000000000E+00 0.  1.
         11    1    1    2    0    0 -0.19229536131E+02 -0.10934847100E+02 -0.10189623029E+03  0.10426978320E+03  0.00000000000E+00 0. -1.
</event>
<event>
 7    1  0.2844572E-009  0.9623114E+02  0.7561462E-02  0.1288427E+00
         -1   -1    0    0    0  501 -0.00000000000E+00  0.00000000000E+00  0.17418805913E+03  0.17418805913E+03  0.00000000000E+00 0.  1.
          1   -1    0    0  501    0  0.00000000000E+00 -0.00000000000E+00 -0.10589246243E+03  0.10589246243E+03  0.00000000000E+00 0. -1.
         25    2    1    2    0    0  0.46255493011E+02  0.99110612816E+01  0.11018375099E+03  0.17327751209E+03  0.12508731929E+03 0.  0.
          5    1    3    3  502    0 -0.11127471306E+02 -0.46238246988E+02  0.66259866120E+02  0.81667853899E+02  0.41800000000E+01 0. -1.
         -5    1    3    3    0  502  0.57382964317E+02  0.56149308269E+02  0.43923884865E+02  0.91609658195E+02  0.41800000000E+01 0. -1.
        -11    1    1    2    0    0 -0.49457307647E+02  0.44095551404E+01 -0.63544397428E+02  0.80643412011E+02  0.00000000000E+00 0. -1.
         11    1    1    2    0    0  0.32018146364E+01 -0.14320616422E+02  0.21656243150E+02  0.26159597456E+02  0.00000000000E+00 0.  1.
</event>
<event>
 7    1  0.2844572E-009  0.1309044E+03  0.7561462E-02  0.1226120E+00
          2   -1    0    0  501    0  0.00000000000E+00  0.00000000000E+00  0.44137476882E+02  0.44137476882E+02  0.00000000000E+00 0. -1.
         -2   -1    0    0    0  501 -0.00000000000E+00 -0.00000000000E+00 -0.50778206900E+03  0.50778206900E+03  0.00000000000E+00 0.  1.
         25    2    1    2    0    0  0.33568928735E+02 -0.88394371770E+02 -0.32814701014E+03  0.36368653228E+03  0.12508795130E+03 0.  0.
          5    1    3    3  502    0  0.59400997672E+02 -0.14060406114E+02 -0.22901463402E+03  0.23704714413E+03  0.41800000000E+01 0.  1.
         -5    1    3    3    0  502 -0.25832068937E+02 -0.74333965656E+02 -0.99132376124E+02  0.12663938815E+03  0.41800000000E+01 0.  1.
        -11    1    1    2    0    0  0.24470323363E+02  0.36610377427E+02 -0.84313807801E+02  0.95120632077E+02  0.00000000000E+00 0. -1.
         11    1    1    2    0    0 -0.58039252098E+02  0.51783994343E+02 -0.51183774170E+02  0.93112381521E+02  0.00000000000E+00 0.  1.
</event>
<event>
 7    1  0.2844572E-009  0.1123645E+03  0.7561462E-02  0.1256253E+00
          4   -1    0    0  501    0  0.00000000000E+00  0.00000000000E+00  0.85998273745E+02  0.85998273745E+02  0.00000000000E+00 0. -1.
         -4   -1    0    0    0  501 -0.00000000000E+00 -0.00000000000E+00 -0.22694674569E+03  0.22694674569E+03  0.00000000000E+00 0.  1.
         25    2    1    2    0    0 -0.23460169220E+02  0.68587812501E+02 -0.21843708103E+02  0.14621366345E+03  0.12508645104E+03 0.  0.
          5    1    3    3  502    0  0.65104548085E+01  0.10017565797E+03 -0.10486350231E+02  0.10101972289E+03  0.41800000000E+01 0. -1.
         -5    1    3    3    0  502 -0.29970624028E+02 -0.31587845467E+02 -0.11357357873E+02  0.45193940564E+02  0.41800000000E+01 0. -1.
        -11    1    1    2    0    0 -0.69663320542E+01 -0.32827350685E+02 -0.11477360517E+03  0.11957903319E+03  0.00000000000E+00 0. -1.
         11    1    1    2    0    0  0.30426501274E+02 -0.35760461816E+02 -0.43311586696E+01  0.47152322790E+02  0.00000000000E+00 0.  1.
</event>
<event>
 6    1  0.2844572E-009  0.1202232E+03  0.7561462E-02  0.1242729E+00
         -2   -1    0    0    0  501 -0.00000000000E+00  0.00000000000E+00  0.41252750829E+02  0.41252750829E+02  0.00000000000E+00 0.  1.
          2   -1    0    0  501    0  0.00000000000E+00 -0.00000000000E+00 -0.37885281204E+03  0.37885281204E+03  0.00000000000E+00 0. -1.
          5    1    1    2  502    0  0.26022510125E+02  0.83942579702E+02 -0.88700062777E+02  0.12493478802E+03  0.41800000000E+01 0.  1.
         -5    1    1    2    0  502  0.14726280261E+02 -0.46739119100E+02 -0.55332515769E+02  0.74030860361E+02  0.41800000000E+01 0.  1.
        -11    1    1    2    0    0 -0.65026789199E+02 -0.43456442213E+02 -0.11838062604E+03  0.14188346734E+03  0.00000000000E+00 0.  1.
         11    1    1    2    0    0  0.24277998812E+02  0.62529816103E+01 -0.75186856624E+02  0.79256447147E+02  0.00000000000E+00 0. -1.
</event>
<event>
 7    1  0.3147121E-009  0.1195466E+03  0.7561462E-02  0.1243847E+00
          1   -1    0    0  501    0  0.00000000000E+00  0.00000000000E+00  0.59411911348E+03  0.59411911348E+03  0.00000000000E+00 0. -1.
         -1   -1    0    0    0  501 -0.00000000000E+00 -0.00000000000E+00 -0.37808420206E+02  0.37808420206E+02  0.00000000000E+00 0.  1.
         25    2    1    2    0    0 -0.33909952423E+02  0.51024235868E+02  0.47531700368E+03  0.49530547083E+03  0.12509155818E+03 0.  0.
          5    1    3    3  502    0 -0.76387360808E+02  0.39342463326E+02  0.38791674782E+03  0.39734082845E+03  0.41800000000E+01 0.  1.
         -5    1    3    3    0  502  0.42477408385E+02  0.11681772542E+02  0.87400255853E+02  0.97964642376E+02  0.41800000000E+01 0.  1.
        -11    1    1    2    0    0  0.46148385487E+02  0.94579900689E+01  0.45195228168E+02  0.65281970776E+02  0.00000000000E+00 0.  1.
         11    1    1    2    0    0 -0.12238433064E+02 -0.60482225937E+02  0.35798461434E+02  0.71340092088E+02  0.00000000000E+00 0. -1.
</event>
<event>
 7    1  0.2844572E-009  0.1106932E+03  0.7561462E-02  0.1259292E+00
          1   -1    0    0  501    0  0.00000000000E+00  0.00000000000E+00  0.93487649494E+03  0.93487649494E+03  0.00000000000E+00 0. -1.
         -1   -1    0    0    0  501 -0.00000000000E+00 -0.00000000000E+00 -0.14953548963E+02  0.14953548963E+02  0.00000000000E+00 0.  1.
         25    2    1    2    0    0 -0.19394659583E+02  0.49336386053E+02  0.51566041304E+03  0.53325704018E+03  0.12508867859E+03 0.  0.
          5    1    3    3  502    0 -0.62489918677E+02  0.10660812861E+02  0.38599238769E+03  0.39118568305E+03  0.41800000000E+01 0. -1.
         -5    1    3    3    0  502  0.43095259094E+02  0.38675573192E+02  0.12966802535E+03  0.14207135713E+03  0.41800000000E+01 0. -1.
        -11    1    1    2    0    0  0.28591114228E+02  0.16710297099E+02  0.15862168757E+03  0.16204174034E+03  0.00000000000E+00 0.  1.
         11    1    1    2    0    0 -0.91964546446E+01 -0.66046683153E+02  0.24564084537E+03  0.25453126340E+03  0.00000000000E+00 0. -1.
</event>
<event>
 6    1  0.2844572E-009  0.1146063E+03  0.7561462E-02  0.1252270E+00
          1   -1    0    0  501    0  0.00000000000E+00  0.00000000000E+00  0.54134131225E+02  0.54134131225E+02  0.00000000000E+00 0. -1.
         -1   -1    0    0    0  501 -0.00000000000E+00 -0.00000000000E+00 -0.26868097036E+03  0.26868097036E+03  0.00000000000E+00 0.  1.
          5    1    1    2  502    0  0.20568747091E+02 -0.38624935020E+02 -0.30275579355E+02  0.53376418646E+02  0.41800000000E+01 0.  1.
         -5    1    1    2    0  502 -0.59656180090E+02  0.67455790670E+02 -0.57748973922E+02  0.10705867507E+03  0.41800000000E+01 0.  1.
        -11    1    1    2    0    0  0.28635790463E+01 -0.52017502274E+02 -0.39734826613E+02  0.65520050929E+02  0.00000000000E+00 0. -1.
         11    1    1    2    0    0  0.36223853953E+02  0.23186646624E+02 -0.86787459244E+02  0.96859956942E+02  0.00000000000E+00 0.  1.
</event>
<event>
 7    1  0.2844572E-009  0.1101493E+03  0.7561462E-02  0.1260294E+00
          1   -1    0    0  501    0  0.00000000000E+00  0.00000000000E+00  0.16592034505E+03  0.16592034505E+03  0.00000000000E+00 0. -1.
         -1   -1    0    0    0  501 -0.00000000000E+00 -0.00000000000E+00 -0.16959744271E+03  0.16959744271E+03  0.00000000000E+00 0.  1.
         25    2    1    2    0    0  0.82027655986E+02 -0.61404374548E+02  0.74373621681E+02  0.17798411961E+03  0.12509147721E+03 0.  0.
          5    1    3    3  502    0  0.23159140104E+02 -0.51890336408E+02 -0.24837132081E+02  0.62155517156E+02  0.41800000000E+01 0. -1.
         -5    1    3    3    0  502  0.58868515883E+02 -0.95140381401E+01  0.99210753763E+02  0.11582860245E+03  0.41800000000E+01 0. -1.
        -11    1    1    2    0    0 -0.27728081028E+02  0.12304039657E+02 -0.78678283214E+02  0.84323828891E+02  0.00000000000E+00 0.  1.
         11    1    1    2    0    0 -0.54299574959E+02  0.49100334891E+02  0.62756387485E+00  0.73209839254E+02  0.00000000000E+00 0. -1.
</event>
<event>
 7    1  0.2844572E-009  0.2698051E+03  0.7561462E-02  0.1101391E+00
          2   -1    0    0  501    0  0.00000000000E+00  0.00000000000E+00  0.81162063164E+03  0.81162063164E+03  0.00000000000E+00 0. -1.
         -2   -1    0    0    0  501 -0.00000000000E+00 -0.00000000000E+00 -0.10584179326E+03  0.10584179326E+03  0.00000000000E+00 0.  1.
         25    2    1    2    0    0  0.33252076743E+02 -0.26450516329E+03  0.44082762400E+03  0.53013720319E+03  0.12509107926E+03 0.  0.
          5    1    3    3  502    0  0.65659429606E+01 -0.29245731430E+02  0.61103716755E+00  0.30269955075E+02  0.41800000000E+01 0. -1.
         -5    1    3    3    0  502  0.26686133783E+02 -0.23525943186E+03  0.44021658684E+03  0.49986724812E+03  0.41800000000E+01 0. -1.
        -11    1    1    2    0    0 -0.58358986530E+01  0.22126606969E+03  0.25017708236E+03  0.33403787787E+03  0.00000000000E+00 0. -1.
         11    1    1    2    0    0 -0.27416178090E+02  0.43239093597E+02  0.14774132016E+02  0.53287343835E+02  0.00000000000E+00 0.  1.
</event>
<event>
 7    1  0.2844572E-009  0.1023338E+03  0.7561462E-02  0.1275464E+00
         -1   -1    0    0    0  501 -0.00000000000E+00  0.00000000000E+00  0.10848348156E+03  0.10848348156E+03  0.00000000000E+00 0.  1.
          1   -1    0    0  501    0  0.00000000000E+00 -0.00000000000E+00 -0.11729527499E+03  0.11729527499E+03  0.00000000000E+00 0. -1.
         25    2    1    2    0    0  0.19856772275E+02 -0.86022972809E+01  0.15458493066E+02  0.12786634122E+03  0.12507016145E+03 0.  0.
          5    1    3    3  502    0  0.70376712431E+02 -0.13718768481E+01  0.26772860246E+02  0.75425606689E+02  0.41800000000E+01 0. -1.
         -5    1    3    3    0  502 -0.50519940156E+02 -0.72304204327E+01 -0.11314367180E+02  0.52440734527E+02  0.41800000000E+01 0. -1.
        -11    1    1    2    0    0 -0.10273154945E+02 -0.35943482758E+02  0.12440774398E+02  0.39398534655E+02  0.00000000000E+00 0.  1.
         11    1    1    2    0    0 -0.95836173294E+01  0.44545780039E+02 -0.36711060894E+02  0.58513880681E+02  0.00000000000E+00 0. -1.
</event>
<event>
 6    1  0.2844572E-009  0.1886182E+03  0.7561462E-02  0.1159714E+00
          2   -1    0    0  501    0  0.00000000000E+00  0.00000000000E+00  0.28280016577E+03  0.28280016577E+03  0.00000000000E+00 0. -1.
         -2   -1    0    0    0  501 -0.00000000000E+00 -0.00000000000E+00 -0.14845545676E+03  0.14845545676E+03  0.00000000000E+00 0.  1.
          5    1    1    2  502    0  0.67414469104E+02 -0.74622394494E+02  0.62382292976E+02  0.11841551960E+03  0.41800000000E+01 0. -1.
         -5    1    1    2    0  502  0.97275208517E+02  0.46432304922E+02  0.57460856787E+02  0.12221966943E+03  0.41800000000E+01 0. -1.
        -11    1    1    2    0    0 -0.15081730955E+03  0.32319440994E+02 -0.17760304741E+02  0.15526054087E+03  0.00000000000E+00 0.  1.
         11    1    1    2    0    0 -0.13872368066E+02 -0.41293514213E+01  0.32261863986E+02  0.35359892630E+02  0.00000000000E+00 0. -1.
</event>
<event>
 7    1  0.2844572E-009  0.1269216E+03  0.7561462E-02  0.1232096E+00
         -2   -1    0    0    0  501 -0.00000000000E+00  0.00000000000E+00  0.25734140443E+02  0.25734140443E+02  0.00000000000E+00 0.  1.
          2   -1    0    0  501    0  0.00000000000E+00 -0.00000000000E+00 -0.98941085277E+03  0.98941085277E+03  0.00000000000E+00 0. -1.
         25    2    1    2    0    0 -0.39877241750E+02  0.94733316228E+02 -0.69057864405E+03  0.70930339234E+03  0.12509133925E+03 0.  0.
          5    1    3    3  502    0 -0.41072281234E+02  0.29390276447E+02 -0.56862713830E+03  0.57088091179E+03  0.41800000000E+01 0.  1.
         -5    1    3    3    0  502  0.11950394839E+01  0.65343039781E+02 -0.12195150575E+03  0.13842248055E+03  0.41800000000E+01 0.  1.
        -11    1    1    2    0    0 -0.29807646597E+02 -0.22812279550E+02 -0.75554942018E+02  0.84364952186E+02  0.00000000000E+00 0.  1.
         11    1    1    2    0    0  0.69684888347E+02 -0.71921036677E+02 -0.19754312626E+03  0.22147664869E+03  0.00000000000E+00 0. -1.
</event>
<event>
 7    1  0.2844572E-009  0.1378873E+03  0.7561462E-02  0.1216200E+00
          1   -1    0    0  501    0  0.00000000000E+00  0.00000000000E+00  0.74025988322E+02  0.74025988322E+02  0.00000000000E+00 0. -1.
         -1   -1    0    0    0  501 -0.00000000000E+00 -0.00000000000E+00 -0.43020039157E+03  0.43020039157E+03  0.00000000000E+00 0.  1.
         25    2    1    2    0    0 -0.63596612106E+02  0.72740630623E+02 -0.33521004237E+03  0.37060349901E+03  0.12508178348E+03 0.  0.
          5    1    3    3  502    0  0.28236368757E+02  0.33542698218E+02 -0.42113690306E+02  0.60938004853E+02  0.41800000000E+01 0. -1.
         -5    1    3    3    0  502 -0.91832980863E+02  0.39197932405E+02 -0.29309635206E+03  0.30966549416E+03  0.41800000000E+01 0. -1.
        -11    1    1    2    0    0  0.59940182749E+02 -0.93309431136E+02 -0.15115704724E+02  0.11192836985E+03  0.00000000000E+00 0.  1.
         11    1    1    2    0    0  0.36564293568E+01  0.20568800513E+02 -0.58486561525E+01  0.21694511033E+02  0.00000000000E+00 0. -1.
</event>
<event>
 7    1  0.2844572E-009  0.1154809E+03  0.7561462E-02  0.1250744E+00
         -2   -1    0    0    0  501 -0.00000000000E+00  0.00000000000E+00  0.23271026941E+02  0.23271026941E+02  0.00000000000E+00 0. -1.
          2   -1    0    0  501    0  0.00000000000E+00 -0.00000000000E+00 -0.59679267530E+03  0.59679267530E+03  0.00000000000E+00 0.  1.
         25    2    1    2    0    0  0.31197857674E+02  0.26615227047E+02 -0.34619619350E+03  0.37038033327E+03  0.12509240682E+03 0.  0.
          5    1    3    3  502    0 -0.16038048268E+02 -0.43374245991E+02 -0.14108399167E+03  0.14852847980E+03  0.41800000000E+01 0.  1.
         -5    1    3    3    0  502  0.47235905942E+02  0.69989473038E+02 -0.20511220183E+03  0.22185185347E+03  0.41800000000E+01 0.  1.
        -11    1    1    2    0    0 -0.10340752972E+02 -0.59857323839E+02 -0.16712044261E+03  0.17781752649E+03  0.00000000000E+00 0.  1.
         11    1    1    2    0    0 -0.20857104702E+02  0.33242096792E+02 -0.60205012250E+02  0.71865842483E+02  0.00000000000E+00 0. -1.
</event>
<event>
 7    1  0.2844572E-009  0.1134793E+03  0.7561462E-02  0.1254259E+00
          1   -1    0    0  501    0  0.00000000000E+00  0.00000000000E+00  0.28384723501E+03  0.28384723501E+03  0.00000000000E+00 0. -1.
         -1   -1    0    0    0  501 -0.00000000000E+00 -0.00000000000E+00 -0.93562901829E+02  0.93562901829E+02  0.00000000000E+00 0.  1.
         25    2    1    2    0    0  0.60714882421E+02  0.88557645926E+02  0.17555780720E+03  0.24082672321E+03  0.12509281892E+03 0.  0.
          5    1    3    3  502    0 -0.62737569149E+01 -0.78472088207E+00 -0.16763910387E+02  0.18397741822E+02  0.41800000000E+01 0.  1.
         -5    1    3    3    0  502  0.66988639336E+02  0.89342366808E+02  0.19232171758E+03  0.22242898139E+03  0.41800000000E+01 0.  1.
        -11    1    1    2    0    0 -0.77305437465E+01 -0.73310600163E+01  0.35790330777E+02  0.37342382419E+02  0.00000000000E+00 0. -1.
         11    1    1    2    0    0 -0.52984338675E+02 -0.81226585910E+02 -0.21063804793E+02  0.99241031211E+02  0.00000000000E+00 0.  1.
</event>
<event>
 7    1  0.2844572E-009  0.1083539E+03  0.7561462E-02  0.1263649E+00
          2   -1    0    0  501    0  0.00000000000E+00  0.00000000000E+00  0.87874431045E+03  0.87874431045E+03  0.00000000000E+00 0. -1.
         -2   -1    0    0    0  501 -0.00000000000E+00 -0.00000000000E+00 -0.16780777984E+02  0.16780777984E+02  0.00000000000E+00 0.  1.
         25    2    1    2    0    0  0.97404346059E+01 -0.10850782918E+02  0.64498777289E+03  0.65716813171E+03  0.12509240824E+03 0.  0.
          5    1    3    3  502    0  0.29585317625E+02 -0.60073193840E+02  0.26001561978E+03  0.26853244602E+03  0.41800000000E+01 0.  1.
         -5    1    3    3    0  502 -0.19844883020E+02  0.49222410921E+02  0.38497215311E+03  0.38863568569E+03  0.41800000000E+01 0.  1.
        -11    1    1    2    0    0  0.82075746188E+00  0.52958874198E+02  0.14416246741E+03  0.15358428633E+03  0.00000000000E+00 0. -1.
         11    1    1    2    0    0 -0.10561192068E+02 -0.42108091279E+02  0.72813292169E+02  0.84772670393E+02  0.00000000000E+00 0.  1.
</event>
<event>
 7    1  0.2844572E-009  0.7874108E+02  0.7561462E-02  0.1332662E+00
          1   -1    0    0  501    0  0.00000000000E+00  0.00000000000E+00  0.25637960245E+03  0.25637960245E+03  0.00000000000E+00 0. -1.
         -1   -1    0    0    0  501 -0.00000000000E+00 -0.00000000000E+00 -0.56939513299E+02  0.56939513299E+02  0.00000000000E+00 0.  1.
         25    2    1    2    0    0 -0.46078256603E+02  0.26827392486E+02  0.12358582047E+03  0.18373852378E+03  0.12507387970E+03 0.  0.
          5    1    3    3  502    0 -0.45646407657E+02  0.29620478540E+02  0.14855608650E+03  0.15826354765E+03  0.41800000000E+01 0.  1.
         -5    1    3    3    0  502 -0.43184894580E+00 -0.27930860547E+01 -0.24970266029E+02  0.25474976129E+02  0.41800000000E+01 0.  1.
        -11    1    1    2    0    0  0.11354851691E+02  0.29545533358E+02  0.48562903111E+02  0.57967462916E+02  0.00000000000E+00 0. -1.
         11    1    1    2    0    0  0.34723404912E+02 -0.56372925844E+02  0.27291365568E+02  0.71613129044E+02  0.00000000000E+00 0.  1.
</event>
<event>
 7    1  0.2844572E-009  0.9978619E+02  0.7561462E-02  0.1280746E+00
          1   -1    0    0  501    0  0.00000000000E+00  0.00000000000E+00  0.20342932044E+03  0.20342932044E+03  0.00000000000E+00 0. -1.
         -1   -1    0    0    0  501 -0.00000000000E+00 -0.00000000000E+00 -0.79705219334E+02  0.79705219334E+02  0.00000000000E+00 0.  1.
         25    2    1    2    0    0  0.42019847321E+01  0.46889475687E+02  0.11754580693E+03  0.17800271162E+03  0.12510663056E+03 0.  0.
          5    1    3    3  502    0  0.39178363163E+02  0.71047863413E+02  0.42584069608E+02  0.91725778383E+02  0.41800000000E+01 0.  1.
         -5    1    3    3    0  502 -0.34976378431E+02 -0.24158387726E+02  0.74961737322E+02  0.86276933233E+02  0.41800000000E+01 0.  1.
        -11    1    1    2    0    0 -0.20225086213E+02  0.53951959415E+01 -0.32141930893E+02  0.38357085044E+02  0.00000000000E+00 0.  1.
         11    1    1    2    0    0  0.16023101481E+02 -0.52284671629E+02  0.38320225065E+02  0.66774743110E+02  0.00000000000E+00 0. -1.
</event>
<event>
 7    1  0.2844572E-009  0.8526094E+02  0.7561462E-02  0.1314752E+00
          2   -1    0    0  501    0  0.00000000000E+00  0.00000000000E+00  0.56545571269E+02  0.56545571269E+02  0.00000000000E+00 0. -1.
         -2   -1    0    0    0  501 -0.00000000000E+00 -0.00000000000E+00 -0.23929603863E+03  0.23929603863E+03  0.00000000000E+00 0.  1.
         25    2    1    2    0    0 -0.26285200079E+01 -0.41491450827E+02 -0.90192805999E+02  0.15972095880E+03  0.12509033862E+03 0.  0.
          5    1    3    3  502    0  0.40380250870E+02  0.31327019951E+01 -0.88685287673E+02  0.97585506771E+02  0.41800000000E+01 0.  1.
         -5    1    3    3    0  502 -0.43008770878E+02 -0.44624152822E+02 -0.15075183258E+01  0.62135452030E+02  0.41800000000E+01 0.  1.
        -11    1    1    2    0    0  0.36793272665E+01  0.54506527821E+02 -0.10482379822E+03  0.11820544699E+03  0.00000000000E+00 0.  1.
         11    1    1    2    0    0 -0.10508072586E+01 -0.13015076994E+02  0.12266136856E+02  0.17915204113E+02  0.00000000000E+00 0. -1.
</event>
<event>
 7    1  0.2844572E-009  0.1276479E+03  0.7561462E-02  0.1230988E+00
         -2   -1    0    0    0  501 -0.00000000000E+00  0.00000000000E+00  0.71533355067E+02  0.71533355067E+02  0.00000000000E+00 0. -1.
          2   -1    0    0  501    0  0.00000000000E+00 -0.00000000000E+00 -0.32452333868E+03  0.32452333868E+03  0.00000000000E+00 0.  1.
         25    2    1    2    0    0  0.69445080691E+01 -0.94259164961E+02 -0.73081501365E+02  0.17297722670E+03  0.12508876346E+03 0.  0.
          5    1    3    3  502    0  0.64075769567E+02 -0.53190916929E+02 -0.56034895092E+02  0.10046073739E+03  0.41800000000E+01 0.  1.
         -5    1    3    3    0  502 -0.57131261498E+02 -0.41068248032E+02 -0.17046606273E+02  0.72516489312E+02  0.41800000000E+01 0.  1.
        -11    1    1    2    0    0 -0.20472892272E+02  0.75975640721E+02 -0.54721170484E+02  0.95842807764E+02  0.00000000000E+00 0. -1.
         11    1    1    2    0    0  0.13528384202E+02  0.18283524240E+02 -0.12518731176E+03  0.12723665927E+03  0.00000000000E+00 0.  1.
</event>
<event>
 7    1  0.2844572E-009  0.1076121E+03  0.7561462E-02  0.1265057E+00
          2   -1    0    0  501    0  0.00000000000E+00  0.00000000000E+00  0.50685854790E+03  0.50685854790E+03  0.00000000000E+00 0. -1.
         -2   -1    0    0    0  501 -0.00000000000E+00 -0.00000000000E+00 -0.38259542301E+02  0.38259542301E+02  0.00000000000E+00 0.  1.
         25    2    1    2    0    0 -0.28187674407E+02  0.45407809960E+02  0.38600866600E+03  0.40927402136E+03  0.12508445202E+03 0.  0.
          5    1    3    3  502    0 -0.33670185624E+02 -0.35741998724E+02  0.94184066813E+02  0.10629808424E+03  0.41800000000E+01 0. -1.
         -5    1    3    3    0  502  0.54825112172E+01  0.81149808684E+02  0.29182459919E+03  0.30297593712E+03  0.41800000000E+01 0. -1.
        -11    1    1    2    0    0 -0.18721045782E+02 -0.29555657553E+02 -0.48868083485E+01  0.35325562195E+02  0.00000000000E+00 0.  1.
         11    1    1    2    0    0  0.46908720189E+02 -0.15852152408E+02  0.87477147941E+02  0.10051850664E+03  0.00000000000E+00 0. -1.
</event>
<event>
 7    1  0.2844572E-009  0.2404685E+03  0.7561462E-02  0.1119481E+00
         -2   -1    0    0    0  501 -0.00000000000E+00  0.00000000000E+00  0.64738711749E+02  0.64738711749E+02  0.00000000000E+00 0.  1.
          2   -1    0    0  501    0  0.00000000000E+00 -0.00000000000E+00 -0.10872968669E+04  0.10872968669E+04  0.00000000000E+00 0. -1.
         25    2    1    2    0    0 -0.43379770064E+02  0.21742172013E+03 -0.73195736205E+03  0.77496177292E+03  0.12510060268E+03 0.  0.
          5    1    3    3  502    0  0.41705150081E+02  0.10777515234E+03 -0.32305500914E+03  0.34312798536E+03  0.41800000000E+01 0.  1.
         -5    1    3    3    0  502 -0.85084920145E+02  0.10964656779E+03 -0.40890235291E+03  0.43183378756E+03  0.41800000000E+01 0.  1.
        -11    1    1    2    0    0  0.24264698286E+02 -0.32590556919E+02 -0.12321572266E+02  0.42458699065E+02  0.00000000000E+00 0.  1.
         11    1    1    2    0    0  0.19115071778E+02 -0.18483116321E+03 -0.27827922086E+03  0.33461510669E+03  0.00000000000E+00 0. -1.
</event>
<event>
 7    1  0.2844572E-009  0.1351268E+03  0.7561462E-02  0.1220041E+00
          1   -1    0    0  501    0  0.00000000000E+00  0.00000000000E+00  0.31188337248E+03  0.31188337248E+03  0.00000000000E+00 0. -1.
         -1   -1    0    0    0  501 -0.00000000000E+00 -0.00000000000E+00 -0.74138707331E+02  0.74138707331E+02  0.00000000000E+00 0.  1.
         25    2    1    2    0    0  0.84690226773E+02  0.46477750336E+02  0.72334633461E+02  0.17381689706E+03  0.12508956278E+03 0.  0.
          5    1    3    3  502    0  0.60450062158E+02 -0.27253824181E+02  0.69338502369E+02  0.96032709314E+02  0.41800000000E+01 0. -1.
         -5    1    3    3    0  502  0.24240164615E+02  0.73731574517E+02  0.29961310923E+01  0.77784187743E+02  0.41800000000E+01 0. -1.
        -11    1    1    2    0    0 -0.98110991456E+02 -0.25820638977E+02  0.15546602593E+03  0.18563985902E+03  0.00000000000E+00 0. -1.
         11    1    1    2    0    0  0.13420764683E+02 -0.20657111359E+02  0.99440057665E+01  0.26565323733E+02  0.00000000000E+00 0.  1.
</event>
<event>
 7    1  0.2844572E-009  0.1297275E+03  0.7561462E-02  0.1227861E+00
          2   -1    0    0  501    0  0.00000000000E+00  0.00000000000E+00  0.18063034701E+04  0.18063034701E+04  0.00000000000E+00 0.  1.
         -2   -1    0    0    0  501 -0.00000000000E+00 -0.00000000000E+00 -0.15757463709E+02  0.15757463709E+02  0.00000000000E+00 0. -1.
         25    2    1    2    0    0  0.30808029277E+02 -0.11929853234E+03  0.11529018123E+04  0.11661949640E+04  0.12508729261E+03 0.  0.
          5    1    3    3  502    0  0.10555883082E+02 -0.35714229436E+01  0.60828093911E+01  0.13366177448E+02  0.41800000000E+01 0.  1.
         -5    1    3    3    0  502  0.20252146195E+02 -0.11572710940E+03  0.11468190029E+04  0.11528287865E+04  0.41800000000E+01 0.  1.
        -11    1    1    2    0    0 -0.41218677771E+02  0.95911743219E+02  0.60711250674E+03  0.61602243281E+03  0.00000000000E+00 0.  1.
         11    1    1    2    0    0  0.10410648494E+02  0.23386789123E+02  0.30531687327E+02  0.39843536974E+02  0.00000000000E+00 0. -1.
</event>
<event>
 7    1  0.2844572E-009  0.9214384E+02  0.7561462E-02  0.1297742E+00
         -2   -1    0    0    0  501 -0.00000000000E+00  0.00000000000E+00  0.22645398071E+02  0.22645398071E+02  0.00000000000E+00 0.  1.
          2   -1    0    0  501    0  0.00000000000E+00 -0.00000000000E+00 -0.58933562000E+03  0.58933562000E+03  0.00000000000E+00 0. -1.
         25    2    1    2    0    0  0.64286857393E+01  0.24180121084E+02 -0.40552178742E+03  0.42511350872E+03  0.12509024330E+03 0.  0.
          5    1    3    3  502    0  0.17069364660E+02  0.68591285988E+02 -0.32334373569E+03  0.33100569713E+03  0.41800000000E+01 0.  1.
         -5    1    3    3    0  502 -0.10640678920E+02 -0.44411164904E+02 -0.82178051729E+02  0.94107811589E+02  0.41800000000E+01 0.  1.
        -11    1    1    2    0    0 -0.21937365408E+02  0.14264348411E+02 -0.68091263646E+01  0.27038562064E+02  0.00000000000E+00 0.  1.
         11    1    1    2    0    0  0.15508679669E+02 -0.38444469494E+02 -0.15435930815E+03  0.15982894729E+03  0.00000000000E+00 0. -1.
</event>
<event>
 7    1  0.2844572E-009  0.1399516E+03  0.7561462E-02  0.1213394E+00
         -2   -1    0    0    0  501 -0.00000000000E+00  0.00000000000E+00  0.64332071011E+02  0.64332071011E+02  0.00000000000E+00 0. -1.
          2   -1    0    0  501    0  0.00000000000E+00 -0.00000000000E+00 -0.36765302074E+03  0.36765302074E+03  0.00000000000E+00 0.  1.
         25    2    1    2    0    0 -0.43559820204E+02  0.97017746657E+02 -0.19234502577E+03  0.25289273675E+03  0.12509287054E+03 0.  0.
          5    1    3    3  502    0  0.20809856130E+02  0.96195261633E+02 -0.10120536417E+03  0.14123234972E+03  0.41800000000E+01 0.  1.
         -5    1    3    3    0  502 -0.64369676334E+02  0.82248502379E+00 -0.91139661609E+02  0.11166038703E+03  0.41800000000E+01 0.  1.
        -11    1    1    2    0    0  0.18666032749E+02 -0.88691091989E+02 -0.32405427373E+02  0.96253011902E+02  0.00000000000E+00 0. -1.
         11    1    1    2    0    0  0.24893787455E+02 -0.83266546675E+01 -0.78570496577E+02  0.82839343094E+02  0.00000000000E+00 0.  1.
</event>
<event>
 7    1  0.2844572E-009  0.1355566E+03  0.7561462E-02  0.1219436E+00
         -1   -1    0    0    0  501 -0.00000000000E+00  0.00000000000E+00  0.48737536348E+02  0.48737536348E+02  0.00000000000E+00 0.  1.
          1   -1    0    0  501    0  0.00000000000E+00 -0.00000000000E+00 -0.41235020887E+03  0.41235020887E+03  0.00000000000E+00 0. -1.
         25    2    1    2    0    0 -0.43481509611E+02  0.80892112580E+02 -0.20193994915E+03  0.25467937771E+03  0.12509063438E+03 0.  0.
          5    1    3    3  502    0  0.31144184717E+01 -0.31893346816E+02 -0.32548005732E+02  0.45866439263E+02  0.41800000000E+01 0.  1.
         -5    1    3    3    0  502 -0.46595928083E+02  0.11278545940E+03 -0.16939194342E+03  0.20881293844E+03  0.41800000000E+01 0.  1.
        -11    1    1    2    0    0 -0.18123538956E+02 -0.36527118690E+02 -0.10199231853E+03  0.10984136790E+03  0.00000000000E+00 0. -1.
         11    1    1    2    0    0  0.61605048567E+02 -0.44364993890E+02 -0.59680404840E+02  0.96566999610E+02  0.00000000000E+00 0.  1.
</event>
<event>
 7    1  0.2844572E-009  0.7681400E+02  0.7561462E-02  0.1338344E+00
         -2   -1    0    0    0  501 -0.00000000000E+00  0.00000000000E+00  0.22447952662E+03  0.22447952662E+03  0.00000000000E+00 0.  1.
          2   -1    0    0  501    0  0.00000000000E+00 -0.00000000000E+00 -0.55396972053E+02  0.55396972053E+02  0.00000000000E+00 0. -1.
         25    2    1    2    0    0 -0.15144208546E+02  0.19639662599E+02  0.89354187853E+02  0.15571719349E+03  0.12509440459E+03 0.  0.
          5    1    3    3  502    0  0.17158828663E+02  0.56989779531E+02  0.76417016072E+01  0.60150880089E+02  0.41800000000E+01 0.  1.
         -5    1    3    3    0  502 -0.32303037209E+02 -0.37350116932E+02  0.81712486246E+02  0.95566313397E+02  0.41800000000E+01 0.  1.
        -11    1    1    2    0    0  0.24478593134E+02 -0.23841147926E+02  0.97685534158E+02  0.10348944603E+03  0.00000000000E+00 0.  1.
         11    1    1    2    0    0 -0.93343845882E+01  0.42014853270E+01 -0.17957167448E+02  0.20669859152E+02  0.00000000000E+00 0. -1.
</event>
<event>
 7    1  0.2844572E-009  0.1081184E+03  0.7561462E-02  0.1264094E+00
          1   -1    0    0  501    0  0.00000000000E+00  0.00000000000E+00  0.37206537046E+03  0.37206537046E+03  0.00000000000E+00 0.  1.
         -1   -1    0    0    0  501 -0.00000000000E+00 -0.00000000000E+00 -0.50865271588E+02  0.50865271588E+02  0.00000000000E+00 0. -1.
         25    2    1    2    0    0  0.79161341860E+02  0.35124413511E+02  0.19014643368E+03  0.24352948999E+03  0.12510277288E+03 0.  0.
          5    1    3    3  502    0  0.74370655113E+02  0.45258086016E+02  0.20599341749E+03  0.22367397958E+03  0.41800000000E+01 0.  1.
         -5    1    3    3    0  502  0.47906867471E+01 -0.10133672506E+02 -0.15846983807E+02  0.19855510412E+02  0.41800000000E+01 0.  1.
        -11    1    1    2    0    0 -0.26937434824E+02  0.25503491574E+02  0.68248119140E+02  0.77677919923E+02  0.00000000000E+00 0.  1.
         11    1    1    2    0    0 -0.52223907036E+02 -0.60627905085E+02  0.62805546049E+02  0.10172323213E+03  0.00000000000E+00 0. -1.
</event>
<event>
 7    1  0.2844572E-009  0.1768625E+03  0.7561462E-02  0.1170875E+00
          1   -1    0    0  501    0  0.00000000000E+00  0.00000000000E+00  0.61992859733E+03  0.61992859733E+03  0.00000000000E+00 0. -1.
         -1   -1    0    0    0  501 -0.00000000000E+00 -0.00000000000E+00 -0.12481820843E+03  0.12481820843E+03  0.00000000000E+00 0.  1.
         25    2    1    2    0    0  0.16619189503E+03 -0.35441159086E+02 -0.35975686403E+01  0.21103540188E+03  0.12508867501E+03 0.  0.
          5    1    3    3  502    0  0.72837969766E+02 -0.25547110538E+02 -0.63122040966E+02  0.99799244246E+02  0.41800000000E+01 0.  1.
         -5    1    3    3    0  502  0.93353925268E+02 -0.98940485480E+01  0.59524472326E+02  0.11123615763E+03  0.41800000000E+01 0.  1.
        -11    1    1    2    0    0 -0.42275985928E+02  0.40349287462E+02  0.96476368870E+02  0.11279633742E+03  0.00000000000E+00 0.  1.
         11    1    1    2    0    0 -0.12391590911E+03 -0.49081283757E+01  0.40223158867E+03  0.42091506646E+03  0.00000000000E+00 0. -1.
</event>
<event>
 7    1  0.2844572E-009  0.9030355E+02  0.7561462E-02  0.1302118E+00
          2   -1    0    0  501    0  0.00000000000E+00  0.00000000000E+00  0.31836709622E+03  0.31836709622E+03  0.00000000000E+00 0. -1.
         -2   -1    0    0    0  501 -0.00000000000E+00 -0.00000000000E+00 -0.40868589498E+02  0.40868589498E+02  0.00000000000E+00 0.  1.
         25    2    1    2    0    0 -0.33205437276E+02 -0.48775419158E+01  0.13378117550E+03  0.18623578444E+03  0.12513981384E+03 0.  0.
          5    1    3    3  502    0 -0.58508216093E+02 -0.96975741806E+01  0.14583740153E+03  0.15749055331E+03  0.41800000000E+01 0.  1.
         -5    1    3    3    0  502  0.25302778818E+02  0.48200322648E+01 -0.12056226031E+02  0.28745231136E+02  0.41800000000E+01 0.  1.
        -11    1    1    2    0    0  0.37348942020E+02 -0.37237361472E+02  0.93313981632E+02  0.10718705019E+03  0.00000000000E+00 0. -1.
         11    1    1    2    0    0 -0.41435047445E+01  0.42114903388E+02  0.50403349589E+02  0.65812851091E+02  0.00000000000E+00 0.  1.
</event>
<event>
 7    1  0.2844572E-009  0.1306892E+03  0.7561462E-02  0.1226437E+00
         -2   -1    0    0    0  501 -0.00000000000E+00  0.00000000000E+00  0.78926505346E+02  0.78926505346E+02  0.00000000000E+00 0.  1.
          2   -1    0    0  501    0  0.00000000000E+00 -0.00000000000E+00 -0.29060365145E+03  0.29060365145E+03  0.00000000000E+00 0. -1.
         25    2    1    2    0    0  0.87327134258E+02  0.77438908135E+01 -0.18590069533E+03  0.24060676903E+03  0.12508618052E+03 0.  0.
          5    1    3    3  502    0  0.11245704100E+03 -0.19133904867E+02 -0.15423581479E+03  0.19188238937E+03  0.41800000000E+01 0. -1.
         -5    1    3    3    0  502 -0.25129906744E+02  0.26877795681E+02 -0.31664880545E+02  0.48724379663E+02  0.41800000000E+01 0. -1.
        -11    1    1    2    0    0 -0.83174224454E+02 -0.29345320202E+02 -0.45619577791E+02  0.99298767913E+02  0.00000000000E+00 0. -1.
         11    1    1    2    0    0 -0.41529098049E+01  0.21601429388E+02  0.19843127019E+02  0.29624619852E+02  0.00000000000E+00 0.  1.
</event>
<event>
 7    1  0.2844572E-009  0.1296649E+03  0.7561462E-02  0.1227954E+00
         -1   -1    0    0    0  501 -0.00000000000E+00  0.00000000000E+00  0.18946912751E+02  0.18946912751E+02  0.00000000000E+00 0.  1.
          1   -1    0    0  501    0  0.00000000000E+00 -0.00000000000E+00 -0.11307236909E+04  0.11307236909E+04  0.00000000000E+00 0. -1.
         25    2    1    2    0    0 -0.35608276178E+02 -0.81856303313E+02 -0.75761890039E+03  0.77304751499E+03  0.12509060108E+03 0.  0.
          5    1    3    3  502    0 -0.62866747587E+02 -0.19860631978E+02 -0.18536460913E+03  0.19678461163E+03  0.41800000000E+01 0.  1.
         -5    1    3    3    0  502  0.27258471409E+02 -0.61995671335E+02 -0.57225429126E+03  0.57626290337E+03  0.41800000000E+01 0.  1.
        -11    1    1    2    0    0  0.64293994486E+02  0.67917114669E+02 -0.22664917750E+03  0.24518625951E+03  0.00000000000E+00 0.  1.
         11    1    1    2    0    0 -0.28685718307E+02  0.13939188644E+02 -0.12750870021E+03  0.13143682910E+03  0.00000000000E+00 0. -1.
</event>
<event>
 7    1  0.2844572E-009  0.1323299E+03  0.7561462E-02  0.1224039E+00
          2   -1    0    0  501    0  0.00000000000E+00  0.00000000000E+00  0.91542267822E+03  0.91542267822E+03  0.00000000000E+00 0. -1.
         -2   -1    0    0    0  501 -0.00000000000E+00 -0.00000000000E+00 -0.22825177179E+02  0.22825177179E+02  0.00000000000E+00 0.  1.
         25    2    1    2    0    0  0.15859210530E+01  0.94106147493E+02  0.52170768592E+03  0.54468703887E+03  0.12508628469E+03 0.  0.
          5    1    3    3  502    0 -0.48356410108E+02  0.19764768094E+02  0.31562500638E+03  0.31994625409E+03  0.41800000000E+01 0. -1.
         -5    1    3    3    0  502  0.49942331161E+02  0.74341379399E+02  0.20608267954E+03  0.22474078477E+03  0.41800000000E+01 0. -1.
        -11    1    1    2    0    0  0.36437150175E+02 -0.26583144539E+02  0.21245487784E+03  0.21718978937E+03  0.00000000000E+00 0.  1.
         11    1    1    2    0    0 -0.38023071228E+02 -0.67523002954E+02  0.15843493728E+03  0.17637102717E+03  0.00000000000E+00 0. -1.
</event>
<event>
 7    1  0.2844572E-009  0.7953576E+02  0.7561462E-02  0.1330374E+00
         -2   -1    0    0    0  501 -0.00000000000E+00  0.00000000000E+00  0.52967301908E+02  0.52967301908E+02  0.00000000000E+00 0.  1.
          2   -1    0    0  501    0  0.00000000000E+00 -0.00000000000E+00 -0.29178256694E+03  0.29178256694E+03  0.00000000000E+00 0. -1.
         25    2    1    2    0    0  0.34923519507E+02  0.41380178175E+02 -0.16453503125E+03  0.21365886757E+03  0.12508542610E+03 0.  0.
          5    1    3    3  502    0  0.26136681200E+02 -0.24433044626E+02 -0.13700115923E+03  0.14165765000E+03  0.41800000000E+01 0. -1.
         -5    1    3    3    0  502  0.87868383067E+01  0.65813222801E+02 -0.27533872024E+02  0.72001217570E+02  0.41800000000E+01 0. -1.
        -11    1    1    2    0    0 -0.22064025927E+02 -0.13625813949E+02  0.19501501581E+02  0.32446765784E+02  0.00000000000E+00 0.  1.
         11    1    1    2    0    0 -0.12859493579E+02 -0.27754364226E+02 -0.93781735358E+02  0.98644235490E+02  0.00000000000E+00 0. -1.
</event>
<event>
 7    1  0.2844572E-009  0.1023503E+03  0.7561462E-02  0.1275430E+00
          2   -1    0    0  501    0  0.00000000000E+00  0.00000000000E+00  0.45879246432E+03  0.45879246432E+03  0.00000000000E+00 0. -1.
         -2   -1    0    0    0  501 -0.00000000000E+00 -0.00000000000E+00 -0.47979635103E+02  0.47979635103E+02  0.00000000000E+00 0.  1.
         25    2    1    2    0    0 -0.50054947886E+02  0.44783461213E+02  0.35148402209E+03  0.37907762534E+03  0.12509105499E+03 0.  0.
          5    1    3    3  502    0 -0.49017747624E+01 -0.24413984549E+02  0.23416084169E+03  0.23551824180E+03  0.41800000000E+01 0.  1.
         -5    1    3    3    0  502 -0.45153173123E+02  0.69197445762E+02  0.11732318040E+03  0.14355938354E+03  0.41800000000E+01 0.  1.
        -11    1    1    2    0    0  0.26832515403E+02 -0.62167329613E+02  0.69427074251E+02  0.96978757433E+02  0.00000000000E+00 0. -1.
         11    1    1    2    0    0  0.23222432483E+02  0.17383868400E+02 -0.10098267121E+02  0.30715716659E+02  0.00000000000E+00 0.  1.
</event>
<event>
 7    1  0.2844572E-009  0.2167046E+03  0.7561462E-02  0.1136364E+00
         -2   -1    0    0    0  501 -0.00000000000E+00  0.00000000000E+00  0.51603943140E+02  0.51603943140E+02  0.00000000000E+00 0.  1.
          2   -1    0    0  501    0  0.00000000000E+00 -0.00000000000E+00 -0.10167342340E+04  0.10167342340E+04  0.00000000000E+00 0. -1.
         25    2    1    2    0    0 -0.59810932700E+02  0.18975225791E+03 -0.57290826446E+03  0.61923766314E+03  0.12509251340E+03 0.  0.
          5    1    3    3  502    0  0.28680354072E+02  0.11437194005E+03 -0.26449405897E+03  0.28961713176E+03  0.41800000000E+01 0. -1.
         -5    1    3    3    0  502 -0.88491286773E+02  0.75380317859E+02 -0.30841420549E+03  0.32962053138E+03  0.41800000000E+01 0. -1.
        -11    1    1    2    0    0  0.14796543753E+02 -0.36800726841E+02 -0.20543672308E+02  0.44668486375E+02  0.00000000000E+00 0.  1.
         11    1    1    2    0    0  0.45014388947E+02 -0.15295153107E+03 -0.37167835405E+03  0.40443202759E+03  0.00000000000E+00 0. -1.
</event>
<event>
 7    1  0.2844572E-009  0.1432401E+03  0.7561462E-02  0.1209034E+00
         -1   -1    0    0    0  501 -0.00000000000E+00  0.00000000000E+00  0.75704336738E+02  0.75704336738E+02  0.00000000000E+00 0.  1.
          1   -1    0    0  501    0  0.00000000000E+00 -0.00000000000E+00 -0.33442116592E+03  0.33442116592E+03  0.00000000000E+00 0. -1.
         25    2    1    2    0    0 -0.60768437898E+02  0.88987933187E+02 -0.20242685157E+03  0.26119321927E+03  0.12503444429E+03 0.  0.
          5    1    3    3  502    0 -0.55827044916E+02 -0.16549306121E+02 -0.85728383326E+02  0.10371772551E+03  0.41800000000E+01 0. -1.
         -5    1    3    3    0  502 -0.49413929820E+01  0.10553723931E+03 -0.11669846825E+03  0.15747549376E+03  0.41800000000E+01 0. -1.
        -11    1    1    2    0    0  0.36661633033E+02 -0.75439944535E+01  0.12680504944E+02  0.39519392639E+02  0.00000000000E+00 0.  1.
         11    1    1    2    0    0  0.24106804866E+02 -0.81443938734E+02 -0.68970482555E+02  0.10941289075E+03  0.00000000000E+00 0. -1.
</event>
<event>
 7    1  0.2844572E-009  0.2949557E+03  0.7561462E-02  0.1087790E+00
          1   -1    0    0  501    0  0.00000000000E+00  0.00000000000E+00  0.46918400321E+03  0.46918400321E+03  0.00000000000E+00 0. -1.
         -1   -1    0    0    0  501 -0.00000000000E+00 -0.00000000000E+00 -0.22265969360E+03  0.22265969360E+03  0.00000000000E+00 0.  1.
         25    2    1    2    0    0  0.68162641125E+02 -0.27855262813E+03  0.17684048325E+02  0.31336619952E+03  0.12509171497E+03 0.  0.
          5    1    3    3  502    0  0.60484373411E+02 -0.26820048453E+03 -0.17639447502E+02  0.27553308665E+03  0.41800000000E+01 0. -1.
         -5    1    3    3    0  502  0.76782677144E+01 -0.10352143600E+02  0.35323495827E+02  0.37833112872E+02  0.41800000000E+01 0. -1.
        -11    1    1    2    0    0 -0.50011474408E+02  0.45428383910E+02  0.48049824142E+02  0.82907606631E+02  0.00000000000E+00 0.  1.
         11    1    1    2    0    0 -0.18151166717E+02  0.23312424422E+03  0.18079043715E+03  0.29556989065E+03  0.00000000000E+00 0. -1.
</event>
<event>
 7    1  0.2844572E-009  0.6236676E+02  0.7561462E-02  0.1388160E+00
         -3   -1    0    0    0  501 -0.00000000000E+00  0.00000000000E+00  0.80483420624E+02  0.80483420624E+02  0.00000000000E+00 0.  1.
          3   -1    0    0  501    0  0.00000000000E+00 -0.00000000000E+00 -0.15957445281E+03  0.15957445281E+03  0.00000000000E+00 0. -1.
         25    2    1    2    0    0  0.11604391676E+01  0.22077053881E+02 -0.70593327046E+02  0.14532968555E+03  0.12509419152E+03 0.  0.
          5    1    3    3  502    0 -0.79737321554E+01  0.31214607856E+02  0.29762570472E+02  0.44059223202E+02  0.41800000000E+01 0. -1.
         -5    1    3    3    0  502  0.91341713231E+01 -0.91375539745E+01 -0.10035589752E+03  0.10127046235E+03  0.41800000000E+01 0. -1.
        -11    1    1    2    0    0  0.33536352516E+02  0.59556461406E+01 -0.29836275217E+02  0.45280900829E+02  0.00000000000E+00 0. -1.
         11    1    1    2    0    0 -0.34696791684E+02 -0.28032700022E+02  0.21338570079E+02  0.49447287050E+02  0.00000000000E+00 0.  1.
</event>
<event>
 7    1  0.2894960E-009  0.8026366E+02  0.7561462E-02  0.1328305E+00
          1   -1    0    0  501    0  0.00000000000E+00  0.00000000000E+00  0.56085500759E+03  0.56085500759E+03  0.00000000000E+00 0. -1.
         -1   -1    0    0    0  501 -0.00000000000E+00 -0.00000000000E+00 -0.34858040353E+02  0.34858040353E+02  0.00000000000E+00 0.  1.
         25    2    1    2    0    0 -0.21144084177E+02 -0.15369303353E+01  0.46770076487E+03  0.48460458912E+03  0.12509263723E+03 0.  0.
          5    1    3    3  502    0  0.12958058149E+02  0.50838485550E+02  0.11615931239E+03  0.12752615864E+03  0.41800000000E+01 0. -1.
         -5    1    3    3    0  502 -0.34102142325E+02 -0.52375415886E+02  0.35154145248E+03  0.35707843048E+03  0.41800000000E+01 0. -1.
        -11    1    1    2    0    0  0.41268300263E-01 -0.17102440078E+02  0.75965928557E+02  0.77867306755E+02  0.00000000000E+00 0. -1.
         11    1    1    2    0    0  0.21102815876E+02  0.18639370413E+02 -0.17669726187E+02  0.33241152069E+02  0.00000000000E+00 0.  1.
</event>
<event>
 7    1  0.2844572E-009  0.1329930E+03  0.7561462E-02  0.1223081E+00
         -1   -1    0    0    0  501 -0.00000000000E+00  0.00000000000E+00  0.98813296116E+02  0.98813296116E+02  0.00000000000E+00 0.  1.
          1   -1    0    0  501    0  0.00000000000E+00 -0.00000000000E+00 -0.32258656869E+03  0.32258656869E+03  0.00000000000E+00 0. -1.
         25    2    1    2    0    0  0.65316727176E+02 -0.80672669116E+02 -0.51585296187E+01  0.16262946869E+03  0.12508948504E+03 0.  0.
          5    1    3    3  502    0 -0.29699337946E+02 -0.16733942427E+02 -0.29727382753E+02  0.45423178983E+02  0.41800000000E+01 0.  1.
         -5    1    3    3    0  502  0.95016065122E+02 -0.63938726689E+02  0.24568853134E+02  0.11720628970E+03  0.41800000000E+01 0.  1.
        -11    1    1    2    0    0 -0.41829780736E+02  0.83491160191E+02 -0.96123092408E+02  0.13401549642E+03  0.00000000000E+00 0.  1.
         11    1    1    2    0    0 -0.23486946440E+02 -0.28184910754E+01 -0.12249165055E+03  0.12475489970E+03  0.00000000000E+00 0. -1.
</event>
<event>
 7    1  0.2844572E-009  0.1748186E+03  0.7561462E-02  0.1172914E+00
         -2   -1    0    0    0  501 -0.00000000000E+00  0.00000000000E+00  0.30964072356E+02  0.30964072356E+02  0.00000000000E+00 0.  1.
          2   -1    0    0  501    0  0.00000000000E+00 -0.00000000000E+00 -0.15276862990E+04  0.15276862990E+04  0.00000000000E+00 0. -1.
         25    2    1    2    0    0 -0.35150504867E+01  0.16502190881E+03 -0.11054398763E+04  0.11246739083E+04  0.12509793737E+03 0.  0.
          5    1    3    3  502    0  0.19679356194E+01  0.79042938259E+02 -0.19951034671E+03  0.21464740787E+03  0.41800000000E+01 0.  1.
         -5    1    3    3    0  502 -0.54829861061E+01  0.85978970553E+02 -0.90592952958E+03  0.91002650042E+03  0.41800000000E+01 0.  1.
        -11    1    1    2    0    0  0.30323416887E+02 -0.19093427249E+02 -0.11392539212E+03  0.11942806850E+03  0.00000000000E+00 0.  1.
         11    1    1    2    0    0 -0.26808366400E+02 -0.14592848156E+03 -0.27735695821E+03  0.31454839454E+03  0.00000000000E+00 0. -1.
</event>
<event>
 7    1  0.2844572E-009  0.2840294E+03  0.7561462E-02  0.1093508E+00
         -1   -1    0    0    0  501 -0.00000000000E+00  0.00000000000E+00  0.19593673185E+03  0.19593673185E+03  0.00000000000E+00 0.  1.
          1   -1    0    0  501    0  0.00000000000E+00 -0.00000000000E+00 -0.46589274032E+03  0.46589274032E+03  0.00000000000E+00 0. -1.
         25    2    1    2    0    0 -0.20665029415E+02  0.27315062607E+03 -0.20988497943E+03  0.36706582946E+03  0.12508921056E+03 0.  0.
          5    1    3    3  502    0 -0.63964918153E+02  0.18298952113E+03 -0.17460705884E+03  0.26092484166E+03  0.41800000000E+01 0. -1.
         -5    1    3    3    0  502  0.43299888739E+02  0.90161104938E+02 -0.35277920586E+02  0.10614098779E+03  0.41800000000E+01 0. -1.
        -11    1    1    2    0    0  0.17262853245E+02 -0.17480394681E+03  0.68023499272E+01  0.17578594337E+03  0.00000000000E+00 0.  1.
         11    1    1    2    0    0  0.34021761700E+01 -0.98346679259E+02 -0.66873378969E+02  0.11897769933E+03  0.00000000000E+00 0. -1.
</event>
<event>
 7    1  0.2844572E-009  0.1301015E+03  0.7561462E-02  0.1227305E+00
         -2   -1    0    0    0  501 -0.00000000000E+00  0.00000000000E+00  0.20960055840E+02  0.20960055840E+02  0.00000000000E+00 0.  1.
          2   -1    0    0  501    0  0.00000000000E+00 -0.00000000000E+00 -0.96339065216E+03  0.96339065216E+03  0.00000000000E+00 0. -1.
         25    2    1    2    0    0 -0.95010272149E+02 -0.33757629745E+01 -0.50982480566E+03  0.53348634983E+03  0.12509198776E+03 0.  0.
          5    1    3    3  502    0  0.28499948871E+02 -0.37959524400E+01 -0.55389315814E+02  0.62546822837E+02  0.41800000000E+01 0.  1.
         -5    1    3    3    0  502 -0.12351022102E+03  0.42018946548E+00 -0.45443548984E+03  0.47093952699E+03  0.41800000000E+01 0.  1.
        -11    1    1    2    0    0  0.30576405966E+02 -0.22674940657E+02 -0.54831012144E+02  0.66749602459E+02  0.00000000000E+00 0.  1.
         11    1    1    2    0    0  0.64433866182E+02  0.26050703632E+02 -0.37777477852E+03  0.38411475571E+03  0.00000000000E+00 0. -1.
</event>
<event>
 7    1  0.2844572E-009  0.1040454E+03  0.7561462E-02  0.1272012E+00
         -2   -1    0    0    0  501 -0.00000000000E+00  0.00000000000E+00  0.26276934877E+02  0.26276934877E+02  0.00000000000E+00 0. -1.
          2   -1    0    0  501    0  0.00000000000E+00 -0.00000000000E+00 -0.61625146882E+03  0.61625146882E+03  0.00000000000E+00 0.  1.
         25    2    1    2    0    0 -0.57370043522E+01 -0.56018528140E+02 -0.42460254606E+03  0.44621103599E+03  0.12508388309E+03 0.  0.
          5    1    3    3  502    0  0.30148309240E+02  0.27468744870E+02 -0.81197628557E+02  0.90961419173E+02  0.41800000000E+01 0.  1.
         -5    1    3    3    0  502 -0.35885313593E+02 -0.83487273010E+02 -0.34340491750E+03  0.35524961682E+03  0.41800000000E+01 0.  1.
        -11    1    1    2    0    0  0.28637141935E+02  0.30608971272E+02 -0.15500821890E+03  0.16057566113E+03  0.00000000000E+00 0.  1.
         11    1    1    2    0    0 -0.22900137583E+02  0.25409556868E+02 -0.10363768989E+02  0.35741706579E+02  0.00000000000E+00 0. -1.
</event>
<event>
 7    1  0.2844572E-009  0.9783245E+02  0.7561462E-02  0.1284921E+00
          2   -1    0    0  501    0  0.00000000000E+00  0.00000000000E+00  0.82676184639E+02  0.82676184639E+02  0.00000000000E+00 0.  1.
         -2   -1    0    0    0  501 -0.00000000000E+00 -0.00000000000E+00 -0.24771314307E+03  0.24771314307E+03  0.00000000000E+00 0. -1.
         25    2    1    2    0    0 -0.35709495832E+02  0.27133994206E+02  0.24757037457E+00  0.13288708512E+03  0.12508994511E+03 0.  0.
          5    1    3    3  502    0 -0.62856489978E+02 -0.18422466662E+02  0.29745742756E+02  0.72059747587E+02  0.41800000000E+01 0. -1.
         -5    1    3    3    0  502  0.27146994146E+02  0.45556460868E+02 -0.29498172381E+02  0.60827337537E+02  0.41800000000E+01 0. -1.
        -11    1    1    2    0    0  0.45084355443E+02  0.30903235642E+01 -0.15892456623E+03  0.16522459550E+03  0.00000000000E+00 0. -1.
         11    1    1    2    0    0 -0.93748596112E+01 -0.30224317770E+02 -0.63599625698E+01  0.32277647084E+02  0.00000000000E+00 0.  1.
</event>
<event>
 7    1  0.2844572E-009  0.9675021E+02  0.7561462E-02  0.1287282E+00
          4   -1    0    0  501    0  0.00000000000E+00  0.00000000000E+00  0.14220752365E+03  0.14220752365E+03  0.00000000000E+00 0. -1.
         -4   -1    0    0    0  501 -0.00000000000E+00 -0.00000000000E+00 -0.87512574183E+02  0.87512574183E+02  0.00000000000E+00 0.  1.
         25    2    1    2    0    0 -0.79103500700E+01  0.21356814715E+02  0.44171655059E+02  0.13459877675E+03  0.12508800270E+03 0.  0.
          5    1    3    3  502    0 -0.34864596980E+02 -0.30047257403E+02  0.58612641128E+02  0.74641087211E+02  0.41800000000E+01 0.  1.
         -5    1    3    3    0  502  0.26954246910E+02  0.51404072118E+02 -0.14440986069E+02  0.59957689544E+02  0.41800000000E+01 0.  1.
        -11    1    1    2    0    0  0.30349598443E+02  0.23865508167E+02 -0.11143033989E+02  0.40184920209E+02  0.00000000000E+00 0.  1.
         11    1    1    2    0    0 -0.22439248373E+02 -0.45222322882E+02  0.21666328397E+02  0.54936400871E+02  0.00000000000E+00 0. -1.
</event>
<event>
 7    1  0.2844572E-009  0.2835685E+03  0.7561462E-02  0.1093756E+00
          1   -1    0    0  501    0  0.00000000000E+00  0.00000000000E+00  0.50269343197E+03  0.50269343197E+03  0.00000000000E+00 0.  1.
         -1   -1    0    0    0  501 -0.00000000000E+00 -0.00000000000E+00 -0.17552863798E+03  0.17552863798E+03  0.00000000000E+00 0. -1.
         25    2    1    2    0    0  0.27567512358E+03 -0.55428608340E+01  0.14633127725E+03  0.33628536568E+03  0.12508999720E+03 0.  0.
          5    1    3    3  502    0  0.12564529754E+03 -0.15028685726E+02  0.13559409253E+03  0.18551504661E+03  0.41800000000E+01 0. -1.
         -5    1    3    3    0  502  0.15002982604E+03  0.94858248917E+01  0.10737184716E+02  0.15077031907E+03  0.41800000000E+01 0. -1.
        -11    1    1    2    0    0 -0.25693042755E+03 -0.20841575754E+02  0.16294698536E+03  0.30495792484E+03  0.00000000000E+00 0.  1.
         11    1    1    2    0    0 -0.18744696032E+02  0.26384436588E+02  0.17886531379E+02  0.36978779430E+02  0.00000000000E+00 0. -1.
</event>
<event>
 7    1  0.2844572E-009  0.1818288E+03  0.7561462E-02  0.1166045E+00
         -2   -1    0    0    0  501 -0.00000000000E+00  0.00000000000E+00  0.24846989349E+02  0.24846989349E+02  0.00000000000E+00 0.  1.
          2   -1    0    0  501    0  0.00000000000E+00 -0.00000000000E+00 -0.14430768286E+04  0.14430768286E+04  0.00000000000E+00 0. -1.
         25    2    1    2    0    0  0.10970723532E+02 -0.14641338722E+03 -0.55328108011E+03  0.58594065060E+03  0.12509698511E+03 0.  0.
          5    1    3    3  502    0  0.59632261020E+02 -0.12565007363E+03 -0.42154697189E+03  0.44391808869E+03  0.41800000000E+01 0. -1.
         -5    1    3    3    0  502 -0.48661537489E+02 -0.20763313591E+02 -0.13173410822E+03  0.14202256190E+03  0.41800000000E+01 0. -1.
        -11    1    1    2    0    0  0.26479321034E+02  0.74317932123E+01 -0.10628819198E+03  0.10978873233E+03  0.00000000000E+00 0.  1.
         11    1    1    2    0    0 -0.37450044566E+02  0.13898159400E+03 -0.75866056719E+03  0.77219443504E+03  0.00000000000E+00 0. -1.
</event>
<event>
 7    1  0.2844572E-009  0.1354203E+03  0.7561462E-02  0.1219628E+00
         -2   -1    0    0    0  501 -0.00000000000E+00  0.00000000000E+00  0.28886680980E+02  0.28886680980E+02  0.00000000000E+00 0.  1.
          2   -1    0    0  501    0  0.00000000000E+00 -0.00000000000E+00 -0.99451244079E+03  0.99451244079E+03  0.00000000000E+00 0. -1.
         25    2    1    2    0    0  0.11914852438E+03 -0.27125769628E+02 -0.66300575395E+03  0.68567921025E+03  0.12508865397E+03 0.  0.
          5    1    3    3  502    0  0.10180083049E+03  0.56196305765E+01 -0.23686487168E+03  0.25790973067E+03  0.41800000000E+01 0. -1.
         -5    1    3    3    0  502  0.17347693891E+02 -0.32745400204E+02 -0.42614088227E+03  0.42776947958E+03  0.41800000000E+01 0. -1.
        -11    1    1    2    0    0 -0.90169442925E+02  0.41381472171E+02 -0.28310581170E+03  0.29998642519E+03  0.00000000000E+00 0. -1.
         11    1    1    2    0    0 -0.28979081460E+02 -0.14255702543E+02 -0.19514194152E+02  0.37733486331E+02  0.00000000000E+00 0.  1.
</event>
<event>
 7    1  0.2844572E-009  0.8435599E+02  0.7561462E-02  0.1317125E+00
         -1   -1    0    0    0  501 -0.00000000000E+00  0.00000000000E+00  0.17715325811E+03  0.17715325811E+03  0.00000000000E+00 0.  1.
          1   -1    0    0  501    0  0.00000000000E+00 -0.00000000000E+00 -0.11412488964E+03  0.11412488964E+03  0.00000000000E+00 0. -1.
         25    2    1    2    0    0 -0.30153022495E+01  0.69724420652E+02 -0.28370853010E+02  0.14602216683E+03  0.12508789319E+03 0.  0.
          5    1    3    3  502    0  0.57672863599E+01  0.66305591648E+02  0.39410000752E+02  0.77461691403E+02  0.41800000000E+01 0. -1.
         -5    1    3    3    0  502 -0.87825886094E+01  0.34188290044E+01 -0.67780853762E+02  0.68560475430E+02  0.41800000000E+01 0. -1.
        -11    1    1    2    0    0  0.18085031420E+02  0.22094936902E+01  0.64449455675E+02  0.66975238414E+02  0.00000000000E+00 0.  1.
         11    1    1    2    0    0 -0.15069729170E+02 -0.71933914342E+02  0.26949765811E+02  0.78280742505E+02  0.00000000000E+00 0. -1.
</event>
<event>
 7    1  0.2844572E-009  0.1016867E+03  0.7561462E-02  0.1276789E+00
         -1   -1    0    0    0  501 -0.00000000000E+00  0.00000000000E+00  0.24392373331E+02  0.24392373331E+02  0.00000000000E+00 0.  1.
          1   -1    0    0  501    0  0.00000000000E+00 -0.00000000000E+00 -0.86692154045E+03  0.86692154045E+03  0.00000000000E+00 0. -1.
         25    2    1    2    0    0  0.33369602876E+02  0.48118497210E+02 -0.70028780954E+03  0.71377669868E+03  0.12508093067E+03 0.  0.
          5    1    3    3  502    0 -0.24836530641E+02  0.20994800595E+02 -0.46886166648E+02  0.57213808904E+02  0.41800000000E+01 0.  1.
         -5    1    3    3    0  502  0.58206133517E+02  0.27123696614E+02 -0.65340164289E+03  0.65656288977E+03  0.41800000000E+01 0.  1.
        -11    1    1    2    0    0 -0.64034096004E+02 -0.33317589701E+02 -0.97577637658E+02  0.12137471980E+03  0.00000000000E+00 0. -1.
         11    1    1    2    0    0  0.30664493128E+02 -0.14800907509E+02 -0.44663719925E+02  0.56162495309E+02  0.00000000000E+00 0.  1.
</event>
<event>
 7    1  0.2844572E-009  0.1096120E+03  0.7561462E-02  0.1261290E+00
         -1   -1    0    0    0  501 -0.00000000000E+00  0.00000000000E+00  0.11428124137E+03  0.11428124137E+03  0.00000000000E+00 0.  1.
          1   -1    0    0  501    0  0.00000000000E+00 -0.00000000000E+00 -0.14758022662E+03  0.14758022662E+03  0.00000000000E+00 0. -1.
         25    2    1    2    0    0 -0.70164285938E+02 -0.15498207747E+02 -0.23168131891E+02  0.14610833763E+03  0.12509061726E+03 0.  0.
          5    1    3    3  502    0 -0.13138187081E+01 -0.58665679256E+02  0.71721675639E+01  0.59264664259E+02  0.41800000000E+01 0.  1.
         -5    1    3    3    0  502 -0.68850467230E+02  0.43167471509E+02 -0.30340299455E+02  0.86843673375E+02  0.41800000000E+01 0.  1.
        -11    1    1    2    0    0  0.28247719541E+02 -0.99943568565E+01  0.37075626838E+02  0.47669937420E+02  0.00000000000E+00 0. -1.
         11    1    1    2    0    0  0.41916566397E+02  0.25492564603E+02 -0.47206480190E+02  0.68083192937E+02  0.00000000000E+00 0.  1.
</event>
<event>
 7    1  0.2844572E-009  0.1163934E+03  0.7561462E-02  0.1249168E+00
         -1   -1    0    0    0  501 -0.00000000000E+00  0.00000000000E+00  0.26917537867E+02  0.26917537867E+02  0.00000000000E+00 0.  1.
          1   -1    0    0  501    0  0.00000000000E+00 -0.00000000000E+00 -0.12399934917E+04  0.12399934917E+04  0.00000000000E+00 0. -1.
         25    2    1    2    0    0  0.52573002522E+02  0.58775246820E+02 -0.10478937535E+04  0.10582757297E+04  0.12509097132E+03 0.  0.
          5    1    3    3  502    0 -0.22806565679E+02  0.67692240668E+02 -0.47453688601E+03  0.47990114343E+03  0.41800000000E+01 0. -1.
         -5    1    3    3    0  502  0.75379568201E+02 -0.89169938482E+01 -0.57335686751E+03  0.57837458623E+03  0.41800000000E+01 0. -1.
        -11    1    1    2    0    0 -0.37303313746E+02 -0.59160046110E+02 -0.17635082259E+03  0.18971310155E+03  0.00000000000E+00 0. -1.
         11    1    1    2    0    0 -0.15269688775E+02  0.38479929078E+00  0.11168622292E+02  0.18922198331E+02  0.00000000000E+00 0.  1.
</event>
<event>
 7    1  0.2844572E-009  0.1043882E+03  0.7561462E-02  0.1271330E+00
          2   -1    0    0  501    0  0.00000000000E+00  0.00000000000E+00  0.16694400969E+03  0.16694400969E+03  0.00000000000E+00 0. -1.
         -2   -1    0    0    0  501 -0.00000000000E+00 -0.00000000000E+00 -0.98761423201E+02  0.98761423201E+02  0.00000000000E+00 0.  1.
         25    2    1    2    0    0 -0.34480366508E+02 -0.56170415583E+02  0.63356255116E+02  0.15493573857E+03  0.12508819593E+03 0.  0.
          5    1    3    3  502    0 -0.11537251996E+02  0.27552669305E+02  0.60935496921E+02  0.67991653564E+02  0.41800000000E+01 0.  1.
         -5    1    3    3    0  502 -0.22943114512E+02 -0.83723084889E+02  0.24207581951E+01  0.86944085003E+02  0.41800000000E+01 0.  1.
        -11    1    1    2    0    0  0.13075362848E+02 -0.13515476432E+02 -0.25609229626E+02  0.31772092453E+02  0.00000000000E+00 0.  1.
         11    1    1    2    0    0  0.21405003660E+02  0.69685892015E+02  0.30435560995E+02  0.78997601866E+02  0.00000000000E+00 0. -1.
</event>
<event>
 7    1  0.2844572E-009  0.1110280E+03  0.7561462E-02  0.1258678E+00
          1   -1    0    0  501    0  0.00000000000E+00  0.00000000000E+00  0.64987950458E+02  0.64987950458E+02  0.00000000000E+00 0. -1.
         -1   -1    0    0    0  501 -0.00000000000E+00 -0.00000000000E+00 -0.45308044069E+03  0.45308044069E+03  0.00000000000E+00 0.  1.
         25    2    1    2    0    0 -0.47805911943E+02 -0.82429910842E+01 -0.39296035296E+03  0.41523193984E+03  0.12508546180E+03 0.  0.
          5    1    3    3  502    0 -0.83226932156E+02  0.21243669523E+02 -0.28698900644E+03  0.29959669215E+03  0.41800000000E+01 0.  1.
         -5    1    3    3    0  502  0.35421020213E+02 -0.29486660607E+02 -0.10597134652E+03  0.11563524770E+03  0.41800000000E+01 0.  1.
        -11    1    1    2    0    0  0.67186426256E+02 -0.32226976039E+01  0.25848154735E+02  0.72059203133E+02  0.00000000000E+00 0. -1.
         11    1    1    2    0    0 -0.19380514313E+02  0.11465688688E+02 -0.20980292017E+02  0.30777248175E+02  0.00000000000E+00 0.  1.
</event>
<event>
 6    1  0.2844572E-009  0.6271992E+02  0.7561462E-02  0.1386759E+00
         -1   -1    0    0    0  501 -0.00000000000E+00  0.00000000000E+00  0.12332705079E+03  0.12332705079E+03  0.00000000000E+00 0.  1.
          1   -1    0    0  501    0  0.00000000000E+00 -0.00000000000E+00 -0.12046366183E+03  0.12046366183E+03  0.00000000000E+00 0. -1.
          5    1    1    2  502    0 -0.11455348041E+02  0.13152017129E+02 -0.74318930293E+02  0.76452445044E+02  0.41800000000E+01 0. -1.
         -5    1    1    2    0  502  0.32810852185E+02 -0.39943758163E+02  0.31275069394E+02  0.60561193869E+02  0.41800000000E+01 0. -1.
        -11    1    1    2    0    0 -0.36695353819E+01 -0.12247477874E+02  0.60242790598E+02  0.61584576180E+02  0.00000000000E+00 0.  1.
         11    1    1    2    0    0 -0.17685968762E+02  0.39039218908E+02 -0.14335540738E+02  0.45192497522E+02  0.00000000000E+00 0. -1.
</event>
<event>
 7    1  0.2844572E-009  0.9001862E+02  0.7561462E-02  0.1302807E+00
          1   -1    0    0  501    0  0.00000000000E+00  0.00000000000E+00  0.15553694779E+03  0.15553694779E+03  0.00000000000E+00 0. -1.
         -1   -1    0    0    0  501 -0.00000000000E+00 -0.00000000000E+00 -0.86118880665E+02  0.86118880665E+02  0.00000000000E+00 0.  1.
         25    2    1    2    0    0  0.24388816934E+02  0.15999046123E+02  0.12318422611E+02  0.12903729275E+03  0.12509234796E+03 0.  0.
          5    1    3    3  502    0 -0.13944191015E+02  0.58728665704E+02  0.31697889748E+02  0.68306114315E+02  0.41800000000E+01 0.  1.
         -5    1    3    3    0  502  0.38333007949E+02 -0.42729619581E+02 -0.19379467136E+02  0.60731178438E+02  0.41800000000E+01 0.  1.
        -11    1    1    2    0    0  0.15302999570E+02 -0.16196997124E+02 -0.17355386631E+02  0.28244184477E+02  0.00000000000E+00 0.  1.
         11    1    1    2    0    0 -0.39691816503E+02  0.19795100187E+00  0.74455031149E+02  0.84374351229E+02  0.00000000000E+00 0. -1.
</event>
<event>
 7    1  0.2844572E-009  0.8979095E+02  0.7561462E-02  0.1303359E+00
          2   -1    0    0  501    0  0.00000000000E+00  0.00000000000E+00  0.28108837306E+03  0.28108837306E+03  0.00000000000E+00 0. -1.
         -2   -1    0    0    0  501 -0.00000000000E+00 -0.00000000000E+00 -0.73518282632E+02  0.73518282632E+02  0.00000000000E+00 0.  1.
         25    2    1    2    0    0  0.57972604962E+02  0.15641357432E+02  0.21083598065E+03  0.25239893682E+03  0.12509171669E+03 0.  0.
          5    1    3    3  502    0 -0.17389201407E+02  0.31639387395E+02  0.14944369159E+03  0.15379962456E+03  0.41800000000E+01 0.  1.
         -5    1    3    3    0  502  0.75361806369E+02 -0.15998029963E+02  0.61392289059E+02  0.98599312258E+02  0.41800000000E+01 0.  1.
        -11    1    1    2    0    0 -0.38082345827E+02  0.37977570402E+01  0.37025153043E+02  0.53249882442E+02  0.00000000000E+00 0. -1.
         11    1    1    2    0    0 -0.19890259134E+02 -0.19439114473E+02 -0.40291043266E+02  0.48957836425E+02  0.00000000000E+00 0.  1.
</event>
<event>
 7    1  0.2844572E-009  0.1594218E+03  0.7561462E-02  0.1189351E+00
         -1   -1    0    0    0  501 -0.00000000000E+00  0.00000000000E+00  0.25593815658E+02  0.25593815658E+02  0.00000000000E+00 0.  1.
          1   -1    0    0  501    0  0.00000000000E+00 -0.00000000000E+00 -0.11760831601E+04  0.11760831601E+04  0.00000000000E+00 0. -1.
         25    2    1    2    0    0 -0.13469379809E+03 -0.12569378274E+02 -0.71324379460E+03  0.73665799779E+03  0.12509151312E+03 0.  0.
          5    1    3    3  502    0  0.12978716864E+02 -0.23483858209E+01 -0.78909969458E+01  0.15928033156E+02  0.41800000000E+01 0. -1.
         -5    1    3    3    0  502 -0.14767251496E+03 -0.10220992453E+02 -0.70535279765E+03  0.72072996463E+03  0.41800000000E+01 0. -1.
        -11    1    1    2    0    0  0.64604022416E+02 -0.33771590857E+02 -0.23392262741E+03  0.24501835784E+03  0.00000000000E+00 0. -1.
         11    1    1    2    0    0  0.70089775677E+02  0.46340969131E+02 -0.20332292246E+03  0.22000062016E+03  0.00000000000E+00 0.  1.
</event>
<event>
 7    1  0.2844572E-009  0.1783749E+03  0.7561462E-02  0.1169385E+00
         -1   -1    0    0    0  501 -0.00000000000E+00  0.00000000000E+00  0.46646875283E+02  0.46646875283E+02  0.00000000000E+00 0.  1.
          1   -1    0    0  501    0  0.00000000000E+00 -0.00000000000E+00 -0.82983806623E+03  0.82983806623E+03  0.00000000000E+00 0. -1.
         25    2    1    2    0    0  0.47035491041E+02 -0.13273260084E+03 -0.58930015957E+03  0.61866976334E+03  0.12508923715E+03 0.  0.
          5    1    3    3  502    0  0.36609811651E+02  0.15098574037E+02 -0.13897158903E+03  0.14456424248E+03  0.41800000000E+01 0. -1.
         -5    1    3    3    0  502  0.10425679390E+02 -0.14783117488E+03 -0.45032857055E+03  0.47410552086E+03  0.41800000000E+01 0. -1.
        -11    1    1    2    0    0 -0.44996758417E+02  0.14727049021E+03 -0.18479158177E+03  0.24054362234E+03  0.00000000000E+00 0. -1.
         11    1    1    2    0    0 -0.20387326243E+01 -0.14537889371E+02 -0.90994496081E+01  0.17271555843E+02  0.00000000000E+00 0.  1.
</event>
<event>
 7    1  0.2844572E-009  0.2206285E+03  0.7561462E-02  0.1133415E+00
          1   -1    0    0  501    0  0.00000000000E+00  0.00000000000E+00  0.60558989856E+03  0.60558989856E+03  0.00000000000E+00 0. -1.
         -1   -1    0    0    0  501 -0.00000000000E+00 -0.00000000000E+00 -0.10046275082E+03  0.10046275082E+03  0.00000000000E+00 0.  1.
         25    2    1    2    0    0 -0.38523260653E+02 -0.19956145585E+03  0.13505477257E+03  0.27421874166E+03  0.12508920981E+03 0.  0.
          5    1    3    3  502    0 -0.45144670539E+02 -0.84756809162E+01  0.15403889283E+02  0.48627468062E+02  0.41800000000E+01 0.  1.
         -5    1    3    3    0  502  0.66214098864E+01 -0.19108577494E+03  0.11965088329E+03  0.22559127360E+03  0.41800000000E+01 0.  1.
        -11    1    1    2    0    0  0.97556812242E+00  0.38305414480E+02  0.17103620468E+02  0.41961772422E+02  0.00000000000E+00 0.  1.
         11    1    1    2    0    0  0.37547692531E+02  0.16125604137E+03  0.35296875470E+03  0.38987213531E+03  0.00000000000E+00 0. -1.
</event>
<event>
 7    1  0.2844572E-009  0.1333409E+03  0.7561462E-02  0.1222581E+00
         -1   -1    0    0    0  501 -0.00000000000E+00  0.00000000000E+00  0.10307433514E+04  0.10307433514E+04  0.00000000000E+00 0.  1.
          1   -1    0    0  501    0  0.00000000000E+00 -0.00000000000E+00 -0.23628566880E+02  0.23628566880E+02  0.00000000000E+00 0. -1.
         25    2    1    2    0    0 -0.28503854171E+02 -0.90751939339E+02  0.73421964440E+03  0.75084965104E+03  0.12509327737E+03 0.  0.
          5    1    3    3  502    0  0.11765418612E+02 -0.10076359764E+03  0.63730524293E+03  0.64534267854E+03  0.41800000000E+01 0.  1.
         -5    1    3    3    0  502 -0.40269272783E+02  0.10011658302E+02  0.96914401470E+02  0.10550697249E+03  0.41800000000E+01 0.  1.
        -11    1    1    2    0    0  0.42470493875E+02  0.12956108143E+02  0.49200374329E+02  0.66274281756E+02  0.00000000000E+00 0. -1.
         11    1    1    2    0    0 -0.13966639703E+02  0.77795831196E+02  0.22369476582E+03  0.23724798551E+03  0.00000000000E+00 0.  1.
</event>
<event>
 7    1  0.2844572E-009  0.1112607E+03  0.7561462E-02  0.1258253E+00
          2   -1    0    0  501    0  0.00000000000E+00  0.00000000000E+00  0.62829714013E+02  0.62829714013E+02  0.00000000000E+00 0. -1.
         -2   -1    0    0    0  501 -0.00000000000E+00 -0.00000000000E+00 -0.23189378617E+03  0.23189378617E+03  0.00000000000E+00 0.  1.
         25    2    1    2    0    0  0.67553665012E+01  0.60955095585E+02 -0.86738397456E+02  0.16411000820E+03  0.12508951412E+03 0.  0.
          5    1    3    3  502    0  0.28315336580E+02 -0.21784700415E+02  0.75551725336E+01  0.36754380553E+02  0.41800000000E+01 0. -1.
         -5    1    3    3    0  502 -0.21559970078E+02  0.82739796000E+02 -0.94293569989E+02  0.12735562765E+03  0.41800000000E+01 0. -1.
        -11    1    1    2    0    0 -0.14636618140E+02 -0.79479434283E+02 -0.70636860969E+02  0.10733488339E+03  0.00000000000E+00 0. -1.
         11    1    1    2    0    0  0.78812516384E+01  0.18524338698E+02 -0.11688813732E+02  0.23278608594E+02  0.00000000000E+00 0.  1.
</event>
<event>
 7    1  0.2844572E-009  0.1697305E+03  0.7561462E-02  0.1178129E+00
          1   -1    0    0  501    0  0.00000000000E+00  0.00000000000E+00  0.30816197721E+03  0.30816197721E+03  0.00000000000E+00 0. -1.
         -1   -1    0    0    0  501 -0.00000000000E+00 -0.00000000000E+00 -0.11307378392E+03  0.11307378392E+03  0.00000000000E+00 0.  1.
         25    2    1    2    0    0  0.22577708712E+02 -0.13580444580E+03  0.17749910445E+03  0.25711204589E+03  0.12509225248E+03 0.  0.
          5    1    3    3  502    0 -0.31525780109E+02  0.75658456500E+01  0.32886824844E+02  0.46369521027E+02  0.41800000000E+01 0.  1.
         -5    1    3    3    0  502  0.54103488821E+02 -0.14337029145E+03  0.14461227961E+03  0.21074252486E+03  0.41800000000E+01 0.  1.
        -11    1    1    2    0    0  0.13109692090E+02  0.10648479680E+03 -0.13955495582E+02  0.10819256829E+03  0.00000000000E+00 0.  1.
         11    1    1    2    0    0 -0.35687400802E+02  0.29319648999E+02  0.31544584411E+02  0.55931146950E+02  0.00000000000E+00 0. -1.
</event>
<event>
 7    1  0.2844572E-009  0.1268739E+03  0.7561462E-02  0.1232169E+00
          2   -1    0    0  501    0  0.00000000000E+00  0.00000000000E+00  0.97468995822E+03  0.97468995822E+03  0.00000000000E+00 0. -1.
         -2   -1    0    0    0  501 -0.00000000000E+00 -0.00000000000E+00 -0.17877929420E+02  0.17877929420E+02  0.00000000000E+00 0.  1.
         25    2    1    2    0    0  0.67863421006E+02  0.28902655330E+02  0.50925888171E+03  0.52955907839E+03  0.12508957394E+03 0.  0.
          5    1    3    3  502    0  0.32626011442E+02 -0.43568164948E+02  0.30668209096E+03  0.31150283937E+03  0.41800000000E+01 0.  1.
         -5    1    3    3    0  502  0.35237409564E+02  0.72470820278E+02  0.20257679075E+03  0.21805623902E+03  0.41800000000E+01 0.  1.
        -11    1    1    2    0    0 -0.62797979158E+02  0.22580206449E+02  0.23991268268E+03  0.24902117825E+03  0.00000000000E+00 0.  1.
         11    1    1    2    0    0 -0.50654418482E+01 -0.51482861779E+02  0.20764046441E+03  0.21398763100E+03  0.00000000000E+00 0. -1.
</event>
<event>
 7    1  0.2844572E-009  0.1431809E+03  0.7561462E-02  0.1209112E+00
         -1   -1    0    0    0  501 -0.00000000000E+00  0.00000000000E+00  0.11671753166E+03  0.11671753166E+03  0.00000000000E+00 0.  1.
          1   -1    0    0  501    0  0.00000000000E+00 -0.00000000000E+00 -0.25735720465E+03  0.25735720465E+03  0.00000000000E+00 0. -1.
         25    2    1    2    0    0 -0.51799318867E+02  0.77032178989E+02  0.27324174692E+02  0.15811158537E+03  0.12504214038E+03 0.  0.
          5    1    3    3  502    0 -0.66758389803E+02 -0.93092709187E+01  0.17990901496E+02  0.69889126985E+02  0.41800000000E+01 0.  1.
         -5    1    3    3    0  502  0.14959070936E+02  0.86341449907E+02  0.93332731963E+01  0.88222458387E+02  0.41800000000E+01 0.  1.
        -11    1    1    2    0    0  0.29568011779E+01 -0.81957094650E+02 -0.13083404566E+03  0.15441261457E+03  0.00000000000E+00 0. -1.
         11    1    1    2    0    0  0.48842517689E+02  0.49249156611E+01 -0.37129802022E+02  0.61550536363E+02  0.00000000000E+00 0.  1.
</event>
<event>
 7    1  0.2844572E-009  0.1042364E+03  0.7561462E-02  0.1271631E+00
         -1   -1    0    0    0  501 -0.00000000000E+00  0.00000000000E+00  0.77605995640E+02  0.77605995640E+02  0.00000000000E+00 0.  1.
          1   -1    0    0  501    0  0.00000000000E+00 -0.00000000000E+00 -0.41612116067E+03  0.41612116067E+03  0.00000000000E+00 0. -1.
         25    2    1    2    0    0 -0.75208806126E+02 -0.23430215632E+02 -0.34140057463E+03  0.37203185018E+03  0.12509198884E+03 0.  0.
          5    1    3    3  502    0 -0.69716178571E+02 -0.63353382317E+01 -0.34599647512E+03  0.35303188986E+03  0.41800000000E+01 0. -1.
         -5    1    3    3    0  502 -0.54926275551E+01 -0.17094877401E+02  0.45959004948E+01  0.18999960320E+02  0.41800000000E+01 0. -1.
        -11    1    1    2    0    0  0.30828843433E+02 -0.34931527717E+02  0.11168362961E+02  0.47909931614E+02  0.00000000000E+00 0.  1.
         11    1    1    2    0    0  0.44379962692E+02  0.58361743349E+02 -0.82829533639E+01  0.73785374511E+02  0.00000000000E+00 0. -1.
</event>
<event>
 7    1  0.2844572E-009  0.8610392E+02  0.7561462E-02  0.1312571E+00
         -1   -1    0    0    0  501 -0.00000000000E+00  0.00000000000E+00  0.14223541891E+03  0.14223541891E+03  0.00000000000E+00 0.  1.
          1   -1    0    0  501    0  0.00000000000E+00 -0.00000000000E+00 -0.91815513133E+02  0.91815513133E+02  0.00000000000E+00 0. -1.
         25    2    1    2    0    0 -0.30050953776E+02 -0.58318205995E+01  0.46295042931E+02  0.13685088404E+03  0.12509142060E+03 0.  0.
          5    1    3    3  502    0 -0.51178895120E+02  0.46805029389E+02  0.12204975605E+02  0.70543773016E+02  0.41800000000E+01 0.  1.
         -5    1    3    3    0  502  0.21127941344E+02 -0.52636849989E+02  0.34090067327E+02  0.66307111025E+02  0.41800000000E+01 0.  1.
        -11    1    1    2    0    0  0.18499722587E-01  0.14575761505E+02 -0.40307437220E+02  0.42861902209E+02  0.00000000000E+00 0. -1.
         11    1    1    2    0    0  0.30032454054E+02 -0.87439409054E+01  0.44432300065E+02  0.54338145792E+02  0.00000000000E+00 0.  1.
</event>
<event>
 7    1  0.2844572E-009  0.1934396E+03  0.7561462E-02  0.1155395E+00
         -2   -1    0    0    0  501 -0.00000000000E+00  0.00000000000E+00  0.10222151544E+03  0.10222151544E+03  0.00000000000E+00 0.  1.
          2   -1    0    0  501    0  0.00000000000E+00 -0.00000000000E+00 -0.50663629421E+03  0.50663629421E+03  0.00000000000E+00 0. -1.
         25    2    1    2    0    0  0.16183509985E+03  0.40965358016E+02 -0.35420483874E+03  0.41106826304E+03  0.12508912422E+03 0.  0.
          5    1    3    3  502    0  0.23885545376E+02 -0.35455907836E+02 -0.13007820896E+03  0.13698705605E+03  0.41800000000E+01 0.  1.
         -5    1    3    3    0  502  0.13794955447E+03  0.76421265852E+02 -0.22412662977E+03  0.27408120699E+03  0.41800000000E+01 0.  1.
        -11    1    1    2    0    0 -0.15671079223E+03 -0.12461974858E+02 -0.24577840329E+02  0.15911518927E+03  0.00000000000E+00 0.  1.
         11    1    1    2    0    0 -0.51243076143E+01 -0.28503383158E+02 -0.25632099702E+02  0.38674357333E+02  0.00000000000E+00 0. -1.
</event>
<event>
 7    1  0.2844572E-009  0.1246910E+03  0.7561462E-02  0.1235553E+00
          1   -1    0    0  501    0  0.00000000000E+00  0.00000000000E+00  0.49252773089E+03  0.49252773089E+03  0.00000000000E+00 0. -1.
         -1   -1    0    0    0  501 -0.00000000000E+00 -0.00000000000E+00 -0.43765541124E+02  0.43765541124E+02  0.00000000000E+00 0.  1.
         25    2    1    2    0    0  0.76975850950E+02  0.23646321660E+02  0.13777213892E+03  0.20276540915E+03  0.12509284043E+03 0.  0.
          5    1    3    3  502    0  0.11063137548E+02 -0.38235065187E+02  0.26197007577E+01  0.40107959987E+02  0.41800000000E+01 0.  1.
         -5    1    3    3    0  502  0.65912713402E+02  0.61881386847E+02  0.13515243817E+03  0.16265744916E+03  0.41800000000E+01 0.  1.
        -11    1    1    2    0    0 -0.80174877791E+02  0.13729163634E+02  0.23702908652E+03  0.25059786276E+03  0.00000000000E+00 0.  1.
         11    1    1    2    0    0  0.31990268410E+01 -0.37375485294E+02  0.73960964317E+02  0.82930000099E+02  0.00000000000E+00 0. -1.
</event>
<event>
 7    1  0.2844572E-009  0.8869348E+02  0.7561462E-02  0.1306047E+00
         -1   -1    0    0    0  501 -0.00000000000E+00  0.00000000000E+00  0.62603870700E+02  0.62603870700E+02  0.00000000000E+00 0.  1.
          1   -1    0    0  501    0  0.00000000000E+00 -0.00000000000E+00 -0.22068049513E+03  0.22068049513E+03  0.00000000000E+00 0. -1.
         25    2    1    2    0    0  0.34173994395E+02 -0.24649318465E+02 -0.72442578399E+02  0.15056793833E+03  0.12508927250E+03 0.  0.
          5    1    3    3  502    0  0.11608590123E+02 -0.65058839574E+02 -0.20886084904E+01  0.66251389848E+02  0.41800000000E+01 0. -1.
         -5    1    3    3    0  502  0.22565404272E+02  0.40409521108E+02 -0.70353969909E+02  0.84316548483E+02  0.41800000000E+01 0. -1.
        -11    1    1    2    0    0 -0.45968937880E+02  0.12227369986E+02 -0.22815929546E+01  0.47622027393E+02  0.00000000000E+00 0.  1.
         11    1    1    2    0    0  0.11794943484E+02  0.12421948479E+02 -0.83352453080E+02  0.85094400111E+02  0.00000000000E+00 0. -1.
</event>
<event>
 7    1  0.2844572E-009  0.1298960E+03  0.7561462E-02  0.1227610E+00
         -2   -1    0    0    0  501 -0.00000000000E+00  0.00000000000E+00  0.89093443035E+02  0.89093443035E+02  0.00000000000E+00 0.  1.
          2   -1    0    0  501    0  0.00000000000E+00 -0.00000000000E+00 -0.44079279528E+03  0.44079279528E+03  0.00000000000E+00 0. -1.
         25    2    1    2    0    0 -0.58206532329E+02  0.61022359076E+02 -0.37192249472E+03  0.40135562760E+03  0.12509304141E+03 0.  0.
          5    1    3    3  502    0  0.26955695158E+02 -0.15329806271E+02 -0.13017797733E+03  0.13388573727E+03  0.41800000000E+01 0.  1.
         -5    1    3    3    0  502 -0.85162227487E+02  0.76352165346E+02 -0.24174451739E+03  0.26746989033E+03  0.41800000000E+01 0.  1.
        -11    1    1    2    0    0  0.41720718840E+02 -0.79194375587E+02  0.38995486840E+02  0.97637162490E+02  0.00000000000E+00 0.  1.
         11    1    1    2    0    0  0.16485813489E+02  0.18172016512E+02 -0.18772344361E+02  0.30893448226E+02  0.00000000000E+00 0. -1.
</event>
<event>
 7    1  0.3614996E-009  0.1144613E+03  0.7561462E-02  0.1252524E+00
          2   -1    0    0  501    0  0.00000000000E+00  0.00000000000E+00  0.11583490985E+04  0.11583490985E+04  0.00000000000E+00 0. -1.
         -2   -1    0    0    0  501 -0.00000000000E+00 -0.00000000000E+00 -0.12443681553E+02  0.12443681553E+02  0.00000000000E+00 0.  1.
         25    2    1    2    0    0  0.22804085769E+02  0.40355322905E+02  0.75186446679E+03  0.76360791024E+03  0.12509310827E+03 0.  0.
          5    1    3    3  502    0  0.60265321604E+02  0.60269057183E+02  0.59360939461E+03  0.59971147563E+03  0.41800000000E+01 0. -1.
         -5    1    3    3    0  502 -0.37461235835E+02 -0.19913734278E+02  0.15825507219E+03  0.16389643460E+03  0.41800000000E+01 0. -1.
        -11    1    1    2    0    0 -0.56706334180E+02 -0.15096458379E+02  0.26403911540E+03  0.27048135953E+03  0.00000000000E+00 0.  1.
         11    1    1    2    0    0  0.33902248410E+02 -0.25258864526E+02  0.13000183472E+03  0.13670351025E+03  0.00000000000E+00 0. -1.
</event>
<event>
 7    1  0.2844572E-009  0.1090449E+03  0.7561462E-02  0.1262349E+00
          2   -1    0    0  501    0  0.00000000000E+00  0.00000000000E+00  0.11107245312E+02  0.11107245312E+02  0.00000000000E+00 0. -1.
         -2   -1    0    0    0  501 -0.00000000000E+00 -0.00000000000E+00 -0.13033021540E+04  0.13033021540E+04  0.00000000000E+00 0.  1.
         25    2    1    2    0    0  0.22973141910E+02  0.25723653447E+02 -0.95145581400E+03  0.96026289827E+03  0.12508875330E+03 0.  0.
          5    1    3    3  502    0  0.22461846199E+02 -0.47171159748E+02 -0.52410284327E+03  0.52671711152E+03  0.41800000000E+01 0. -1.
         -5    1    3    3    0  502  0.51129571061E+00  0.72894813196E+02 -0.42735297073E+03  0.43354578675E+03  0.41800000000E+01 0. -1.
        -11    1    1    2    0    0 -0.15380109128E+02  0.31436992032E+02 -0.18016707914E+03  0.18353476137E+03  0.00000000000E+00 0.  1.
         11    1    1    2    0    0 -0.75930327814E+01 -0.57160645479E+02 -0.16057201559E+03  0.17061173971E+03  0.00000000000E+00 0. -1.
</event>
<event>
 7    1  0.2844572E-009  0.1241975E+03  0.7561462E-02  0.1236329E+00
          1   -1    0    0  501    0  0.00000000000E+00  0.00000000000E+00  0.13114655403E+03  0.13114655403E+03  0.00000000000E+00 0. -1.
         -1   -1    0    0    0  501 -0.00000000000E+00 -0.00000000000E+00 -0.13346640321E+03  0.13346640321E+03  0.00000000000E+00 0.  1.
         25    2    1    2    0    0  0.24558421760E+02 -0.65247501150E+02 -0.21382488498E+01  0.14322149991E+03  0.12508986147E+03 0.  0.
          5    1    3    3  502    0  0.52349803624E+02 -0.90994152639E+02 -0.28530270645E+01  0.10510018990E+03  0.41800000000E+01 0.  1.
         -5    1    3    3    0  502 -0.27791381864E+02  0.25746651489E+02  0.71477821475E+00  0.38121310008E+02  0.41800000000E+01 0.  1.
        -11    1    1    2    0    0 -0.47690386016E+02  0.15150225514E+02 -0.30329255920E+02  0.58512955968E+02  0.00000000000E+00 0.  1.
         11    1    1    2    0    0  0.23131964256E+02  0.50097275636E+02  0.30147655582E+02  0.62878501363E+02  0.00000000000E+00 0. -1.
</event>
<event>
 7    1  0.2844572E-009  0.1309487E+03  0.7561462E-02  0.1226055E+00
         -4   -1    0    0    0  501 -0.00000000000E+00  0.00000000000E+00  0.13868600427E+02  0.13868600427E+02  0.00000000000E+00 0.  1.
          4   -1    0    0  501    0  0.00000000000E+00 -0.00000000000E+00 -0.15099228877E+04  0.15099228877E+04  0.00000000000E+00 0. -1.
         25    2    1    2    0    0 -0.71693140627E+02 -0.59603295438E+02 -0.88848819360E+03  0.90207350517E+03  0.12503151337E+03 0.  0.
          5    1    3    3  502    0 -0.90053535627E+02 -0.29400714680E+02 -0.35647736892E+03  0.36887345833E+03  0.41800000000E+01 0. -1.
         -5    1    3    3    0  502  0.18360395001E+02 -0.30202580758E+02 -0.53201082467E+03  0.53320004685E+03  0.41800000000E+01 0. -1.
        -11    1    1    2    0    0 -0.16602696819E+02  0.36674664778E+02 -0.16405281555E+03  0.16892011979E+03  0.00000000000E+00 0.  1.
         11    1    1    2    0    0  0.88295837446E+02  0.22928630661E+02 -0.44351327809E+03  0.45279786313E+03  0.00000000000E+00 0. -1.
</event>
<event>
 7    1  0.2844572E-009  0.1595458E+03  0.7561462E-02  0.1189210E+00
          2   -1    0    0  501    0  0.00000000000E+00  0.00000000000E+00  0.28278128081E+03  0.28278128081E+03  0.00000000000E+00 0. -1.
         -2   -1    0    0    0  501 -0.00000000000E+00 -0.00000000000E+00 -0.99691818963E+02  0.99691818963E+02  0.00000000000E+00 0.  1.
         25    2    1    2    0    0  0.10010723304E+03 -0.72182180863E+02  0.13047126906E+03  0.21886406740E+03  0.12508797946E+03 0.  0.
          5    1    3    3  502    0 -0.21120912438E+02 -0.28415784417E+02  0.65249851190E+02  0.74354322178E+02  0.41800000000E+01 0.  1.
         -5    1    3    3    0  502  0.12122814548E+03 -0.43766396446E+02  0.65221417873E+02  0.14450974522E+03  0.41800000000E+01 0.  1.
        -11    1    1    2    0    0 -0.11833766587E+03  0.61698701022E+02  0.41153799471E+02  0.13965732377E+03  0.00000000000E+00 0.  1.
         11    1    1    2    0    0  0.18230432835E+02  0.10483479841E+02  0.11464393309E+02  0.23951708600E+02  0.00000000000E+00 0. -1.
</event>
<event>
 7    1  0.2844572E-009  0.1140203E+03  0.7561462E-02  0.1253301E+00
          2   -1    0    0  501    0  0.00000000000E+00  0.00000000000E+00  0.30073422028E+03  0.30073422028E+03  0.00000000000E+00 0. -1.
         -2   -1    0    0    0  501 -0.00000000000E+00 -0.00000000000E+00 -0.66525472424E+02  0.66525472424E+02  0.00000000000E+00 0.  1.
         25    2    1    2    0    0 -0.32843799618E+02  0.81266506518E+02  0.10133983689E+03  0.18330433313E+03  0.12509098987E+03 0.  0.
          5    1    3    3  502    0  0.22984228793E+01 -0.25175056525E+02  0.57354786118E+02  0.62818071520E+02  0.41800000000E+01 0. -1.
         -5    1    3    3    0  502 -0.35142222498E+02  0.10644156304E+03  0.43985050776E+02  0.12048626161E+03  0.41800000000E+01 0. -1.
        -11    1    1    2    0    0  0.19014983545E+02 -0.69611084181E+02  0.27783874724E+02  0.77325392561E+02  0.00000000000E+00 0.  1.
         11    1    1    2    0    0  0.13828816073E+02 -0.11655422338E+02  0.10508503624E+03  0.10662996701E+03  0.00000000000E+00 0. -1.
</event>
<event>
 7    1  0.2844572E-009  0.1312367E+03  0.7561462E-02  0.1225632E+00
         -1   -1    0    0    0  501 -0.00000000000E+00  0.00000000000E+00  0.34821488291E+03  0.34821488291E+03  0.00000000000E+00 0.  1.
          1   -1    0    0  501    0  0.00000000000E+00 -0.00000000000E+00 -0.60020400725E+02  0.60020400725E+02  0.00000000000E+00 0. -1.
         25    2    1    2    0    0 -0.83872599495E+02 -0.30404184036E+02  0.20698743779E+03  0.25778440973E+03  0.12509986069E+03 0.  0.
          5    1    3    3  502    0  0.31992247970E+02  0.34557158568E+01  0.36364344881E+02  0.48736884193E+02  0.41800000000E+01 0. -1.
         -5    1    3    3    0  502 -0.11586484746E+03 -0.33859899893E+02  0.17062309290E+03  0.20904752553E+03  0.41800000000E+01 0. -1.
        -11    1    1    2    0    0  0.15256077042E+02  0.37280325335E+02  0.69749397054E+02  0.80545322230E+02  0.00000000000E+00 0.  1.
         11    1    1    2    0    0  0.68616522453E+02 -0.68761412992E+01  0.11457647343E+02  0.69905551677E+02  0.00000000000E+00 0. -1.
</event>
<event>
 7    1  0.2844572E-009  0.1360878E+03  0.7561462E-02  0.1218692E+00
         -1   -1    0    0    0  501 -0.00000000000E+00  0.00000000000E+00  0.15679254378E+02  0.15679254378E+02  0.00000000000E+00 0.  1.
          1   -1    0    0  501    0  0.00000000000E+00 -0.00000000000E+00 -0.12420834954E+04  0.12420834954E+04  0.00000000000E+00 0. -1.
         25    2    1    2    0    0 -0.78926208982E+02 -0.28827014287E+02 -0.75493411957E+03  0.76982667670E+03  0.12508894456E+03 0.  0.
          5    1    3    3  502    0 -0.40150694864E+02 -0.76709452977E+02 -0.50436014072E+03  0.51175486555E+03  0.41800000000E+01 0.  1.
         -5    1    3    3    0  502 -0.38775514118E+02  0.47882438690E+02 -0.25057397885E+03  0.25807181114E+03  0.41800000000E+01 0.  1.
        -11    1    1    2    0    0  0.77316238618E+02 -0.15939236927E+02 -0.25757760272E+03  0.26940319496E+03  0.00000000000E+00 0.  1.
         11    1    1    2    0    0  0.16099703641E+01  0.44766251213E+02 -0.21389251877E+03  0.21853287817E+03  0.00000000000E+00 0. -1.
</event>
<event>
 7    1  0.2844572E-009  0.1188844E+03  0.7561462E-02  0.1244949E+00
          1   -1    0    0  501    0  0.00000000000E+00  0.00000000000E+00  0.40176825812E+03  0.40176825812E+03  0.00000000000E+00 0. -1.
         -1   -1    0    0    0  501 -0.00000000000E+00 -0.00000000000E+00 -0.70464347973E+02  0.70464347973E+02  0.00000000000E+00 0.  1.
         25    2    1    2    0    0 -0.88617395080E+02  0.65801147761E+02  0.84013913733E+02  0.18678557817E+03  0.12509069012E+03 0.  0.
          5    1    3    3  502    0 -0.99599798503E+01 -0.12169116545E+02  0.73699394344E+02  0.75474245427E+02  0.41800000000E+01 0. -1.
         -5    1    3    3    0  502 -0.78657415229E+02  0.77970264306E+02  0.10314519390E+02  0.11131133274E+03  0.41800000000E+01 0. -1.
        -11    1    1    2    0    0  0.49339651211E+02 -0.41544579763E+02  0.22522831550E+03  0.23428219606E+03  0.00000000000E+00 0.  1.
         11    1    1    2    0    0  0.39277743869E+02 -0.24256567998E+02  0.22061680912E+02  0.51164831859E+02  0.00000000000E+00 0. -1.
</event>
<event>
 7    1  0.2844572E-009  0.1565526E+03  0.7561462E-02  0.1192645E+00
          1   -1    0    0  501    0  0.00000000000E+00  0.00000000000E+00  0.44008672942E+03  0.44008672942E+03  0.00000000000E+00 0. -1.
         -1   -1    0    0    0  501 -0.00000000000E+00 -0.00000000000E+00 -0.10821579783E+03  0.10821579783E+03  0.00000000000E+00 0.  1.
         25    2    1    2    0    0  0.12753469224E+02  0.12344832484E+03 -0.50583424009E+01  0.17628153206E+03  0.12508977510E+03 0.  0.
          5    1    3    3  502    0  0.55667619611E+02  0.10624574987E+03 -0.29820399484E+02  0.12366799046E+03  0.41800000000E+01 0.  1.
         -5    1    3    3    0  502 -0.42914150387E+02  0.17202574969E+02  0.24762057083E+02  0.52613541603E+02  0.41800000000E+01 0.  1.
        -11    1    1    2    0    0 -0.30580004622E+02 -0.10522169540E+02  0.14550946044E+03  0.14905990679E+03  0.00000000000E+00 0. -1.
         11    1    1    2    0    0  0.17826535398E+02 -0.11292615530E+03  0.19141981356E+03  0.22296108840E+03  0.00000000000E+00 0.  1.
</event>
<event>
 7    1  0.2844572E-009  0.1338720E+03  0.7561462E-02  0.1221821E+00
         -3   -1    0    0    0  501 -0.00000000000E+00  0.00000000000E+00  0.15011765860E+03  0.15011765860E+03  0.00000000000E+00 0.  1.
          3   -1    0    0  501    0  0.00000000000E+00 -0.00000000000E+00 -0.20392657090E+03  0.20392657090E+03  0.00000000000E+00 0. -1.
         25    2    1    2    0    0  0.11543382486E+03  0.33688768612E+02 -0.98117949044E+02  0.19937325102E+03  0.12515055032E+03 0.  0.
          5    1    3    3  502    0  0.12288095068E+03  0.44452852500E+02 -0.11738693701E+03  0.17570699905E+03  0.41800000000E+01 0.  1.
         -5    1    3    3    0  502 -0.74471258156E+01 -0.10764083888E+02  0.19268987969E+02  0.23666251968E+02  0.41800000000E+01 0.  1.
        -11    1    1    2    0    0 -0.66939187133E+02 -0.54870621918E+01 -0.19277272565E+02  0.69875431041E+02  0.00000000000E+00 0.  1.
         11    1    1    2    0    0 -0.48494637730E+02 -0.28201706420E+02  0.63586309312E+02  0.84795547439E+02  0.00000000000E+00 0. -1.
</event>
<event>
 7    1  0.2844572E-009  0.8383541E+02  0.7561462E-02  0.1318506E+00
         -2   -1    0    0    0  501 -0.00000000000E+00  0.00000000000E+00  0.18086201379E+03  0.18086201379E+03  0.00000000000E+00 0.  1.
          2   -1    0    0  501    0  0.00000000000E+00 -0.00000000000E+00 -0.81166851191E+02  0.81166851191E+02  0.00000000000E+00 0. -1.
         25    2    1    2    0    0  0.22859972310E+02  0.47787610733E+02  0.56738733414E+02  0.14721020680E+03  0.12508128174E+03 0.  0.
          5    1    3    3  502    0 -0.49655179917E+01  0.52645338155E+02  0.89322586650E+02  0.10388544116E+03  0.41800000000E+01 0.  1.
         -5    1    3    3    0  502  0.27825490301E+02 -0.48577274217E+01 -0.32583853236E+02  0.43324765642E+02  0.41800000000E+01 0.  1.
        -11    1    1    2    0    0  0.13473359688E+02 -0.47879891732E+02  0.57192513717E+02  0.75795772169E+02  0.00000000000E+00 0.  1.
         11    1    1    2    0    0 -0.36333331997E+02  0.92280998469E-01 -0.14236084534E+02  0.39022886012E+02  0.00000000000E+00 0. -1.
</event>
<event>
 7    1  0.2844572E-009  0.9274460E+02  0.7561462E-02  0.1296338E+00
          1   -1    0    0  501    0  0.00000000000E+00  0.00000000000E+00  0.29533957175E+03  0.29533957175E+03  0.00000000000E+00 0. -1.
         -1   -1    0    0    0  501 -0.00000000000E+00 -0.00000000000E+00 -0.55062148175E+02  0.55062148175E+02  0.00000000000E+00 0.  1.
         25    2    1    2    0    0  0.55841042845E+02  0.34257666697E+02  0.10710785389E+03  0.17723334189E+03  0.12509098817E+03 0.  0.
          5    1    3    3  502    0  0.49206871734E+02  0.41773526051E+02 -0.47432536230E+01  0.64856106570E+02  0.41800000000E+01 0.  1.
         -5    1    3    3    0  502  0.66341711111E+01 -0.75158593539E+01  0.11185110751E+03  0.11237723532E+03  0.41800000000E+01 0.  1.
        -11    1    1    2    0    0 -0.59836911899E+02  0.14056791842E+02  0.84327491332E+02  0.10435121090E+03  0.00000000000E+00 0.  1.
         11    1    1    2    0    0  0.39958690538E+01 -0.48314458538E+02  0.48842078360E+02  0.68817167130E+02  0.00000000000E+00 0. -1.
</event>
<event>
 7    1  0.2844572E-009  0.2144351E+03  0.7561462E-02  0.1138101E+00
         -1   -1    0    0    0  501 -0.00000000000E+00  0.00000000000E+00  0.11330822036E+03  0.11330822036E+03  0.00000000000E+00 0.  1.
          1   -1    0    0  501    0  0.00000000000E+00 -0.00000000000E+00 -0.46751587678E+03  0.46751587678E+03  0.00000000000E+00 0. -1.
         25    2    1    2    0    0 -0.10349696093E+03 -0.16410379619E+03 -0.10812053940E+03  0.25490862231E+03  0.12508668130E+03 0.  0.
          5    1    3    3  502    0 -0.11877005912E+03 -0.95461713306E+02 -0.41578053401E+02  0.15800465998E+03  0.41800000000E+01 0.  1.
         -5    1    3    3    0  502  0.15273098190E+02 -0.68642082883E+02 -0.66542486003E+02  0.96903962325E+02  0.41800000000E+01 0.  1.
        -11    1    1    2    0    0  0.31108856860E+02  0.11345218183E+03 -0.18223639299E+03  0.21690841723E+03  0.00000000000E+00 0. -1.
         11    1    1    2    0    0  0.72388104075E+02  0.50651614360E+02 -0.63850724018E+02  0.10900705760E+03  0.00000000000E+00 0.  1.
</event>
<event>
 7    1  0.2844572E-009  0.1202270E+03  0.7561462E-02  0.1242723E+00
         -1   -1    0    0    0  501 -0.00000000000E+00  0.00000000000E+00  0.67789002734E+02  0.67789002734E+02  0.00000000000E+00 0.  1.
          1   -1    0    0  501    0  0.00000000000E+00 -0.00000000000E+00 -0.79924598770E+03  0.79924598770E+03  0.00000000000E+00 0. -1.
         25    2    1    2    0    0  0.47573686794E+02  0.87353374674E+02 -0.71358792571E+03  0.73126539209E+03  0.12508988047E+03 0.  0.
          5    1    3    3  502    0  0.15919528451E+02  0.67988557115E+02 -0.14039101754E+03  0.15685338852E+03  0.41800000000E+01 0. -1.
         -5    1    3    3    0  502  0.31654158342E+02  0.19364817559E+02 -0.57319690818E+03  0.57441200357E+03  0.41800000000E+01 0. -1.
        -11    1    1    2    0    0  0.39029055337E+01 -0.81225392289E+02 -0.12428692611E+01  0.81328603505E+02  0.00000000000E+00 0.  1.
         11    1    1    2    0    0 -0.51476592327E+02 -0.61279823855E+01 -0.16626189992E+02  0.54440994842E+02  0.00000000000E+00 0. -1.
</event>
<event>
 7    1  0.2844572E-009  0.8514990E+02  0.7561462E-02  0.1315041E+00
         -1   -1    0    0    0  501 -0.00000000000E+00  0.00000000000E+00  0.88785567315E+01  0.88785567315E+01  0.00000000000E+00 0.  1.
          1   -1    0    0  501    0  0.00000000000E+00 -0.00000000000E+00 -0.14255002723E+04  0.14255002723E+04  0.00000000000E+00 0. -1.
         25    2    1    2    0    0  0.21172616706E+02  0.12921240615E+02 -0.93263497958E+03  0.94131306584E+03  0.12508814742E+03 0.  0.
          5    1    3    3  502    0  0.58823520685E+01 -0.30224562667E+02 -0.80591820596E+03  0.80651705088E+03  0.41800000000E+01 0.  1.
         -5    1    3    3    0  502  0.15290264638E+02  0.43145803281E+02 -0.12671677362E+03  0.13479601496E+03  0.41800000000E+01 0.  1.
        -11    1    1    2    0    0 -0.54197132835E+02  0.70698614573E+01 -0.31677902458E+03  0.32145958154E+03  0.00000000000E+00 0. -1.
         11    1    1    2    0    0  0.33024516128E+02 -0.19991102072E+02 -0.16720771140E+03  0.17160618164E+03  0.00000000000E+00 0.  1.
</event>
<event>
 7    1  0.2844572E-009  0.1019180E+03  0.7561462E-02  0.1276314E+00
          2   -1    0    0  501    0  0.00000000000E+00  0.00000000000E+00  0.39445659328E+03  0.39445659328E+03  0.00000000000E+00 0.  1.
         -2   -1    0    0    0  501 -0.00000000000E+00 -0.00000000000E+00 -0.62720878832E+02  0.62720878832E+02  0.00000000000E+00 0. -1.
         25    2    1    2    0    0  0.41122545155E+01 -0.87903486136E+02  0.74617273533E+02  0.17014369792E+03  0.12504881815E+03 0.  0.
          5    1    3    3  502    0 -0.20173271025E+02 -0.10020738078E+02 -0.29787961952E+02  0.37578865506E+02  0.41800000000E+01 0. -1.
         -5    1    3    3    0  502  0.24285525540E+02 -0.77882748058E+02  0.10440523549E+03  0.13256483241E+03  0.41800000000E+01 0. -1.
        -11    1    1    2    0    0 -0.19420737660E+02  0.79370873530E+02  0.25681949056E+03  0.26950538278E+03  0.00000000000E+00 0.  1.
         11    1    1    2    0    0  0.15308483144E+02  0.85326126058E+01  0.29895034978E+00  0.17528391409E+02  0.00000000000E+00 0. -1.
</event>
<event>
 7    1  0.2844572E-009  0.1943149E+03  0.7561462E-02  0.1154626E+00
         -2   -1    0    0    0  501 -0.00000000000E+00  0.00000000000E+00  0.36881381563E+02  0.36881381563E+02  0.00000000000E+00 0.  1.
          2   -1    0    0  501    0  0.00000000000E+00 -0.00000000000E+00 -0.11726566772E+04  0.11726566772E+04  0.00000000000E+00 0. -1.
         25    2    1    2    0    0 -0.15561898933E+03  0.52380132570E+02 -0.40340669674E+03  0.45315058578E+03  0.12509013665E+03 0.  0.
          5    1    3    3  502    0 -0.11083110815E+03 -0.27924921966E+02 -0.22262468475E+03  0.25028495452E+03  0.41800000000E+01 0.  1.
         -5    1    3    3    0  502 -0.44787881181E+02  0.80305054536E+02 -0.18078201200E+03  0.20286563126E+03  0.41800000000E+01 0.  1.
        -11    1    1    2    0    0  0.12322173236E+03 -0.31284815083E+01 -0.39108667229E+03  0.41005142113E+03  0.00000000000E+00 0.  1.
         11    1    1    2    0    0  0.32397256973E+02 -0.49251651062E+02 -0.34128192660E+03  0.34633605186E+03  0.00000000000E+00 0. -1.
</event>
<event>
 7    1  0.2844572E-009  0.8238608E+02  0.7561462E-02  0.1322413E+00
          1   -1    0    0  501    0  0.00000000000E+00  0.00000000000E+00  0.56171795666E+03  0.56171795666E+03  0.00000000000E+00 0. -1.
         -1   -1    0    0    0  501 -0.00000000000E+00 -0.00000000000E+00 -0.23298602996E+02  0.23298602996E+02  0.00000000000E+00 0.  1.
         25    2    1    2    0    0 -0.23261604991E+02 -0.74144857091E+01  0.23343609104E+03  0.26596275059E+03  0.12509076398E+03 0.  0.
          5    1    3    3  502    0 -0.47786926557E+02  0.41970229766E+01  0.22329120491E+02  0.53077936786E+02  0.41800000000E+01 0.  1.
         -5    1    3    3    0  502  0.24525321566E+02 -0.11611508686E+02  0.21110697055E+03  0.21288481380E+03  0.41800000000E+01 0.  1.
        -11    1    1    2    0    0 -0.24158177388E+02 -0.22569147481E+02  0.69259491737E+02  0.76745430798E+02  0.00000000000E+00 0.  1.
         11    1    1    2    0    0  0.47419782379E+02  0.29983633191E+02  0.23572377089E+03  0.24230837827E+03  0.00000000000E+00 0. -1.
</event>
<event>
 7    1  0.3059158E-009  0.5347375E+02  0.7561462E-02  0.1427458E+00
         -2   -1    0    0    0  501 -0.00000000000E+00  0.00000000000E+00  0.12552418158E+03  0.12552418158E+03  0.00000000000E+00 0.  1.
          2   -1    0    0  501    0  0.00000000000E+00 -0.00000000000E+00 -0.10457975200E+03  0.10457975200E+03  0.00000000000E+00 0. -1.
         25    2    1    2    0    0  0.11795396691E+02 -0.17826079635E+02 -0.18822369713E+02  0.12829091566E+03  0.12508947574E+03 0.  0.
          5    1    3    3  502    0  0.33113006508E+02 -0.66547601035E+01  0.47030979587E+02  0.58052928203E+02  0.41800000000E+01 0. -1.
         -5    1    3    3    0  502 -0.21317609817E+02 -0.11171319531E+02 -0.65853349300E+02  0.70237987460E+02  0.41800000000E+01 0. -1.
        -11    1    1    2    0    0 -0.52778324456E+01 -0.14541569471E+02 -0.24837169231E+02  0.29260856676E+02  0.00000000000E+00 0. -1.
         11    1    1    2    0    0 -0.65175642459E+01  0.32367649106E+02  0.64603968518E+02  0.72552161241E+02  0.00000000000E+00 0.  1.
</event>
<event>
 7    1  0.2844572E-009  0.1366081E+03  0.7561462E-02  0.1217967E+00
          4   -1    0    0  501    0  0.00000000000E+00  0.00000000000E+00  0.63487559564E+02  0.63487559564E+02  0.00000000000E+00 0. -1.
         -4   -1    0    0    0  501 -0.00000000000E+00 -0.00000000000E+00 -0.39109975540E+03  0.39109975540E+03  0.00000000000E+00 0.  1.
         25    2    1    2    0    0  0.83241822822E+02  0.68795400415E+02 -0.23084896423E+03  0.28390096173E+03  0.12508598482E+03 0.  0.
          5    1    3    3  502    0 -0.32149659871E+02  0.37940296876E+01 -0.41678560708E+02  0.52939305944E+02  0.41800000000E+01 0.  1.
         -5    1    3    3    0  502  0.11539148269E+03  0.65001370728E+02 -0.18917040352E+03  0.23096165578E+03  0.41800000000E+01 0.  1.
        -11    1    1    2    0    0 -0.24839058389E+02 -0.18126361182E+02  0.15451198991E+02  0.34413418046E+02  0.00000000000E+00 0.  1.
         11    1    1    2    0    0 -0.58402764433E+02 -0.50669039234E+02 -0.11221443060E+03  0.13627293519E+03  0.00000000000E+00 0. -1.
</event>
<event>
 7    1  0.2844572E-009  0.8661844E+02  0.7561462E-02  0.1311254E+00
         -2   -1    0    0    0  501 -0.00000000000E+00  0.00000000000E+00  0.84274709000E+02  0.84274709000E+02  0.00000000000E+00 0.  1.
          2   -1    0    0  501    0  0.00000000000E+00 -0.00000000000E+00 -0.22253425987E+03  0.22253425987E+03  0.00000000000E+00 0. -1.
         25    2    1    2    0    0  0.54509707787E+02  0.43493403307E+02 -0.47241074217E+02  0.15080618055E+03  0.12509116925E+03 0.  0.
          5    1    3    3  502    0  0.25762530860E+02  0.35199576776E+01 -0.84763440827E+02  0.88760415722E+02  0.41800000000E+01 0.  1.
         -5    1    3    3    0  502  0.28747176927E+02  0.39973445629E+02  0.37522366610E+02  0.62045764825E+02  0.41800000000E+01 0.  1.
        -11    1    1    2    0    0 -0.66017402713E+02 -0.51278874596E+02 -0.10637728175E+03  0.13529207853E+03  0.00000000000E+00 0. -1.
         11    1    1    2    0    0  0.11507694926E+02  0.77854712889E+01  0.15358805102E+02  0.20710709787E+02  0.00000000000E+00 0.  1.
</event>
<event>
 7    1  0.2844572E-009  0.1538881E+03  0.7561462E-02  0.1195775E+00
          1   -1    0    0  501    0  0.00000000000E+00  0.00000000000E+00  0.46280334040E+03  0.46280334040E+03  0.00000000000E+00 0. -1.
         -1   -1    0    0    0  501 -0.00000000000E+00 -0.00000000000E+00 -0.77208087486E+02  0.77208087486E+02  0.00000000000E+00 0.  1.
         25    2    1    2    0    0  0.69804357359E+02  0.10133208809E+03  0.33531469529E+03  0.37844930702E+03  0.12508833968E+03 0.  0.
          5    1    3    3  502    0  0.50841717762E+02  0.12458671443E+03  0.31329846392E+03  0.34099872371E+03  0.41800000000E+01 0. -1.
         -5    1    3    3    0  502  0.18962639597E+02 -0.23254626337E+02  0.22016231372E+02  0.37450583312E+02  0.41800000000E+01 0. -1.
        -11    1    1    2    0    0 -0.81712750819E+02 -0.64370722946E+02  0.61878022368E+02  0.12103492583E+03  0.00000000000E+00 0.  1.
         11    1    1    2    0    0  0.11908393460E+02 -0.36961365146E+02 -0.11597464750E+02  0.40527195028E+02  0.00000000000E+00 0. -1.
</event>
<event>
 7    1  0.2844572E-009  0.7607223E+02  0.7561462E-02  0.1340582E+00
         -1   -1    0    0    0  501 -0.00000000000E+00  0.00000000000E+00  0.63536489428E+03  0.63536489428E+03  0.00000000000E+00 0.  1.
          1   -1    0    0  501    0  0.00000000000E+00 -0.00000000000E+00 -0.42371795701E+02  0.42371795701E+02  0.00000000000E+00 0. -1.
         25    2    1    2    0    0  0.73633191111E+02  0.85284947146E+01  0.51887279440E+03  0.53886067910E+03  0.12508905891E+03 0.  0.
          5    1    3    3  502    0  0.19943274472E+02 -0.76654203922E+01  0.55502857058E+01  0.22467107911E+02  0.41800000000E+01 0.  1.
         -5    1    3    3    0  502  0.53689916638E+02  0.16193915107E+02  0.51332250869E+03  0.51639357119E+03  0.41800000000E+01 0.  1.
        -11    1    1    2    0    0 -0.41791652629E+02 -0.55517901700E+01  0.92738073315E+02  0.10187106972E+03  0.00000000000E+00 0.  1.
         11    1    1    2    0    0 -0.31841538481E+02 -0.29767045446E+01 -0.18617769134E+02  0.37004941161E+02  0.00000000000E+00 0. -1.
</event>
<event>
 7    1  0.2844572E-009  0.5710859E+02  0.7561462E-02  0.1410382E+00
         -2   -1    0    0    0  501 -0.00000000000E+00  0.00000000000E+00  0.84018685300E+01  0.84018685300E+01  0.00000000000E+00 0.  1.
          2   -1    0    0  501    0  0.00000000000E+00 -0.00000000000E+00 -0.14118616987E+04  0.14118616987E+04  0.00000000000E+00 0. -1.
         25    2    1    2    0    0  0.43238707396E+00  0.17177735424E+02 -0.94062692349E+03  0.94906384812E+03  0.12509163471E+03 0.  0.
          5    1    3    3  502    0  0.82662915760E+01  0.34668590264E+01 -0.17492095362E+01  0.10044044102E+02  0.41800000000E+01 0.  1.
         -5    1    3    3    0  502 -0.78339045021E+01  0.13710876398E+02 -0.93887771395E+03  0.93901980402E+03  0.41800000000E+01 0.  1.
        -11    1    1    2    0    0 -0.40904312938E+02  0.60167804117E+01 -0.19497254785E+03  0.19930794986E+03  0.00000000000E+00 0.  1.
         11    1    1    2    0    0  0.40471925864E+02 -0.23194515836E+02 -0.26786035883E+03  0.27189176924E+03  0.00000000000E+00 0. -1.
</event>
<event>
 7    1  0.2844572E-009  0.1072409E+03  0.7561462E-02  0.1265766E+00
          1   -1    0    0  501    0  0.00000000000E+00  0.00000000000E+00  0.16366002424E+03  0.16366002424E+03  0.00000000000E+00 0. -1.
         -1   -1    0    0    0  501 -0.00000000000E+00 -0.00000000000E+00 -0.14449693520E+03  0.14449693520E+03  0.00000000000E+00 0.  1.
         25    2    1    2    0    0  0.83080451258E+02  0.34757962870E+02  0.60223944662E+02  0.16548332853E+03  0.12508929270E+03 0.  0.
          5    1    3    3  502    0  0.83457090748E+02 -0.49761313792E+01 -0.10387139034E+02  0.84351721600E+02  0.41800000000E+01 0. -1.
         -5    1    3    3    0  502 -0.37663948987E+00  0.39734094249E+02  0.70611083695E+02  0.81131606934E+02  0.41800000000E+01 0. -1.
        -11    1    1    2    0    0 -0.65407662125E+02 -0.21955241495E+02 -0.75263583884E+02  0.10210191944E+03  0.00000000000E+00 0.  1.
         11    1    1    2    0    0 -0.17672789132E+02 -0.12802721375E+02  0.34202728268E+02  0.40571711466E+02  0.00000000000E+00 0. -1.
</event>
<event>
 7    1  0.2844572E-009  0.2159839E+03  0.7561462E-02  0.1136913E+00
         -2   -1    0    0    0  501 -0.00000000000E+00  0.00000000000E+00  0.40977360600E+03  0.40977360600E+03  0.00000000000E+00 0.  1.
          2   -1    0    0  501    0  0.00000000000E+00 -0.00000000000E+00 -0.12769828685E+03  0.12769828685E+03  0.00000000000E+00 0. -1.
         25    2    1    2    0    0  0.98304143998E+02 -0.16781997584E+03  0.21908979192E+03  0.31854462070E+03  0.12507233682E+03 0.  0.
          5    1    3    3  502    0 -0.28744993625E+02 -0.42471846265E+02  0.35819398228E+02  0.62694769105E+02  0.41800000000E+01 0.  1.
         -5    1    3    3    0  502  0.12704913762E+03 -0.12534812958E+03  0.18327039369E+03  0.25584985160E+03  0.41800000000E+01 0.  1.
        -11    1    1    2    0    0 -0.37149844154E+02  0.20389565228E+02 -0.98128685258E+01  0.43498708942E+02  0.00000000000E+00 0. -1.
         11    1    1    2    0    0 -0.61154299843E+02  0.14743041061E+03  0.72798395762E+02  0.17542856321E+03  0.00000000000E+00 0.  1.
</event>
<event>
 7    1  0.2844572E-009  0.1273767E+03  0.7561462E-02  0.1231401E+00
         -1   -1    0    0    0  501 -0.00000000000E+00  0.00000000000E+00  0.39574644931E+02  0.39574644931E+02  0.00000000000E+00 0.  1.
          1   -1    0    0  501    0  0.00000000000E+00 -0.00000000000E+00 -0.51420019321E+03  0.51420019321E+03  0.00000000000E+00 0. -1.
         25    2    1    2    0    0  0.33971681477E+02 -0.82176400191E+02 -0.29590746133E+03  0.33333945056E+03  0.12508768021E+03 0.  0.
          5    1    3    3  502    0 -0.39809426155E+02 -0.22164213947E+02 -0.41757034227E+02  0.61944855300E+02  0.41800000000E+01 0. -1.
         -5    1    3    3    0  502  0.73781107632E+02 -0.60012186243E+02 -0.25415042710E+03  0.27139459526E+03  0.41800000000E+01 0. -1.
        -11    1    1    2    0    0  0.11606486347E+01  0.78464279700E+02 -0.66736526105E+02  0.10301336909E+03  0.00000000000E+00 0.  1.
         11    1    1    2    0    0 -0.35132330111E+02  0.37121204908E+01 -0.11198156085E+03  0.11742201850E+03  0.00000000000E+00 0. -1.
</event>
<event>
 7    1  0.2844572E-009  0.1006247E+03  0.7561462E-02  0.1278988E+00
         -1   -1    0    0    0  501 -0.00000000000E+00  0.00000000000E+00  0.13803559461E+03  0.13803559461E+03  0.00000000000E+00 0.  1.
          1   -1    0    0  501    0  0.00000000000E+00 -0.00000000000E+00 -0.10295160558E+03  0.10295160558E+03  0.00000000000E+00 0. -1.
         25    2    1    2    0    0  0.15782029644E+02  0.48172009756E+02  0.29183337809E+02  0.13809071677E+03  0.12509102234E+03 0.  0.
          5    1    3    3  502    0  0.62588487793E+02  0.33223049830E+02  0.47583966027E+02  0.85456398631E+02  0.41800000000E+01 0.  1.
         -5    1    3    3    0  502 -0.46806458148E+02  0.14948959926E+02 -0.18400628218E+02  0.52634318140E+02  0.41800000000E+01 0.  1.
        -11    1    1    2    0    0 -0.58244381025E+01 -0.62903291046E+02 -0.24435283848E+02  0.67733530842E+02  0.00000000000E+00 0. -1.
         11    1    1    2    0    0 -0.99575915417E+01  0.14731281290E+02  0.30335935061E+02  0.35162952575E+02  0.00000000000E+00 0.  1.
</event>
<event>
 7    1  0.2844572E-009  0.1123358E+03  0.7561462E-02  0.1256305E+00
          2   -1    0    0  501    0  0.00000000000E+00  0.00000000000E+00  0.63157525548E+03  0.63157525548E+03  0.00000000000E+00 0. -1.
         -2   -1    0    0    0  501 -0.00000000000E+00 -0.00000000000E+00 -0.23036811291E+02  0.23036811291E+02  0.00000000000E+00 0.  1.
         25    2    1    2    0    0 -0.26024970513E+02  0.28633312475E+02  0.43827430126E+03  0.45741635413E+03  0.12509273445E+03 0.  0.
          5    1    3    3  502    0 -0.56910433583E+02 -0.25777214443E+02  0.28527835149E+03  0.29206929394E+03  0.41800000000E+01 0.  1.
         -5    1    3    3    0  502  0.30885463071E+02  0.54410526919E+02  0.15299594977E+03  0.16534706019E+03  0.41800000000E+01 0.  1.
        -11    1    1    2    0    0 -0.27725616580E+02 -0.35630465781E+02  0.72392085837E+02  0.85316200093E+02  0.00000000000E+00 0. -1.
         11    1    1    2    0    0  0.53750587093E+02  0.69971533054E+01  0.97872057091E+02  0.11187951254E+03  0.00000000000E+00 0.  1.
</event>
<event>
 7    1  0.2844572E-009  0.1151818E+03  0.7561462E-02  0.1251264E+00
          1   -1    0    0  501    0  0.00000000000E+00  0.00000000000E+00  0.16150505424E+03  0.16150505424E+03  0.00000000000E+00 0. -1.
         -1   -1    0    0    0  501 -0.00000000000E+00 -0.00000000000E+00 -0.90222472152E+02  0.90222472152E+02  0.00000000000E+00 0.  1.
         25    2    1    2    0    0 -0.52009106358E+02  0.16776216316E+02  0.40783577619E+02  0.14246956601E+03  0.12509152033E+03 0.  0.
          5    1    3    3  502    0  0.30619553901E+02 -0.19186401844E+02  0.37432113234E+02  0.52194928853E+02  0.41800000000E+01 0.  1.
         -5    1    3    3    0  502 -0.82628660259E+02  0.35962618160E+02  0.33514643843E+01  0.90274637162E+02  0.41800000000E+01 0.  1.
        -11    1    1    2    0    0  0.64109953917E+02  0.18300512473E+02  0.11798956811E+02  0.67706796777E+02  0.00000000000E+00 0.  1.
         11    1    1    2    0    0 -0.12100847559E+02 -0.35076728789E+02  0.18700047662E+02  0.41551163603E+02  0.00000000000E+00 0. -1.
</event>
<event>
 7    1  0.2844572E-009  0.1336792E+03  0.7561462E-02  0.1222096E+00
         -3   -1    0    0    0  501 -0.00000000000E+00  0.00000000000E+00  0.64404394212E+02  0.64404394212E+02  0.00000000000E+00 0.  1.
          3   -1    0    0  501    0  0.00000000000E+00 -0.00000000000E+00 -0.33227199662E+03  0.33227199662E+03  0.00000000000E+00 0. -1.
         25    2    1    2    0    0 -0.15600268467E+02 -0.91286948026E+02 -0.10219416141E+03  0.18619222212E+03  0.12508885520E+03 0.  0.
          5    1    3    3  502    0  0.13063356037E+02  0.25029376268E+02 -0.45216155993E+02  0.53470497567E+02  0.41800000000E+01 0. -1.
         -5    1    3    3    0  502 -0.28663624505E+02 -0.11631632429E+03 -0.56978005418E+02  0.13272172455E+03  0.41800000000E+01 0. -1.
        -11    1    1    2    0    0  0.45566494763E+02  0.46876922414E+02 -0.13173624748E+03  0.14706525830E+03  0.00000000000E+00 0. -1.
         11    1    1    2    0    0 -0.29966226296E+02  0.44410025612E+02 -0.33937193514E+02  0.63418910404E+02  0.00000000000E+00 0.  1.
</event>
<event>
 7    1  0.2844572E-009  0.6183962E+02  0.7561462E-02  0.1390270E+00
         -1   -1    0    0    0  501 -0.00000000000E+00  0.00000000000E+00  0.53174919219E+03  0.53174919219E+03  0.00000000000E+00 0.  1.
          1   -1    0    0  501    0  0.00000000000E+00 -0.00000000000E+00 -0.32851886277E+02  0.32851886277E+02  0.00000000000E+00 0. -1.
         25    2    1    2    0    0 -0.64803277800E+00 -0.59654041932E+02  0.37623490340E+03  0.40094950747E+03  0.12509508520E+03 0.  0.
          5    1    3    3  502    0  0.66010689126E+00 -0.51087768509E+02  0.41174775391E+02  0.65751276496E+02  0.41800000000E+01 0. -1.
         -5    1    3    3    0  502 -0.13081396693E+01 -0.85662734226E+01  0.33506012800E+03  0.33519823097E+03  0.41800000000E+01 0. -1.
        -11    1    1    2    0    0  0.10116500030E+02  0.32484430072E+02 -0.35436946988E+01  0.34207302467E+02  0.00000000000E+00 0. -1.
         11    1    1    2    0    0 -0.94684672521E+01  0.27169611860E+02  0.12620609722E+03  0.12944426853E+03  0.00000000000E+00 0.  1.
</event>
<event>
 7    1  0.2844572E-009  0.1798063E+03  0.7561462E-02  0.1167991E+00
         -1   -1    0    0    0  501 -0.00000000000E+00  0.00000000000E+00  0.14202499298E+03  0.14202499298E+03  0.00000000000E+00 0.  1.
          1   -1    0    0  501    0  0.00000000000E+00 -0.00000000000E+00 -0.28349666827E+03  0.28349666827E+03  0.00000000000E+00 0. -1.
         25    2    1    2    0    0 -0.39771868162E+02  0.16352437463E+03 -0.65307760878E+02  0.21962221821E+03  0.12508713965E+03 0.  0.
          5    1    3    3  502    0 -0.99502225968E+01  0.61045195310E+02  0.36603687193E+02  0.71991840623E+02  0.41800000000E+01 0. -1.
         -5    1    3    3    0  502 -0.29821645566E+02  0.10247917932E+03 -0.10191144807E+03  0.14763037758E+03  0.41800000000E+01 0. -1.
        -11    1    1    2    0    0 -0.29260614116E+02 -0.50920639530E+02 -0.30288595850E+02  0.66079452988E+02  0.00000000000E+00 0. -1.
         11    1    1    2    0    0  0.69032482279E+02 -0.11260373510E+03 -0.45875318564E+02  0.13981999006E+03  0.00000000000E+00 0.  1.
</event>
<event>
 7    1  0.2844572E-009  0.1339648E+03  0.7561462E-02  0.1221688E+00
         -1   -1    0    0    0  501 -0.00000000000E+00  0.00000000000E+00  0.54796661526E+02  0.54796661526E+02  0.00000000000E+00 0.  1.
          1   -1    0    0  501    0  0.00000000000E+00 -0.00000000000E+00 -0.35748285614E+03  0.35748285614E+03  0.00000000000E+00 0. -1.
         25    2    1    2    0    0  0.54659430800E+02 -0.57506024070E+02 -0.11221368857E+03  0.18583582238E+03  0.12509374405E+03 0.  0.
          5    1    3    3  502    0  0.20911579637E+02 -0.94549262281E+02 -0.63835527285E+02  0.11605733111E+03  0.41800000000E+01 0.  1.
         -5    1    3    3    0  502  0.33747851163E+02  0.37043238211E+02 -0.48378161282E+02  0.69778491272E+02  0.41800000000E+01 0.  1.
        -11    1    1    2    0    0  0.18978017670E+02  0.41110501623E+02 -0.90556919095E+02  0.10124620533E+03  0.00000000000E+00 0.  1.
         11    1    1    2    0    0 -0.73637448470E+02  0.16395522448E+02 -0.99915586950E+02  0.12519748995E+03  0.00000000000E+00 0. -1.
</event>
<event>
 7    1  0.2844572E-009  0.1440443E+03  0.7561462E-02  0.1207988E+00
          1   -1    0    0  501    0  0.00000000000E+00  0.00000000000E+00  0.79715355325E+03  0.79715355325E+03  0.00000000000E+00 0. -1.
         -1   -1    0    0    0  501 -0.00000000000E+00 -0.00000000000E+00 -0.33605930582E+02  0.33605930582E+02  0.00000000000E+00 0.  1.
         25    2    1    2    0    0  0.11636856977E+03  0.25191391534E+02  0.34266910964E+03  0.38372534693E+03  0.12508706143E+03 0.  0.
          5    1    3    3  502    0  0.11731415157E+02 -0.33271110654E+02  0.23058489417E+02  0.42352794948E+02  0.41800000000E+01 0.  1.
         -5    1    3    3    0  502  0.10463715461E+03  0.58462502187E+02  0.31961062023E+03  0.34137255199E+03  0.41800000000E+01 0.  1.
        -11    1    1    2    0    0 -0.70058569273E+02 -0.43906473004E+02  0.14716263115E+03  0.16879816796E+03  0.00000000000E+00 0.  1.
         11    1    1    2    0    0 -0.46310000495E+02  0.18715081470E+02  0.27371588187E+03  0.27823596894E+03  0.00000000000E+00 0. -1.
</event>
<event>
 7    1  0.2844572E-009  0.1398217E+03  0.7561462E-02  0.1213569E+00
          1   -1    0    0  501    0  0.00000000000E+00  0.00000000000E+00  0.82915777670E+03  0.82915777670E+03  0.00000000000E+00 0. -1.
         -1   -1    0    0    0  501 -0.00000000000E+00 -0.00000000000E+00 -0.25534299226E+02  0.25534299226E+02  0.00000000000E+00 0.  1.
         25    2    1    2    0    0 -0.36053954387E+02  0.85368436951E+02  0.35868462574E+03  0.39101185491E+03  0.12509177544E+03 0.  0.
          5    1    3    3  502    0 -0.82116107540E+02  0.50215056459E+02  0.19918297438E+03  0.22125988497E+03  0.41800000000E+01 0. -1.
         -5    1    3    3    0  502  0.46062153153E+02  0.35153380492E+02  0.15950165135E+03  0.16975196994E+03  0.41800000000E+01 0. -1.
        -11    1    1    2    0    0 -0.24820719614E+02 -0.47273915842E+02  0.12766198951E+03  0.13837801417E+03  0.00000000000E+00 0.  1.
         11    1    1    2    0    0  0.60874674001E+02 -0.38094521109E+02  0.31727686223E+03  0.32530220685E+03  0.00000000000E+00 0. -1.
</event>
<event>
 7    1  0.2844572E-009  0.2639683E+03  0.7561462E-02  0.1104782E+00
         -1   -1    0    0    0  501 -0.00000000000E+00  0.00000000000E+00  0.53894835482E+02  0.53894835482E+02  0.00000000000E+00 0.  1.
          1   -1    0    0  501    0  0.00000000000E+00 -0.00000000000E+00 -0.25718590513E+04  0.25718590513E+04  0.00000000000E+00 0. -1.
         25    2    1    2    0    0  0.27611840993E+02 -0.25689874358E+03 -0.21388112357E+04  0.21579898887E+04  0.12508988477E+03 0.  0.
          5    1    3    3  502    0  0.28116221603E+01 -0.17936774761E+03 -0.18237457066E+04  0.18325519280E+04  0.41800000000E+01 0.  1.
         -5    1    3    3    0  502  0.24800218833E+02 -0.77530995966E+02 -0.31506552915E+03  0.32543796067E+03  0.41800000000E+01 0.  1.
        -11    1    1    2    0    0 -0.48724429085E+02  0.14093102294E+03 -0.26267478560E+03  0.30204911224E+03  0.00000000000E+00 0. -1.
         11    1    1    2    0    0  0.21112588092E+02  0.11596772063E+03 -0.11647819444E+03  0.16571488583E+03  0.00000000000E+00 0.  1.
</event>
<event>
 7    1  0.2844572E-009  0.9103185E+02  0.7561462E-02  0.1300372E+00
          1   -1    0    0  501    0  0.00000000000E+00  0.00000000000E+00  0.36340901077E+03  0.36340901077E+03  0.00000000000E+00 0. -1.
         -1   -1    0    0    0  501 -0.00000000000E+00 -0.00000000000E+00 -0.41465186458E+02  0.41465186458E+02  0.00000000000E+00 0.  1.
         25    2    1    2    0    0  0.21556783442E+02  0.36093009459E+02  0.24622819375E+03  0.27936244622E+03  0.12509057805E+03 0.  0.
          5    1    3    3  502    0  0.71570299561E+02  0.38716423976E+01  0.14684386086E+03  0.16345607749E+03  0.41800000000E+01 0. -1.
         -5    1    3    3    0  502 -0.50013516119E+02  0.32221367061E+02  0.99384332888E+02  0.11590636874E+03  0.41800000000E+01 0. -1.
        -11    1    1    2    0    0 -0.26785443127E+02 -0.19236703232E+02  0.94289609870E+02  0.99890145881E+02  0.00000000000E+00 0. -1.
         11    1    1    2    0    0  0.52286596851E+01 -0.16856306226E+02 -0.18573979310E+02  0.25621605123E+02  0.00000000000E+00 0.  1.
</event>
<event>
 7    1  0.2844572E-009  0.1341648E+03  0.7561462E-02  0.1221404E+00
          1   -1    0    0  501    0  0.00000000000E+00  0.00000000000E+00  0.12637353771E+03  0.12637353771E+03  0.00000000000E+00 0. -1.
         -1   -1    0    0    0  501 -0.00000000000E+00 -0.00000000000E+00 -0.15570580452E+03  0.15570580452E+03  0.00000000000E+00 0.  1.
         25    2    1    2    0    0  0.52776686230E+02 -0.72920317618E+02 -0.13937352327E+02  0.15474185467E+03  0.12509212791E+03 0.  0.
          5    1    3    3  502    0  0.33891271765E+02 -0.10796640706E+03 -0.17382725717E+02  0.11456437015E+03  0.41800000000E+01 0. -1.
         -5    1    3    3    0  502  0.18885414465E+02  0.35046089437E+02  0.34453733904E+01  0.40177484518E+02  0.41800000000E+01 0. -1.
        -11    1    1    2    0    0  0.12446681957E+02 -0.50293308089E+01 -0.21686407703E+02  0.25505182595E+02  0.00000000000E+00 0.  1.
         11    1    1    2    0    0 -0.65223368187E+02  0.77949648427E+02  0.62914932208E+01  0.10183230496E+03  0.00000000000E+00 0. -1.
</event>
<event>
 7    1  0.2844572E-009  0.1328165E+03  0.7561462E-02  0.1223335E+00
          2   -1    0    0  501    0  0.00000000000E+00  0.00000000000E+00  0.18462518436E+03  0.18462518436E+03  0.00000000000E+00 0. -1.
         -2   -1    0    0    0  501 -0.00000000000E+00 -0.00000000000E+00 -0.99360667719E+02  0.99360667719E+02  0.00000000000E+00 0.  1.
         25    2    1    2    0    0 -0.73480268485E+02 -0.28222075679E+02  0.64040246497E+02  0.16107607294E+03  0.12509401541E+03 0.  0.
          5    1    3    3  502    0 -0.53104047230E+01  0.45525301300E+02  0.10564219990E+02  0.47221060988E+02  0.41800000000E+01 0. -1.
         -5    1    3    3    0  502 -0.68169863762E+02 -0.73747376979E+02  0.53476026507E+02  0.11385501196E+03  0.41800000000E+01 0. -1.
        -11    1    1    2    0    0  0.15593844951E+02  0.53648823946E+02  0.20997636027E+02  0.59684713536E+02  0.00000000000E+00 0.  1.
         11    1    1    2    0    0  0.57886423534E+02 -0.25426748267E+02  0.22663411561E+00  0.63225065599E+02  0.00000000000E+00 0. -1.
</event>
<event>
 7    1  0.2844572E-009  0.1360106E+03  0.7561462E-02  0.1218800E+00
         -3   -1    0    0    0  501 -0.00000000000E+00  0.00000000000E+00  0.13822800978E+03  0.13822800978E+03  0.00000000000E+00 0.  1.
          3   -1    0    0  501    0  0.00000000000E+00 -0.00000000000E+00 -0.15261412572E+03  0.15261412572E+03  0.00000000000E+00 0. -1.
         25    2    1    2    0    0  0.12841089816E+02 -0.91046807104E+02  0.23614514927E+02  0.15703488348E+03  0.12509154505E+03 0.  0.
          5    1    3    3  502    0 -0.52164056373E+02 -0.23407653514E+02  0.26341491740E+02  0.63090043648E+02  0.41800000000E+01 0.  1.
         -5    1    3    3    0  502  0.65005146189E+02 -0.67639153589E+02 -0.27269768132E+01  0.93944839836E+02  0.41800000000E+01 0.  1.
        -11    1    1    2    0    0 -0.30932736572E+02  0.32001549251E+01  0.92333683737E+01  0.32439640487E+02  0.00000000000E+00 0.  1.
         11    1    1    2    0    0  0.18091646757E+02  0.87846652178E+02 -0.47233999239E+02  0.10136761152E+03  0.00000000000E+00 0. -1.
</event>
<event>
 7    1  0.2844572E-009  0.1576369E+03  0.7561462E-02  0.1191391E+00
          2   -1    0    0  501    0  0.00000000000E+00  0.00000000000E+00  0.48978530330E+03  0.48978530330E+03  0.00000000000E+00 0. -1.
         -2   -1    0    0    0  501 -0.00000000000E+00 -0.00000000000E+00 -0.59636124992E+02  0.59636124992E+02  0.00000000000E+00 0.  1.
         25    2    1    2    0    0 -0.25296441924E+02 -0.12858711028E+03  0.25180897251E+03  0.31021009080E+03  0.12509191377E+03 0.  0.
          5    1    3    3  502    0  0.13835046309E+02 -0.11511392870E+03  0.10116940239E+03  0.15393292523E+03  0.41800000000E+01 0. -1.
         -5    1    3    3    0  502 -0.39131488232E+02 -0.13473181579E+02  0.15063957012E+03  0.15627716557E+03  0.41800000000E+01 0. -1.
        -11    1    1    2    0    0 -0.30471257454E+02  0.22743772794E+02  0.59282881958E+02  0.70428948771E+02  0.00000000000E+00 0.  1.
         11    1    1    2    0    0  0.55767699378E+02  0.10584333749E+03  0.11905732384E+03  0.16878238873E+03  0.00000000000E+00 0. -1.
</event>
<event>
 7    1  0.2844572E-009  0.1007986E+03  0.7561462E-02  0.1278626E+00
         -1   -1    0    0    0  501 -0.00000000000E+00  0.00000000000E+00  0.88024614132E+02  0.88024614132E+02  0.00000000000E+00 0.  1.
          1   -1    0    0  501    0  0.00000000000E+00 -0.00000000000E+00 -0.35607681238E+03  0.35607681238E+03  0.00000000000E+00 0. -1.
         25    2    1    2    0    0  0.74767241230E+02  0.37192838083E+02 -0.11839565627E+01  0.15040572183E+03  0.12508809632E+03 0.  0.
          5    1    3    3  502    0  0.76386217445E+00  0.25374536120E+01  0.52377657238E+02  0.52610964009E+02  0.41800000000E+01 0.  1.
         -5    1    3    3    0  502  0.74003379055E+02  0.34655384471E+02 -0.53561613801E+02  0.97794757821E+02  0.41800000000E+01 0.  1.
        -11    1    1    2    0    0 -0.35423443747E+02  0.23489941424E+02 -0.53046454533E+02  0.67974436765E+02  0.00000000000E+00 0.  1.
         11    1    1    2    0    0 -0.39343797483E+02 -0.60682779506E+02 -0.21382178715E+03  0.22572126792E+03  0.00000000000E+00 0. -1.
</event>
<event>
 7    1  0.2844572E-009  0.1533721E+03  0.7561462E-02  0.1196390E+00
          2   -1    0    0  501    0  0.00000000000E+00  0.00000000000E+00  0.80056678852E+03  0.80056678852E+03  0.00000000000E+00 0. -1.
         -2   -1    0    0    0  501 -0.00000000000E+00 -0.00000000000E+00 -0.40055147928E+02  0.40055147928E+02  0.00000000000E+00 0.  1.
         25    2    1    2    0    0 -0.51987130131E+02  0.77834710430E+02  0.17730588982E+03  0.23631876605E+03  0.12509307245E+03 0.  0.
          5    1    3    3  502    0 -0.24662263705E+02 -0.32169291534E+02  0.64890137774E+02  0.76624362635E+02  0.41800000000E+01 0. -1.
         -5    1    3    3    0  502 -0.27324866426E+02  0.11000400196E+03  0.11241575204E+03  0.15969440341E+03  0.41800000000E+01 0. -1.
        -11    1    1    2    0    0  0.87432176153E+02 -0.28774676559E+02  0.26874747370E+03  0.28407318081E+03  0.00000000000E+00 0.  1.
         11    1    1    2    0    0 -0.35445046021E+02 -0.49060033871E+02  0.31445827708E+03  0.32022998959E+03  0.00000000000E+00 0. -1.
</event>
<event>
 7    1  0.2844572E-009  0.1582169E+03  0.7561462E-02  0.1190725E+00
          1   -1    0    0  501    0  0.00000000000E+00  0.00000000000E+00  0.19356170271E+03  0.19356170271E+03  0.00000000000E+00 0. -1.
         -1   -1    0    0    0  501 -0.00000000000E+00 -0.00000000000E+00 -0.18936255235E+03  0.18936255235E+03  0.00000000000E+00 0.  1.
         25    2    1    2    0    0  0.13106164965E+03  0.21887191128E+02  0.86748030951E+02  0.20206488490E+03  0.12509513057E+03 0.  0.
          5    1    3    3  502    0 -0.18976596989E+02  0.49071970455E+01 -0.10288733299E+02  0.22528254460E+02  0.41800000000E+01 0. -1.
         -5    1    3    3    0  502  0.15003824664E+03  0.16979994083E+02  0.97036764250E+02  0.17953663044E+03  0.41800000000E+01 0. -1.
        -11    1    1    2    0    0 -0.10574393910E+03  0.81463925132E+01 -0.21421829892E+02  0.10819907191E+03  0.00000000000E+00 0.  1.
         11    1    1    2    0    0 -0.25317710555E+02 -0.30033583642E+02 -0.61127050694E+02  0.72660298243E+02  0.00000000000E+00 0. -1.
</event>
<event>
 7    1  0.2844572E-009  0.8655801E+02  0.7561462E-02  0.1311408E+00
          2   -1    0    0  501    0  0.00000000000E+00  0.00000000000E+00  0.23491050916E+03  0.23491050916E+03  0.00000000000E+00 0. -1.
         -2   -1    0    0    0  501 -0.00000000000E+00 -0.00000000000E+00 -0.70450099771E+02  0.70450099771E+02  0.00000000000E+00 0.  1.
         25    2    1    2    0    0 -0.34495558974E+02  0.55781904963E+02  0.11181570969E+03  0.18014871186E+03  0.12509692619E+03 0.  0.
          5    1    3    3  502    0  0.15460833761E+02 -0.11637981231E+02 -0.17175330148E+02  0.26209623297E+02  0.41800000000E+01 0.  1.
         -5    1    3    3    0  502 -0.49956392734E+02  0.67419886194E+02  0.12899103984E+03  0.15393908857E+03  0.41800000000E+01 0.  1.
        -11    1    1    2    0    0  0.21269820965E+02 -0.13965263222E+02  0.72671691645E+02  0.76997458576E+02  0.00000000000E+00 0. -1.
         11    1    1    2    0    0  0.13225738009E+02 -0.41816641741E+02 -0.20026991949E+02  0.48214438490E+02  0.00000000000E+00 0.  1.
</event>
<event>
 7    1  0.2844572E-009  0.1313222E+03  0.7561462E-02  0.1225507E+00
          4   -1    0    0  501    0  0.00000000000E+00  0.00000000000E+00  0.27530507330E+03  0.27530507330E+03  0.00000000000E+00 0.  1.
         -4   -1    0    0    0  501 -0.00000000000E+00 -0.00000000000E+00 -0.10032108551E+03  0.10032108551E+03  0.00000000000E+00 0. -1.
         25    2    1    2    0    0  0.45127869853E+02  0.11544309791E+03  0.11775280860E+03  0.21183960338E+03  0.12508661053E+03 0.  0.
          5    1    3    3  502    0  0.27856860024E+02  0.69761905344E+02 -0.91604687336E+01  0.75789937822E+02  0.41800000000E+01 0. -1.
         -5    1    3    3    0  502  0.17271009829E+02  0.45681192568E+02  0.12691327733E+03  0.13604966556E+03  0.41800000000E+01 0. -1.
        -11    1    1    2    0    0 -0.13094357546E+01 -0.85066829136E+02  0.68577870567E+02  0.10927490276E+03  0.00000000000E+00 0.  1.
         11    1    1    2    0    0 -0.43818434098E+02 -0.30376268776E+02 -0.11346691377E+02  0.54511652670E+02  0.00000000000E+00 0. -1.
</event>
<event>
 7    1  0.2862457E-009  0.1140114E+03  0.7561462E-02  0.1253317E+00
         -2   -1    0    0    0  501 -0.00000000000E+00  0.00000000000E+00  0.27544235444E+02  0.27544235444E+02  0.00000000000E+00 0. -1.
          2   -1    0    0  501    0  0.00000000000E+00 -0.00000000000E+00 -0.67475532621E+03  0.67475532621E+03  0.00000000000E+00 0.  1.
         25    2    1    2    0    0 -0.69126489159E+02 -0.37358963946E+02 -0.41816221108E+03  0.44348867948E+03  0.12509360640E+03 0.  0.
          5    1    3    3  502    0 -0.88963816553E+02  0.79712021062E+01 -0.33406590891E+03  0.34582597446E+03  0.41800000000E+01 0.  1.
         -5    1    3    3    0  502  0.19837327394E+02 -0.45330166052E+02 -0.84096302173E+02  0.97662705019E+02  0.41800000000E+01 0.  1.
        -11    1    1    2    0    0  0.23707809827E+02  0.36496688017E+02 -0.25899371508E+02  0.50644307948E+02  0.00000000000E+00 0. -1.
         11    1    1    2    0    0  0.45418679331E+02  0.86227592914E+00 -0.20314950818E+03  0.20816657422E+03  0.00000000000E+00 0.  1.
</event>
<event>
 7    1  0.2844572E-009  0.7441447E+02  0.7561462E-02  0.1345694E+00
          1   -1    0    0  501    0  0.00000000000E+00  0.00000000000E+00  0.94040309853E+03  0.94040309853E+03  0.00000000000E+00 0. -1.
         -1   -1    0    0    0  501 -0.00000000000E+00 -0.00000000000E+00 -0.21394585765E+02  0.21394585765E+02  0.00000000000E+00 0.  1.
         25    2    1    2    0    0  0.52129265859E+02  0.72160509558E+01  0.75085642661E+03  0.76302234472E+03  0.12509273922E+03 0.  0.
          5    1    3    3  502    0 -0.15033388334E+02 -0.10233736080E+02  0.15142311006E+02  0.24031106957E+02  0.41800000000E+01 0.  1.
         -5    1    3    3    0  502  0.67162654193E+02  0.17449787036E+02  0.73571411561E+03  0.73899123776E+03  0.41800000000E+01 0.  1.
        -11    1    1    2    0    0 -0.46966447766E+02 -0.16704237203E+02  0.17757624471E+03  0.18444023813E+03  0.00000000000E+00 0. -1.
         11    1    1    2    0    0 -0.51628180926E+01  0.94881862473E+01 -0.94241585581E+01  0.14335101445E+02  0.00000000000E+00 0.  1.
</event>
<event>
 7    1  0.2844572E-009  0.1427862E+03  0.7561462E-02  0.1209628E+00
         -2   -1    0    0    0  501 -0.00000000000E+00  0.00000000000E+00  0.88820918035E+02  0.88820918035E+02  0.00000000000E+00 0.  1.
          2   -1    0    0  501    0  0.00000000000E+00 -0.00000000000E+00 -0.32291501018E+03  0.32291501018E+03  0.00000000000E+00 0. -1.
         25    2    1    2    0    0 -0.94318875783E+02  0.76438624913E+02 -0.18029807246E+03  0.25079143640E+03  0.12510010363E+03 0.  0.
          5    1    3    3  502    0  0.11624160915E+02  0.49951197461E+02 -0.10835636512E+03  0.11995339723E+03  0.41800000000E+01 0.  1.
         -5    1    3    3    0  502 -0.10594303670E+03  0.26487427452E+02 -0.71941707346E+02  0.13083803917E+03  0.41800000000E+01 0.  1.
        -11    1    1    2    0    0  0.97108534174E+01 -0.22466890381E+02 -0.55409815454E+02  0.60574825515E+02  0.00000000000E+00 0. -1.
         11    1    1    2    0    0  0.84608022365E+02 -0.53971734532E+02  0.16137957734E+01  0.10036966630E+03  0.00000000000E+00 0.  1.
</event>
<event>
 7    1  0.2844572E-009  0.9348708E+02  0.7561462E-02  0.1294620E+00
         -2   -1    0    0    0  501 -0.00000000000E+00  0.00000000000E+00  0.33320752012E+02  0.33320752012E+02  0.00000000000E+00 0.  1.
          2   -1    0    0  501    0  0.00000000000E+00 -0.00000000000E+00 -0.38342275022E+03  0.38342275022E+03  0.00000000000E+00 0. -1.
         25    2    1    2    0    0 -0.13840777754E+02 -0.29784876014E+02 -0.20177697483E+03  0.23966712381E+03  0.12509067390E+03 0.  0.
          5    1    3    3  502    0  0.25363907700E+02 -0.42349574902E+02 -0.20310818275E+02  0.53542656333E+02  0.41800000000E+01 0. -1.
         -5    1    3    3    0  502 -0.39204685455E+02  0.12564698889E+02 -0.18146615656E+03  0.18612446748E+03  0.41800000000E+01 0. -1.
        -11    1    1    2    0    0 -0.22791779812E+02  0.49468802351E+02 -0.94297208162E+02  0.10889715837E+03  0.00000000000E+00 0.  1.
         11    1    1    2    0    0  0.36632557566E+02 -0.19683926337E+02 -0.54027815213E+02  0.68179220050E+02  0.00000000000E+00 0. -1.
</event>
<event>
 6    1  0.2844572E-009  0.1290952E+03  0.7561462E-02  0.1228804E+00
         -2   -1    0    0    0  501 -0.00000000000E+00  0.00000000000E+00  0.86514429409E+02  0.86514429409E+02  0.00000000000E+00 0.  1.
          2   -1    0    0  501    0  0.00000000000E+00 -0.00000000000E+00 -0.49432239789E+03  0.49432239789E+03  0.00000000000E+00 0. -1.
          5    1    1    2  502    0  0.10066448191E+03 -0.70079547594E+02  0.14629036490E+02  0.12359596279E+03  0.41800000000E+01 0.  1.
         -5    1    1    2    0  502  0.37195176870E+01 -0.40667814750E+01 -0.60984137533E+02  0.61375165613E+02  0.41800000000E+01 0.  1.
        -11    1    1    2    0    0 -0.54650693352E+02  0.31815973556E+02 -0.59151574389E+02  0.86590202736E+02  0.00000000000E+00 0.  1.
         11    1    1    2    0    0 -0.49733306242E+02  0.42330355513E+02 -0.30230129305E+03  0.30927549616E+03  0.00000000000E+00 0. -1.
</event>
<event>
 7    1  0.2844572E-009  0.2543419E+03  0.7561462E-02  0.1110591E+00
          1   -1    0    0  501    0  0.00000000000E+00  0.00000000000E+00  0.76049378013E+03  0.76049378013E+03  0.00000000000E+00 0. -1.
         -1   -1    0    0    0  501 -0.00000000000E+00 -0.00000000000E+00 -0.11639584585E+03  0.11639584585E+03  0.00000000000E+00 0.  1.
         25    2    1    2    0    0  0.15532391969E+03 -0.18629888928E+03  0.53058999446E+03  0.59666337170E+03  0.12509452719E+03 0.  0.
          5    1    3    3  502    0  0.52695214018E+02 -0.14489954685E+03  0.37682787856E+03  0.40717242873E+03  0.41800000000E+01 0. -1.
         -5    1    3    3    0  502  0.10262870567E+03 -0.41399342429E+02  0.15376211590E+03  0.18949094297E+03  0.41800000000E+01 0. -1.
        -11    1    1    2    0    0 -0.94160541053E+02  0.13038845870E+03  0.31988500289E+02  0.16398360224E+03  0.00000000000E+00 0.  1.
         11    1    1    2    0    0 -0.61163378635E+02  0.55910430574E+02  0.81519439525E+02  0.11624265204E+03  0.00000000000E+00 0. -1.
</event>
<event>
 7    1  0.2844572E-009  0.1227187E+03  0.7561462E-02  0.1238678E+00
          1   -1    0    0  501    0  0.00000000000E+00  0.00000000000E+00  0.39110977043E+03  0.39110977043E+03  0.00000000000E+00 0. -1.
         -1   -1    0    0    0  501 -0.00000000000E+00 -0.00000000000E+00 -0.44178914760E+02  0.44178914760E+02  0.00000000000E+00 0.  1.
         25    2    1    2    0    0  0.52627994889E+01 -0.61368021190E+02  0.26142436611E+03  0.29627876267E+03  0.12507867497E+03 0.  0.
          5    1    3    3  502    0 -0.34806233092E+02 -0.85364227481E+02  0.18154180429E+03  0.20365024994E+03  0.41800000000E+01 0. -1.
         -5    1    3    3    0  502  0.40069032580E+02  0.23996206291E+02  0.79882561816E+02  0.92628512730E+02  0.41800000000E+01 0. -1.
        -11    1    1    2    0    0 -0.21307067571E+02 -0.16381170448E+02  0.37834156761E+02  0.46408590708E+02  0.00000000000E+00 0.  1.
         11    1    1    2    0    0  0.16044268082E+02  0.77749191638E+02  0.47672332803E+02  0.92601331813E+02  0.00000000000E+00 0. -1.
</event>
<event>
 7    1  0.2844572E-009  0.1078808E+03  0.7561462E-02  0.1264545E+00
         -2   -1    0    0    0  501 -0.00000000000E+00  0.00000000000E+00  0.12555237722E+02  0.12555237722E+02  0.00000000000E+00 0.  1.
          2   -1    0    0  501    0  0.00000000000E+00 -0.00000000000E+00 -0.10796167880E+04  0.10796167880E+04  0.00000000000E+00 0. -1.
         25    2    1    2    0    0 -0.64626926362E+01  0.18620280119E+02 -0.80191877384E+03  0.81185611760E+03  0.12509258418E+03 0.  0.
          5    1    3    3  502    0  0.83103840541E+01  0.70822900605E+02 -0.40961277347E+03  0.41579447125E+03  0.41800000000E+01 0. -1.
         -5    1    3    3    0  502 -0.14773076690E+02 -0.52202620486E+02 -0.39230600038E+03  0.39606164636E+03  0.41800000000E+01 0. -1.
        -11    1    1    2    0    0 -0.18306429666E+02 -0.48068850294E+02 -0.13014384548E+03  0.13993984512E+03  0.00000000000E+00 0. -1.
         11    1    1    2    0    0  0.24769122302E+02  0.29448570175E+02 -0.13499893093E+03  0.14037606298E+03  0.00000000000E+00 0.  1.
</event>
<event>
 7    1  0.2844572E-009  0.1045558E+03  0.7561462E-02  0.1270997E+00
         -1   -1    0    0    0  501 -0.00000000000E+00  0.00000000000E+00  0.47041491005E+02  0.47041491005E+02  0.00000000000E+00 0.  1.
          1   -1    0    0  501    0  0.00000000000E+00 -0.00000000000E+00 -0.45163590141E+03  0.45163590141E+03  0.00000000000E+00 0. -1.
         25    2    1    2    0    0  0.68196111072E+02  0.20946226123E+02 -0.31546360964E+03  0.34677676972E+03  0.12508950818E+03 0.  0.
          5    1    3    3  502    0  0.18005579738E+02 -0.22936679444E+02 -0.58425509286E+01  0.30031649421E+02  0.41800000000E+01 0.  1.
         -5    1    3    3    0  502  0.50190531335E+02  0.43882905567E+02 -0.30962105871E+03  0.31674512030E+03  0.41800000000E+01 0.  1.
        -11    1    1    2    0    0 -0.85234606528E+02  0.78602487894E+00 -0.90409866891E+02  0.12425578464E+03  0.00000000000E+00 0.  1.
         11    1    1    2    0    0  0.17038495455E+02 -0.21732251002E+02  0.12790661249E+01  0.27644838056E+02  0.00000000000E+00 0. -1.
</event>
<event>
 7    1  0.2844572E-009  0.5601747E+02  0.7561462E-02  0.1415348E+00
          1   -1    0    0  501    0  0.00000000000E+00  0.00000000000E+00  0.29573596918E+03  0.29573596918E+03  0.00000000000E+00 0. -1.
         -1   -1    0    0    0  501 -0.00000000000E+00 -0.00000000000E+00 -0.40572347570E+02  0.40572347570E+02  0.00000000000E+00 0.  1.
         25    2    1    2    0    0 -0.47079867468E+01 -0.16569074680E+02  0.14509794202E+03  0.19236269026E+03  0.12511311863E+03 0.  0.
          5    1    3    3  502    0 -0.25453411427E+02  0.99825549833E+01  0.15463993786E+03  0.15709395386E+03  0.41800000000E+01 0. -1.
         -5    1    3    3    0  502  0.20745424680E+02 -0.26551629663E+02 -0.95419958423E+01  0.35268736404E+02  0.41800000000E+01 0. -1.
        -11    1    1    2    0    0  0.29288535960E+01  0.33384943114E+02  0.11982390168E+03  0.12442226498E+03  0.00000000000E+00 0. -1.
         11    1    1    2    0    0  0.17791331507E+01 -0.16815868435E+02 -0.97582220898E+01  0.19523361502E+02  0.00000000000E+00 0.  1.
</event>
<event>
 6    1  0.3605942E-009  0.7546959E+02  0.7561462E-02  0.1342423E+00
         -1   -1    0    0    0  501 -0.00000000000E+00  0.00000000000E+00  0.80381813664E+02  0.80381813664E+02  0.00000000000E+00 0.  1.
          1   -1    0    0  501    0  0.00000000000E+00 -0.00000000000E+00 -0.17207857817E+03  0.17207857817E+03  0.00000000000E+00 0. -1.
          5    1    1    2  502    0 -0.31857084171E+01  0.42503551501E+02 -0.87187157106E+02  0.97137909142E+02  0.41800000000E+01 0.  1.
         -5    1    1    2    0  502  0.11156238001E+02 -0.60147221835E+02 -0.94065479543E+01  0.62033099916E+02  0.41800000000E+01 0.  1.
        -11    1    1    2    0    0 -0.23405142510E+02  0.67889267568E-01 -0.37884258385E+02  0.44531138973E+02  0.00000000000E+00 0. -1.
         11    1    1    2    0    0  0.15434612927E+02  0.17575781067E+02  0.42781198938E+02  0.48758243804E+02  0.00000000000E+00 0.  1.
</event>
<event>
 7    1  0.2844572E-009  0.1031214E+03  0.7561462E-02  0.1273866E+00
         -1   -1    0    0    0  501 -0.00000000000E+00  0.00000000000E+00  0.42519006026E+02  0.42519006026E+02  0.00000000000E+00 0.  1.
          1   -1    0    0  501    0  0.00000000000E+00 -0.00000000000E+00 -0.50674408878E+03  0.50674408878E+03  0.00000000000E+00 0. -1.
         25    2    1    2    0    0  0.95446537145E+02  0.21413141193E+02 -0.23329097900E+03  0.28218921995E+03  0.12505003361E+03 0.  0.
          5    1    3    3  502    0  0.50220901974E+00  0.68298682950E+01  0.14403877256E+02  0.16487674028E+02  0.41800000000E+01 0. -1.
         -5    1    3    3    0  502  0.94944328126E+02  0.14583272898E+02 -0.24769485626E+03  0.26570154593E+03  0.41800000000E+01 0. -1.
        -11    1    1    2    0    0 -0.38846153913E+02 -0.23555444974E+02 -0.19448054585E+03  0.19971621210E+03  0.00000000000E+00 0. -1.
         11    1    1    2    0    0 -0.56600383232E+02  0.21423037809E+01 -0.36453557904E+02  0.67357662751E+02  0.00000000000E+00 0.  1.
</event>
<event>
 7    1  0.2844572E-009  0.1326247E+03  0.7561462E-02  0.1223612E+00
         -1   -1    0    0    0  501 -0.00000000000E+00  0.00000000000E+00  0.97208567581E+02  0.97208567581E+02  0.00000000000E+00 0.  1.
          1   -1    0    0  501    0  0.00000000000E+00 -0.00000000000E+00 -0.23127547472E+03  0.23127547472E+03  0.00000000000E+00 0. -1.
         25    2    1    2    0    0  0.16254101914E+02  0.85292379267E+02 -0.11427950168E+02  0.15268235814E+03  0.12506925542E+03 0.  0.
          5    1    3    3  502    0 -0.28830162374E+02  0.96479270374E+02 -0.25516992085E+02  0.10396161388E+03  0.41800000000E+01 0.  1.
         -5    1    3    3    0  502  0.45084264288E+02 -0.11186891108E+02  0.14089041917E+02  0.48720744260E+02  0.41800000000E+01 0.  1.
        -11    1    1    2    0    0  0.30753276555E+02 -0.51324911426E+02 -0.93223370240E+02  0.11077277333E+03  0.00000000000E+00 0. -1.
         11    1    1    2    0    0 -0.47007378469E+02 -0.33967467841E+02 -0.29415586730E+02  0.65028910837E+02  0.00000000000E+00 0.  1.
</event>
<event>
 7    1  0.2844572E-009  0.1332142E+03  0.7561462E-02  0.1222763E+00
          4   -1    0    0  501    0  0.00000000000E+00  0.00000000000E+00  0.41692272655E+02  0.41692272655E+02  0.00000000000E+00 0. -1.
         -4   -1    0    0    0  501 -0.00000000000E+00 -0.00000000000E+00 -0.54834034288E+03  0.54834034288E+03  0.00000000000E+00 0.  1.
         25    2    1    2    0    0  0.74865927520E+02  0.69895558970E+02 -0.30094210903E+03  0.34161903677E+03  0.12508843685E+03 0.  0.
          5    1    3    3  502    0  0.55208865943E+02  0.10627392320E+03 -0.23196654861E+03  0.26109024820E+03  0.41800000000E+01 0. -1.
         -5    1    3    3    0  502  0.19657061577E+02 -0.36378364233E+02 -0.68975560419E+02  0.80528788575E+02  0.41800000000E+01 0. -1.
        -11    1    1    2    0    0 -0.60825715386E+02 -0.42342992257E+02 -0.20444561714E+03  0.21746426606E+03  0.00000000000E+00 0.  1.
         11    1    1    2    0    0 -0.14040212135E+02 -0.27552566713E+02 -0.12603440541E+01  0.30949312697E+02  0.00000000000E+00 0. -1.
</event>
<event>
 7    1  0.2844572E-009  0.4713900E+03  0.7561462E-02  0.1021529E+00
          2   -1    0    0  501    0  0.00000000000E+00  0.00000000000E+00  0.11640643275E+04  0.11640643275E+04  0.00000000000E+00 0. -1.
         -2   -1    0    0    0  501 -0.00000000000E+00 -0.00000000000E+00 -0.35895941279E+03  0.35895941279E+03  0.00000000000E+00 0.  1.
         25    2    1    2    0    0 -0.40452486473E+03  0.21790369814E+03 -0.11543716082E+03  0.48999808118E+03  0.12509993450E+03 0.  0.
          5    1    3    3  502    0 -0.25751206104E+03  0.68372131356E+02 -0.65193550997E+02  0.27432623173E+03  0.41800000000E+01 0. -1.
         -5    1    3    3    0  502 -0.14701280369E+03  0.14953156679E+03 -0.50243609821E+02  0.21567184945E+03  0.41800000000E+01 0. -1.
        -11    1    1    2    0    0  0.27307690744E+03 -0.10257681434E+03  0.62279159994E+03  0.68772260190E+03  0.00000000000E+00 0.  1.
         11    1    1    2    0    0  0.13144795729E+03 -0.11532688380E+03  0.29775047563E+03  0.34530305725E+03  0.00000000000E+00 0. -1.
</event>
<event>
 7    1  0.2844572E-009  0.1360648E+03  0.7561462E-02  0.1218724E+00
          1   -1    0    0  501    0  0.00000000000E+00  0.00000000000E+00  0.42972678233E+03  0.42972678233E+03  0.00000000000E+00 0. -1.
         -1   -1    0    0    0  501 -0.00000000000E+00 -0.00000000000E+00 -0.55196632311E+02  0.55196632311E+02  0.00000000000E+00 0.  1.
         25    2    1    2    0    0 -0.88720004271E+02 -0.33534026873E+02  0.27490104625E+03  0.31656870683E+03  0.12509752515E+03 0.  0.
          5    1    3    3  502    0  0.16734989459E+02  0.15911746227E+02  0.71186261586E+01  0.24523270144E+02  0.41800000000E+01 0. -1.
         -5    1    3    3    0  502 -0.10545499373E+03 -0.49445773100E+02  0.26778242009E+03  0.29204543669E+03  0.41800000000E+01 0. -1.
        -11    1    1    2    0    0 -0.19505812810E+02  0.65546063332E+01  0.30271597986E+01  0.20799117626E+02  0.00000000000E+00 0.  1.
         11    1    1    2    0    0  0.10822581708E+03  0.26979420540E+02  0.96601943966E+02  0.14755559018E+03  0.00000000000E+00 0. -1.
</event>
<event>
 7    1  0.2844572E-009  0.7763763E+02  0.7561462E-02  0.1335892E+00
          2   -1    0    0  501    0  0.00000000000E+00  0.00000000000E+00  0.31849549216E+03  0.31849549216E+03  0.00000000000E+00 0. -1.
         -2   -1    0    0    0  501 -0.00000000000E+00 -0.00000000000E+00 -0.84601962192E+02  0.84601962192E+02  0.00000000000E+00 0.  1.
         25    2    1    2    0    0 -0.20838959561E+02  0.44265842588E+02  0.26261295071E+03  0.29496810621E+03  0.12508754833E+03 0.  0.
          5    1    3    3  502    0  0.23136684206E+01  0.23236926893E+02  0.26234129033E+03  0.26341171736E+03  0.41800000000E+01 0.  1.
         -5    1    3    3    0  502 -0.23152627981E+02  0.21028915695E+02  0.27166037950E+00  0.31556388848E+02  0.41800000000E+01 0.  1.
        -11    1    1    2    0    0  0.37733518232E+02  0.13295682309E+02 -0.26713525809E+02  0.48106195312E+02  0.00000000000E+00 0.  1.
         11    1    1    2    0    0 -0.16894558672E+02 -0.57561524897E+02 -0.20058949307E+01  0.60023152830E+02  0.00000000000E+00 0. -1.
</event>
<event>
 7    1  0.2844572E-009  0.9406958E+02  0.7561462E-02  0.1293285E+00
         -2   -1    0    0    0  501 -0.00000000000E+00  0.00000000000E+00  0.58082927248E+02  0.58082927248E+02  0.00000000000E+00 0.  1.
          2   -1    0    0  501    0  0.00000000000E+00 -0.00000000000E+00 -0.24711006860E+03  0.24711006860E+03  0.00000000000E+00 0. -1.
         25    2    1    2    0    0 -0.28954667172E+01 -0.29342492332E+02 -0.49768743050E+02  0.13782268875E+03  0.12509516444E+03 0.  0.
          5    1    3    3  502    0  0.56688559601E+02 -0.40790162659E+01 -0.15530432184E+01  0.57009784306E+02  0.41800000000E+01 0.  1.
         -5    1    3    3    0  502 -0.59584026318E+02 -0.25263476066E+02 -0.48215699831E+02  0.80812904449E+02  0.41800000000E+01 0.  1.
        -11    1    1    2    0    0  0.47113968630E+01  0.47658729947E+02 -0.14097196727E+03  0.14888467804E+03  0.00000000000E+00 0. -1.
         11    1    1    2    0    0 -0.18159301458E+01 -0.18316237615E+02  0.17135689683E+01  0.18485629047E+02  0.00000000000E+00 0.  1.
</event>
<event>
 7    1  0.2844572E-009  0.8253058E+02  0.7561462E-02  0.1322020E+00
         -2   -1    0    0    0  501 -0.00000000000E+00  0.00000000000E+00  0.10462510151E+03  0.10462510151E+03  0.00000000000E+00 0.  1.
          2   -1    0    0  501    0  0.00000000000E+00 -0.00000000000E+00 -0.16970666671E+03  0.16970666671E+03  0.00000000000E+00 0. -1.
         25    2    1    2    0    0 -0.69127098104E+01  0.51393218175E+02 -0.98850814080E+02  0.16765420511E+03  0.12508957037E+03 0.  0.
          5    1    3    3  502    0 -0.43728609376E+02  0.22929488584E+02  0.87756992531E+01  0.50323334767E+02  0.41800000000E+01 0. -1.
         -5    1    3    3    0  502  0.36815899566E+02  0.28463729591E+02 -0.10762651333E+03  0.11733087034E+03  0.41800000000E+01 0. -1.
        -11    1    1    2    0    0  0.20527608829E+02 -0.59880704288E+01 -0.23871899312E+02  0.32048514606E+02  0.00000000000E+00 0. -1.
         11    1    1    2    0    0 -0.13614899018E+02 -0.45405147746E+02  0.57641148189E+02  0.74629048511E+02  0.00000000000E+00 0.  1.
</event>
<event>
 7    1  0.2844572E-009  0.1433716E+03  0.7561462E-02  0.1208863E+00
         -2   -1    0    0    0  501 -0.00000000000E+00  0.00000000000E+00  0.11756188530E+03  0.11756188530E+03  0.00000000000E+00 0.  1.
          2   -1    0    0  501    0  0.00000000000E+00 -0.00000000000E+00 -0.19658592407E+03  0.19658592407E+03  0.00000000000E+00 0. -1.
         25    2    1    2    0    0  0.91024789505E+02 -0.50108333107E+02 -0.65299854901E+02  0.17522846701E+03  0.12507832446E+03 0.  0.
          5    1    3    3  502    0  0.11353010538E+03 -0.11649859217E+02 -0.29592947249E+02  0.11797465394E+03  0.41800000000E+01 0. -1.
         -5    1    3    3    0  502 -0.22505315870E+02 -0.38458473890E+02 -0.35706907652E+02  0.57253813065E+02  0.41800000000E+01 0. -1.
        -11    1    1    2    0    0 -0.10428630661E+03  0.44751437628E+02  0.70457356661E+01  0.11370121946E+03  0.00000000000E+00 0. -1.
         11    1    1    2    0    0  0.13261517106E+02  0.53568954792E+01 -0.20769919529E+02  0.25218122896E+02  0.00000000000E+00 0.  1.
</event>
<event>
 7    1  0.2844572E-009  0.9758222E+02  0.7561462E-02  0.1285464E+00
          1   -1    0    0  501    0  0.00000000000E+00  0.00000000000E+00  0.19697669422E+03  0.19697669422E+03  0.00000000000E+00 0. -1.
         -1   -1    0    0    0  501 -0.00000000000E+00 -0.00000000000E+00 -0.98779816994E+02  0.98779816994E+02  0.00000000000E+00 0.  1.
         25    2    1    2    0    0 -0.40576003739E+02 -0.59484150580E+02  0.77645818006E+00  0.14433579917E+03  0.12508974293E+03 0.  0.
          5    1    3    3  502    0 -0.45016488213E+02 -0.14279313111E+02  0.55565768512E+02  0.73043891081E+02  0.41800000000E+01 0. -1.
         -5    1    3    3    0  502  0.44404844737E+01 -0.45204837469E+02 -0.54789310332E+02  0.71291908093E+02  0.41800000000E+01 0. -1.
        -11    1    1    2    0    0  0.50095520809E+02  0.91651760300E+01  0.12800810319E+02  0.52511164542E+02  0.00000000000E+00 0.  1.
         11    1    1    2    0    0 -0.95195170696E+01  0.50318974550E+02  0.84619608725E+02  0.98909547495E+02  0.00000000000E+00 0. -1.
</event>
<event>
 7    1  0.2844572E-009  0.1109708E+03  0.7561462E-02  0.1258783E+00
         -3   -1    0    0    0  501 -0.00000000000E+00  0.00000000000E+00  0.46277240958E+03  0.46277240958E+03  0.00000000000E+00 0.  1.
          3   -1    0    0  501    0  0.00000000000E+00 -0.00000000000E+00 -0.54276042734E+02  0.54276042734E+02  0.00000000000E+00 0. -1.
         25    2    1    2    0    0  0.46106877376E+02  0.19628461576E+02  0.38841802468E+03  0.41112667821E+03  0.12508182520E+03 0.  0.
          5    1    3    3  502    0 -0.42606786584E+02 -0.19028893484E+01  0.10788979778E+03  0.11608893193E+03  0.41800000000E+01 0. -1.
         -5    1    3    3    0  502  0.88713663959E+02  0.21531350925E+02  0.28052822690E+03  0.29503774628E+03  0.41800000000E+01 0. -1.
        -11    1    1    2    0    0 -0.52423302671E+02  0.13373373380E+02  0.39613968332E+02  0.67054576768E+02  0.00000000000E+00 0.  1.
         11    1    1    2    0    0  0.63164252955E+01 -0.33001834957E+02 -0.19535626165E+02  0.38867197335E+02  0.00000000000E+00 0. -1.
</event>
<event>
 7    1  0.2844572E-009  0.1412236E+03  0.7561462E-02  0.1211692E+00
         -2   -1    0    0    0  501 -0.00000000000E+00  0.00000000000E+00  0.37425039336E+03  0.37425039336E+03  0.00000000000E+00 0.  1.
          2   -1    0    0  501    0  0.00000000000E+00 -0.00000000000E+00 -0.69136571258E+02  0.69136571258E+02  0.00000000000E+00 0. -1.
         25    2    1    2    0    0 -0.65702676849E+01 -0.10377192562E+03  0.24550835149E+03  0.29450350580E+03  0.12508470455E+03 0.  0.
          5    1    3    3  502    0  0.48675131535E+02 -0.36395701409E+02  0.44681023622E+02  0.75549862892E+02  0.41800000000E+01 0. -1.
         -5    1    3    3    0  502 -0.55245399220E+02 -0.67376224213E+02  0.20082732786E+03  0.21895364290E+03  0.41800000000E+01 0. -1.
        -11    1    1    2    0    0  0.24444597482E+02  0.11198730241E+03  0.59639936686E+02  0.12921151765E+03  0.00000000000E+00 0.  1.
         11    1    1    2    0    0 -0.17874329797E+02 -0.82153767852E+01 -0.34466068885E-01  0.19671941168E+02  0.00000000000E+00 0. -1.
</event>
<event>
 7    1  0.2844572E-009  0.1374485E+03  0.7561462E-02  0.1216804E+00
          1   -1    0    0  501    0  0.00000000000E+00  0.00000000000E+00  0.89473952198E+03  0.89473952198E+03  0.00000000000E+00 0. -1.
         -1   -1    0    0    0  501 -0.00000000000E+00 -0.00000000000E+00 -0.40954250048E+02  0.40954250048E+02  0.00000000000E+00 0.  1.
         25    2    1    2    0    0 -0.10620432758E+03  0.75599341563E+02  0.22948655901E+03  0.29207372544E+03  0.12509340785E+03 0.  0.
          5    1    3    3  502    0 -0.34677972075E+02  0.62630747043E+02  0.26548579578E+02  0.76468762903E+02  0.41800000000E+01 0. -1.
         -5    1    3    3    0  502 -0.71526355503E+02  0.12968594521E+02  0.20293797943E+03  0.21560496254E+03  0.41800000000E+01 0. -1.
        -11    1    1    2    0    0  0.10601131295E+02 -0.81092113292E+01  0.65188437232E+01  0.14853909135E+02  0.00000000000E+00 0.  1.
         11    1    1    2    0    0  0.95603196282E+02 -0.67490130234E+02  0.61777986920E+03  0.62876613745E+03  0.00000000000E+00 0. -1.
</event>
<event>
 7    1  0.2844572E-009  0.4231121E+03  0.7561462E-02  0.1036058E+00
          1   -1    0    0  501    0  0.00000000000E+00  0.00000000000E+00  0.24555012879E+04  0.24555012879E+04  0.00000000000E+00 0. -1.
         -1   -1    0    0    0  501 -0.00000000000E+00 -0.00000000000E+00 -0.75756996579E+02  0.75756996579E+02  0.00000000000E+00 0.  1.
         25    2    1    2    0    0  0.25464379321E+03 -0.32666656120E+03  0.10546386943E+04  0.11399404105E+04  0.12508741151E+03 0.  0.
          5    1    3    3  502    0  0.30676638187E+02 -0.12526017514E+03  0.26358686697E+03  0.29347346805E+03  0.41800000000E+01 0.  1.
         -5    1    3    3    0  502  0.22396715502E+03 -0.20140638606E+03  0.79105182728E+03  0.84646694249E+03  0.41800000000E+01 0.  1.
        -11    1    1    2    0    0 -0.12829970302E+03  0.19549151133E+03  0.60713968968E+03  0.65061228668E+03  0.00000000000E+00 0.  1.
         11    1    1    2    0    0 -0.12634409019E+03  0.13117504988E+03  0.71796590734E+03  0.74070558722E+03  0.00000000000E+00 0. -1.
</event>
<event>
 7    1  0.2844572E-009  0.1069381E+03  0.7561462E-02  0.1266347E+00
          1   -1    0    0  501    0  0.00000000000E+00  0.00000000000E+00  0.84434070939E+03  0.84434070939E+03  0.00000000000E+00 0. -1.
         -1   -1    0    0    0  501 -0.00000000000E+00 -0.00000000000E+00 -0.14132996788E+02  0.14132996788E+02  0.00000000000E+00 0.  1.
         25    2    1    2    0    0  0.11017706076E+02  0.22999153955E+02  0.47530381109E+03  0.49214855628E+03  0.12508452217E+03 0.  0.
          5    1    3    3  502    0 -0.15122446094E+01  0.72301467880E+02  0.33774212665E+03  0.34542293736E+03  0.41800000000E+01 0. -1.
         -5    1    3    3    0  502  0.12529950685E+02 -0.49302313924E+02  0.13756168444E+03  0.14672561892E+03  0.41800000000E+01 0. -1.
        -11    1    1    2    0    0  0.35840345907E+02 -0.24668600205E+02  0.15452891973E+03  0.16053740145E+03  0.00000000000E+00 0.  1.
         11    1    1    2    0    0 -0.46858051982E+02  0.16694462499E+01  0.20037498179E+03  0.20578774845E+03  0.00000000000E+00 0. -1.
</event>
<event>
 7    1  0.2844572E-009  0.1471258E+03  0.7561462E-02  0.1204050E+00
          3   -1    0    0  501    0  0.00000000000E+00  0.00000000000E+00  0.74642202215E+02  0.74642202215E+02  0.00000000000E+00 0. -1.
         -3   -1    0    0    0  501 -0.00000000000E+00 -0.00000000000E+00 -0.31518583506E+03  0.31518583506E+03  0.00000000000E+00 0.  1.
         25    2    1    2    0    0 -0.65708335719E+02 -0.78530865292E+02 -0.84599251981E+02  0.18245511374E+03  0.12509257735E+03 0.  0.
          5    1    3    3  502    0 -0.36566960902E+02  0.28980270756E+02 -0.42655781540E+02  0.63356032242E+02  0.41800000000E+01 0.  1.
         -5    1    3    3    0  502 -0.29141374816E+02 -0.10751113605E+03 -0.41943470441E+02  0.11909908150E+03  0.41800000000E+01 0.  1.
        -11    1    1    2    0    0  0.87493925165E+02  0.71659006930E+02 -0.13734271220E+03  0.17791352059E+03  0.00000000000E+00 0.  1.
         11    1    1    2    0    0 -0.21785589446E+02  0.68718583622E+01 -0.18601668664E+02  0.29459402947E+02  0.00000000000E+00 0. -1.
</event>
<event>
 7    1  0.2844572E-009  0.1369466E+03  0.7561462E-02  0.1217498E+00
         -1   -1    0    0    0  501 -0.00000000000E+00  0.00000000000E+00  0.44136251279E+03  0.44136251279E+03  0.00000000000E+00 0.  1.
          1   -1    0    0  501    0  0.00000000000E+00 -0.00000000000E+00 -0.44036844497E+02  0.44036844497E+02  0.00000000000E+00 0. -1.
         25    2    1    2    0    0  0.48556161795E+02 -0.70551488828E+02  0.18890879421E+03  0.24221771336E+03  0.12509066596E+03 0.  0.
          5    1    3    3  502    0 -0.40259621226E+02 -0.93940232828E+01  0.35487276466E+02  0.54643425640E+02  0.41800000000E+01 0.  1.
         -5    1    3    3    0  502  0.88815783021E+02 -0.61157465545E+02  0.15342151774E+03  0.18757428772E+03  0.41800000000E+01 0.  1.
        -11    1    1    2    0    0  0.13734609578E+02  0.59620816301E+02  0.88175698823E+02  0.10732304086E+03  0.00000000000E+00 0. -1.
         11    1    1    2    0    0 -0.62290771373E+02  0.10930672526E+02  0.12024117526E+03  0.13585860307E+03  0.00000000000E+00 0.  1.
</event>
<event>
 7    1  0.2844572E-009  0.1148876E+03  0.7561462E-02  0.1251777E+00
          1   -1    0    0  501    0  0.00000000000E+00  0.00000000000E+00  0.26373407430E+03  0.26373407430E+03  0.00000000000E+00 0. -1.
         -1   -1    0    0    0  501 -0.00000000000E+00 -0.00000000000E+00 -0.64967186737E+02  0.64967186737E+02  0.00000000000E+00 0.  1.
         25    2    1    2    0    0 -0.45385165425E+02  0.15324810185E+02  0.17945169882E+03  0.22393065435E+03  0.12508941883E+03 0.  0.
          5    1    3    3  502    0 -0.14926567533E+02  0.67620361287E+02  0.12219021284E+03  0.14051062662E+03  0.41800000000E+01 0.  1.
         -5    1    3    3    0  502 -0.30458597892E+02 -0.52295551102E+02  0.57261485971E+02  0.83420027729E+02  0.41800000000E+01 0.  1.
        -11    1    1    2    0    0 -0.63165763271E+01  0.30197619275E+02  0.18312396682E+02  0.35876722518E+02  0.00000000000E+00 0. -1.
         11    1    1    2    0    0  0.51701741752E+02 -0.45522429460E+02  0.10027920673E+01  0.68893884170E+02  0.00000000000E+00 0.  1.
</event>
<event>
 7    1  0.2844572E-009  0.9019928E+02  0.7561462E-02  0.1302370E+00
         -1   -1    0    0    0  501 -0.00000000000E+00  0.00000000000E+00  0.13986404107E+03  0.13986404107E+03  0.00000000000E+00 0.  1.
          1   -1    0    0  501    0  0.00000000000E+00 -0.00000000000E+00 -0.11826868848E+03  0.11826868848E+03  0.00000000000E+00 0. -1.
         25    2    1    2    0    0  0.73846970263E+00  0.72594293032E+02 -0.12525224649E+02  0.14517068573E+03  0.12508864867E+03 0.  0.
          5    1    3    3  502    0  0.32860848107E+02  0.50258809336E+02  0.45225271681E+02  0.75289978435E+02  0.41800000000E+01 0. -1.
         -5    1    3    3    0  502 -0.32122378404E+02  0.22335483697E+02 -0.57750496330E+02  0.69880707300E+02  0.41800000000E+01 0. -1.
        -11    1    1    2    0    0 -0.17525117799E+02 -0.26207250095E+02 -0.21847148305E+02  0.38356845549E+02  0.00000000000E+00 0. -1.
         11    1    1    2    0    0  0.16786648097E+02 -0.46387042937E+02  0.55967725539E+02  0.74605198269E+02  0.00000000000E+00 0.  1.
</event>
<event>
 7    1  0.2844572E-009  0.1354031E+03  0.7561462E-02  0.1219652E+00
          3   -1    0    0  501    0  0.00000000000E+00  0.00000000000E+00  0.55813249584E+02  0.55813249584E+02  0.00000000000E+00 0. -1.
         -3   -1    0    0    0  501 -0.00000000000E+00 -0.00000000000E+00 -0.39028684781E+03  0.39028684781E+03  0.00000000000E+00 0.  1.
         25    2    1    2    0    0 -0.92380708723E+02 -0.35542410628E+02 -0.18395853868E+03  0.24348874039E+03  0.12509422227E+03 0.  0.
          5    1    3    3  502    0  0.14354330878E+02  0.11320805689E+02  0.67543938058E+01  0.19932428153E+02  0.41800000000E+01 0. -1.
         -5    1    3    3    0  502 -0.10673503960E+03 -0.46863216317E+02 -0.19071293248E+03  0.22355631223E+03  0.41800000000E+01 0. -1.
        -11    1    1    2    0    0  0.20444169719E+02  0.56823981865E+02 -0.61346333314E+02  0.86083108689E+02  0.00000000000E+00 0.  1.
         11    1    1    2    0    0  0.71936539004E+02 -0.21281571237E+02 -0.89168726236E+02  0.11652824832E+03  0.00000000000E+00 0. -1.
</event>
<event>
 7    1  0.2844572E-009  0.1475833E+03  0.7561462E-02  0.1203474E+00
         -2   -1    0    0    0  501 -0.00000000000E+00  0.00000000000E+00  0.24681533625E+02  0.24681533625E+02  0.00000000000E+00 0.  1.
          2   -1    0    0  501    0  0.00000000000E+00 -0.00000000000E+00 -0.11078027374E+04  0.11078027374E+04  0.00000000000E+00 0. -1.
         25    2    1    2    0    0  0.12308335417E+03  0.17882781561E+02 -0.68678728948E+03  0.70907846533E+03  0.12508470354E+03 0.  0.
          5    1    3    3  502    0  0.10635620095E+03  0.61590363868E+02 -0.57156857764E+03  0.58464786474E+03  0.41800000000E+01 0. -1.
         -5    1    3    3    0  502  0.16727153221E+02 -0.43707582307E+02 -0.11521871184E+03  0.12443060059E+03  0.41800000000E+01 0. -1.
        -11    1    1    2    0    0 -0.54324258519E+02 -0.67608031462E+00 -0.65666760118E+02  0.85227375488E+02  0.00000000000E+00 0.  1.
         11    1    1    2    0    0 -0.68759095654E+02 -0.17206701247E+02 -0.33066715421E+03  0.33817843024E+03  0.00000000000E+00 0. -1.
</event>
<event>
 7    1  0.2844572E-009  0.9925917E+02  0.7561462E-02  0.1281862E+00
          1   -1    0    0  501    0  0.00000000000E+00  0.00000000000E+00  0.22694820269E+03  0.22694820269E+03  0.00000000000E+00 0.  1.
         -1   -1    0    0    0  501 -0.00000000000E+00 -0.00000000000E+00 -0.70103830725E+02  0.70103830725E+02  0.00000000000E+00 0. -1.
         25    2    1    2    0    0  0.56811480416E+01 -0.63899439119E+02  0.84900553191E+02  0.16423806342E+03  0.12510245313E+03 0.  0.
          5    1    3    3  502    0 -0.26727013415E+02 -0.31601058375E+02 -0.22592506880E+02  0.47337658409E+02  0.41800000000E+01 0.  1.
         -5    1    3    3    0  502  0.32408161457E+02 -0.32298380744E+02  0.10749306007E+03  0.11690040501E+03  0.41800000000E+01 0.  1.
        -11    1    1    2    0    0  0.84313652238E+01  0.85094545540E+02  0.49099452929E+02  0.98604897840E+02  0.00000000000E+00 0. -1.
         11    1    1    2    0    0 -0.14112513265E+02 -0.21195106421E+02  0.22844365842E+02  0.34209072153E+02  0.00000000000E+00 0.  1.
</event>
<event>
 7    1  0.2844572E-009  0.1179910E+03  0.7561462E-02  0.1246449E+00
         -2   -1    0    0    0  501 -0.00000000000E+00  0.00000000000E+00  0.35200381870E+02  0.35200381870E+02  0.00000000000E+00 0.  1.
          2   -1    0    0  501    0  0.00000000000E+00 -0.00000000000E+00 -0.59389867766E+03  0.59389867766E+03  0.00000000000E+00 0. -1.
         25    2    1    2    0    0 -0.21084946227E+02  0.77476903514E+02 -0.41806211964E+03  0.44370131101E+03  0.12509065502E+03 0.  0.
          5    1    3    3  502    0  0.50416235138E+02  0.18912079721E+02 -0.19167436906E+03  0.19913814220E+03  0.41800000000E+01 0. -1.
         -5    1    3    3    0  502 -0.71501181365E+02  0.58564823793E+02 -0.22638775059E+03  0.24456316881E+03  0.41800000000E+01 0. -1.
        -11    1    1    2    0    0 -0.90681809413E+01 -0.41658004462E+02 -0.62506202814E+01  0.43089343175E+02  0.00000000000E+00 0.  1.
         11    1    1    2    0    0  0.30153127168E+02 -0.35818899053E+02 -0.13438555587E+03  0.14230840535E+03  0.00000000000E+00 0. -1.
</event>
<event>
 7    1  0.2844572E-009  0.1140965E+03  0.7561462E-02  0.1253166E+00
          1   -1    0    0  501    0  0.00000000000E+00  0.00000000000E+00  0.86427816181E+03  0.86427816181E+03  0.00000000000E+00 0. -1.
         -1   -1    0    0    0  501 -0.00000000000E+00 -0.00000000000E+00 -0.26881779010E+02  0.26881779010E+02  0.00000000000E+00 0.  1.
         25    2    1    2    0    0 -0.23638096754E+02  0.77850023022E+02  0.65457080728E+03  0.67136556304E+03  0.12509752911E+03 0.  0.
          5    1    3    3  502    0  0.27118783940E+02 -0.21583974333E+02  0.21524269936E+03  0.21805547097E+03  0.41800000000E+01 0. -1.
         -5    1    3    3    0  502 -0.50756880695E+02  0.99433997355E+02  0.43932810792E+03  0.45331009208E+03  0.41800000000E+01 0. -1.
        -11    1    1    2    0    0  0.15681853960E+02 -0.41750220287E+02  0.13669255119E+02  0.46646007044E+02  0.00000000000E+00 0.  1.
         11    1    1    2    0    0  0.79562427945E+01 -0.36099802735E+02  0.16915632040E+03  0.17314837073E+03  0.00000000000E+00 0. -1.
</event>
<event>
 7    1  0.2844572E-009  0.2818560E+03  0.7561462E-02  0.1094680E+00
         -2   -1    0    0    0  501 -0.00000000000E+00  0.00000000000E+00  0.17731861375E+03  0.17731861375E+03  0.00000000000E+00 0.  1.
          2   -1    0    0  501    0  0.00000000000E+00 -0.00000000000E+00 -0.55472772742E+03  0.55472772742E+03  0.00000000000E+00 0. -1.
         25    2    1    2    0    0  0.10963484462E+03 -0.25810624815E+03 -0.30182642776E+03  0.43056360570E+03  0.12508873479E+03 0.  0.
          5    1    3    3  502    0  0.10602519380E+03 -0.21737123412E+03 -0.17864587007E+03  0.30070486268E+03  0.41800000000E+01 0.  1.
         -5    1    3    3    0  502  0.36096508133E+01 -0.40735014026E+02 -0.12318055769E+03  0.12985874302E+03  0.41800000000E+01 0.  1.
        -11    1    1    2    0    0 -0.71002525632E+02  0.18220747464E+03 -0.89719650668E+02  0.21515236038E+03  0.00000000000E+00 0.  1.
         11    1    1    2    0    0 -0.38632318985E+02  0.75898773507E+02  0.14136964759E+02  0.86330375087E+02  0.00000000000E+00 0. -1.
</event>
<event>
 7    1  0.2844572E-009  0.1021574E+03  0.7561462E-02  0.1275824E+00
          1   -1    0    0  501    0  0.00000000000E+00  0.00000000000E+00  0.99167489026E+02  0.99167489026E+02  0.00000000000E+00 0. -1.
         -1   -1    0    0    0  501 -0.00000000000E+00 -0.00000000000E+00 -0.16054191556E+03  0.16054191556E+03  0.00000000000E+00 0.  1.
         25    2    1    2    0    0  0.11157420201E+02  0.11288902658E+02  0.29659186832E+02  0.12953346901E+03  0.12508926765E+03 0.  0.
          5    1    3    3  502    0  0.53581906199E+02  0.43977519535E+02  0.30403319530E+02  0.75808160081E+02  0.41800000000E+01 0. -1.
         -5    1    3    3    0  502 -0.42424485998E+02 -0.32688616877E+02 -0.74413269831E+00  0.53725308924E+02  0.41800000000E+01 0. -1.
        -11    1    1    2    0    0 -0.31294731974E+02 -0.37020670891E+02 -0.20870312022E+02  0.52777459644E+02  0.00000000000E+00 0. -1.
         11    1    1    2    0    0  0.20137311773E+02  0.25731768233E+02 -0.70163301343E+02  0.77398475936E+02  0.00000000000E+00 0.  1.
</event>
<event>
 7    1  0.2844572E-009  0.7162583E+02  0.7561462E-02  0.1354650E+00
         -2   -1    0    0    0  501 -0.00000000000E+00  0.00000000000E+00  0.63566178290E+02  0.63566178290E+02  0.00000000000E+00 0. -1.
          2   -1    0    0  501    0  0.00000000000E+00 -0.00000000000E+00 -0.23121167399E+03  0.23121167399E+03  0.00000000000E+00 0.  1.
         25    2    1    2    0    0 -0.29994061869E+02  0.30333132320E+02 -0.13622936872E+03  0.18980408193E+03  0.12508959171E+03 0.  0.
          5    1    3    3  502    0 -0.39386541348E+02  0.22802989866E+01  0.97046735189E+01  0.40843022549E+02  0.41800000000E+01 0. -1.
         -5    1    3    3    0  502  0.93924794794E+01  0.28052833333E+02 -0.14593404224E+03  0.14896105938E+03  0.41800000000E+01 0. -1.
        -11    1    1    2    0    0  0.36010982705E+02 -0.45124777967E+02 -0.52833475305E+02  0.78258626200E+02  0.00000000000E+00 0.  1.
         11    1    1    2    0    0 -0.60169208355E+01  0.14791645647E+02  0.21417348327E+02  0.26715144144E+02  0.00000000000E+00 0. -1.
</event>
<event>
 7    1  0.2844572E-009  0.1637726E+03  0.7561462E-02  0.1184502E+00
          1   -1    0    0  501    0  0.00000000000E+00  0.00000000000E+00  0.18270845324E+03  0.18270845324E+03  0.00000000000E+00 0. -1.
         -1   -1    0    0    0  501 -0.00000000000E+00 -0.00000000000E+00 -0.28574792055E+03  0.28574792055E+03  0.00000000000E+00 0.  1.
         25    2    1    2    0    0 -0.13304693215E+03 -0.40565602287E+02  0.94955310075E+02  0.20978666758E+03  0.12508749233E+03 0.  0.
          5    1    3    3  502    0 -0.23656307903E+02 -0.69535140946E+02  0.42826355934E+02  0.85125353994E+02  0.41800000000E+01 0.  1.
         -5    1    3    3    0  502 -0.10939062425E+03  0.28969538660E+02  0.52128954141E+02  0.12466131358E+03  0.41800000000E+01 0.  1.
        -11    1    1    2    0    0  0.97473610200E+02  0.19529335122E+02 -0.63481568217E+02  0.11795087587E+03  0.00000000000E+00 0. -1.
         11    1    1    2    0    0  0.35573321954E+02  0.21036267165E+02 -0.13451320917E+03  0.14071883034E+03  0.00000000000E+00 0.  1.
</event>
<event>
 7    1  0.2844572E-009  0.1328800E+03  0.7561462E-02  0.1223244E+00
          2   -1    0    0  501    0  0.00000000000E+00  0.00000000000E+00  0.11682648621E+03  0.11682648621E+03  0.00000000000E+00 0. -1.
         -2   -1    0    0    0  501 -0.00000000000E+00 -0.00000000000E+00 -0.27364693130E+03  0.27364693130E+03  0.00000000000E+00 0.  1.
         25    2    1    2    0    0 -0.97086636844E+02  0.56402437702E+02 -0.17754929839E+03  0.24452530372E+03  0.12514719640E+03 0.  0.
          5    1    3    3  502    0 -0.10447771222E+03  0.10364612589E+02 -0.16574698422E+03  0.19624615339E+03  0.41800000000E+01 0. -1.
         -5    1    3    3    0  502  0.73910753749E+01  0.46037825113E+02 -0.11802314174E+02  0.48279150326E+02  0.41800000000E+01 0. -1.
        -11    1    1    2    0    0  0.25010691497E+02 -0.54304515588E+01 -0.33641048704E+02  0.42269902426E+02  0.00000000000E+00 0.  1.
         11    1    1    2    0    0  0.72075945347E+02 -0.50971986143E+02  0.54369901999E+02  0.10367821137E+03  0.00000000000E+00 0. -1.
</event>
<event>
 7    1  0.2844572E-009  0.1070256E+03  0.7561462E-02  0.1266179E+00
          2   -1    0    0  501    0  0.00000000000E+00  0.00000000000E+00  0.66920056521E+03  0.66920056521E+03  0.00000000000E+00 0.  1.
         -2   -1    0    0    0  501 -0.00000000000E+00 -0.00000000000E+00 -0.22657081920E+02  0.22657081920E+02  0.00000000000E+00 0. -1.
         25    2    1    2    0    0  0.11502455655E+02 -0.46586565176E+02  0.45379318894E+03  0.47315999260E+03  0.12509798450E+03 0.  0.
          5    1    3    3  502    0  0.13055783893E+02 -0.79682316618E+02  0.41100664132E+03  0.41888382242E+03  0.41800000000E+01 0. -1.
         -5    1    3    3    0  502 -0.15533282379E+01  0.33095751442E+02  0.42786547619E+02  0.54276170179E+02  0.41800000000E+01 0. -1.
        -11    1    1    2    0    0 -0.60722796299E+01 -0.26159460307E+02  0.29515698965E+02  0.39904466277E+02  0.00000000000E+00 0. -1.
         11    1    1    2    0    0 -0.54301760251E+01  0.72746025483E+02  0.16323459538E+03  0.17879318825E+03  0.00000000000E+00 0.  1.
</event>
<event>
 7    1  0.2844572E-009  0.1022240E+03  0.7561462E-02  0.1275688E+00
         -2   -1    0    0    0  501 -0.00000000000E+00  0.00000000000E+00  0.29330184456E+02  0.29330184456E+02  0.00000000000E+00 0.  1.
          2   -1    0    0  501    0  0.00000000000E+00 -0.00000000000E+00 -0.49265471092E+03  0.49265471092E+03  0.00000000000E+00 0. -1.
         25    2    1    2    0    0  0.19940261378E+02 -0.33158827800E+01 -0.15455236679E+03  0.19986952875E+03  0.12511109200E+03 0.  0.
          5    1    3    3  502    0 -0.12937972603E+01  0.53110673564E+02 -0.29335342064E+02  0.60831342677E+02  0.41800000000E+01 0. -1.
         -5    1    3    3    0  502  0.21234058639E+02 -0.56426556344E+02 -0.12521702472E+03  0.13903818608E+03  0.41800000000E+01 0. -1.
        -11    1    1    2    0    0 -0.42549813025E+02 -0.28848240816E+02 -0.19832595104E+03  0.20488018558E+03  0.00000000000E+00 0. -1.
         11    1    1    2    0    0  0.22609551647E+02  0.32164123596E+02 -0.11044620864E+03  0.11723518105E+03  0.00000000000E+00 0.  1.
</event>
<event>
 7    1  0.2844572E-009  0.9825364E+02  0.7561462E-02  0.1284012E+00
         -1   -1    0    0    0  501 -0.00000000000E+00  0.00000000000E+00  0.82017329860E+02  0.82017329860E+02  0.00000000000E+00 0.  1.
          1   -1    0    0  501    0  0.00000000000E+00 -0.00000000000E+00 -0.15422586876E+03  0.15422586876E+03  0.00000000000E+00 0. -1.
         25    2    1    2    0    0  0.13309624188E+02 -0.91681744061E+01 -0.68943936620E+02  0.14374539941E+03  0.12509305312E+03 0.  0.
          5    1    3    3  502    0 -0.50220157136E+02  0.12971689765E+02 -0.75709224005E+01  0.52584410086E+02  0.41800000000E+01 0. -1.
         -5    1    3    3    0  502  0.63529781324E+02 -0.22139864171E+02 -0.61373014220E+02  0.91160989327E+02  0.41800000000E+01 0. -1.
        -11    1    1    2    0    0 -0.15499324393E+02  0.41685117001E+02 -0.27137376135E+02  0.52099090391E+02  0.00000000000E+00 0.  1.
         11    1    1    2    0    0  0.21897002046E+01 -0.32516942595E+02  0.23872773854E+02  0.40398708818E+02  0.00000000000E+00 0. -1.
</event>
<event>
 7    1  0.2844572E-009  0.1258004E+03  0.7561462E-02  0.1233824E+00
          2   -1    0    0  501    0  0.00000000000E+00  0.00000000000E+00  0.19527193790E+03  0.19527193790E+03  0.00000000000E+00 0. -1.
         -2   -1    0    0    0  501 -0.00000000000E+00 -0.00000000000E+00 -0.10709913030E+03  0.10709913030E+03  0.00000000000E+00 0.  1.
         25    2    1    2    0    0  0.39897184949E+02  0.69236139938E+02  0.10317808098E+03  0.18077192013E+03  0.12508933716E+03 0.  0.
          5    1    3    3  502    0  0.25429115293E+02 -0.25130986831E+02  0.71581853785E+02  0.80122659685E+02  0.41800000000E+01 0. -1.
         -5    1    3    3    0  502  0.14468069655E+02  0.94367126769E+02  0.31596227196E+02  0.10064926044E+03  0.41800000000E+01 0. -1.
        -11    1    1    2    0    0 -0.51139299477E+02 -0.12706183404E+01 -0.28950795398E+00  0.51155901291E+02  0.00000000000E+00 0. -1.
         11    1    1    2    0    0  0.11242114529E+02 -0.67965521598E+02 -0.14715765432E+02  0.70443246783E+02  0.00000000000E+00 0.  1.
</event>
<event>
 7    1  0.2844572E-009  0.6446895E+02  0.7561462E-02  0.1379980E+00
          1   -1    0    0  501    0  0.00000000000E+00  0.00000000000E+00  0.15996112814E+03  0.15996112814E+03  0.00000000000E+00 0. -1.
         -1   -1    0    0    0  501 -0.00000000000E+00 -0.00000000000E+00 -0.10058944203E+03  0.10058944203E+03  0.00000000000E+00 0.  1.
         25    2    1    2    0    0  0.29703428395E+02  0.23860518095E+02 -0.21134916266E+02  0.13246234361E+03  0.12509184548E+03 0.  0.
          5    1    3    3  502    0  0.60175201034E+01 -0.27026629001E+02 -0.58532525977E+02  0.64885886143E+02  0.41800000000E+01 0. -1.
         -5    1    3    3    0  502  0.23685908292E+02  0.50887147096E+02  0.37397609711E+02  0.67576457463E+02  0.41800000000E+01 0. -1.
        -11    1    1    2    0    0 -0.21007916460E+02 -0.19743525046E+01 -0.17424651748E+02  0.27365107534E+02  0.00000000000E+00 0.  1.
         11    1    1    2    0    0 -0.86955119355E+01 -0.21886165591E+02  0.97931254128E+02  0.10072311903E+03  0.00000000000E+00 0. -1.
</event>
<event>
 7    1  0.2844572E-009  0.7333532E+02  0.7561462E-02  0.1349105E+00
         -3   -1    0    0    0  501 -0.00000000000E+00  0.00000000000E+00  0.71454194488E+02  0.71454194488E+02  0.00000000000E+00 0.  1.
          3   -1    0    0  501    0  0.00000000000E+00 -0.00000000000E+00 -0.21932373965E+03  0.21932373965E+03  0.00000000000E+00 0. -1.
         25    2    1    2    0    0  0.47878789081E+02  0.10771506109E+02 -0.12442740435E+03  0.18313617702E+03  0.12509307172E+03 0.  0.
          5    1    3    3  502    0  0.46128513010E+02 -0.14226673459E+02 -0.14344098791E+03  0.15140352494E+03  0.41800000000E+01 0. -1.
         -5    1    3    3    0  502  0.17502760712E+01  0.24998179568E+02  0.19013583566E+02  0.31732652081E+02  0.41800000000E+01 0. -1.
        -11    1    1    2    0    0 -0.59916400101E+02 -0.10042730956E+02  0.18893245590E+02  0.63622214478E+02  0.00000000000E+00 0.  1.
         11    1    1    2    0    0  0.12037611020E+02 -0.72877515283E+00 -0.42335386411E+02  0.44019542647E+02  0.00000000000E+00 0. -1.
</event>
<event>
 7    1  0.2844572E-009  0.1009533E+03  0.7561462E-02  0.1278304E+00
          2   -1    0    0  501    0  0.00000000000E+00  0.00000000000E+00  0.28249626522E+03  0.28249626522E+03  0.00000000000E+00 0. -1.
         -2   -1    0    0    0  501 -0.00000000000E+00 -0.00000000000E+00 -0.52326015352E+02  0.52326015352E+02  0.00000000000E+00 0.  1.
         25    2    1    2    0    0 -0.64030826605E+02  0.21377159578E+02  0.16089763919E+03  0.21469265277E+03  0.12509178689E+03 0.  0.
          5    1    3    3  502    0  0.77453511953E+01 -0.39265973799E+02  0.84223232719E+02  0.93342554567E+02  0.41800000000E+01 0. -1.
         -5    1    3    3    0  502 -0.71776177801E+02  0.60643133378E+02  0.76674406472E+02  0.12135009820E+03  0.41800000000E+01 0. -1.
        -11    1    1    2    0    0  0.30032059231E+02 -0.11994847831E+02  0.77444879230E+02  0.83925623471E+02  0.00000000000E+00 0. -1.
         11    1    1    2    0    0  0.33998767374E+02 -0.93823117473E+01 -0.81722685503E+01  0.36204004336E+02  0.00000000000E+00 0.  1.
</event>
<event>
 7    1  0.2844572E-009  0.2202459E+03  0.7561462E-02  0.1133700E+00
         -1   -1    0    0    0  501 -0.00000000000E+00  0.00000000000E+00  0.25116074689E+03  0.25116074689E+03  0.00000000000E+00 0.  1.
          1   -1    0    0  501    0  0.00000000000E+00 -0.00000000000E+00 -0.22244555450E+03  0.22244555450E+03  0.00000000000E+00 0. -1.
         25    2    1    2    0    0 -0.42090932432E+02 -0.18860238537E+03 -0.66500788840E+02  0.23961013229E+03  0.12509258258E+03 0.  0.
          5    1    3    3  502    0  0.41579051597E+02 -0.80636412132E+02 -0.44702921465E+02  0.10122683479E+03  0.41800000000E+01 0. -1.
         -5    1    3    3    0  502 -0.83669984029E+02 -0.10796597324E+03 -0.21797867376E+02  0.13838329750E+03  0.41800000000E+01 0. -1.
        -11    1    1    2    0    0  0.70316753148E+02  0.12476530486E+03  0.72996232629E+02  0.16074600166E+03  0.00000000000E+00 0.  1.
         11    1    1    2    0    0 -0.28225820716E+02  0.63837080514E+02  0.22219748604E+02  0.73250167451E+02  0.00000000000E+00 0. -1.
</event>
<event>
 7    1  0.2844572E-009  0.1147125E+03  0.7561462E-02  0.1252084E+00
         -2   -1    0    0    0  501 -0.00000000000E+00  0.00000000000E+00  0.24027736476E+02  0.24027736476E+02  0.00000000000E+00 0.  1.
          2   -1    0    0  501    0  0.00000000000E+00 -0.00000000000E+00 -0.80150682036E+03  0.80150682036E+03  0.00000000000E+00 0. -1.
         25    2    1    2    0    0  0.80670008130E+02  0.62854150123E+02 -0.42473036066E+03  0.45442417040E+03  0.12508858052E+03 0.  0.
          5    1    3    3  502    0  0.18489354798E+02 -0.79731581206E+01 -0.28550909012E+03  0.28624873874E+03  0.41800000000E+01 0.  1.
         -5    1    3    3    0  502  0.62180653332E+02  0.70827308244E+02 -0.13922127054E+03  0.16817543165E+03  0.41800000000E+01 0.  1.
        -11    1    1    2    0    0 -0.12686915771E+02 -0.41293351857E+02 -0.15439086760E+03  0.16032042521E+03  0.00000000000E+00 0.  1.
         11    1    1    2    0    0 -0.67983092359E+02 -0.21560798267E+02 -0.19835785563E+03  0.21078996124E+03  0.00000000000E+00 0. -1.
</event>
<event>
 7    1  0.2844572E-009  0.1320192E+03  0.7561462E-02  0.1224490E+00
          2   -1    0    0  501    0  0.00000000000E+00  0.00000000000E+00  0.36139568617E+03  0.36139568617E+03  0.00000000000E+00 0. -1.
         -2   -1    0    0    0  501 -0.00000000000E+00 -0.00000000000E+00 -0.52817258045E+02  0.52817258045E+02  0.00000000000E+00 0.  1.
         25    2    1    2    0    0  0.64959266553E+02  0.50363648287E+02  0.20354350122E+03  0.25265414910E+03  0.12509180145E+03 0.  0.
          5    1    3    3  502    0  0.47642304573E+02  0.89682077129E+02  0.16967605413E+03  0.19778801755E+03  0.41800000000E+01 0. -1.
         -5    1    3    3    0  502  0.17316961980E+02 -0.39318428842E+02  0.33867447089E+02  0.54866131549E+02  0.41800000000E+01 0. -1.
        -11    1    1    2    0    0 -0.63488085397E+02 -0.72888949504E+02  0.67991524364E+02  0.11817945394E+03  0.00000000000E+00 0.  1.
         11    1    1    2    0    0 -0.14711811556E+01  0.22525301217E+02  0.37043402546E+02  0.43379341179E+02  0.00000000000E+00 0. -1.
</event>
<event>
 7    1  0.2844572E-009  0.2414448E+03  0.7561462E-02  0.1118834E+00
          1   -1    0    0  501    0  0.00000000000E+00  0.00000000000E+00  0.44771068957E+03  0.44771068957E+03  0.00000000000E+00 0. -1.
         -1   -1    0    0    0  501 -0.00000000000E+00 -0.00000000000E+00 -0.15178056768E+03  0.15178056768E+03  0.00000000000E+00 0.  1.
         25    2    1    2    0    0 -0.10994567688E+03  0.19084910387E+03  0.51829454924E+02  0.25854394164E+03  0.12508894854E+03 0.  0.
          5    1    3    3  502    0 -0.74980604861E+01  0.11998627517E+03  0.58427745959E+02  0.13373182508E+03  0.41800000000E+01 0.  1.
         -5    1    3    3    0  502 -0.10244761639E+03  0.70862828697E+02 -0.65982910344E+01  0.12481211656E+03  0.41800000000E+01 0.  1.
        -11    1    1    2    0    0  0.75090142057E+02 -0.44003802961E+02  0.85193129999E+02  0.12178971019E+03  0.00000000000E+00 0. -1.
         11    1    1    2    0    0  0.34855534821E+02 -0.14684530091E+03  0.15890753697E+03  0.21915760542E+03  0.00000000000E+00 0.  1.
</event>
<event>
 7    1  0.2844572E-009  0.8712322E+02  0.7561462E-02  0.1309972E+00
          2   -1    0    0  501    0  0.00000000000E+00  0.00000000000E+00  0.34213962696E+03  0.34213962696E+03  0.00000000000E+00 0. -1.
         -2   -1    0    0    0  501 -0.00000000000E+00 -0.00000000000E+00 -0.42626258841E+02  0.42626258841E+02  0.00000000000E+00 0.  1.
         25    2    1    2    0    0  0.16072363866E+02  0.97802385610E+01  0.93175316439E+02  0.15710723258E+03  0.12508824481E+03 0.  0.
          5    1    3    3  502    0 -0.43621468211E+02  0.21613455128E+02  0.39459839399E+01  0.49020578543E+02  0.41800000000E+01 0. -1.
         -5    1    3    3    0  502  0.59693832077E+02 -0.11833216567E+02  0.89229332499E+02  0.10808665404E+03  0.41800000000E+01 0. -1.
        -11    1    1    2    0    0 -0.24053436373E+02  0.21403383245E+02  0.18605462634E+02  0.37186500985E+02  0.00000000000E+00 0.  1.
         11    1    1    2    0    0  0.79810725073E+01 -0.31183621806E+02  0.18773258905E+03  0.19047215224E+03  0.00000000000E+00 0. -1.
</event>
<event>
 7    1  0.2844572E-009  0.1157847E+03  0.7561462E-02  0.1250218E+00
         -2   -1    0    0    0  501 -0.00000000000E+00  0.00000000000E+00  0.46349121907E+02  0.46349121907E+02  0.00000000000E+00 0.  1.
          2   -1    0    0  501    0  0.00000000000E+00 -0.00000000000E+00 -0.46661715232E+03  0.46661715232E+03  0.00000000000E+00 0. -1.
         25    2    1    2    0    0 -0.41853544761E+02 -0.33041213803E+02 -0.85580966611E+02  0.16067431233E+03  0.12509473121E+03 0.  0.
          5    1    3    3  502    0  0.14348026268E+02 -0.64173043930E+02 -0.20207183648E+02  0.68919141724E+02  0.41800000000E+01 0.  1.
         -5    1    3    3    0  502 -0.56201571029E+02  0.31131830127E+02 -0.65373782963E+02  0.91755170602E+02  0.41800000000E+01 0.  1.
        -11    1    1    2    0    0  0.45646389384E+02  0.59260917326E+02 -0.29666615642E+03  0.30595139737E+03  0.00000000000E+00 0. -1.
         11    1    1    2    0    0 -0.37928446232E+01 -0.26219703523E+02 -0.38020907383E+02  0.46340564535E+02  0.00000000000E+00 0.  1.
</event>
<event>
 7    1  0.2844572E-009  0.1890888E+03  0.7561462E-02  0.1159286E+00
          1   -1    0    0  501    0  0.00000000000E+00  0.00000000000E+00  0.71104359203E+02  0.71104359203E+02  0.00000000000E+00 0. -1.
         -1   -1    0    0    0  501 -0.00000000000E+00 -0.00000000000E+00 -0.53443289624E+03  0.53443289624E+03  0.00000000000E+00 0.  1.
         25    2    1    2    0    0 -0.54434413144E+02  0.14660509563E+03 -0.30656740871E+03  0.36617891819E+03  0.12508902689E+03 0.  0.
          5    1    3    3  502    0  0.32031611002E+02  0.70204569396E+01 -0.30681409125E+02  0.45101354580E+02  0.41800000000E+01 0.  1.
         -5    1    3    3    0  502 -0.86466024146E+02  0.13958463869E+03 -0.27588599958E+03  0.32107756361E+03  0.41800000000E+01 0.  1.
        -11    1    1    2    0    0 -0.20335421824E+02 -0.73651361549E+02 -0.67515325564E+02  0.10196259915E+03  0.00000000000E+00 0.  1.
         11    1    1    2    0    0  0.74769834968E+02 -0.72953734084E+02 -0.89245802772E+02  0.13739573811E+03  0.00000000000E+00 0. -1.
</event>
<event>
 7    1  0.2844572E-009  0.9483933E+02  0.7561462E-02  0.1291538E+00
          1   -1    0    0  501    0  0.00000000000E+00  0.00000000000E+00  0.11347022578E+03  0.11347022578E+03  0.00000000000E+00 0. -1.
         -1   -1    0    0    0  501 -0.00000000000E+00 -0.00000000000E+00 -0.11742186022E+03  0.11742186022E+03  0.00000000000E+00 0.  1.
         25    2    1    2    0    0  0.11906981718E+02 -0.47649561644E+01 -0.36858659522E+02  0.13103688205E+03  0.12509045789E+03 0.  0.
          5    1    3    3  502    0  0.37394112599E+02  0.50351561129E+02 -0.30413500329E+02  0.69828738837E+02  0.41800000000E+01 0.  1.
         -5    1    3    3    0  502 -0.25487130881E+02 -0.55116517294E+02 -0.64451591934E+01  0.61208143218E+02  0.41800000000E+01 0.  1.
        -11    1    1    2    0    0  0.23970749083E+02 -0.11469534506E+02 -0.20455942625E+02  0.33534946281E+02  0.00000000000E+00 0.  1.
         11    1    1    2    0    0 -0.35877730801E+02  0.16234490671E+02  0.53362967707E+02  0.66320257669E+02  0.00000000000E+00 0. -1.
</event>
<event>
 7    1  0.2844572E-009  0.1762833E+03  0.7561462E-02  0.1171449E+00
         -1   -1    0    0    0  501 -0.00000000000E+00  0.00000000000E+00  0.15323092436E+03  0.15323092436E+03  0.00000000000E+00 0.  1.
          1   -1    0    0  501    0  0.00000000000E+00 -0.00000000000E+00 -0.25933337994E+03  0.25933337994E+03  0.00000000000E+00 0. -1.
         25    2    1    2    0    0 -0.93874671159E+02 -0.12404144518E+03  0.11619997268E+02  0.19995369217E+03  0.12509084966E+03 0.  0.
          5    1    3    3  502    0 -0.13441983430E+02 -0.10441086344E+03 -0.26610109523E+02  0.10866409550E+03  0.41800000000E+01 0. -1.
         -5    1    3    3    0  502 -0.80432687729E+02 -0.19630581744E+02  0.38230106792E+02  0.91289596670E+02  0.41800000000E+01 0. -1.
        -11    1    1    2    0    0  0.36973361376E+02  0.91673468854E+02 -0.30287557127E+02  0.10338467227E+03  0.00000000000E+00 0.  1.
         11    1    1    2    0    0  0.56901309783E+02  0.32367976328E+02 -0.87434895727E+02  0.10922593986E+03  0.00000000000E+00 0. -1.
</event>
<event>
 7    1  0.2844572E-009  0.1076296E+03  0.7561462E-02  0.1265024E+00
         -2   -1    0    0    0  501 -0.00000000000E+00  0.00000000000E+00  0.10780578065E+03  0.10780578065E+03  0.00000000000E+00 0. -1.
          2   -1    0    0  501    0  0.00000000000E+00 -0.00000000000E+00 -0.18338715508E+03  0.18338715508E+03  0.00000000000E+00 0.  1.
         25    2    1    2    0    0  0.52365683540E+02  0.55250531253E+02 -0.90723553923E+02  0.17225775955E+03  0.12508871440E+03 0.  0.
          5    1    3    3  502    0  0.63622271627E+02  0.17136789931E+02 -0.10968843145E+03  0.12802533894E+03  0.41800000000E+01 0. -1.
         -5    1    3    3    0  502 -0.11256588087E+02  0.38113741322E+02  0.18964877529E+02  0.44232420605E+02  0.41800000000E+01 0. -1.
        -11    1    1    2    0    0 -0.20324962015E+02  0.19364526570E+02  0.24414121985E+02  0.37204009495E+02  0.00000000000E+00 0. -1.
         11    1    1    2    0    0 -0.32040721525E+02 -0.74615057823E+02 -0.92719424955E+01  0.81731166683E+02  0.00000000000E+00 0.  1.
</event>
<event>
 7    1  0.2844572E-009  0.1478593E+03  0.7561462E-02  0.1203128E+00
         -2   -1    0    0    0  501 -0.00000000000E+00  0.00000000000E+00  0.46158615682E+02  0.46158615682E+02  0.00000000000E+00 0.  1.
          2   -1    0    0  501    0  0.00000000000E+00 -0.00000000000E+00 -0.63758464815E+03  0.63758464815E+03  0.00000000000E+00 0. -1.
         25    2    1    2    0    0  0.24322838799E+01  0.10267416351E+03 -0.47311597316E+03  0.50003410059E+03  0.12508987904E+03 0.  0.
          5    1    3    3  502    0 -0.55970913070E+02  0.65846616882E+02 -0.19304298415E+03  0.21154570710E+03  0.41800000000E+01 0.  1.
         -5    1    3    3    0  502  0.58403196950E+02  0.36827546630E+02 -0.28007298901E+03  0.28848839349E+03  0.41800000000E+01 0.  1.
        -11    1    1    2    0    0 -0.48807156146E+02 -0.54384664376E+02 -0.53870749930E+02  0.90784844045E+02  0.00000000000E+00 0.  1.
         11    1    1    2    0    0  0.46374872266E+02 -0.48289499136E+02 -0.64439309383E+02  0.92924319197E+02  0.00000000000E+00 0. -1.
</event>
<event>
 7    1  0.2844572E-009  0.2696028E+03  0.7561462E-02  0.1101507E+00
          1   -1    0    0  501    0  0.00000000000E+00  0.00000000000E+00  0.12790393651E+04  0.12790393651E+04  0.00000000000E+00 0. -1.
         -1   -1    0    0    0  501 -0.00000000000E+00 -0.00000000000E+00 -0.62805358497E+02  0.62805358497E+02  0.00000000000E+00 0.  1.
         25    2    1    2    0    0 -0.21605637701E+03  0.13245403213E+03  0.63850765512E+03  0.69825785128E+03  0.12509025763E+03 0.  0.
          5    1    3    3  502    0 -0.14123984396E+03  0.62615284189E+02  0.23000592252E+03  0.27710929997E+03  0.41800000000E+01 0.  1.
         -5    1    3    3    0  502 -0.74816533044E+02  0.69838747938E+02  0.40850173260E+03  0.42114855130E+03  0.41800000000E+01 0.  1.
        -11    1    1    2    0    0  0.86958607288E+02 -0.12582680713E+03  0.34461746391E+03  0.37703498671E+03  0.00000000000E+00 0. -1.
         11    1    1    2    0    0  0.12909776972E+03 -0.66272249979E+01  0.23310888761E+03  0.26655188564E+03  0.00000000000E+00 0.  1.
</event>
<event>
 7    1  0.2844572E-009  0.8549407E+02  0.7561462E-02  0.1314146E+00
         -2   -1    0    0    0  501 -0.00000000000E+00  0.00000000000E+00  0.11245437355E+03  0.11245437355E+03  0.00000000000E+00 0.  1.
          2   -1    0    0  501    0  0.00000000000E+00 -0.00000000000E+00 -0.20197595935E+03  0.20197595935E+03  0.00000000000E+00 0. -1.
         25    2    1    2    0    0 -0.67146346904E+02 -0.18045956108E+02 -0.41067756246E+02  0.14889134333E+03  0.12509109913E+03 0.  0.
          5    1    3    3  502    0  0.13338677967E+02 -0.14243810930E+02  0.33521648211E+02  0.39012559241E+02  0.41800000000E+01 0.  1.
         -5    1    3    3    0  502 -0.80485024871E+02 -0.38021451788E+01 -0.74589404457E+02  0.10987878409E+03  0.41800000000E+01 0.  1.
        -11    1    1    2    0    0  0.10759728056E+02 -0.10615823624E+01  0.49633364715E+02  0.50797338492E+02  0.00000000000E+00 0.  1.
         11    1    1    2    0    0  0.56386618848E+02  0.19107538471E+02 -0.98087194267E+02  0.11474165107E+03  0.00000000000E+00 0. -1.
</event>
<event>
 7    1  0.2844572E-009  0.1647527E+03  0.7561462E-02  0.1183433E+00
          2   -1    0    0  501    0  0.00000000000E+00  0.00000000000E+00  0.86944110659E+03  0.86944110659E+03  0.00000000000E+00 0. -1.
         -2   -1    0    0    0  501 -0.00000000000E+00 -0.00000000000E+00 -0.50395592778E+02  0.50395592778E+02  0.00000000000E+00 0.  1.
         25    2    1    2    0    0 -0.45289974522E+02 -0.14470512098E+03  0.63509604710E+03  0.66481911335E+03  0.12508681230E+03 0.  0.
          5    1    3    3  502    0 -0.74039978825E+02 -0.10002908134E+03  0.55370413816E+03  0.56753280134E+03  0.41800000000E+01 0. -1.
         -5    1    3    3    0  502  0.28750004303E+02 -0.44676039640E+02  0.81391908935E+02  0.97286312015E+02  0.41800000000E+01 0. -1.
        -11    1    1    2    0    0  0.25913938551E+02  0.75261228000E+02  0.16058503104E+03  0.17922984362E+03  0.00000000000E+00 0.  1.
         11    1    1    2    0    0  0.19376035971E+02  0.69443892983E+02  0.23364435679E+02  0.75787742394E+02  0.00000000000E+00 0. -1.
</event>
<event>
 7    1  0.2844572E-009  0.1118509E+03  0.7561462E-02  0.1257180E+00
         -2   -1    0    0    0  501 -0.00000000000E+00  0.00000000000E+00  0.24592563149E+02  0.24592563149E+02  0.00000000000E+00 0.  1.
          2   -1    0    0  501    0  0.00000000000E+00 -0.00000000000E+00 -0.67172361340E+03  0.67172361340E+03  0.00000000000E+00 0. -1.
         25    2    1    2    0    0  0.15052805923E+02  0.64790551624E+02 -0.41282793932E+03  0.43645843263E+03  0.12507858883E+03 0.  0.
          5    1    3    3  502    0  0.20840861758E+02  0.89630391220E+02 -0.18001030775E+03  0.20221061259E+03  0.41800000000E+01 0. -1.
         -5    1    3    3    0  502 -0.57880558350E+01 -0.24839839596E+02 -0.23281763157E+03  0.23424782004E+03  0.41800000000E+01 0. -1.
        -11    1    1    2    0    0  0.34115889646E+02 -0.22321934841E+02 -0.13636370019E+03  0.14232786597E+03  0.00000000000E+00 0.  1.
         11    1    1    2    0    0 -0.49168695569E+02 -0.42468616783E+02 -0.97939410739E+02  0.11752987795E+03  0.00000000000E+00 0. -1.
</event>
<event>
 7    1  0.2844572E-009  0.1047743E+03  0.7561462E-02  0.1270565E+00
         -1   -1    0    0    0  501 -0.00000000000E+00  0.00000000000E+00  0.23373920641E+03  0.23373920641E+03  0.00000000000E+00 0.  1.
          1   -1    0    0  501    0  0.00000000000E+00 -0.00000000000E+00 -0.50756594523E+02  0.50756594523E+02  0.00000000000E+00 0. -1.
         25    2    1    2    0    0  0.58364108408E+01 -0.79591495833E+00  0.88541052631E+02  0.15337231859E+03  0.12509537536E+03 0.  0.
          5    1    3    3  502    0 -0.27117608631E+02  0.52564793385E+02  0.59948561193E+02  0.84319182815E+02  0.41800000000E+01 0. -1.
         -5    1    3    3    0  502  0.32954019472E+02 -0.53360708343E+02  0.28592491438E+02  0.69053135779E+02  0.41800000000E+01 0. -1.
        -11    1    1    2    0    0 -0.13958949935E+02 -0.41782127634E+02  0.65745482106E+02  0.79139540625E+02  0.00000000000E+00 0.  1.
         11    1    1    2    0    0  0.81225390944E+01  0.42578042593E+02  0.28696077147E+02  0.51983941713E+02  0.00000000000E+00 0. -1.
</event>
<event>
 7    1  0.2844572E-009  0.1326977E+03  0.7561462E-02  0.1223507E+00
         -3   -1    0    0    0  501 -0.00000000000E+00  0.00000000000E+00  0.59368505174E+02  0.59368505174E+02  0.00000000000E+00 0.  1.
          3   -1    0    0  501    0  0.00000000000E+00 -0.00000000000E+00 -0.35930903101E+03  0.35930903101E+03  0.00000000000E+00 0. -1.
         25    2    1    2    0    0  0.41075462357E+00  0.86472433225E+02 -0.22859922021E+03  0.27456395602E+03  0.12510040781E+03 0.  0.
          5    1    3    3  502    0  0.43498948662E+02  0.16449187927E+00 -0.12742139870E+03  0.13470661023E+03  0.41800000000E+01 0.  1.
         -5    1    3    3    0  502 -0.43088194039E+02  0.86307941346E+02 -0.10117782151E+03  0.13985734579E+03  0.41800000000E+01 0.  1.
        -11    1    1    2    0    0 -0.14488678817E+02  0.16068822279E+02 -0.10451991583E+02  0.24028586961E+02  0.00000000000E+00 0.  1.
         11    1    1    2    0    0  0.14077924193E+02 -0.10254125550E+03 -0.60889314043E+02  0.12008499321E+03  0.00000000000E+00 0. -1.
</event>
<event>
 7    1  0.3277595E-009  0.1116213E+03  0.7561462E-02  0.1257597E+00
         -2   -1    0    0    0  501 -0.00000000000E+00  0.00000000000E+00  0.10180715375E+03  0.10180715375E+03  0.00000000000E+00 0.  1.
          2   -1    0    0  501    0  0.00000000000E+00 -0.00000000000E+00 -0.16590240570E+03  0.16590240570E+03  0.00000000000E+00 0. -1.
         25    2    1    2    0    0 -0.69807420285E+02  0.94416485774E+01 -0.49224236428E+02  0.15176490030E+03  0.12508932351E+03 0.  0.
          5    1    3    3  502    0 -0.48820071146E+02  0.63561830847E+02 -0.48081202219E+02  0.93556293717E+02  0.41800000000E+01 0.  1.
         -5    1    3    3    0  502 -0.20987349139E+02 -0.54120182269E+02 -0.11430342094E+01  0.58208606580E+02  0.41800000000E+01 0.  1.
        -11    1    1    2    0    0  0.74511723736E+02 -0.30447151467E+00  0.21980651878E+02  0.77686798969E+02  0.00000000000E+00 0.  1.
         11    1    1    2    0    0 -0.47043034508E+01 -0.91371770627E+01 -0.36851667398E+02  0.38257860181E+02  0.00000000000E+00 0. -1.
</event>
<event>
 7    1  0.2844572E-009  0.1112605E+03  0.7561462E-02  0.1258253E+00
          2   -1    0    0  501    0  0.00000000000E+00  0.00000000000E+00  0.15755228669E+04  0.15755228669E+04  0.00000000000E+00 0.  1.
         -2   -1    0    0    0  501 -0.00000000000E+00 -0.00000000000E+00 -0.11916699776E+02  0.11916699776E+02  0.00000000000E+00 0. -1.
         25    2    1    2    0    0  0.91799046331E+01  0.66625374574E+02  0.11627537172E+04  0.11713953942E+04  0.12509097275E+03 0.  0.
          5    1    3    3  502    0 -0.21318382124E+01  0.87350827203E+02  0.46064780377E+03  0.46888013742E+03  0.41800000000E+01 0.  1.
         -5    1    3    3    0  502  0.11311742845E+02 -0.20725452629E+02  0.70210591341E+03  0.70251525674E+03  0.41800000000E+01 0.  1.
        -11    1    1    2    0    0 -0.41627500303E+02 -0.56697412112E+01  0.13628667804E+03  0.14261505305E+03  0.00000000000E+00 0.  1.
         11    1    1    2    0    0  0.32447595670E+02 -0.60955633363E+02  0.26456577188E+03  0.27342911943E+03  0.00000000000E+00 0. -1.
</event>
<event>
 7    1  0.2844572E-009  0.1171790E+03  0.7561462E-02  0.1247825E+00
         -2   -1    0    0    0  501 -0.00000000000E+00  0.00000000000E+00  0.24359279956E+02  0.24359279956E+02  0.00000000000E+00 0.  1.
          2   -1    0    0  501    0  0.00000000000E+00 -0.00000000000E+00 -0.83823667545E+03  0.83823667545E+03  0.00000000000E+00 0. -1.
         25    2    1    2    0    0 -0.89032750887E+02 -0.22886299998E+02 -0.47764457252E+03  0.50223854841E+03  0.12509439793E+03 0.  0.
          5    1    3    3  502    0 -0.56773562010E+02 -0.38967510568E+02 -0.92521334927E+02  0.11540959249E+03  0.41800000000E+01 0. -1.
         -5    1    3    3    0  502 -0.32259188877E+02  0.16081210570E+02 -0.38512323759E+03  0.38682895592E+03  0.41800000000E+01 0. -1.
        -11    1    1    2    0    0  0.30403899281E+01 -0.28663575471E+02 -0.62038461588E+02  0.68407713351E+02  0.00000000000E+00 0. -1.
         11    1    1    2    0    0  0.85992360959E+02  0.51549875470E+02 -0.27419436139E+03  0.29194969365E+03  0.00000000000E+00 0.  1.
</event>
<event>
 7    1  0.2844572E-009  0.9832323E+02  0.7561462E-02  0.1283862E+00
         -2   -1    0    0    0  501 -0.00000000000E+00  0.00000000000E+00  0.22847183093E+02  0.22847183093E+02  0.00000000000E+00 0.  1.
          2   -1    0    0  501    0  0.00000000000E+00 -0.00000000000E+00 -0.52368684350E+03  0.52368684350E+03  0.00000000000E+00 0. -1.
         25    2    1    2    0    0  0.68222170426E+01 -0.15593092255E+02 -0.29442088857E+03  0.32034534186E+03  0.12509113180E+03 0.  0.
          5    1    3    3  502    0 -0.49237459745E+02  0.91767306534E+01 -0.61317553660E+02  0.79283381704E+02  0.41800000000E+01 0. -1.
         -5    1    3    3    0  502  0.56059676788E+02 -0.24769822908E+02 -0.23310333491E+03  0.24106196016E+03  0.41800000000E+01 0. -1.
        -11    1    1    2    0    0 -0.21783705682E+02 -0.29941283140E+02 -0.13640256737E+03  0.14133885047E+03  0.00000000000E+00 0. -1.
         11    1    1    2    0    0  0.14961488639E+02  0.45534375395E+02 -0.70016204468E+02  0.84849834255E+02  0.00000000000E+00 0.  1.
</event>
<event>
 7    1  0.2844572E-009  0.3403979E+03  0.7561462E-02  0.1066627E+00
         -1   -1    0    0    0  501 -0.00000000000E+00  0.00000000000E+00  0.19890381041E+03  0.19890381041E+03  0.00000000000E+00 0.  1.
          1   -1    0    0  501    0  0.00000000000E+00 -0.00000000000E+00 -0.59503256562E+03  0.59503256562E+03  0.00000000000E+00 0. -1.
         25    2    1    2    0    0 -0.17966393536E+03 -0.27075692663E+03 -0.16693552163E+03  0.38613849477E+03  0.12508807206E+03 0.  0.
          5    1    3    3  502    0 -0.95538139405E+02 -0.49577734989E+02 -0.79304882013E+02  0.13376182041E+03  0.41800000000E+01 0.  1.
         -5    1    3    3    0  502 -0.84125795951E+02 -0.22117919165E+03 -0.87630639614E+02  0.25237667436E+03  0.41800000000E+01 0.  1.
        -11    1    1    2    0    0  0.10556978934E+03  0.22701585370E+03 -0.15732492048E+03  0.29568954811E+03  0.00000000000E+00 0.  1.
         11    1    1    2    0    0  0.74094146011E+02  0.43741072930E+02 -0.71868313096E+02  0.11210833315E+03  0.00000000000E+00 0. -1.
</event>
<event>
 7    1  0.2844572E-009  0.6141316E+02  0.7561462E-02  0.1391995E+00
          1   -1    0    0  501    0  0.00000000000E+00  0.00000000000E+00  0.73185964152E+03  0.73185964152E+03  0.00000000000E+00 0. -1.
         -1   -1    0    0    0  501 -0.00000000000E+00 -0.00000000000E+00 -0.22573832711E+02  0.22573832711E+02  0.00000000000E+00 0.  1.
         25    2    1    2    0    0  0.79446432500E+01  0.17520288341E+01  0.59082120512E+03  0.60397303043E+03  0.12509011998E+03 0.  0.
          5    1    3    3  502    0 -0.13836898430E+02 -0.16960273131E+02  0.56405600456E+03  0.56449602239E+03  0.41800000000E+01 0. -1.
         -5    1    3    3    0  502  0.21781541680E+02  0.18712301965E+02  0.26765200560E+02  0.39477008040E+02  0.41800000000E+01 0. -1.
        -11    1    1    2    0    0  0.30220600576E+02  0.95956304526E+01  0.10295992734E+03  0.10773164559E+03  0.00000000000E+00 0. -1.
         11    1    1    2    0    0 -0.38165243826E+02 -0.11347659287E+02  0.15504676350E+02  0.42728798208E+02  0.00000000000E+00 0.  1.
</event>
<event>
 7    1  0.2844572E-009  0.1532596E+03  0.7561462E-02  0.1196524E+00
          1   -1    0    0  501    0  0.00000000000E+00  0.00000000000E+00  0.36246886354E+03  0.36246886354E+03  0.00000000000E+00 0. -1.
         -1   -1    0    0    0  501 -0.00000000000E+00 -0.00000000000E+00 -0.79866050620E+02  0.79866050620E+02  0.00000000000E+00 0.  1.
         25    2    1    2    0    0 -0.91563284767E+00  0.12708515946E+03  0.10735248823E+03  0.20814239617E+03  0.12508886526E+03 0.  0.
          5    1    3    3  502    0  0.29471393459E+02  0.12018417481E+03  0.34096099287E+02  0.12842435631E+03  0.41800000000E+01 0. -1.
         -5    1    3    3    0  502 -0.30387026307E+02  0.69009846516E+01  0.73256388944E+02  0.79718039854E+02  0.41800000000E+01 0. -1.
        -11    1    1    2    0    0 -0.40535410548E+02 -0.65492762520E+02  0.11582652540E+03  0.13909782686E+03  0.00000000000E+00 0. -1.
         11    1    1    2    0    0  0.41451043396E+02 -0.61592396943E+02  0.59423799280E+02  0.95094691128E+02  0.00000000000E+00 0.  1.
</event>
<event>
 7    1  0.2844572E-009  0.1377283E+03  0.7561462E-02  0.1216419E+00
          2   -1    0    0  501    0  0.00000000000E+00  0.00000000000E+00  0.33689491367E+03  0.33689491367E+03  0.00000000000E+00 0. -1.
         -2   -1    0    0    0  501 -0.00000000000E+00 -0.00000000000E+00 -0.73380746129E+02  0.73380746129E+02  0.00000000000E+00 0.  1.
         25    2    1    2    0    0  0.55872994048E+02  0.97925823449E+02  0.13026119077E+03  0.21289915440E+03  0.12508722461E+03 0.  0.
          5    1    3    3  502    0  0.11573753925E+02  0.11448933501E+03  0.11570575733E+03  0.16323925475E+03  0.41800000000E+01 0.  1.
         -5    1    3    3    0  502  0.44299240124E+02 -0.16563511563E+02  0.14555433442E+02  0.49659899653E+02  0.41800000000E+01 0.  1.
        -11    1    1    2    0    0 -0.43149043104E+02 -0.71766233306E+02  0.14382361544E+03  0.16642555249E+03  0.00000000000E+00 0. -1.
         11    1    1    2    0    0 -0.12723950944E+02 -0.26159590144E+02 -0.10570638669E+02  0.30950952909E+02  0.00000000000E+00 0.  1.
</event>
<event>
 7    1  0.2844572E-009  0.7436837E+02  0.7561462E-02  0.1345838E+00
         -2   -1    0    0    0  501 -0.00000000000E+00  0.00000000000E+00  0.31408376744E+02  0.31408376744E+02  0.00000000000E+00 0.  1.
          2   -1    0    0  501    0  0.00000000000E+00 -0.00000000000E+00 -0.42944987115E+03  0.42944987115E+03  0.00000000000E+00 0. -1.
         25    2    1    2    0    0 -0.17672712445E+02  0.10193868639E+01 -0.17081410273E+03  0.21245741708E+03  0.12508929798E+03 0.  0.
          5    1    3    3  502    0 -0.28090750122E+02 -0.13089144955E+02  0.83672589042E+01  0.32371273988E+02  0.41800000000E+01 0. -1.
         -5    1    3    3    0  502  0.10418037676E+02  0.14108531819E+02 -0.17918136163E+03  0.18008614310E+03  0.41800000000E+01 0. -1.
        -11    1    1    2    0    0 -0.36443631176E+02  0.19773863525E+02 -0.11161200829E+03  0.11906462248E+03  0.00000000000E+00 0. -1.
         11    1    1    2    0    0  0.54116343621E+02 -0.20793250389E+02 -0.11561538339E+03  0.12933620833E+03  0.00000000000E+00 0.  1.
</event>
<event>
 7    1  0.2844572E-009  0.1078674E+03  0.7561462E-02  0.1264571E+00
          1   -1    0    0  501    0  0.00000000000E+00  0.00000000000E+00  0.71564939442E+02  0.71564939442E+02  0.00000000000E+00 0. -1.
         -1   -1    0    0    0  501 -0.00000000000E+00 -0.00000000000E+00 -0.26434495905E+03  0.26434495905E+03  0.00000000000E+00 0.  1.
         25    2    1    2    0    0 -0.51875518121E+02  0.58746282739E+02 -0.73245805890E+02  0.16479046072E+03  0.12509497491E+03 0.  0.
          5    1    3    3  502    0 -0.43638589215E+02 -0.23578693493E+02  0.60146113072E+01  0.50139098563E+02  0.41800000000E+01 0.  1.
         -5    1    3    3    0  502 -0.82369289063E+01  0.82324976232E+02 -0.79260417198E+02  0.11465136215E+03  0.41800000000E+01 0.  1.
        -11    1    1    2    0    0  0.45113801420E+01 -0.23881003748E+02 -0.10861592976E+03  0.11130172995E+03  0.00000000000E+00 0.  1.
         11    1    1    2    0    0  0.47364137979E+02 -0.34865278991E+02 -0.10918283958E+02  0.59817707831E+02  0.00000000000E+00 0. -1.
</event>
<event>
 7    1  0.2844572E-009  0.1153844E+03  0.7561462E-02  0.1250912E+00
          2   -1    0    0  501    0  0.00000000000E+00  0.00000000000E+00  0.61532118704E+03  0.61532118704E+03  0.00000000000E+00 0.  1.
         -2   -1    0    0    0  501 -0.00000000000E+00 -0.00000000000E+00 -0.40367644051E+02  0.40367644051E+02  0.00000000000E+00 0. -1.
         25    2    1    2    0    0  0.96621878975E+02 -0.47990710787E+02  0.37835511328E+03  0.41284171792E+03  0.12508715558E+03 0.  0.
          5    1    3    3  502    0  0.14004737017E+02 -0.25624322707E+02  0.51758302263E+01  0.29949961463E+02  0.41800000000E+01 0.  1.
         -5    1    3    3    0  502  0.82617141959E+02 -0.22366388080E+02  0.37317928306E+03  0.38289175646E+03  0.41800000000E+01 0.  1.
        -11    1    1    2    0    0 -0.42793024432E+02  0.44342600670E+02  0.31603779782E+02  0.69255382973E+02  0.00000000000E+00 0. -1.
         11    1    1    2    0    0 -0.53828854543E+02  0.36481101170E+01  0.16499464992E+03  0.17359173019E+03  0.00000000000E+00 0.  1.
</event>
<event>
 7    1  0.2844572E-009  0.1482499E+03  0.7561462E-02  0.1202640E+00
         -2   -1    0    0    0  501 -0.00000000000E+00  0.00000000000E+00  0.12430143471E+03  0.12430143471E+03  0.00000000000E+00 0.  1.
          2   -1    0    0  501    0  0.00000000000E+00 -0.00000000000E+00 -0.22409425960E+03  0.22409425960E+03  0.00000000000E+00 0. -1.
         25    2    1    2    0    0  0.12540979627E+03  0.99688486207E+01 -0.69431079537E+02  0.19051314306E+03  0.12509031909E+03 0.  0.
          5    1    3    3  502    0  0.11111439516E+03 -0.20588760501E+02  0.13763866421E+00  0.11308314293E+03  0.41800000000E+01 0. -1.
         -5    1    3    3    0  502  0.14295401112E+02  0.30557609122E+02 -0.69568718201E+02  0.77430000132E+02  0.41800000000E+01 0. -1.
        -11    1    1    2    0    0 -0.91086893229E+02  0.30777979846E+02 -0.39288006870E+02  0.10386363004E+03  0.00000000000E+00 0. -1.
         11    1    1    2    0    0 -0.34322903044E+02 -0.40746828467E+02  0.89262615220E+01  0.54018921206E+02  0.00000000000E+00 0.  1.
</event>
<event>
 7    1  0.2844572E-009  0.1066774E+03  0.7561462E-02  0.1266850E+00
         -1   -1    0    0    0  501 -0.00000000000E+00  0.00000000000E+00  0.95032573291E+02  0.95032573291E+02  0.00000000000E+00 0.  1.
          1   -1    0    0  501    0  0.00000000000E+00 -0.00000000000E+00 -0.14649901935E+03  0.14649901935E+03  0.00000000000E+00 0. -1.
         25    2    1    2    0    0  0.21058783352E+02  0.49604736879E+02 -0.27877128222E+02  0.13903641316E+03  0.12509951091E+03 0.  0.
          5    1    3    3  502    0 -0.20222797042E+02  0.78940578225E+02 -0.32885641248E+02  0.87974508870E+02  0.41800000000E+01 0.  1.
         -5    1    3    3    0  502  0.41281580394E+02 -0.29335841346E+02  0.50085130264E+01  0.51061904294E+02  0.41800000000E+01 0.  1.
        -11    1    1    2    0    0  0.21405269432E+02 -0.14601894400E+02  0.19641524852E+02  0.32514464136E+02  0.00000000000E+00 0.  1.
         11    1    1    2    0    0 -0.42464052784E+02 -0.35002842478E+02 -0.43230842693E+02  0.69980715346E+02  0.00000000000E+00 0. -1.
</event>
<event>
 7    1  0.2844572E-009  0.1549796E+03  0.7561462E-02  0.1194484E+00
          2   -1    0    0  501    0  0.00000000000E+00  0.00000000000E+00  0.54543110005E+03  0.54543110005E+03  0.00000000000E+00 0. -1.
         -2   -1    0    0    0  501 -0.00000000000E+00 -0.00000000000E+00 -0.86520221537E+02  0.86520221537E+02  0.00000000000E+00 0.  1.
         25    2    1    2    0    0  0.79736321293E+02  0.11730224501E+03  0.58486490158E+02  0.19795073414E+03  0.12508447545E+03 0.  0.
          5    1    3    3  502    0  0.19503839002E+02  0.20642421373E+02 -0.38691714408E+02  0.48177074007E+02  0.41800000000E+01 0. -1.
         -5    1    3    3    0  502  0.60232482291E+02  0.96659823637E+02  0.97178204566E+02  0.14977366014E+03  0.41800000000E+01 0. -1.
        -11    1    1    2    0    0  0.31986460856E+01 -0.73360426622E+02  0.18306232045E+03  0.19724045401E+03  0.00000000000E+00 0. -1.
         11    1    1    2    0    0 -0.82934967379E+02 -0.43941818388E+02  0.21736206791E+03  0.23676013343E+03  0.00000000000E+00 0.  1.
</event>
<event>
 7    1  0.2844572E-009  0.9169305E+02  0.7561462E-02  0.1298803E+00
         -1   -1    0    0    0  501 -0.00000000000E+00  0.00000000000E+00  0.11487251748E+03  0.11487251748E+03  0.00000000000E+00 0.  1.
          1   -1    0    0  501    0  0.00000000000E+00 -0.00000000000E+00 -0.12444117772E+03  0.12444117772E+03  0.00000000000E+00 0. -1.
         25    2    1    2    0    0 -0.36634849548E+02  0.25633154809E+02  0.27686682793E+02  0.13569991035E+03  0.12509493371E+03 0.  0.
          5    1    3    3  502    0 -0.73992676136E+02  0.47496718648E+02  0.27474529581E+02  0.92212670386E+02  0.41800000000E+01 0.  1.
         -5    1    3    3    0  502  0.37357826587E+02 -0.21863563839E+02  0.21215321278E+00  0.43487239968E+02  0.41800000000E+01 0.  1.
        -11    1    1    2    0    0  0.24293282187E+02 -0.98939239316E+00 -0.61985854062E+02  0.66583695906E+02  0.00000000000E+00 0. -1.
         11    1    1    2    0    0  0.12341567361E+02 -0.24643762416E+02  0.24730511034E+02  0.37030088941E+02  0.00000000000E+00 0.  1.
</event>
<event>
 7    1  0.2844572E-009  0.1032854E+03  0.7561462E-02  0.1273535E+00
          2   -1    0    0  501    0  0.00000000000E+00  0.00000000000E+00  0.19130293134E+03  0.19130293134E+03  0.00000000000E+00 0.  1.
         -2   -1    0    0    0  501 -0.00000000000E+00 -0.00000000000E+00 -0.80057137100E+02  0.80057137100E+02  0.00000000000E+00 0. -1.
         25    2    1    2    0    0  0.23597248749E+02  0.14149936110E+02  0.41152873340E+01  0.12814514682E+03  0.12508873740E+03 0.  0.
          5    1    3    3  502    0 -0.13301680973E+02 -0.42023873145E+02  0.32647036836E+02  0.55011290159E+02  0.41800000000E+01 0.  1.
         -5    1    3    3    0  502  0.36898929722E+02  0.56173809255E+02 -0.28531749502E+02  0.73133856663E+02  0.41800000000E+01 0.  1.
        -11    1    1    2    0    0 -0.52219133971E+02 -0.31980576578E+02  0.66080833101E+02  0.90090353170E+02  0.00000000000E+00 0. -1.
         11    1    1    2    0    0  0.28621885222E+02  0.17830640467E+02  0.41049673804E+02  0.53124568446E+02  0.00000000000E+00 0.  1.
</event>
<event>
 7    1  0.2844572E-009  0.1854661E+03  0.7561462E-02  0.1162615E+00
         -4   -1    0    0    0  501 -0.00000000000E+00  0.00000000000E+00  0.13469325720E+03  0.13469325720E+03  0.00000000000E+00 0.  1.
          4   -1    0    0  501    0  0.00000000000E+00 -0.00000000000E+00 -0.32765157544E+03  0.32765157544E+03  0.00000000000E+00 0. -1.
         25    2    1    2    0    0 -0.25306806784E+02  0.18045795280E+03 -0.98288973568E+02  0.24189573815E+03  0.12508924260E+03 0.  0.
          5    1    3    3  502    0 -0.31428957985E+01  0.58765330669E+02 -0.10226932140E+03  0.11806662688E+03  0.41800000000E+01 0.  1.
         -5    1    3    3    0  502 -0.22163910985E+02  0.12169262213E+03  0.39803478294E+01  0.12382911127E+03  0.41800000000E+01 0.  1.
        -11    1    1    2    0    0 -0.32383803101E+01 -0.13118699412E+03 -0.30628750262E+02  0.13475397907E+03  0.00000000000E+00 0.  1.
         11    1    1    2    0    0  0.28545187094E+02 -0.49270958675E+02 -0.64040594403E+02  0.85695115418E+02  0.00000000000E+00 0. -1.
</event>
<event>
 7    1  0.2844572E-009  0.1949524E+03  0.7561462E-02  0.1154069E+00
          2   -1    0    0  501    0  0.00000000000E+00  0.00000000000E+00  0.77255183069E+03  0.77255183069E+03  0.00000000000E+00 0. -1.
         -2   -1    0    0    0  501 -0.00000000000E+00 -0.00000000000E+00 -0.55211923390E+02  0.55211923390E+02  0.00000000000E+00 0.  1.
         25    2    1    2    0    0 -0.28611713614E+01  0.17603658654E+03  0.38441902449E+03  0.44093403556E+03  0.12509105173E+03 0.  0.
          5    1    3    3  502    0 -0.43705515341E+02  0.48860270030E+02  0.55831575341E+02  0.86209832755E+02  0.41800000000E+01 0.  1.
         -5    1    3    3    0  502  0.40844343979E+02  0.12717631651E+03  0.32858744915E+03  0.35472420281E+03  0.41800000000E+01 0.  1.
        -11    1    1    2    0    0  0.27416542740E+02 -0.15734741588E+03  0.23482086728E+03  0.28399069670E+03  0.00000000000E+00 0. -1.
         11    1    1    2    0    0 -0.24555371379E+02 -0.18689170660E+02  0.98100015525E+02  0.10283902182E+03  0.00000000000E+00 0.  1.
</event>
<event>
 7    1  0.2844572E-009  0.1458235E+03  0.7561462E-02  0.1205701E+00
         -1   -1    0    0    0  501 -0.00000000000E+00  0.00000000000E+00  0.52290246262E+03  0.52290246262E+03  0.00000000000E+00 0.  1.
          1   -1    0    0  501    0  0.00000000000E+00 -0.00000000000E+00 -0.58733048674E+02  0.58733048674E+02  0.00000000000E+00 0. -1.
         25    2    1    2    0    0  0.48124926438E+02 -0.89700549134E+02  0.94312125349E+02  0.18682670407E+03  0.12508894158E+03 0.  0.
          5    1    3    3  502    0  0.51061188046E+02 -0.12003066944E+03  0.77143756572E+02  0.15160223649E+03  0.41800000000E+01 0. -1.
         -5    1    3    3    0  502 -0.29362616080E+01  0.30330120302E+02  0.17168368777E+02  0.35224467579E+02  0.41800000000E+01 0. -1.
        -11    1    1    2    0    0 -0.54982447830E+02  0.10224236598E+03  0.35762580452E+03  0.37599572740E+03  0.00000000000E+00 0.  1.
         11    1    1    2    0    0  0.68575213917E+01 -0.12541816850E+02  0.12231484079E+02  0.18813079820E+02  0.00000000000E+00 0. -1.
</event>
<event>
 7    1  0.2844572E-009  0.1162779E+03  0.7561462E-02  0.1249367E+00
          3   -1    0    0  501    0  0.00000000000E+00  0.00000000000E+00  0.55812667683E+02  0.55812667683E+02  0.00000000000E+00 0. -1.
         -3   -1    0    0    0  501 -0.00000000000E+00 -0.00000000000E+00 -0.30881787045E+03  0.30881787045E+03  0.00000000000E+00 0.  1.
         25    2    1    2    0    0 -0.11387687396E+02 -0.66676657217E+02 -0.95391935372E+02  0.17123469587E+03  0.12508494591E+03 0.  0.
          5    1    3    3  502    0 -0.47643178185E+02 -0.76135814453E+02 -0.98548815495E+02  0.13340118480E+03  0.41800000000E+01 0. -1.
         -5    1    3    3    0  502  0.36255490789E+02  0.94591572354E+01  0.31568801231E+01  0.37833511072E+02  0.41800000000E+01 0. -1.
        -11    1    1    2    0    0  0.44184608328E+02  0.54020746963E+02 -0.13388684496E+03  0.15098413152E+03  0.00000000000E+00 0.  1.
         11    1    1    2    0    0 -0.32796920932E+02  0.12655910254E+02 -0.23726422430E+02  0.42411710744E+02  0.00000000000E+00 0. -1.
</event>
<event>
 7    1  0.2992178E-009  0.1583768E+03  0.7561462E-02  0.1190542E+00
         -2   -1    0    0    0  501 -0.00000000000E+00  0.00000000000E+00  0.12741843477E+02  0.12741843477E+02  0.00000000000E+00 0.  1.
          2   -1    0    0  501    0  0.00000000000E+00 -0.00000000000E+00 -0.27978520363E+04  0.27978520363E+04  0.00000000000E+00 0. -1.
         25    2    1    2    0    0 -0.15109105620E+02 -0.12517996989E+03 -0.21203747978E+04  0.21278006329E+04  0.12509172810E+03 0.  0.
          5    1    3    3  502    0  0.24735674573E+02 -0.12775046114E+03 -0.18354499675E+04  0.18400614364E+04  0.41800000000E+01 0.  1.
         -5    1    3    3    0  502 -0.39844780194E+02  0.25704912545E+01 -0.28492483027E+03  0.28773919657E+03  0.41800000000E+01 0.  1.
        -11    1    1    2    0    0 -0.30347918283E+02  0.45763927412E+02 -0.14470733753E+03  0.15477579504E+03  0.00000000000E+00 0.  1.
         11    1    1    2    0    0  0.45457023904E+02  0.79416042476E+02 -0.52002805748E+03  0.52801745179E+03  0.00000000000E+00 0. -1.
</event>
<event>
 7    1  0.2844572E-009  0.1287202E+03  0.7561462E-02  0.1229367E+00
          2   -1    0    0  501    0  0.00000000000E+00  0.00000000000E+00  0.67211520370E+03  0.67211520370E+03  0.00000000000E+00 0. -1.
         -2   -1    0    0    0  501 -0.00000000000E+00 -0.00000000000E+00 -0.34503520895E+02  0.34503520895E+02  0.00000000000E+00 0.  1.
         25    2    1    2    0    0 -0.36659484391E+02  0.94786592262E+02  0.28482363367E+03  0.32726170764E+03  0.12508919667E+03 0.  0.
          5    1    3    3  502    0  0.19654157600E+02  0.28988858213E+02  0.20937311745E+03  0.21232337253E+03  0.41800000000E+01 0. -1.
         -5    1    3    3    0  502 -0.56313641991E+02  0.65797734049E+02  0.75450516216E+02  0.11493833511E+03  0.41800000000E+01 0. -1.
        -11    1    1    2    0    0  0.25596001281E+02  0.11883071810E+02  0.11653438217E+03  0.11990256421E+03  0.00000000000E+00 0.  1.
         11    1    1    2    0    0  0.11063483110E+02 -0.10666966407E+03  0.23625366697E+03  0.25945445274E+03  0.00000000000E+00 0. -1.
</event>
<event>
 7    1  0.2844572E-009  0.1050624E+03  0.7561462E-02  0.1269997E+00
          3   -1    0    0  501    0  0.00000000000E+00  0.00000000000E+00  0.12545488544E+03  0.12545488544E+03  0.00000000000E+00 0. -1.
         -3   -1    0    0    0  501 -0.00000000000E+00 -0.00000000000E+00 -0.12444919666E+03  0.12444919666E+03  0.00000000000E+00 0.  1.
         25    2    1    2    0    0  0.51404518642E+02 -0.16158421309E+02  0.33552406208E+02  0.14027481835E+03  0.12509093326E+03 0.  0.
          5    1    3    3  502    0  0.80483708896E+02 -0.99931179036E+01 -0.15587432850E+02  0.82691778708E+02  0.41800000000E+01 0. -1.
         -5    1    3    3    0  502 -0.29079190254E+02 -0.61653034050E+01  0.49139839058E+02  0.57583039643E+02  0.41800000000E+01 0. -1.
        -11    1    1    2    0    0 -0.41804697267E+02  0.49157801110E+02 -0.34893079756E+01  0.64624278671E+02  0.00000000000E+00 0. -1.
         11    1    1    2    0    0 -0.95998213748E+01 -0.32999379801E+02 -0.29057409451E+02  0.45004985077E+02  0.00000000000E+00 0.  1.
</event>
<event>
 7    1  0.2844572E-009  0.7746457E+02  0.7561462E-02  0.1336405E+00
          1   -1    0    0  501    0  0.00000000000E+00  0.00000000000E+00  0.53919156209E+02  0.53919156209E+02  0.00000000000E+00 0. -1.
         -1   -1    0    0    0  501 -0.00000000000E+00 -0.00000000000E+00 -0.25573059021E+03  0.25573059021E+03  0.00000000000E+00 0.  1.
         25    2    1    2    0    0 -0.33450876906E+02 -0.23423691005E+02 -0.12356317325E+03  0.18054706265E+03  0.12514692798E+03 0.  0.
          5    1    3    3  502    0  0.95793396752E+01  0.37724830871E+02 -0.90658426823E+02  0.98748920839E+02  0.41800000000E+01 0.  1.
         -5    1    3    3    0  502 -0.43030216581E+02 -0.61148521876E+02 -0.32904746427E+02  0.81798141813E+02  0.41800000000E+01 0.  1.
        -11    1    1    2    0    0  0.18782470851E+02  0.11821006171E+02  0.19523536184E+02  0.29558177604E+02  0.00000000000E+00 0. -1.
         11    1    1    2    0    0  0.14668406055E+02  0.11602684834E+02 -0.97771796932E+02  0.99544506161E+02  0.00000000000E+00 0.  1.
</event>
<event>
 7    1  0.2844572E-009  0.2190082E+03  0.7561462E-02  0.1134625E+00
          1   -1    0    0  501    0  0.00000000000E+00  0.00000000000E+00  0.22542064784E+03  0.22542064784E+03  0.00000000000E+00 0. -1.
         -1   -1    0    0    0  501 -0.00000000000E+00 -0.00000000000E+00 -0.28911493347E+03  0.28911493347E+03  0.00000000000E+00 0.  1.
         25    2    1    2    0    0  0.13891736067E+03 -0.16249525169E+03  0.54789148841E+02  0.25367926989E+03  0.12509428935E+03 0.  0.
          5    1    3    3  502    0  0.10959660948E+03 -0.10187438096E+03  0.92915068819E+02  0.17618311133E+03  0.41800000000E+01 0.  1.
         -5    1    3    3    0  502  0.29320751187E+02 -0.60620870724E+02 -0.38125919978E+02  0.77496158561E+02  0.41800000000E+01 0.  1.
        -11    1    1    2    0    0 -0.65609278205E+02  0.36478967542E+02 -0.34463683248E+01  0.75147654083E+02  0.00000000000E+00 0. -1.
         11    1    1    2    0    0 -0.73308082461E+02  0.12601628414E+03 -0.11503706614E+03  0.18570865734E+03  0.00000000000E+00 0.  1.
</event>
<event>
 7    1  0.2844572E-009  0.9423751E+02  0.7561462E-02  0.1292903E+00
          2   -1    0    0  501    0  0.00000000000E+00  0.00000000000E+00  0.47852713296E+02  0.47852713296E+02  0.00000000000E+00 0. -1.
         -2   -1    0    0    0  501 -0.00000000000E+00 -0.00000000000E+00 -0.43869037910E+03  0.43869037910E+03  0.00000000000E+00 0.  1.
         25    2    1    2    0    0 -0.29282899699E+02  0.66933280840E+02 -0.31514840319E+03  0.34684760565E+03  0.12508874134E+03 0.  0.
          5    1    3    3  502    0 -0.10882954611E+02  0.36186952991E+02 -0.96465485262E+01  0.39223240130E+02  0.41800000000E+01 0. -1.
         -5    1    3    3    0  502 -0.18399945087E+02  0.30746327849E+02 -0.30550185467E+03  0.30762436552E+03  0.41800000000E+01 0. -1.
        -11    1    1    2    0    0  0.48248565493E+02 -0.78518486631E+02 -0.47136343985E+02  0.10351285785E+03  0.00000000000E+00 0. -1.
         11    1    1    2    0    0 -0.18965665795E+02  0.11585205791E+02 -0.28552918628E+02  0.36182628905E+02  0.00000000000E+00 0.  1.
</event>
<event>
 7    1  0.2844572E-009  0.3691991E+03  0.7561462E-02  0.1055000E+00
          2   -1    0    0  501    0  0.00000000000E+00  0.00000000000E+00  0.71746140823E+03  0.71746140823E+03  0.00000000000E+00 0. -1.
         -2   -1    0    0    0  501 -0.00000000000E+00 -0.00000000000E+00 -0.19714656602E+03  0.19714656602E+03  0.00000000000E+00 0.  1.
         25    2    1    2    0    0 -0.33809286917E+03  0.98811320360E+02  0.17707211625E+03  0.41360889337E+03  0.12508923656E+03 0.  0.
          5    1    3    3  502    0 -0.10004157358E+03 -0.28073233667E+02  0.50655703598E+02  0.11567149865E+03  0.41800000000E+01 0.  1.
         -5    1    3    3    0  502 -0.23805129560E+03  0.12688455403E+03  0.12641641265E+03  0.29793739472E+03  0.41800000000E+01 0.  1.
        -11    1    1    2    0    0  0.14116022080E+03  0.64768152364E+01  0.14337931629E+03  0.20131017215E+03  0.00000000000E+00 0. -1.
         11    1    1    2    0    0  0.19693264837E+03 -0.10528813560E+03  0.19986340967E+03  0.29968890874E+03  0.00000000000E+00 0.  1.
</event>
<event>
 7    1  0.2844572E-009  0.9971180E+02  0.7561462E-02  0.1280903E+00
          2   -1    0    0  501    0  0.00000000000E+00  0.00000000000E+00  0.40386594573E+03  0.40386594573E+03  0.00000000000E+00 0. -1.
         -2   -1    0    0    0  501 -0.00000000000E+00 -0.00000000000E+00 -0.37445821913E+02  0.37445821913E+02  0.00000000000E+00 0.  1.
         25    2    1    2    0    0  0.20632570481E+01 -0.47548766428E+02  0.16310698677E+03  0.21098961465E+03  0.12509031193E+03 0.  0.
          5    1    3    3  502    0 -0.55169144433E-01 -0.79122893501E+02  0.50529034126E+02  0.93973884720E+02  0.41800000000E+01 0.  1.
         -5    1    3    3    0  502  0.21184261925E+01  0.31574127073E+02  0.11257795264E+03  0.11701572993E+03  0.41800000000E+01 0.  1.
        -11    1    1    2    0    0 -0.35400779889E+02  0.41224064462E+02  0.18272326552E+03  0.19063166177E+03  0.00000000000E+00 0. -1.
         11    1    1    2    0    0  0.33337522841E+02  0.63247019655E+01  0.20589871537E+02  0.39690491229E+02  0.00000000000E+00 0.  1.
</event>
<event>
 7    1  0.2844572E-009  0.1232499E+03  0.7561462E-02  0.1237830E+00
         -2   -1    0    0    0  501 -0.00000000000E+00  0.00000000000E+00  0.27103456773E+03  0.27103456773E+03  0.00000000000E+00 0.  1.
          2   -1    0    0  501    0  0.00000000000E+00 -0.00000000000E+00 -0.69187736917E+02  0.69187736917E+02  0.00000000000E+00 0. -1.
         25    2    1    2    0    0 -0.18379160485E+02  0.71698869292E+02  0.15847724576E+03  0.21503628920E+03  0.12508815632E+03 0.  0.
          5    1    3    3  502    0 -0.65177873479E+01  0.10582598085E+03  0.97864366562E+02  0.14434862804E+03  0.41800000000E+01 0. -1.
         -5    1    3    3    0  502 -0.11861373137E+02 -0.34127111556E+02  0.60612879201E+02  0.70687661165E+02  0.41800000000E+01 0. -1.
        -11    1    1    2    0    0  0.53562773039E+01  0.15218031725E+02 -0.13047858209E+02  0.20749091546E+02  0.00000000000E+00 0. -1.
         11    1    1    2    0    0  0.13022883181E+02 -0.86916901017E+02  0.56417443257E+02  0.10443692389E+03  0.00000000000E+00 0.  1.
</event>
<event>
 7    1  0.2844572E-009  0.1304659E+03  0.7561462E-02  0.1226766E+00
         -2   -1    0    0    0  501 -0.00000000000E+00  0.00000000000E+00  0.21821994501E+02  0.21821994501E+02  0.00000000000E+00 0.  1.
          2   -1    0    0  501    0  0.00000000000E+00 -0.00000000000E+00 -0.86661736403E+03  0.86661736403E+03  0.00000000000E+00 0. -1.
         25    2    1    2    0    0 -0.10832637311E+02  0.72741586656E+02 -0.32856295834E+03  0.35918091536E+03  0.12509447592E+03 0.  0.
          5    1    3    3  502    0  0.49113503326E+02  0.69071773018E+02 -0.18744935484E+03  0.20576146157E+03  0.41800000000E+01 0.  1.
         -5    1    3    3    0  502 -0.59946140637E+02  0.36698136379E+01 -0.14111360349E+03  0.15341945379E+03  0.41800000000E+01 0.  1.
        -11    1    1    2    0    0 -0.10158291999E+01 -0.92676446744E+02 -0.38547279369E+03  0.39645835893E+03  0.00000000000E+00 0.  1.
         11    1    1    2    0    0  0.11848466511E+02  0.19934860088E+02 -0.13075961750E+03  0.13280008424E+03  0.00000000000E+00 0. -1.
</event>
<event>
 7    1  0.2844572E-009  0.9111966E+02  0.7561462E-02  0.1300163E+00
         -1   -1    0    0    0  501 -0.00000000000E+00  0.00000000000E+00  0.37104443068E+02  0.37104443068E+02  0.00000000000E+00 0.  1.
          1   -1    0    0  501    0  0.00000000000E+00 -0.00000000000E+00 -0.46785783858E+03  0.46785783858E+03  0.00000000000E+00 0. -1.
         25    2    1    2    0    0  0.29721302565E+02 -0.68643302798E+02 -0.23100677444E+03  0.27314270355E+03  0.12509015875E+03 0.  0.
          5    1    3    3  502    0  0.16396596498E+02 -0.92626613137E+01 -0.20650689424E+03  0.20740591852E+03  0.41800000000E+01 0.  1.
         -5    1    3    3    0  502  0.13324706067E+02 -0.59380641484E+02 -0.24499880207E+02  0.65736785022E+02  0.41800000000E+01 0.  1.
        -11    1    1    2    0    0  0.19360466259E+02  0.41658607324E+02 -0.15010334135E+03  0.15697541306E+03  0.00000000000E+00 0. -1.
         11    1    1    2    0    0 -0.49081768824E+02  0.26984695474E+02 -0.49643279708E+02  0.74844165042E+02  0.00000000000E+00 0.  1.
</event>
<event>
 7    1  0.2844572E-009  0.1140036E+03  0.7561462E-02  0.1253331E+00
          2   -1    0    0  501    0  0.00000000000E+00  0.00000000000E+00  0.37888157190E+03  0.37888157190E+03  0.00000000000E+00 0. -1.
         -2   -1    0    0    0  501 -0.00000000000E+00 -0.00000000000E+00 -0.41085576935E+02  0.41085576935E+02  0.00000000000E+00 0.  1.
         25    2    1    2    0    0 -0.52711706521E+02 -0.30873609988E+02  0.14441601421E+03  0.20058838376E+03  0.12509200910E+03 0.  0.
          5    1    3    3  502    0  0.41005833437E+01 -0.62684169342E+02  0.11019809513E+03  0.12691419322E+03  0.41800000000E+01 0. -1.
         -5    1    3    3    0  502 -0.56812289865E+02  0.31810559353E+02  0.34217919078E+02  0.73674190543E+02  0.41800000000E+01 0. -1.
        -11    1    1    2    0    0  0.44021775067E+02 -0.19886816390E+02  0.64443200875E+02  0.80537744475E+02  0.00000000000E+00 0.  1.
         11    1    1    2    0    0  0.86899314545E+01  0.50760426379E+02  0.12893677988E+03  0.13884102059E+03  0.00000000000E+00 0. -1.
</event>
<event>
 7    1  0.2844572E-009  0.1165843E+03  0.7561462E-02  0.1248841E+00
         -3   -1    0    0    0  501 -0.00000000000E+00  0.00000000000E+00  0.61010269202E+02  0.61010269202E+02  0.00000000000E+00 0.  1.
          3   -1    0    0  501    0  0.00000000000E+00 -0.00000000000E+00 -0.22798212981E+03  0.22798212981E+03  0.00000000000E+00 0. -1.
         25    2    1    2    0    0  0.22422555249E+02  0.37379819798E+02 -0.11482959629E+03  0.17530364974E+03  0.12508201915E+03 0.  0.
          5    1    3    3  502    0  0.53419701238E+02  0.69248370026E+02 -0.81049907371E+02  0.11931287071E+03  0.41800000000E+01 0. -1.
         -5    1    3    3    0  502 -0.30997145990E+02 -0.31868550228E+02 -0.33779688918E+02  0.55990779032E+02  0.41800000000E+01 0. -1.
        -11    1    1    2    0    0 -0.16414162728E+01 -0.65760845752E+02 -0.35968107179E+02  0.74972580424E+02  0.00000000000E+00 0. -1.
         11    1    1    2    0    0 -0.20781138976E+02  0.28381025954E+02 -0.16174157145E+02  0.38716168853E+02  0.00000000000E+00 0.  1.
</event>
<event>
 7    1  0.2844572E-009  0.1541526E+03  0.7561462E-02  0.1195461E+00
         -2   -1    0    0    0  501 -0.00000000000E+00  0.00000000000E+00  0.17349646762E+03  0.17349646762E+03  0.00000000000E+00 0.  1.
          2   -1    0    0  501    0  0.00000000000E+00 -0.00000000000E+00 -0.18219886984E+03  0.18219886984E+03  0.00000000000E+00 0. -1.
         25    2    1    2    0    0 -0.11411780336E+03 -0.59198675516E+02  0.53421382498E+02  0.18715739199E+03  0.12508672608E+03 0.  0.
          5    1    3    3  502    0  0.25353872821E+02 -0.21983184725E+02  0.20431168297E+01  0.33878105084E+02  0.41800000000E+01 0. -1.
         -5    1    3    3    0  502 -0.13947167618E+03 -0.37215490791E+02  0.51378265668E+02  0.15327928690E+03  0.41800000000E+01 0. -1.
        -11    1    1    2    0    0  0.62122628494E+02  0.21065247831E+02 -0.78214462833E+02  0.10208069276E+03  0.00000000000E+00 0. -1.
         11    1    1    2    0    0  0.51995174861E+02  0.38133427685E+02  0.16090678120E+02  0.66457252713E+02  0.00000000000E+00 0.  1.
</event>
<event>
 7    1  0.2844572E-009  0.1429248E+03  0.7561462E-02  0.1209447E+00
         -2   -1    0    0    0  501 -0.00000000000E+00  0.00000000000E+00  0.68756741711E+02  0.68756741711E+02  0.00000000000E+00 0.  1.
          2   -1    0    0  501    0  0.00000000000E+00 -0.00000000000E+00 -0.34621443946E+03  0.34621443946E+03  0.00000000000E+00 0. -1.
         25    2    1    2    0    0 -0.82624602658E+02  0.64131008518E+02 -0.10429326878E+03  0.19355693109E+03  0.12509032114E+03 0.  0.
          5    1    3    3  502    0  0.26991710908E+02  0.42949880645E+02 -0.39297821781E+02  0.64304244821E+02  0.41800000000E+01 0. -1.
         -5    1    3    3    0  502 -0.10961631357E+03  0.21181127872E+02 -0.64995446998E+02  0.12925268627E+03  0.41800000000E+01 0. -1.
        -11    1    1    2    0    0  0.88439341797E+01 -0.46548898079E+02 -0.21896798408E+02  0.52196598210E+02  0.00000000000E+00 0.  1.
         11    1    1    2    0    0  0.73780668479E+02 -0.17582110439E+02 -0.15126763057E+03  0.16921765187E+03  0.00000000000E+00 0. -1.
</event>
<event>
 7    1  0.2844572E-009  0.6143179E+02  0.7561462E-02  0.1391920E+00
         -1   -1    0    0    0  501 -0.00000000000E+00  0.00000000000E+00  0.23907380726E+03  0.23907380726E+03  0.00000000000E+00 0.  1.
          1   -1    0    0  501    0  0.00000000000E+00 -0.00000000000E+00 -0.52441049212E+02  0.52441049212E+02  0.00000000000E+00 0. -1.
         25    2    1    2    0    0  0.23692406242E+01  0.96623746654E+01  0.13990748311E+03  0.18793632486E+03  0.12508790344E+03 0.  0.
          5    1    3    3  502    0  0.11511026460E+02 -0.97655260753E+01  0.15847315195E+03  0.15924535007E+03  0.41800000000E+01 0. -1.
         -5    1    3    3    0  502 -0.91417858359E+01  0.19427900741E+02 -0.18565668834E+02  0.28690974796E+02  0.41800000000E+01 0. -1.
        -11    1    1    2    0    0  0.28420868781E+00  0.37794128989E+02  0.12781131593E+01  0.37816802269E+02  0.00000000000E+00 0. -1.
         11    1    1    2    0    0 -0.26534493120E+01 -0.47456503654E+02  0.45447161772E+02  0.65761729338E+02  0.00000000000E+00 0.  1.
</event>
<event>
 7    1  0.2844572E-009  0.9628801E+02  0.7561462E-02  0.1288301E+00
          2   -1    0    0  501    0  0.00000000000E+00  0.00000000000E+00  0.10491557532E+03  0.10491557532E+03  0.00000000000E+00 0. -1.
         -2   -1    0    0    0  501 -0.00000000000E+00 -0.00000000000E+00 -0.18905572475E+03  0.18905572475E+03  0.00000000000E+00 0.  1.
         25    2    1    2    0    0 -0.67012185277E+02  0.41511499314E+02  0.66961352988E+00  0.14785930188E+03  0.12509231479E+03 0.  0.
          5    1    3    3  502    0 -0.57955503564E+02  0.23244479982E+02  0.58949348260E+02  0.85974672452E+02  0.41800000000E+01 0.  1.
         -5    1    3    3    0  502 -0.90566817135E+01  0.18267019332E+02 -0.58279734731E+02  0.61884629426E+02  0.41800000000E+01 0.  1.
        -11    1    1    2    0    0  0.16323656619E+02  0.22331646481E+02 -0.50679139456E+02  0.57736811273E+02  0.00000000000E+00 0.  1.
         11    1    1    2    0    0  0.50688528658E+02 -0.63843145795E+02 -0.34130623499E+02  0.88375186919E+02  0.00000000000E+00 0. -1.
</event>
<event>
 6    1  0.2844572E-009  0.3061150E+03  0.7561462E-02  0.1082223E+00
         -2   -1    0    0    0  501 -0.00000000000E+00  0.00000000000E+00  0.90330402800E+02  0.90330402800E+02  0.00000000000E+00 0.  1.
          2   -1    0    0  501    0  0.00000000000E+00 -0.00000000000E+00 -0.11648506308E+04  0.11648506308E+04  0.00000000000E+00 0. -1.
          5    1    1    2  502    0  0.67881405862E+02  0.14077951920E+03 -0.28446038524E+03  0.32459504225E+03  0.41800000000E+01 0. -1.
         -5    1    1    2    0  502  0.14237482118E+03  0.62978104210E+02 -0.43933402860E+03  0.46612089891E+03  0.41800000000E+01 0. -1.
        -11    1    1    2    0    0 -0.15209245780E+03 -0.18399052605E+03 -0.30781376190E+03  0.38953041141E+03  0.00000000000E+00 0. -1.
         11    1    1    2    0    0 -0.58163769245E+02 -0.19767097353E+02 -0.42912052251E+02  0.74934681016E+02  0.00000000000E+00 0.  1.
</event>
<event>
 7    1  0.2844572E-009  0.1075347E+03  0.7561462E-02  0.1265204E+00
          1   -1    0    0  501    0  0.00000000000E+00  0.00000000000E+00  0.84960821234E+03  0.84960821234E+03  0.00000000000E+00 0. -1.
         -1   -1    0    0    0  501 -0.00000000000E+00 -0.00000000000E+00 -0.16940122090E+02  0.16940122090E+02  0.00000000000E+00 0.  1.
         25    2    1    2    0    0 -0.10626460976E+02  0.29321503574E+02  0.31574038628E+03  0.34104584809E+03  0.12509039421E+03 0.  0.
          5    1    3    3  502    0 -0.62905690675E+02  0.59424886693E+01  0.10494700751E+03  0.12257155410E+03  0.41800000000E+01 0. -1.
         -5    1    3    3    0  502  0.52279229699E+02  0.23379014905E+02  0.21079337878E+03  0.21847429398E+03  0.41800000000E+01 0. -1.
        -11    1    1    2    0    0 -0.34455087625E+02 -0.34727807803E+02  0.25016660368E+03  0.25490489069E+03  0.00000000000E+00 0. -1.
         11    1    1    2    0    0  0.45081548601E+02  0.54063042289E+01  0.26676110028E+03  0.27059759565E+03  0.00000000000E+00 0.  1.
</event>
<event>
 7    1  0.2844572E-009  0.9441603E+02  0.7561462E-02  0.1292497E+00
         -3   -1    0    0    0  501 -0.00000000000E+00  0.00000000000E+00  0.53097795079E+03  0.53097795079E+03  0.00000000000E+00 0.  1.
          3   -1    0    0  501    0  0.00000000000E+00 -0.00000000000E+00 -0.28762157516E+02  0.28762157516E+02  0.00000000000E+00 0. -1.
         25    2    1    2    0    0  0.28813932470E+02  0.27047169937E+02  0.37993756115E+03  0.40194708948E+03  0.12508844977E+03 0.  0.
          5    1    3    3  502    0  0.50210541515E+02 -0.27251370917E+02  0.28284170801E+03  0.28858385243E+03  0.41800000000E+01 0.  1.
         -5    1    3    3    0  502 -0.21396609044E+02  0.54298540854E+02  0.97095853143E+02  0.11336323705E+03  0.41800000000E+01 0.  1.
        -11    1    1    2    0    0 -0.47060699447E+02 -0.28011386580E+02  0.27525170665E+02  0.61294226732E+02  0.00000000000E+00 0. -1.
         11    1    1    2    0    0  0.18246766977E+02  0.96421664275E+00  0.94753061459E+02  0.96498792089E+02  0.00000000000E+00 0.  1.
</event>
<event>
 7    1  0.2844572E-009  0.1365918E+03  0.7561462E-02  0.1217990E+00
          1   -1    0    0  501    0  0.00000000000E+00  0.00000000000E+00  0.19850490528E+04  0.19850490528E+04  0.00000000000E+00 0. -1.
         -1   -1    0    0    0  501 -0.00000000000E+00 -0.00000000000E+00 -0.12253456577E+02  0.12253456577E+02  0.00000000000E+00 0.  1.
         25    2    1    2    0    0  0.85292663188E+02  0.47227004749E+02  0.13955337618E+04  0.14045168645E+04  0.12509162266E+03 0.  0.
          5    1    3    3  502    0  0.37661425516E+02  0.75424665293E+02  0.11350491195E+04  0.11381833065E+04  0.41800000000E+01 0. -1.
         -5    1    3    3    0  502  0.47631237672E+02 -0.28197660544E+02  0.26048464228E+03  0.26633355802E+03  0.41800000000E+01 0. -1.
        -11    1    1    2    0    0 -0.10167551281E+03 -0.23372424787E+02  0.48491265907E+03  0.49600853528E+03  0.00000000000E+00 0. -1.
         11    1    1    2    0    0  0.16382849617E+02 -0.23854579962E+02  0.92349175307E+02  0.96777109517E+02  0.00000000000E+00 0.  1.
</event>
<event>
 7    1  0.2844572E-009  0.1258336E+03  0.7561462E-02  0.1233772E+00
         -2   -1    0    0    0  501 -0.00000000000E+00  0.00000000000E+00  0.23425009232E+02  0.23425009232E+02  0.00000000000E+00 0.  1.
          2   -1    0    0  501    0  0.00000000000E+00 -0.00000000000E+00 -0.78431344184E+03  0.78431344184E+03  0.00000000000E+00 0. -1.
         25    2    1    2    0    0 -0.56757070733E+02  0.45980913098E+02 -0.52625917499E+03  0.54583124260E+03  0.12508963463E+03 0.  0.
          5    1    3    3  502    0  0.18837309544E+02 -0.29323974769E+02 -0.18335408617E+03  0.18668404604E+03  0.41800000000E+01 0.  1.
         -5    1    3    3    0  502 -0.75594380277E+02  0.75304887867E+02 -0.34290508882E+03  0.35914719657E+03  0.41800000000E+01 0.  1.
        -11    1    1    2    0    0  0.27299384294E+02  0.22407227355E+02 -0.39152250793E+02  0.52727971351E+02  0.00000000000E+00 0. -1.
         11    1    1    2    0    0  0.29457686439E+02 -0.68388140453E+02 -0.19547700682E+03  0.20917923712E+03  0.00000000000E+00 0.  1.
</event>
<event>
 7    1  0.2844572E-009  0.8897983E+02  0.7561462E-02  0.1305341E+00
          1   -1    0    0  501    0  0.00000000000E+00  0.00000000000E+00  0.19788649293E+03  0.19788649293E+03  0.00000000000E+00 0. -1.
         -1   -1    0    0    0  501 -0.00000000000E+00 -0.00000000000E+00 -0.73577172942E+02  0.73577172942E+02  0.00000000000E+00 0.  1.
         25    2    1    2    0    0 -0.38035668157E+02 -0.31638477951E+02  0.52647357246E+02  0.14445425729E+03  0.12509029893E+03 0.  0.
          5    1    3    3  502    0 -0.27421017220E+02  0.42465850765E+02 -0.34119359493E+01  0.50836742357E+02  0.41800000000E+01 0. -1.
         -5    1    3    3    0  502 -0.10614650937E+02 -0.74104328716E+02  0.56059293195E+02  0.93617514934E+02  0.41800000000E+01 0. -1.
        -11    1    1    2    0    0  0.30971531099E+02  0.15479038236E+02 -0.15604932842E+02  0.37978287117E+02  0.00000000000E+00 0.  1.
         11    1    1    2    0    0  0.70641370575E+01  0.16159439715E+02  0.87266895584E+02  0.89031121464E+02  0.00000000000E+00 0. -1.
</event>
<event>
 7    1  0.2844572E-009  0.1985651E+03  0.7561462E-02  0.1150955E+00
          2   -1    0    0  501    0  0.00000000000E+00  0.00000000000E+00  0.13822008281E+04  0.13822008281E+04  0.00000000000E+00 0. -1.
         -2   -1    0    0    0  501 -0.00000000000E+00 -0.00000000000E+00 -0.32028191924E+02  0.32028191924E+02  0.00000000000E+00 0.  1.
         25    2    1    2    0    0  0.17550175285E+03 -0.39648970036E+02  0.72039679429E+03  0.75298833235E+03  0.12508789452E+03 0.  0.
          5    1    3    3  502    0  0.86961643320E+02 -0.75740407631E+02  0.49197468614E+03  0.50532712272E+03  0.41800000000E+01 0. -1.
         -5    1    3    3    0  502  0.88540109530E+02  0.36091437595E+02  0.22842210815E+03  0.24766120963E+03  0.41800000000E+01 0. -1.
        -11    1    1    2    0    0 -0.10816018501E+03  0.55424624506E+00  0.23279585656E+03  0.25669601407E+03  0.00000000000E+00 0.  1.
         11    1    1    2    0    0 -0.67341567844E+02  0.39094723791E+02  0.39697998529E+03  0.40454467357E+03  0.00000000000E+00 0. -1.
</event>
<event>
 7    1  0.2844572E-009  0.1889219E+03  0.7561462E-02  0.1159437E+00
          1   -1    0    0  501    0  0.00000000000E+00  0.00000000000E+00  0.75632254483E+03  0.75632254483E+03  0.00000000000E+00 0. -1.
         -1   -1    0    0    0  501 -0.00000000000E+00 -0.00000000000E+00 -0.67836593215E+02  0.67836593215E+02  0.00000000000E+00 0.  1.
         25    2    1    2    0    0  0.52758042821E+02 -0.17210657432E+03  0.49882896405E+03  0.54486754918E+03  0.12508487823E+03 0.  0.
          5    1    3    3  502    0  0.17030344558E+02 -0.15693432819E+03  0.27045051709E+03  0.31317626123E+03  0.41800000000E+01 0. -1.
         -5    1    3    3    0  502  0.35727698263E+02 -0.15172246127E+02  0.22837844696E+03  0.23169128795E+03  0.41800000000E+01 0. -1.
        -11    1    1    2    0    0 -0.66451355174E+01  0.48713470632E+02  0.97277017851E+00  0.49174244569E+02  0.00000000000E+00 0. -1.
         11    1    1    2    0    0 -0.46112907304E+02  0.12339310369E+03  0.18868421739E+03  0.23011734430E+03  0.00000000000E+00 0.  1.
</event>
<event>
 7    1  0.2844572E-009  0.1216691E+03  0.7561462E-02  0.1240369E+00
          1   -1    0    0  501    0  0.00000000000E+00  0.00000000000E+00  0.83105588903E+02  0.83105588903E+02  0.00000000000E+00 0. -1.
         -1   -1    0    0    0  501 -0.00000000000E+00 -0.00000000000E+00 -0.22895467743E+03  0.22895467743E+03  0.00000000000E+00 0.  1.
         25    2    1    2    0    0  0.81439483160E+02 -0.14115192586E+02 -0.64888893979E+02  0.16336777717E+03  0.12508730541E+03 0.  0.
          5    1    3    3  502    0  0.91176386235E+02  0.12255046445E+02  0.47550047482E+00  0.92092443072E+02  0.41800000000E+01 0. -1.
         -5    1    3    3    0  502 -0.97369030755E+01 -0.26370239031E+02 -0.65364394454E+02  0.71275334095E+02  0.41800000000E+01 0. -1.
        -11    1    1    2    0    0 -0.54139677142E+02  0.52705098551E+02 -0.36958374447E+02  0.84112148326E+02  0.00000000000E+00 0. -1.
         11    1    1    2    0    0 -0.27299806017E+02 -0.38589905965E+02 -0.44001820105E+02  0.64580340844E+02  0.00000000000E+00 0.  1.
</event>
<event>
 7    1  0.2844572E-009  0.9729076E+02  0.7561462E-02  0.1286099E+00
          2   -1    0    0  501    0  0.00000000000E+00  0.00000000000E+00  0.93132199933E+03  0.93132199933E+03  0.00000000000E+00 0. -1.
         -2   -1    0    0    0  501 -0.00000000000E+00 -0.00000000000E+00 -0.25719899671E+02  0.25719899671E+02  0.00000000000E+00 0.  1.
         25    2    1    2    0    0  0.16707079061E+02  0.40754079922E+02  0.77770452601E+03  0.78893160395E+03  0.12509486167E+03 0.  0.
          5    1    3    3  502    0  0.15756901900E+01  0.83077457812E+02  0.59210028608E+03  0.59791685708E+03  0.41800000000E+01 0.  1.
         -5    1    3    3    0  502  0.15131388871E+02 -0.42323377890E+02  0.18560423992E+03  0.19101474687E+03  0.41800000000E+01 0.  1.
        -11    1    1    2    0    0 -0.27622265147E+02 -0.40096384627E+01 -0.62421941898E+01  0.28601253832E+02  0.00000000000E+00 0.  1.
         11    1    1    2    0    0  0.10915186087E+02 -0.36744441459E+02  0.13413976784E+03  0.13950904122E+03  0.00000000000E+00 0. -1.
</event>
<event>
 7    1  0.2844572E-009  0.1049012E+03  0.7561462E-02  0.1270314E+00
          2   -1    0    0  501    0  0.00000000000E+00  0.00000000000E+00  0.66459588422E+03  0.66459588422E+03  0.00000000000E+00 0. -1.
         -2   -1    0    0    0  501 -0.00000000000E+00 -0.00000000000E+00 -0.19094720317E+02  0.19094720317E+02  0.00000000000E+00 0.  1.
         25    2    1    2    0    0 -0.15706043275E+02 -0.20559888862E+01  0.45473494869E+03  0.47189265233E+03  0.12509154601E+03 0.  0.
          5    1    3    3  502    0 -0.43742428467E+01  0.61297744265E+02  0.22234502518E+03  0.23071915845E+03  0.41800000000E+01 0. -1.
         -5    1    3    3    0  502 -0.11331800428E+02 -0.63353733151E+02  0.23238992351E+03  0.24117349389E+03  0.41800000000E+01 0. -1.
        -11    1    1    2    0    0 -0.12446852005E+02  0.36884496759E+02  0.45990118880E+02  0.60253475091E+02  0.00000000000E+00 0.  1.
         11    1    1    2    0    0  0.28152895280E+02 -0.34828507873E+02  0.14477609633E+03  0.15154447711E+03  0.00000000000E+00 0. -1.
</event>
<event>
 7    1  0.2844572E-009  0.9354266E+02  0.7561462E-02  0.1294493E+00
          1   -1    0    0  501    0  0.00000000000E+00  0.00000000000E+00  0.11695027065E+04  0.11695027065E+04  0.00000000000E+00 0. -1.
         -1   -1    0    0    0  501 -0.00000000000E+00 -0.00000000000E+00 -0.10373113600E+02  0.10373113600E+02  0.00000000000E+00 0.  1.
         25    2    1    2    0    0  0.30326478430E+02 -0.71706173188E+00  0.65144149332E+03  0.66403580168E+03  0.12508923701E+03 0.  0.
          5    1    3    3  502    0  0.14225812418E+02 -0.45746069532E+02  0.10498184135E+03  0.11547179755E+03  0.41800000000E+01 0.  1.
         -5    1    3    3    0  502  0.16100666012E+02  0.45029007800E+02  0.54645965197E+03  0.54856400412E+03  0.41800000000E+01 0.  1.
        -11    1    1    2    0    0 -0.31141290011E+02 -0.39762220800E+02  0.30402641819E+03  0.30819292189E+03  0.00000000000E+00 0.  1.
         11    1    1    2    0    0  0.81481158112E+00  0.40479282532E+02  0.20366168139E+03  0.20764709654E+03  0.00000000000E+00 0. -1.
</event>
<event>
 7    1  0.2844572E-009  0.1088391E+03  0.7561462E-02  0.1262735E+00
         -1   -1    0    0    0  501 -0.00000000000E+00  0.00000000000E+00  0.38425169843E+03  0.38425169843E+03  0.00000000000E+00 0.  1.
          1   -1    0    0  501    0  0.00000000000E+00 -0.00000000000E+00 -0.40101848763E+02  0.40101848763E+02  0.00000000000E+00 0. -1.
         25    2    1    2    0    0 -0.94241928884E+01  0.45358215648E+02  0.26436758585E+03  0.29611486431E+03  0.12509040442E+03 0.  0.
          5    1    3    3  502    0  0.51996516511E+02  0.11083909167E+02  0.61724295487E+02  0.81571145787E+02  0.41800000000E+01 0.  1.
         -5    1    3    3    0  502 -0.61420709399E+02  0.34274306481E+02  0.20264329036E+03  0.21454371852E+03  0.41800000000E+01 0.  1.
        -11    1    1    2    0    0 -0.31665344000E+00 -0.68645466656E+02  0.76499602607E+02  0.10278370280E+03  0.00000000000E+00 0.  1.
         11    1    1    2    0    0  0.97408463284E+01  0.23287251008E+02  0.32826612123E+01  0.25454980089E+02  0.00000000000E+00 0. -1.
</event>
<event>
 7    1  0.2844572E-009  0.1539369E+03  0.7561462E-02  0.1195717E+00
         -1   -1    0    0    0  501 -0.00000000000E+00  0.00000000000E+00  0.33038627311E+02  0.33038627311E+02  0.00000000000E+00 0.  1.
          1   -1    0    0  501    0  0.00000000000E+00 -0.00000000000E+00 -0.93808982269E+03  0.93808982269E+03  0.00000000000E+00 0. -1.
         25    2    1    2    0    0 -0.12935204146E+03 -0.15008437983E+02 -0.62425486727E+03  0.64984469731E+03  0.12508711951E+03 0.  0.
          5    1    3    3  502    0 -0.10587732928E+03 -0.43706200800E+02 -0.26589420814E+03  0.28954696194E+03  0.41800000000E+01 0. -1.
         -5    1    3    3    0  502 -0.23474712184E+02  0.28697762816E+02 -0.35836065913E+03  0.36029773537E+03  0.41800000000E+01 0. -1.
        -11    1    1    2    0    0  0.38159655091E+02  0.45872391802E+02 -0.99877286517E+02  0.11634392106E+03  0.00000000000E+00 0.  1.
         11    1    1    2    0    0  0.91192386373E+02 -0.30863953819E+02 -0.18091904159E+03  0.20493983162E+03  0.00000000000E+00 0. -1.
</event>
<event>
 7    1  0.2844572E-009  0.1106705E+03  0.7561462E-02  0.1259333E+00
         -2   -1    0    0    0  501 -0.00000000000E+00  0.00000000000E+00  0.19990687314E+03  0.19990687314E+03  0.00000000000E+00 0.  1.
          2   -1    0    0  501    0  0.00000000000E+00 -0.00000000000E+00 -0.92542846407E+02  0.92542846407E+02  0.00000000000E+00 0. -1.
         25    2    1    2    0    0 -0.82862251207E+01  0.79743941490E+02  0.85843109038E+02  0.17159610080E+03  0.12509366375E+03 0.  0.
          5    1    3    3  502    0 -0.34106487576E+02  0.97300902146E+02  0.29970235519E+02  0.10745420173E+03  0.41800000000E+01 0. -1.
         -5    1    3    3    0  502  0.25820262455E+02 -0.17556960656E+02  0.55872873519E+02  0.64141899067E+02  0.41800000000E+01 0. -1.
        -11    1    1    2    0    0 -0.90218007024E+01 -0.58755006550E+02  0.52723753857E+02  0.79456515802E+02  0.00000000000E+00 0.  1.
         11    1    1    2    0    0  0.17308025823E+02 -0.20988934940E+02 -0.31202836161E+02  0.41397102945E+02  0.00000000000E+00 0. -1.
</event>
<event>
 7    1  0.2844572E-009  0.1107135E+03  0.7561462E-02  0.1259254E+00
         -1   -1    0    0    0  501 -0.00000000000E+00  0.00000000000E+00  0.97706383714E+02  0.97706383714E+02  0.00000000000E+00 0.  1.
          1   -1    0    0  501    0  0.00000000000E+00 -0.00000000000E+00 -0.14525219696E+03  0.14525219696E+03  0.00000000000E+00 0. -1.
         25    2    1    2    0    0  0.51450017194E+02 -0.11063344346E+02 -0.81451717812E+01  0.13595322416E+03  0.12508970173E+03 0.  0.
          5    1    3    3  502    0  0.69338410681E+02  0.31440058671E+02 -0.33363354125E+02  0.83227869632E+02  0.41800000000E+01 0.  1.
         -5    1    3    3    0  502 -0.17888393486E+02 -0.42503403017E+02  0.25218182344E+02  0.52725354530E+02  0.41800000000E+01 0.  1.
        -11    1    1    2    0    0 -0.65027777090E+02 -0.17420728384E+02 -0.32267664403E+02  0.74654509152E+02  0.00000000000E+00 0.  1.
         11    1    1    2    0    0  0.13577759896E+02  0.28484072730E+02 -0.71329770594E+01  0.32350847358E+02  0.00000000000E+00 0. -1.
</event>
<event>
 7    1  0.2844572E-009  0.1749758E+03  0.7561462E-02  0.1172756E+00
          1   -1    0    0  501    0  0.00000000000E+00  0.00000000000E+00  0.50555470499E+03  0.50555470499E+03  0.00000000000E+00 0. -1.
         -1   -1    0    0    0  501 -0.00000000000E+00 -0.00000000000E+00 -0.12325206232E+03  0.12325206232E+03  0.00000000000E+00 0.  1.
         25    2    1    2    0    0 -0.14090040635E+03 -0.95180382240E+02  0.37764450286E+03  0.43263716752E+03  0.12508924215E+03 0.  0.
          5    1    3    3  502    0 -0.11891514831E+02  0.49976332545E+01 -0.66118660750E+01  0.15085543945E+02  0.41800000000E+01 0. -1.
         -5    1    3    3    0  502 -0.12900889152E+03 -0.10017801549E+03  0.38425636894E+03  0.41755162358E+03  0.41800000000E+01 0. -1.
        -11    1    1    2    0    0  0.60912334855E+02  0.22529806798E+02 -0.43187800809E+02  0.77994172029E+02  0.00000000000E+00 0.  1.
         11    1    1    2    0    0  0.79988071500E+02  0.72650575442E+02  0.47845940615E+02  0.11817542777E+03  0.00000000000E+00 0. -1.
</event>
<event>
 7    1  0.2844572E-009  0.6448183E+02  0.7561462E-02  0.1379931E+00
         -1   -1    0    0    0  501 -0.00000000000E+00  0.00000000000E+00  0.75974591701E+02  0.75974591701E+02  0.00000000000E+00 0.  1.
          1   -1    0    0  501    0  0.00000000000E+00 -0.00000000000E+00 -0.20374648500E+03  0.20374648500E+03  0.00000000000E+00 0. -1.
         25    2    1    2    0    0  0.51557926341E+02  0.29332093328E+02 -0.59254143536E+02  0.15058856214E+03  0.12508904849E+03 0.  0.
          5    1    3    3  502    0  0.26489212896E+02  0.29718845443E+02 -0.97084002068E+02  0.10501268510E+03  0.41800000000E+01 0. -1.
         -5    1    3    3    0  502  0.25068713445E+02 -0.38675211467E+00  0.37829858532E+02  0.45575877035E+02  0.41800000000E+01 0. -1.
        -11    1    1    2    0    0 -0.27108934978E+02 -0.28087267934E+02  0.15213750990E+02  0.41895670358E+02  0.00000000000E+00 0.  1.
         11    1    1    2    0    0 -0.24448991363E+02 -0.12448253944E+01 -0.83731500757E+02  0.87236844211E+02  0.00000000000E+00 0. -1.
</event>
<event>
 7    1  0.2844572E-009  0.1280638E+03  0.7561462E-02  0.1230357E+00
          2   -1    0    0  501    0  0.00000000000E+00  0.00000000000E+00  0.63387731338E+03  0.63387731338E+03  0.00000000000E+00 0. -1.
         -2   -1    0    0    0  501 -0.00000000000E+00 -0.00000000000E+00 -0.40993854049E+02  0.40993854049E+02  0.00000000000E+00 0.  1.
         25    2    1    2    0    0  0.91425352613E+02 -0.49650160379E+02  0.23886287688E+03  0.28900863287E+03  0.12508709923E+03 0.  0.
          5    1    3    3  502    0  0.10916675303E+02 -0.11463571837E+02  0.18305506283E+03  0.18378578755E+03  0.41800000000E+01 0.  1.
         -5    1    3    3    0  502  0.80508677310E+02 -0.38186588542E+02  0.55807814053E+02  0.10522284531E+03  0.41800000000E+01 0.  1.
        -11    1    1    2    0    0 -0.10055446964E+03  0.49517396940E+00  0.26967983205E+03  0.28781705713E+03  0.00000000000E+00 0.  1.
         11    1    1    2    0    0  0.91291170290E+01  0.49154986409E+02  0.84340750400E+02  0.98045477431E+02  0.00000000000E+00 0. -1.
</event>
<event>
 7    1  0.2844572E-009  0.1077328E+03  0.7561462E-02  0.1264827E+00
         -1   -1    0    0    0  501 -0.00000000000E+00  0.00000000000E+00  0.49610280542E+02  0.49610280542E+02  0.00000000000E+00 0.  1.
          1   -1    0    0  501    0  0.00000000000E+00 -0.00000000000E+00 -0.27629595833E+03  0.27629595833E+03  0.00000000000E+00 0. -1.
         25    2    1    2    0    0 -0.64534944701E+01  0.42749763298E+02 -0.10697957219E+03  0.17017857781E+03  0.12508768775E+03 0.  0.
          5    1    3    3  502    0  0.47187981761E+02 -0.66358711212E+01 -0.78219072371E+02  0.91686618929E+02  0.41800000000E+01 0. -1.
         -5    1    3    3    0  502 -0.53641476231E+02  0.49385634419E+02 -0.28760499815E+02  0.78491958880E+02  0.41800000000E+01 0. -1.
        -11    1    1    2    0    0 -0.38565053889E+02 -0.13265166589E+02 -0.28243048789E+02  0.49607437255E+02  0.00000000000E+00 0.  1.
         11    1    1    2    0    0  0.45018548359E+02 -0.29484596709E+02 -0.91463056817E+02  0.10612022381E+03  0.00000000000E+00 0. -1.
</event>
<event>
 7    1  0.2844572E-009  0.8620992E+02  0.7561462E-02  0.1312298E+00
          2   -1    0    0  501    0  0.00000000000E+00  0.00000000000E+00  0.65338466097E+03  0.65338466097E+03  0.00000000000E+00 0. -1.
         -2   -1    0    0    0  501 -0.00000000000E+00 -0.00000000000E+00 -0.24642075542E+02  0.24642075542E+02  0.00000000000E+00 0.  1.
         25    2    1    2    0    0 -0.42054581240E+02 -0.81494006501E+01  0.47853328922E+03  0.49646379015E+03  0.12508871054E+03 0.  0.
          5    1    3    3  502    0 -0.22159890309E+02  0.30302059176E+02  0.37276966457E+02  0.53069013153E+02  0.41800000000E+01 0. -1.
         -5    1    3    3    0  502 -0.19894690931E+02 -0.38451459826E+02  0.44125632276E+03  0.44339477700E+03  0.41800000000E+01 0. -1.
        -11    1    1    2    0    0 -0.16615857783E+02 -0.20064288367E+02  0.87026217209E+02  0.90841757355E+02  0.00000000000E+00 0. -1.
         11    1    1    2    0    0  0.58670439023E+02  0.28213689018E+02  0.63183079001E+02  0.90721189009E+02  0.00000000000E+00 0.  1.
</event>
<event>
 7    1  0.2844572E-009  0.1312873E+03  0.7561462E-02  0.1225558E+00
          2   -1    0    0  501    0  0.00000000000E+00  0.00000000000E+00  0.13907137951E+03  0.13907137951E+03  0.00000000000E+00 0.  1.
         -2   -1    0    0    0  501 -0.00000000000E+00 -0.00000000000E+00 -0.15492183262E+03  0.15492183262E+03  0.00000000000E+00 0. -1.
         25    2    1    2    0    0 -0.15140770484E+02  0.83301661162E+02 -0.57668465320E+02  0.16167853431E+03  0.12508351962E+03 0.  0.
          5    1    3    3  502    0 -0.51997152535E+02 -0.70425979801E+01 -0.12634824791E+02  0.54133291564E+02  0.41800000000E+01 0.  1.
         -5    1    3    3    0  502  0.36856382050E+02  0.90344259142E+02 -0.45033640529E+02  0.10754524274E+03  0.41800000000E+01 0.  1.
        -11    1    1    2    0    0 -0.19901778941E+02  0.20515982589E+01  0.34342692694E+02  0.39745570847E+02  0.00000000000E+00 0.  1.
         11    1    1    2    0    0  0.35042549426E+02 -0.85353259420E+02  0.74753195117E+01  0.92569106973E+02  0.00000000000E+00 0. -1.
</event>
<event>
 7    1  0.2844572E-009  0.1106551E+03  0.7561462E-02  0.1259362E+00
          1   -1    0    0  501    0  0.00000000000E+00  0.00000000000E+00  0.81339618406E+02  0.81339618406E+02  0.00000000000E+00 0. -1.
         -1   -1    0    0    0  501 -0.00000000000E+00 -0.00000000000E+00 -0.18937459389E+03  0.18937459389E+03  0.00000000000E+00 0.  1.
         25    2    1    2    0    0 -0.77621226814E+01  0.58672350456E+02 -0.51753427001E+02  0.14774584325E+03  0.12509085392E+03 0.  0.
          5    1    3    3  502    0 -0.65592367746E+02  0.40988363508E+02 -0.33909965555E+02  0.84556270102E+02  0.41800000000E+01 0.  1.
         -5    1    3    3    0  502  0.57830245065E+02  0.17683986948E+02 -0.17843461447E+02  0.63189573151E+02  0.41800000000E+01 0.  1.
        -11    1    1    2    0    0  0.32141250764E+02 -0.44945588891E+02  0.51209027667E+01  0.55492248167E+02  0.00000000000E+00 0. -1.
         11    1    1    2    0    0 -0.24379128083E+02 -0.13726761565E+02 -0.61402451246E+02  0.67476120874E+02  0.00000000000E+00 0.  1.
</event>
<event>
 7    1  0.2844572E-009  0.1425628E+03  0.7561462E-02  0.1209922E+00
         -1   -1    0    0    0  501 -0.00000000000E+00  0.00000000000E+00  0.13040407915E+03  0.13040407915E+03  0.00000000000E+00 0.  1.
          1   -1    0    0  501    0  0.00000000000E+00 -0.00000000000E+00 -0.24824279824E+03  0.24824279824E+03  0.00000000000E+00 0. -1.
         25    2    1    2    0    0 -0.59901804276E+02 -0.93431991409E+02 -0.15728716302E+03  0.22957608963E+03  0.12509263010E+03 0.  0.
          5    1    3    3  502    0  0.29847541919E+02  0.21315856629E+01 -0.88379001068E+01  0.31480157153E+02  0.41800000000E+01 0.  1.
         -5    1    3    3    0  502 -0.89749346196E+02 -0.95563577071E+02 -0.14844926291E+03  0.19809593248E+03  0.41800000000E+01 0.  1.
        -11    1    1    2    0    0  0.10333861938E+02  0.66566906444E+02  0.58845989435E+02  0.89447147572E+02  0.00000000000E+00 0.  1.
         11    1    1    2    0    0  0.49567942339E+02  0.26865084964E+02 -0.19397545513E+02  0.59623640192E+02  0.00000000000E+00 0. -1.
</event>
<event>
 7    1  0.2844572E-009  0.1304432E+03  0.7561462E-02  0.1226800E+00
         -2   -1    0    0    0  501 -0.00000000000E+00  0.00000000000E+00  0.37598123586E+02  0.37598123586E+02  0.00000000000E+00 0.  1.
          2   -1    0    0  501    0  0.00000000000E+00 -0.00000000000E+00 -0.57240355091E+03  0.57240355091E+03  0.00000000000E+00 0. -1.
         25    2    1    2    0    0  0.63218799490E+02 -0.61438863281E+02 -0.19599684782E+03  0.24866409389E+03  0.12509083383E+03 0.  0.
          5    1    3    3  502    0 -0.24177349150E+02 -0.50803451763E+02 -0.11872417605E+03  0.13144746974E+03  0.41800000000E+01 0.  1.
         -5    1    3    3    0  502  0.87396148641E+02 -0.10635411518E+02 -0.77272671763E+02  0.11721662415E+03  0.41800000000E+01 0.  1.
        -11    1    1    2    0    0 -0.15274780808E+00  0.52652834367E+02 -0.22347525706E+03  0.22959428306E+03  0.00000000000E+00 0. -1.
         11    1    1    2    0    0 -0.63066051682E+02  0.87860289146E+01 -0.11533332245E+03  0.13174329754E+03  0.00000000000E+00 0.  1.
</event>
<event>
 7    1  0.2844572E-009  0.1415389E+03  0.7561462E-02  0.1211273E+00
          4   -1    0    0  501    0  0.00000000000E+00  0.00000000000E+00  0.71617375193E+03  0.71617375193E+03  0.00000000000E+00 0. -1.
         -4   -1    0    0    0  501 -0.00000000000E+00 -0.00000000000E+00 -0.54784282845E+02  0.54784282845E+02  0.00000000000E+00 0.  1.
         25    2    1    2    0    0  0.73095691234E+02 -0.84890983158E+02  0.58659305855E+03  0.61015423333E+03  0.12508922020E+03 0.  0.
          5    1    3    3  502    0  0.98495291241E+02 -0.91629515526E+02  0.53978625818E+03  0.55631283234E+03  0.41800000000E+01 0. -1.
         -5    1    3    3    0  502 -0.25399600007E+02  0.67385323674E+01  0.46806800374E+02  0.53841400987E+02  0.41800000000E+01 0. -1.
        -11    1    1    2    0    0 -0.43394604009E+02  0.14959618730E+02  0.71235608405E+02  0.84743104466E+02  0.00000000000E+00 0. -1.
         11    1    1    2    0    0 -0.29701087225E+02  0.69931364428E+02  0.35608021269E+01  0.76060696979E+02  0.00000000000E+00 0.  1.
</event>
<event>
 7    1  0.2844572E-009  0.1816696E+03  0.7561462E-02  0.1166197E+00
          1   -1    0    0  501    0  0.00000000000E+00  0.00000000000E+00  0.63235278209E+03  0.63235278209E+03  0.00000000000E+00 0. -1.
         -1   -1    0    0    0  501 -0.00000000000E+00 -0.00000000000E+00 -0.58840351127E+02  0.58840351127E+02  0.00000000000E+00 0.  1.
         25    2    1    2    0    0  0.15586697961E+03 -0.25772045569E+02  0.27048255264E+03  0.33729712405E+03  0.12509926036E+03 0.  0.
          5    1    3    3  502    0  0.73638964404E+02  0.47879824899E+02  0.91019032368E+02  0.12655872694E+03  0.41800000000E+01 0.  1.
         -5    1    3    3    0  502  0.82228015205E+02 -0.73651870468E+02  0.17946352028E+03  0.21073839711E+03  0.41800000000E+01 0.  1.
        -11    1    1    2    0    0 -0.93603914466E+02 -0.82773106777E+01  0.93031867080E+02  0.13223136908E+03  0.00000000000E+00 0.  1.
         11    1    1    2    0    0 -0.62263065143E+02  0.34049356247E+02  0.20999801123E+03  0.22166464009E+03  0.00000000000E+00 0. -1.
</event>
<event>
 7    1  0.2844572E-009  0.1217340E+03  0.7561462E-02  0.1240264E+00
          2   -1    0    0  501    0  0.00000000000E+00  0.00000000000E+00  0.13359373234E+04  0.13359373234E+04  0.00000000000E+00 0. -1.
         -2   -1    0    0    0  501 -0.00000000000E+00 -0.00000000000E+00 -0.11929570704E+02  0.11929570704E+02  0.00000000000E+00 0.  1.
         25    2    1    2    0    0 -0.25781622002E+02  0.59704321349E+02  0.83640446568E+03  0.84820147401E+03  0.12507602600E+03 0.  0.
          5    1    3    3  502    0  0.46282230398E+02  0.34678933489E+02  0.49316642869E+03  0.49656346227E+03  0.41800000000E+01 0. -1.
         -5    1    3    3    0  502 -0.72063852401E+02  0.25025387860E+02  0.34323803700E+03  0.35163801174E+03  0.41800000000E+01 0. -1.
        -11    1    1    2    0    0  0.48503390147E+02 -0.36981020788E+01  0.22437887670E+03  0.22959123486E+03  0.00000000000E+00 0. -1.
         11    1    1    2    0    0 -0.22721768145E+02 -0.56006219270E+02  0.26322441026E+03  0.27007418519E+03  0.00000000000E+00 0.  1.
</event>
<event>
 7    1  0.2844572E-009  0.8794153E+02  0.7561462E-02  0.1307915E+00
         -2   -1    0    0    0  501 -0.00000000000E+00  0.00000000000E+00  0.13292031136E+03  0.13292031136E+03  0.00000000000E+00 0.  1.
          2   -1    0    0  501    0  0.00000000000E+00 -0.00000000000E+00 -0.12382192600E+03  0.12382192600E+03  0.00000000000E+00 0. -1.
         25    2    1    2    0    0  0.44215483503E+02 -0.15084102651E+02  0.77956183152E+02  0.15462775193E+03  0.12510010408E+03 0.  0.
          5    1    3    3  502    0  0.71793557785E+02 -0.98510361825E+01  0.96481102435E+02  0.12073704229E+03  0.41800000000E+01 0. -1.
         -5    1    3    3    0  502 -0.27578074282E+02 -0.52330664682E+01 -0.18524919283E+02  0.33890709644E+02  0.41800000000E+01 0. -1.
        -11    1    1    2    0    0 -0.51844079283E+02 -0.62878720925E+01 -0.42485009288E+02  0.67322521539E+02  0.00000000000E+00 0. -1.
         11    1    1    2    0    0  0.76285957801E+01  0.21371974743E+02 -0.26372788507E+02  0.34791963894E+02  0.00000000000E+00 0.  1.
</event>
<event>
 7    1  0.2844572E-009  0.1312621E+03  0.7561462E-02  0.1225595E+00
         -1   -1    0    0    0  501 -0.00000000000E+00  0.00000000000E+00  0.54634186237E+02  0.54634186237E+02  0.00000000000E+00 0.  1.
          1   -1    0    0  501    0  0.00000000000E+00 -0.00000000000E+00 -0.48478756502E+03  0.48478756502E+03  0.00000000000E+00 0. -1.
         25    2    1    2    0    0  0.11461477052E+03  0.27282399821E+02 -0.21240682149E+03  0.27321181943E+03  0.12508863058E+03 0.  0.
          5    1    3    3  502    0  0.78493933366E+01  0.35647940022E+02 -0.13783256576E+03  0.14264528449E+03  0.41800000000E+01 0.  1.
         -5    1    3    3    0  502  0.10676537719E+03 -0.83655402010E+01 -0.74574255726E+02  0.13056653494E+03  0.41800000000E+01 0.  1.
        -11    1    1    2    0    0 -0.83335462201E+02 -0.26026755303E+02 -0.61335444184E+02  0.10669689764E+03  0.00000000000E+00 0.  1.
         11    1    1    2    0    0 -0.31279308322E+02 -0.12556445182E+01 -0.15641111311E+03  0.15951303419E+03  0.00000000000E+00 0. -1.
</event>
<event>
 7    1  0.2844572E-009  0.1085603E+03  0.7561462E-02  0.1263259E+00
         -1   -1    0    0    0  501 -0.00000000000E+00  0.00000000000E+00  0.10036721854E+04  0.10036721854E+04  0.00000000000E+00 0.  1.
          1   -1    0    0  501    0  0.00000000000E+00 -0.00000000000E+00 -0.15255097392E+02  0.15255097392E+02  0.00000000000E+00 0. -1.
         25    2    1    2    0    0 -0.51159367193E+02  0.10416914070E+02  0.42780219680E+03  0.44876279911E+03  0.12509011685E+03 0.  0.
          5    1    3    3  502    0  0.43219767398E+01 -0.38647676180E+02  0.28663549690E+03  0.28929172618E+03  0.41800000000E+01 0. -1.
         -5    1    3    3    0  502 -0.55481343933E+02  0.49064590250E+02  0.14116669990E+03  0.15947107293E+03  0.41800000000E+01 0. -1.
        -11    1    1    2    0    0  0.69564286255E+02  0.16237913595E+02  0.39651075683E+03  0.40289408043E+03  0.00000000000E+00 0.  1.
         11    1    1    2    0    0 -0.18404919062E+02 -0.26654827665E+02  0.16410413438E+03  0.16727040325E+03  0.00000000000E+00 0. -1.
</event>
<event>
 7    1  0.2844572E-009  0.8953258E+02  0.7561462E-02  0.1303988E+00
         -4   -1    0    0    0  501 -0.00000000000E+00  0.00000000000E+00  0.20857617541E+03  0.20857617541E+03  0.00000000000E+00 0.  1.
          4   -1    0    0  501    0  0.00000000000E+00 -0.00000000000E+00 -0.77232487084E+02  0.77232487084E+02  0.00000000000E+00 0. -1.
         25    2    1    2    0    0 -0.49615023010E+02  0.20037843675E+02  0.28919450414E+02  0.13909127204E+03  0.12508749601E+03 0.  0.
          5    1    3    3  502    0 -0.14651639017E+02 -0.44519221609E+02 -0.19619033272E+02  0.50980491220E+02  0.41800000000E+01 0. -1.
         -5    1    3    3    0  502 -0.34963383993E+02  0.64557065284E+02  0.48538483686E+02  0.88110780820E+02  0.41800000000E+01 0. -1.
        -11    1    1    2    0    0  0.30973429857E+02 -0.24281341270E+02  0.11650518134E+03  0.12297314410E+03  0.00000000000E+00 0.  1.
         11    1    1    2    0    0  0.18641593153E+02  0.42434975951E+01 -0.14080943428E+02  0.23744246354E+02  0.00000000000E+00 0. -1.
</event>
<event>
 7    1  0.2844572E-009  0.2072508E+03  0.7561462E-02  0.1143762E+00
         -1   -1    0    0    0  501 -0.00000000000E+00  0.00000000000E+00  0.11417087504E+03  0.11417087504E+03  0.00000000000E+00 0.  1.
          1   -1    0    0  501    0  0.00000000000E+00 -0.00000000000E+00 -0.39301019526E+03  0.39301019526E+03  0.00000000000E+00 0. -1.
         25    2    1    2    0    0  0.14186441434E+03 -0.11232924252E+03 -0.15273419910E+03  0.26779388062E+03  0.12506980506E+03 0.  0.
          5    1    3    3  502    0  0.78401076122E+02 -0.12688240275E+03 -0.77250177163E+02  0.16802063902E+03  0.41800000000E+01 0. -1.
         -5    1    3    3    0  502  0.63463338217E+02  0.14553160228E+02 -0.75484021940E+02  0.99773241596E+02  0.41800000000E+01 0. -1.
        -11    1    1    2    0    0 -0.77951938477E+02  0.88910557814E+01 -0.28521506963E+02  0.83480727984E+02  0.00000000000E+00 0.  1.
         11    1    1    2    0    0 -0.63912475862E+02  0.10343818674E+03 -0.97583614156E+02  0.15590646170E+03  0.00000000000E+00 0. -1.
</event>
<event>
 7    1  0.2844572E-009  0.1069994E+03  0.7561462E-02  0.1266230E+00
         -3   -1    0    0    0  501 -0.00000000000E+00  0.00000000000E+00  0.41713231496E+03  0.41713231496E+03  0.00000000000E+00 0.  1.
          3   -1    0    0  501    0  0.00000000000E+00 -0.00000000000E+00 -0.29297816200E+02  0.29297816200E+02  0.00000000000E+00 0. -1.
         25    2    1    2    0    0 -0.23346257372E+02 -0.19042601935E+01  0.21379615122E+03  0.24880874028E+03  0.12509324930E+03 0.  0.
          5    1    3    3  502    0  0.30465247961E+02  0.41676742203E+02  0.13053589776E+03  0.14043566206E+03  0.41800000000E+01 0. -1.
         -5    1    3    3    0  502 -0.53811505333E+02 -0.43581002397E+02  0.83260253458E+02  0.10837307822E+03  0.41800000000E+01 0. -1.
        -11    1    1    2    0    0  0.13376804737E+02  0.45854967236E+02  0.76723949141E+02  0.90377991220E+02  0.00000000000E+00 0. -1.
         11    1    1    2    0    0  0.99694526348E+01 -0.43950707042E+02  0.97314398400E+02  0.10724339966E+03  0.00000000000E+00 0.  1.
</event>
<event>
 7    1  0.2844572E-009  0.1286714E+03  0.7561462E-02  0.1229441E+00
          1   -1    0    0  501    0  0.00000000000E+00  0.00000000000E+00  0.40510006239E+03  0.40510006239E+03  0.00000000000E+00 0. -1.
         -1   -1    0    0    0  501 -0.00000000000E+00 -0.00000000000E+00 -0.49663745619E+02  0.49663745619E+02  0.00000000000E+00 0.  1.
         25    2    1    2    0    0 -0.81653224328E+02  0.30892076685E+02  0.20469046429E+03  0.25527691527E+03  0.12508616173E+03 0.  0.
          5    1    3    3  502    0 -0.84124609652E+02 -0.10836503485E+02  0.19423026008E+03  0.21198407036E+03  0.41800000000E+01 0.  1.
         -5    1    3    3    0  502  0.24713853238E+01  0.41728580170E+02  0.10460204210E+02  0.43292844912E+02  0.41800000000E+01 0.  1.
        -11    1    1    2    0    0  0.74101963243E+02 -0.63100476991E+02  0.11768256961E+03  0.15271528523E+03  0.00000000000E+00 0. -1.
         11    1    1    2    0    0  0.75512610854E+01  0.32208400306E+02  0.33063282875E+02  0.46771607506E+02  0.00000000000E+00 0.  1.
</event>
<event>
 7    1  0.2844572E-009  0.2993449E+03  0.7561462E-02  0.1085569E+00
          1   -1    0    0  501    0  0.00000000000E+00  0.00000000000E+00  0.18390902841E+03  0.18390902841E+03  0.00000000000E+00 0. -1.
         -1   -1    0    0    0  501 -0.00000000000E+00 -0.00000000000E+00 -0.53282673020E+03  0.53282673020E+03  0.00000000000E+00 0.  1.
         25    2    1    2    0    0 -0.28992156023E+03 -0.71677836680E+00 -0.22842805498E+03  0.38972100614E+03  0.12509221184E+03 0.  0.
          5    1    3    3  502    0 -0.18025534148E+03  0.50406791842E+02 -0.96371099060E+02  0.21056517740E+03  0.41800000000E+01 0. -1.
         -5    1    3    3    0  502 -0.10966621875E+03 -0.51123570209E+02 -0.13205695592E+03  0.17915582875E+03  0.41800000000E+01 0. -1.
        -11    1    1    2    0    0  0.25873007691E+03 -0.45509107038E+01 -0.13538920318E+03  0.29204828338E+03  0.00000000000E+00 0.  1.
         11    1    1    2    0    0  0.31191483325E+02  0.52676890706E+01  0.14899556374E+02  0.34966469085E+02  0.00000000000E+00 0. -1.
</event>
<event>
 7    1  0.2844572E-009  0.1319966E+03  0.7561462E-02  0.1224523E+00
          1   -1    0    0  501    0  0.00000000000E+00  0.00000000000E+00  0.22517556478E+03  0.22517556478E+03  0.00000000000E+00 0. -1.
         -1   -1    0    0    0  501 -0.00000000000E+00 -0.00000000000E+00 -0.92332505278E+02  0.92332505278E+02  0.00000000000E+00 0.  1.
         25    2    1    2    0    0  0.87246213153E+01 -0.94248372166E+02  0.86230584235E+02  0.17900328290E+03  0.12509031521E+03 0.  0.
          5    1    3    3  502    0 -0.52685320397E+02 -0.48551634586E+02  0.70785867601E+02  0.10080235939E+03  0.41800000000E+01 0.  1.
         -5    1    3    3    0  502  0.61409941713E+02 -0.45696737580E+02  0.15444716635E+02  0.78200923515E+02  0.41800000000E+01 0.  1.
        -11    1    1    2    0    0  0.24499300080E+02  0.12886070696E+02 -0.14703892727E+02  0.31344393178E+02  0.00000000000E+00 0.  1.
         11    1    1    2    0    0 -0.33223921395E+02  0.81362301471E+02  0.61316367996E+02  0.10716039398E+03  0.00000000000E+00 0. -1.
</event>
<event>
 7    1  0.2844572E-009  0.1240772E+03  0.7561462E-02  0.1236518E+00
          1   -1    0    0  501    0  0.00000000000E+00  0.00000000000E+00  0.78643967121E+03  0.78643967121E+03  0.00000000000E+00 0. -1.
         -1   -1    0    0    0  501 -0.00000000000E+00 -0.00000000000E+00 -0.20580651169E+02  0.20580651169E+02  0.00000000000E+00 0.  1.
         25    2    1    2    0    0 -0.57173174790E+02 -0.29222652456E+02  0.39020935917E+03  0.41476937362E+03  0.12509018338E+03 0.  0.
          5    1    3    3  502    0 -0.73259268172E+02 -0.65423306187E+02  0.23966549391E+03  0.25904468868E+03  0.41800000000E+01 0. -1.
         -5    1    3    3    0  502  0.16086093382E+02  0.36200653732E+02  0.15054386526E+03  0.15572468494E+03  0.41800000000E+01 0. -1.
        -11    1    1    2    0    0  0.73361493212E+02 -0.35626461263E+01  0.28931899444E+03  0.29849636795E+03  0.00000000000E+00 0. -1.
         11    1    1    2    0    0 -0.16188318422E+02  0.32785298582E+02  0.86330666434E+02  0.93754580813E+02  0.00000000000E+00 0.  1.
</event>
<event>
 7    1  0.2844572E-009  0.1324146E+03  0.7561462E-02  0.1223916E+00
         -1   -1    0    0    0  501 -0.00000000000E+00  0.00000000000E+00  0.75545382023E+03  0.75545382023E+03  0.00000000000E+00 0.  1.
          1   -1    0    0  501    0  0.00000000000E+00 -0.00000000000E+00 -0.26322827723E+02  0.26322827723E+02  0.00000000000E+00 0. -1.
         25    2    1    2    0    0 -0.68290445020E+02  0.54777959591E+02  0.41727319709E+03  0.44432862649E+03  0.12508715990E+03 0.  0.
          5    1    3    3  502    0 -0.93163519879E+02  0.20946946599E+01  0.28056031190E+03  0.29566093789E+03  0.41800000000E+01 0.  1.
         -5    1    3    3    0  502  0.24873074858E+02  0.52683264931E+02  0.13671288519E+03  0.14866768860E+03  0.41800000000E+01 0.  1.
        -11    1    1    2    0    0  0.53575405047E+02 -0.72472475046E+02  0.29621275594E+03  0.30962005821E+03  0.00000000000E+00 0.  1.
         11    1    1    2    0    0  0.14715039973E+02  0.17694515455E+02  0.15645039487E+02  0.27827963259E+02  0.00000000000E+00 0. -1.
</event>
<event>
 7    1  0.2844572E-009  0.1148990E+03  0.7561462E-02  0.1251758E+00
          1   -1    0    0  501    0  0.00000000000E+00  0.00000000000E+00  0.17352193294E+03  0.17352193294E+03  0.00000000000E+00 0. -1.
         -1   -1    0    0    0  501 -0.00000000000E+00 -0.00000000000E+00 -0.13786249216E+03  0.13786249216E+03  0.00000000000E+00 0.  1.
         25    2    1    2    0    0 -0.70279663307E+02 -0.31396110077E+02 -0.59660202100E+02  0.15853246033E+03  0.12509298326E+03 0.  0.
          5    1    3    3  502    0 -0.51461415320E+02 -0.78989328718E+02 -0.48014696121E+02  0.10587952947E+03  0.41800000000E+01 0. -1.
         -5    1    3    3    0  502 -0.18818247987E+02  0.47593218641E+02 -0.11645505978E+02  0.52652930853E+02  0.41800000000E+01 0. -1.
        -11    1    1    2    0    0  0.44892278872E+02  0.15770374639E+01 -0.49633633309E+01  0.45193348239E+02  0.00000000000E+00 0.  1.
         11    1    1    2    0    0  0.25387384435E+02  0.29819072613E+02  0.10028300621E+03  0.10765861654E+03  0.00000000000E+00 0. -1.
</event>
<event>
 7    1  0.2844572E-009  0.1009688E+03  0.7561462E-02  0.1278272E+00
          2   -1    0    0  501    0  0.00000000000E+00  0.00000000000E+00  0.13932471814E+03  0.13932471814E+03  0.00000000000E+00 0. -1.
         -2   -1    0    0    0  501 -0.00000000000E+00 -0.00000000000E+00 -0.93009179721E+02  0.93009179721E+02  0.00000000000E+00 0.  1.
         25    2    1    2    0    0  0.27842889024E+02  0.10577268618E+02  0.43612539183E+02  0.13578248445E+03  0.12509086469E+03 0.  0.
          5    1    3    3  502    0  0.28382115727E+02  0.57136342237E+02  0.58561815482E+02  0.86701007664E+02  0.41800000000E+01 0.  1.
         -5    1    3    3    0  502 -0.53922670293E+00 -0.46559073619E+02 -0.14949276298E+02  0.49081476787E+02  0.41800000000E+01 0.  1.
        -11    1    1    2    0    0  0.15015507219E+02  0.29165959293E+02 -0.14142074650E+02  0.35722778642E+02  0.00000000000E+00 0.  1.
         11    1    1    2    0    0 -0.42858396243E+02 -0.39743227911E+02  0.16845073883E+02  0.60828634765E+02  0.00000000000E+00 0. -1.
</event>
<event>
 7    1  0.3065178E-009  0.1192716E+03  0.7561462E-02  0.1244304E+00
          2   -1    0    0  501    0  0.00000000000E+00  0.00000000000E+00  0.49654061890E+03  0.49654061890E+03  0.00000000000E+00 0. -1.
         -2   -1    0    0    0  501 -0.00000000000E+00 -0.00000000000E+00 -0.48864759620E+02  0.48864759620E+02  0.00000000000E+00 0.  1.
         25    2    1    2    0    0 -0.81327844208E+02 -0.54557057742E+02  0.14740783813E+03  0.21671775960E+03  0.12508727270E+03 0.  0.
          5    1    3    3  502    0 -0.19859944695E+02 -0.45052200005E+02  0.14624620551E+03  0.15436820642E+03  0.41800000000E+01 0. -1.
         -5    1    3    3    0  502 -0.61467899513E+02 -0.95048577371E+01  0.11616326242E+01  0.62349553178E+02  0.41800000000E+01 0. -1.
        -11    1    1    2    0    0  0.38886238952E+02  0.71261899447E+02  0.23826577394E+03  0.25171606410E+03  0.00000000000E+00 0. -1.
         11    1    1    2    0    0  0.42441605256E+02 -0.16704841706E+02  0.62002247201E+02  0.76971554818E+02  0.00000000000E+00 0.  1.
</event>
<event>
 7    1  0.2844572E-009  0.9780431E+02  0.7561462E-02  0.1284982E+00
         -1   -1    0    0    0  501 -0.00000000000E+00  0.00000000000E+00  0.22421853486E+03  0.22421853486E+03  0.00000000000E+00 0.  1.
          1   -1    0    0  501    0  0.00000000000E+00 -0.00000000000E+00 -0.80290305195E+02  0.80290305195E+02  0.00000000000E+00 0. -1.
         25    2    1    2    0    0 -0.24777298309E+02 -0.59994052444E+02  0.28090359658E+02  0.14369890906E+03  0.12508839802E+03 0.  0.
          5    1    3    3  502    0 -0.34127529687E+02  0.23788437250E+02  0.40708972706E+02  0.58354698938E+02  0.41800000000E+01 0.  1.
         -5    1    3    3    0  502  0.93502313783E+01 -0.83782489694E+02 -0.12618613048E+02  0.85344210122E+02  0.41800000000E+01 0.  1.
        -11    1    1    2    0    0  0.29679063617E+02  0.47983252438E+02  0.12993291626E+03  0.14165381060E+03  0.00000000000E+00 0.  1.
         11    1    1    2    0    0 -0.49017653081E+01  0.12010800007E+02 -0.14095046245E+02  0.19156120395E+02  0.00000000000E+00 0. -1.
</event>
<event>
 7    1  0.2844572E-009  0.9095301E+02  0.7561462E-02  0.1300560E+00
          2   -1    0    0  501    0  0.00000000000E+00  0.00000000000E+00  0.17541926301E+04  0.17541926301E+04  0.00000000000E+00 0. -1.
         -2   -1    0    0    0  501 -0.00000000000E+00 -0.00000000000E+00 -0.84693626436E+01  0.84693626436E+01  0.00000000000E+00 0.  1.
         25    2    1    2    0    0  0.43347599506E+02 -0.44438736098E+02  0.13144112684E+04  0.13218087887E+04  0.12509066971E+03 0.  0.
          5    1    3    3  502    0 -0.17052095163E+02 -0.42238875659E+01  0.27824562799E+02  0.33170677873E+02  0.41800000000E+01 0.  1.
         -5    1    3    3    0  502  0.60399694669E+02 -0.40214848533E+02  0.12865867056E+04  0.12886381108E+04  0.41800000000E+01 0.  1.
        -11    1    1    2    0    0  0.17926048452E+02  0.63479904998E+01  0.96474975277E+02  0.98331383857E+02  0.00000000000E+00 0. -1.
         11    1    1    2    0    0 -0.61273647958E+02  0.38090745599E+02  0.33483702381E+03  0.34252182025E+03  0.00000000000E+00 0.  1.
</event>
<event>
 7    1  0.3434132E-009  0.8879277E+02  0.7561462E-02  0.1305802E+00
          2   -1    0    0  501    0  0.00000000000E+00  0.00000000000E+00  0.25143640369E+04  0.25143640369E+04  0.00000000000E+00 0. -1.
         -2   -1    0    0    0  501 -0.00000000000E+00 -0.00000000000E+00 -0.10997893452E+02  0.10997893452E+02  0.00000000000E+00 0.  1.
         25    2    1    2    0    0 -0.70661050308E+01 -0.46009808632E+02  0.22109704235E+04  0.22149953432E+04  0.12508926484E+03 0.  0.
          5    1    3    3  502    0  0.28743068551E+02  0.89865946397E+01  0.16350667841E+04  0.16353494378E+04  0.41800000000E+01 0. -1.
         -5    1    3    3    0  502 -0.35809173582E+02 -0.54996403271E+02  0.57590363945E+03  0.57964590537E+03  0.41800000000E+01 0. -1.
        -11    1    1    2    0    0  0.36300707863E+02  0.16473167895E+02  0.47687844776E+02  0.62154945026E+02  0.00000000000E+00 0.  1.
         11    1    1    2    0    0 -0.29234602832E+02  0.29536640736E+02  0.24470787513E+03  0.24821164215E+03  0.00000000000E+00 0. -1.
</event>
<event>
 7    1  0.2844572E-009  0.9409695E+02  0.7561462E-02  0.1293223E+00
         -1   -1    0    0    0  501 -0.00000000000E+00  0.00000000000E+00  0.55322643328E+03  0.55322643328E+03  0.00000000000E+00 0.  1.
          1   -1    0    0  501    0  0.00000000000E+00 -0.00000000000E+00 -0.30650660045E+02  0.30650660045E+02  0.00000000000E+00 0. -1.
         25    2    1    2    0    0  0.39961036091E+02 -0.17116380353E+02  0.29010217818E+03  0.31889893763E+03  0.12508958291E+03 0.  0.
          5    1    3    3  502    0 -0.68594063723E+01  0.16078175818E+02 -0.46637882762E+01  0.18568320185E+02  0.41800000000E+01 0. -1.
         -5    1    3    3    0  502  0.46820442464E+02 -0.33194556171E+02  0.29476596646E+03  0.30033061744E+03  0.41800000000E+01 0. -1.
        -11    1    1    2    0    0 -0.45387569505E-01 -0.41641610959E+02  0.15217592764E+03  0.15777052569E+03  0.00000000000E+00 0.  1.
         11    1    1    2    0    0 -0.39915648522E+02  0.58757991312E+02  0.80297667416E+02  0.10720763001E+03  0.00000000000E+00 0. -1.
</event>
<event>
 7    1  0.2921019E-009  0.1209416E+03  0.7561462E-02  0.1241552E+00
          2   -1    0    0  501    0  0.00000000000E+00  0.00000000000E+00  0.29368739818E+03  0.29368739818E+03  0.00000000000E+00 0. -1.
         -2   -1    0    0    0  501 -0.00000000000E+00 -0.00000000000E+00 -0.67910264016E+02  0.67910264016E+02  0.00000000000E+00 0.  1.
         25    2    1    2    0    0 -0.19309117704E+02 -0.87248468791E+02  0.11102291829E+03  0.18962753553E+03  0.12508947403E+03 0.  0.
          5    1    3    3  502    0 -0.34617492454E+02 -0.10904926555E+03  0.54070754168E+02  0.12661450137E+03  0.41800000000E+01 0. -1.
         -5    1    3    3    0  502  0.15308374751E+02  0.21800796754E+02  0.56952164120E+02  0.63013034164E+02  0.41800000000E+01 0. -1.
        -11    1    1    2    0    0 -0.32487793058E+01  0.74397613345E+02  0.12380533393E+03  0.14447601928E+03  0.00000000000E+00 0. -1.
         11    1    1    2    0    0  0.22557897009E+02  0.12850855447E+02 -0.90511180476E+01  0.27494107389E+02  0.00000000000E+00 0.  1.
</event>
<event>
 7    1  0.2844572E-009  0.1532911E+03  0.7561462E-02  0.1196486E+00
          2   -1    0    0  501    0  0.00000000000E+00  0.00000000000E+00  0.64343752790E+03  0.64343752790E+03  0.00000000000E+00 0. -1.
         -2   -1    0    0    0  501 -0.00000000000E+00 -0.00000000000E+00 -0.54238454082E+02  0.54238454082E+02  0.00000000000E+00 0.  1.
         25    2    1    2    0    0  0.11365808500E+03 -0.24933564625E+02  0.12501471600E+03  0.21169458185E+03  0.12508426696E+03 0.  0.
          5    1    3    3  502    0  0.24034413491E+02 -0.65769705471E+02  0.68600439251E+02  0.98116256834E+02  0.41800000000E+01 0.  1.
         -5    1    3    3    0  502  0.89623671504E+02  0.40836140846E+02  0.56414276746E+02  0.11357832502E+03  0.41800000000E+01 0.  1.
        -11    1    1    2    0    0 -0.50627699916E+02 -0.25912986762E+02  0.26360840018E+03  0.26967394299E+03  0.00000000000E+00 0. -1.
         11    1    1    2    0    0 -0.63030385079E+02  0.50846551387E+02  0.20057595764E+03  0.21630745714E+03  0.00000000000E+00 0.  1.
</event>
<event>
 7    1  0.2844572E-009  0.8200365E+02  0.7561462E-02  0.1323460E+00
          1   -1    0    0  501    0  0.00000000000E+00  0.00000000000E+00  0.58876211439E+02  0.58876211439E+02  0.00000000000E+00 0. -1.
         -1   -1    0    0    0  501 -0.00000000000E+00 -0.00000000000E+00 -0.65405392995E+03  0.65405392995E+03  0.00000000000E+00 0.  1.
         25    2    1    2    0    0  0.48554168327E+02 -0.21295558392E+02 -0.59207555706E+03  0.60746337484E+03  0.12508908199E+03 0.  0.
          5    1    3    3  502    0  0.67403584620E+02 -0.19726499100E+02 -0.15800467551E+03  0.17296048066E+03  0.41800000000E+01 0. -1.
         -5    1    3    3    0  502 -0.18849416293E+02 -0.15690592922E+01 -0.43407088155E+03  0.43450289418E+03  0.41800000000E+01 0. -1.
        -11    1    1    2    0    0  0.10485360356E+02 -0.22424676699E+01  0.31376830216E+02  0.33158361200E+02  0.00000000000E+00 0. -1.
         11    1    1    2    0    0 -0.59039528682E+02  0.23538026062E+02 -0.34478991667E+02  0.72308405350E+02  0.00000000000E+00 0.  1.
</event>
<event>
 7    1  0.2844572E-009  0.1315676E+03  0.7561462E-02  0.1225148E+00
         -1   -1    0    0    0  501 -0.00000000000E+00  0.00000000000E+00  0.53476543803E+02  0.53476543803E+02  0.00000000000E+00 0.  1.
          1   -1    0    0  501    0  0.00000000000E+00 -0.00000000000E+00 -0.41005685432E+03  0.41005685432E+03  0.00000000000E+00 0. -1.
         25    2    1    2    0    0  0.91172530316E+02  0.40088031239E+02 -0.20736586779E+03  0.26185575487E+03  0.12509337592E+03 0.  0.
          5    1    3    3  502    0  0.10382422579E+03  0.47300952193E+02 -0.95144756716E+02  0.14861644280E+03  0.41800000000E+01 0. -1.
         -5    1    3    3    0  502 -0.12651695471E+02 -0.72129209538E+01 -0.11222111108E+03  0.11323931207E+03  0.41800000000E+01 0. -1.
        -11    1    1    2    0    0 -0.71289146612E+02 -0.68679736562E+02 -0.94729763887E+02  0.13701378327E+03  0.00000000000E+00 0.  1.
         11    1    1    2    0    0 -0.19883383705E+02  0.28591705323E+02 -0.54484678842E+02  0.64663859994E+02  0.00000000000E+00 0. -1.
</event>
<event>
 7    1  0.2844572E-009  0.3125492E+03  0.7561462E-02  0.1079130E+00
         -1   -1    0    0    0  501 -0.00000000000E+00  0.00000000000E+00  0.74306280524E+02  0.74306280524E+02  0.00000000000E+00 0.  1.
          1   -1    0    0  501    0  0.00000000000E+00 -0.00000000000E+00 -0.15198588145E+04  0.15198588145E+04  0.00000000000E+00 0. -1.
         25    2    1    2    0    0 -0.11449643117E+03 -0.28714238141E+03 -0.55976096520E+03  0.65156736749E+03  0.12509003265E+03 0.  0.
          5    1    3    3  502    0 -0.74313322823E+02 -0.10214042157E+03 -0.12689755369E+03  0.17909661415E+03  0.41800000000E+01 0. -1.
         -5    1    3    3    0  502 -0.40183108348E+02 -0.18500195984E+03 -0.43286341151E+03  0.47247075334E+03  0.41800000000E+01 0. -1.
        -11    1    1    2    0    0  0.63278961549E+02  0.17432563122E+03 -0.65379977165E+03  0.67959384494E+03  0.00000000000E+00 0.  1.
         11    1    1    2    0    0  0.51217469621E+02  0.11281675019E+03 -0.23199179709E+03  0.26300388254E+03  0.00000000000E+00 0. -1.
</event>
<event>
 7    1  0.2844572E-009  0.8199000E+02  0.7561462E-02  0.1323497E+00
          1   -1    0    0  501    0  0.00000000000E+00  0.00000000000E+00  0.28056419927E+03  0.28056419927E+03  0.00000000000E+00 0. -1.
         -1   -1    0    0    0  501 -0.00000000000E+00 -0.00000000000E+00 -0.64064504784E+02  0.64064504784E+02  0.00000000000E+00 0.  1.
         25    2    1    2    0    0 -0.58796344355E+02 -0.46473751640E+02  0.14878379418E+03  0.20832720213E+03  0.12508711378E+03 0.  0.
          5    1    3    3  502    0 -0.43205606106E+02 -0.71396415385E+01 -0.90116021043E+01  0.44904122893E+02  0.41800000000E+01 0.  1.
         -5    1    3    3    0  502 -0.15590738249E+02 -0.39334110101E+02  0.15779539629E+03  0.16342307923E+03  0.41800000000E+01 0.  1.
        -11    1    1    2    0    0  0.32361756245E+02  0.37552198799E+02 -0.12708149374E+02  0.51175657909E+02  0.00000000000E+00 0.  1.
         11    1    1    2    0    0  0.26434588110E+02  0.89215528404E+01  0.80424049675E+02  0.85125844018E+02  0.00000000000E+00 0. -1.
</event>
<event>
 7    1  0.2844572E-009  0.2058372E+03  0.7561462E-02  0.1144906E+00
          1   -1    0    0  501    0  0.00000000000E+00  0.00000000000E+00  0.13638684205E+04  0.13638684205E+04  0.00000000000E+00 0. -1.
         -1   -1    0    0    0  501 -0.00000000000E+00 -0.00000000000E+00 -0.36617901020E+02  0.36617901020E+02  0.00000000000E+00 0.  1.
         25    2    1    2    0    0  0.82900821349E+02 -0.17390705594E+03  0.58901899918E+03  0.63222472156E+03  0.12509399214E+03 0.  0.
          5    1    3    3  502    0 -0.85737824809E+01 -0.36631572145E+02  0.27037332060E+02  0.46517432740E+02  0.41800000000E+01 0.  1.
         -5    1    3    3    0  502  0.91474603830E+02 -0.13727548380E+03  0.56198166712E+03  0.58570728882E+03  0.41800000000E+01 0.  1.
        -11    1    1    2    0    0 -0.66927569447E+02  0.49161321833E+02  0.22469356681E+03  0.23954818739E+03  0.00000000000E+00 0. -1.
         11    1    1    2    0    0 -0.15973251902E+02  0.12474573411E+03  0.51353795346E+03  0.52871341254E+03  0.00000000000E+00 0.  1.
</event>
<event>
 7    1  0.2844572E-009  0.3093764E+03  0.7561462E-02  0.1080645E+00
         -1   -1    0    0    0  501 -0.00000000000E+00  0.00000000000E+00  0.49927449972E+03  0.49927449972E+03  0.00000000000E+00 0.  1.
          1   -1    0    0  501    0  0.00000000000E+00 -0.00000000000E+00 -0.24448883085E+03  0.24448883085E+03  0.00000000000E+00 0. -1.
         25    2    1    2    0    0 -0.19784455785E+03 -0.21433857442E+03 -0.38194909471E+02  0.31967032598E+03  0.12508706025E+03 0.  0.
          5    1    3    3  502    0  0.32000316655E+01  0.11316611483E+02 -0.10209451801E+02  0.16124862920E+02  0.41800000000E+01 0. -1.
         -5    1    3    3    0  502 -0.20104458952E+03 -0.22565518590E+03 -0.27985457669E+02  0.30354546306E+03  0.41800000000E+01 0. -1.
        -11    1    1    2    0    0  0.14289914738E+03  0.20244914036E+03  0.21571577457E+03  0.32854088962E+03  0.00000000000E+00 0.  1.
         11    1    1    2    0    0  0.54945410476E+02  0.11889434060E+02  0.77264803772E+02  0.95552114977E+02  0.00000000000E+00 0. -1.
</event>
<event>
 7    1  0.2844572E-009  0.1602587E+03  0.7561462E-02  0.1188405E+00
          1   -1    0    0  501    0  0.00000000000E+00  0.00000000000E+00  0.24122857668E+03  0.24122857668E+03  0.00000000000E+00 0. -1.
         -1   -1    0    0    0  501 -0.00000000000E+00 -0.00000000000E+00 -0.12114033098E+03  0.12114033098E+03  0.00000000000E+00 0.  1.
         25    2    1    2    0    0 -0.69996351604E+02 -0.10227621385E+03  0.10816601621E+03  0.20665793115E+03  0.12509076819E+03 0.  0.
          5    1    3    3  502    0 -0.89196328622E+02 -0.22800954521E+02  0.41466601341E+02  0.10105849788E+03  0.41800000000E+01 0. -1.
         -5    1    3    3    0  502  0.19199977018E+02 -0.79475259332E+02  0.66699414873E+02  0.10559943327E+03  0.41800000000E+01 0. -1.
        -11    1    1    2    0    0  0.69616127174E+02  0.32701863062E+02  0.31986340992E+02  0.83300318249E+02  0.00000000000E+00 0. -1.
         11    1    1    2    0    0  0.38022443017E+00  0.69574350792E+02 -0.20064111506E+02  0.72410658257E+02  0.00000000000E+00 0.  1.
</event>
<event>
 7    1  0.2844572E-009  0.1017944E+03  0.7561462E-02  0.1276567E+00
          1   -1    0    0  501    0  0.00000000000E+00  0.00000000000E+00  0.34440576720E+03  0.34440576720E+03  0.00000000000E+00 0. -1.
         -1   -1    0    0    0  501 -0.00000000000E+00 -0.00000000000E+00 -0.37098812514E+02  0.37098812514E+02  0.00000000000E+00 0.  1.
         25    2    1    2    0    0 -0.31523768189E+02  0.93581425723E+01  0.18025716977E+03  0.22185841166E+03  0.12508870763E+03 0.  0.
          5    1    3    3  502    0 -0.84239935440E+00 -0.44549259671E+02  0.14194645476E+03  0.14883418489E+03  0.41800000000E+01 0.  1.
         -5    1    3    3    0  502 -0.30681368835E+02  0.53907402243E+02  0.38310715011E+02  0.73024226766E+02  0.41800000000E+01 0.  1.
        -11    1    1    2    0    0  0.60668171159E+02  0.10268918169E+02  0.80305394488E+02  0.10116834513E+03  0.00000000000E+00 0. -1.
         11    1    1    2    0    0 -0.29144402970E+02 -0.19627060741E+02  0.46744390425E+02  0.58477822925E+02  0.00000000000E+00 0.  1.
</event>
<event>
 7    1  0.2844572E-009  0.1563829E+03  0.7561462E-02  0.1192842E+00
         -2   -1    0    0    0  501 -0.00000000000E+00  0.00000000000E+00  0.11955207822E+03  0.11955207822E+03  0.00000000000E+00 0. -1.
          2   -1    0    0  501    0  0.00000000000E+00 -0.00000000000E+00 -0.27697858166E+03  0.27697858166E+03  0.00000000000E+00 0.  1.
         25    2    1    2    0    0  0.79173973116E+02  0.11242261273E+03 -0.29956950667E+02  0.18828802605E+03  0.12509036729E+03 0.  0.
          5    1    3    3  502    0  0.94754067037E+02  0.11727298304E+03 -0.52891715116E+02  0.15983207344E+03  0.41800000000E+01 0.  1.
         -5    1    3    3    0  502 -0.15580093921E+02 -0.48503703141E+01  0.22934764449E+02  0.28455952613E+02  0.41800000000E+01 0.  1.
        -11    1    1    2    0    0 -0.23389370937E+02 -0.73345434011E+02 -0.17594078199E+02  0.78969405156E+02  0.00000000000E+00 0. -1.
         11    1    1    2    0    0 -0.55784602178E+02 -0.39077178719E+02 -0.10987547458E+03  0.12927322867E+03  0.00000000000E+00 0.  1.
</event>
<event>
 6    1  0.2844572E-009  0.9263739E+02  0.7561462E-02  0.1296588E+00
         -2   -1    0    0    0  501 -0.00000000000E+00  0.00000000000E+00  0.76650798590E+02  0.76650798590E+02  0.00000000000E+00 0.  1.
          2   -1    0    0  501    0  0.00000000000E+00 -0.00000000000E+00 -0.21243391449E+03  0.21243391449E+03  0.00000000000E+00 0. -1.
          5    1    1    2  502    0 -0.25264163153E+02  0.56629406573E+01 -0.88345898462E+02  0.92156481117E+02  0.41800000000E+01 0.  1.
         -5    1    1    2    0  502  0.17102043189E+02 -0.71310271450E+02  0.23284812111E+01  0.73488291042E+02  0.41800000000E+01 0.  1.
        -11    1    1    2    0    0  0.29060388902E+02  0.19665505690E+02  0.17589572396E+02  0.39250877369E+02  0.00000000000E+00 0.  1.
         11    1    1    2    0    0 -0.20898268938E+02  0.45981825103E+02 -0.67355271047E+02  0.84189063555E+02  0.00000000000E+00 0. -1.
</event>
<event>
 7    1  0.2844572E-009  0.1210086E+03  0.7561462E-02  0.1241442E+00
         -4   -1    0    0    0  501 -0.00000000000E+00  0.00000000000E+00  0.36260043170E+03  0.36260043170E+03  0.00000000000E+00 0.  1.
          4   -1    0    0  501    0  0.00000000000E+00 -0.00000000000E+00 -0.55176311471E+02  0.55176311471E+02  0.00000000000E+00 0. -1.
         25    2    1    2    0    0 -0.22657585491E+02 -0.62286930600E+02  0.24641454796E+03  0.28418201945E+03  0.12508502240E+03 0.  0.
          5    1    3    3  502    0 -0.64828986513E+02 -0.21586051741E+02  0.68609953852E+02  0.96920345076E+02  0.41800000000E+01 0.  1.
         -5    1    3    3    0  502  0.42171401023E+02 -0.40700878859E+02  0.17780459411E+03  0.18726167438E+03  0.41800000000E+01 0.  1.
        -11    1    1    2    0    0  0.58974155104E+02  0.46952119069E+02  0.22948207163E+02  0.78797669174E+02  0.00000000000E+00 0. -1.
         11    1    1    2    0    0 -0.36316569613E+02  0.15334811531E+02  0.38061365106E+02  0.54797054546E+02  0.00000000000E+00 0.  1.
</event>
<event>
 7    1  0.2844572E-009  0.7664419E+02  0.7561462E-02  0.1338854E+00
         -1   -1    0    0    0  501 -0.00000000000E+00  0.00000000000E+00  0.32117395295E+02  0.32117395295E+02  0.00000000000E+00 0.  1.
          1   -1    0    0  501    0  0.00000000000E+00 -0.00000000000E+00 -0.46684121034E+03  0.46684121034E+03  0.00000000000E+00 0. -1.
         25    2    1    2    0    0  0.45770626594E+01  0.48512073751E+02 -0.31781161605E+03  0.34500087450E+03  0.12508800623E+03 0.  0.
          5    1    3    3  502    0 -0.88073126865E+00 -0.45400636990E+01 -0.27860885983E+03  0.27867859092E+03  0.41800000000E+01 0. -1.
         -5    1    3    3    0  502  0.54577939281E+01  0.53052137450E+02 -0.39202756229E+02  0.66322283575E+02  0.41800000000E+01 0. -1.
        -11    1    1    2    0    0 -0.29953911778E+01 -0.70976080359E+02 -0.10896551646E+03  0.13007713146E+03  0.00000000000E+00 0.  1.
         11    1    1    2    0    0 -0.15816714816E+01  0.22464006608E+02 -0.79466825266E+01  0.23880599673E+02  0.00000000000E+00 0. -1.
</event>
<event>
 7    1  0.6565876E-009  0.1630258E+03  0.7561462E-02  0.1185322E+00
          2   -1    0    0  501    0  0.00000000000E+00  0.00000000000E+00  0.10251416596E+04  0.10251416596E+04  0.00000000000E+00 0. -1.
         -2   -1    0    0    0  501 -0.00000000000E+00 -0.00000000000E+00 -0.36685179852E+02  0.36685179852E+02  0.00000000000E+00 0.  1.
         25    2    1    2    0    0  0.87479469670E+02  0.13288329325E+03  0.46442370979E+03  0.50660372027E+03  0.12508924788E+03 0.  0.
          5    1    3    3  502    0 -0.44031038047E-01  0.24075494492E+02  0.24674140385E+03  0.24794843042E+03  0.41800000000E+01 0.  1.
         -5    1    3    3    0  502  0.87523500708E+02  0.10880779875E+03  0.21768230594E+03  0.25865528985E+03  0.41800000000E+01 0.  1.
        -11    1    1    2    0    0 -0.27441260683E+02 -0.68942019810E+02  0.37520929605E+03  0.38247619628E+03  0.00000000000E+00 0. -1.
         11    1    1    2    0    0 -0.60038208987E+02 -0.63941273436E+02  0.14882347394E+03  0.17274692294E+03  0.00000000000E+00 0.  1.
</event>
<event>
 7    1  0.2844572E-009  0.1257971E+03  0.7561462E-02  0.1233829E+00
          2   -1    0    0  501    0  0.00000000000E+00  0.00000000000E+00  0.43158544923E+02  0.43158544923E+02  0.00000000000E+00 0.  1.
         -2   -1    0    0    0  501 -0.00000000000E+00 -0.00000000000E+00 -0.68328855017E+03  0.68328855017E+03  0.00000000000E+00 0. -1.
         25    2    1    2    0    0 -0.86048037424E+02 -0.36790066507E+02 -0.54118013643E+03  0.56328040482E+03  0.12510435900E+03 0.  0.
          5    1    3    3  502    0  0.17899112383E+02  0.27502293451E+02 -0.14114259232E+03  0.14496709329E+03  0.41800000000E+01 0. -1.
         -5    1    3    3    0  502 -0.10394714981E+03 -0.64292359959E+02 -0.40003754411E+03  0.41831331153E+03  0.41800000000E+01 0. -1.
        -11    1    1    2    0    0  0.20251535053E+02  0.19672848784E+02  0.13861297284E+02  0.31452841107E+02  0.00000000000E+00 0.  1.
         11    1    1    2    0    0  0.65796502370E+02  0.17117217723E+02 -0.11281116609E+03  0.13171384917E+03  0.00000000000E+00 0. -1.
</event>
<event>
 7    1  0.3139769E-009  0.9308390E+02  0.7561462E-02  0.1295551E+00
          3   -1    0    0  501    0  0.00000000000E+00  0.00000000000E+00  0.34602176839E+03  0.34602176839E+03  0.00000000000E+00 0. -1.
         -3   -1    0    0    0  501 -0.00000000000E+00 -0.00000000000E+00 -0.49562441296E+02  0.49562441296E+02  0.00000000000E+00 0.  1.
         25    2    1    2    0    0  0.40023399386E+02 -0.30636789545E+02  0.83801231949E+02  0.15877897384E+03  0.12509048999E+03 0.  0.
          5    1    3    3  502    0  0.50777710542E+02  0.50347121593E+01  0.10419947781E+03  0.11609792328E+03  0.41800000000E+01 0.  1.
         -5    1    3    3    0  502 -0.10754311156E+02 -0.35671501705E+02 -0.20398245864E+02  0.42681050557E+02  0.41800000000E+01 0.  1.
        -11    1    1    2    0    0  0.23302565699E+02 -0.63377288925E+01  0.22533740804E+02  0.33029469421E+02  0.00000000000E+00 0.  1.
         11    1    1    2    0    0 -0.63325965085E+02  0.36974518438E+02  0.19012435434E+03  0.20377576642E+03  0.00000000000E+00 0. -1.
</event>
<event>
 7    1  0.2844572E-009  0.1339140E+03  0.7561462E-02  0.1221761E+00
          3   -1    0    0  501    0  0.00000000000E+00  0.00000000000E+00  0.25329900269E+03  0.25329900269E+03  0.00000000000E+00 0. -1.
         -3   -1    0    0    0  501 -0.00000000000E+00 -0.00000000000E+00 -0.85471605377E+02  0.85471605377E+02  0.00000000000E+00 0.  1.
         25    2    1    2    0    0  0.65247400145E+02  0.62946941151E+02  0.45371288769E+02  0.16104245423E+03  0.12512624663E+03 0.  0.
          5    1    3    3  502    0 -0.96056060573E+01  0.68579809977E+02  0.50313333966E+02  0.85699253083E+02  0.41800000000E+01 0.  1.
         -5    1    3    3    0  502  0.74853006202E+02 -0.56328688256E+01 -0.49420451977E+01  0.75343201150E+02  0.41800000000E+01 0.  1.
        -11    1    1    2    0    0 -0.22114695750E+02 -0.75239043801E+02  0.51615727146E+02  0.93883740706E+02  0.00000000000E+00 0.  1.
         11    1    1    2    0    0 -0.43132704395E+02  0.12292102649E+02  0.70840381395E+02  0.83844413125E+02  0.00000000000E+00 0. -1.
</event>
<event>
 6    1  0.2844572E-009  0.1418176E+03  0.7561462E-02  0.1210904E+00
         -1   -1    0    0    0  501 -0.00000000000E+00  0.00000000000E+00  0.34506527426E+03  0.34506527426E+03  0.00000000000E+00 0.  1.
          1   -1    0    0  501    0  0.00000000000E+00 -0.00000000000E+00 -0.77889471463E+02  0.77889471463E+02  0.00000000000E+00 0. -1.
          5    1    1    2  502    0 -0.90133926406E+02 -0.44840951163E+02  0.16457680405E+02  0.10209389421E+03  0.41800000000E+01 0.  1.
         -5    1    1    2    0  502 -0.44861144010E+01 -0.31512571286E+02  0.10639008801E+03  0.11112826192E+03  0.41800000000E+01 0.  1.
        -11    1    1    2    0    0  0.10108148551E+03  0.32108560875E+02  0.87989853148E+02  0.13780653341E+03  0.00000000000E+00 0. -1.
         11    1    1    2    0    0 -0.64614447022E+01  0.44244961573E+02  0.56338181237E+02  0.71926056178E+02  0.00000000000E+00 0.  1.
</event>
<event>
 7    1  0.2844572E-009  0.1094158E+03  0.7561462E-02  0.1261656E+00
         -2   -1    0    0    0  501 -0.00000000000E+00  0.00000000000E+00  0.22892869730E+02  0.22892869730E+02  0.00000000000E+00 0. -1.
          2   -1    0    0  501    0  0.00000000000E+00 -0.00000000000E+00 -0.10075365890E+04  0.10075365890E+04  0.00000000000E+00 0.  1.
         25    2    1    2    0    0  0.84348723439E+02 -0.14601822546E+02 -0.75378834754E+03  0.76887744567E+03  0.12509089976E+03 0.  0.
          5    1    3    3  502    0  0.28931006227E+02 -0.26043294794E+02 -0.53502505433E+02  0.66296657628E+02  0.41800000000E+01 0.  1.
         -5    1    3    3    0  502  0.55417717213E+02  0.11441472248E+02 -0.70028584211E+03  0.70258078804E+03  0.41800000000E+01 0.  1.
        -11    1    1    2    0    0 -0.38293447225E+02 -0.37365089988E+02 -0.99513705750E+02  0.11298458161E+03  0.00000000000E+00 0.  1.
         11    1    1    2    0    0 -0.46055276214E+02  0.51966912534E+02 -0.13134166600E+03  0.14856743147E+03  0.00000000000E+00 0. -1.
</event>
<event>
 7    1  0.2844572E-009  0.2155595E+03  0.7561462E-02  0.1137238E+00
         -1   -1    0    0    0  501 -0.00000000000E+00  0.00000000000E+00  0.10766821870E+03  0.10766821870E+03  0.00000000000E+00 0.  1.
          1   -1    0    0  501    0  0.00000000000E+00 -0.00000000000E+00 -0.50129761531E+03  0.50129761531E+03  0.00000000000E+00 0. -1.
         25    2    1    2    0    0  0.11110924893E+03  0.16436373086E+03 -0.26608254841E+03  0.35469743918E+03  0.12509855944E+03 0.  0.
          5    1    3    3  502    0  0.12145649547E+03  0.13918359546E+03 -0.26969433883E+03  0.32691935142E+03  0.41800000000E+01 0. -1.
         -5    1    3    3    0  502 -0.10347246540E+02  0.25180135394E+02  0.36117904206E+01  0.27778087757E+02  0.41800000000E+01 0. -1.
        -11    1    1    2    0    0  0.87453040086E+01 -0.57700830589E+02 -0.45887565164E+02  0.74239711944E+02  0.00000000000E+00 0. -1.
         11    1    1    2    0    0 -0.11985455294E+03 -0.10666290027E+03 -0.81659283040E+02  0.18002868288E+03  0.00000000000E+00 0.  1.
</event>
<event>
 7    1  0.2844572E-009  0.1549627E+03  0.7561462E-02  0.1194504E+00
         -2   -1    0    0    0  501 -0.00000000000E+00  0.00000000000E+00  0.30759024070E+02  0.30759024070E+02  0.00000000000E+00 0.  1.
          2   -1    0    0  501    0  0.00000000000E+00 -0.00000000000E+00 -0.12509683454E+04  0.12509683454E+04  0.00000000000E+00 0. -1.
         25    2    1    2    0    0 -0.11517514145E+03  0.68519706625E+01 -0.10201763107E+04  0.10342727276E+04  0.12509239591E+03 0.  0.
          5    1    3    3  502    0 -0.98108619991E+02  0.59346547388E+02 -0.67291252336E+03  0.68262438464E+03  0.41800000000E+01 0. -1.
         -5    1    3    3    0  502 -0.17066521463E+02 -0.52494576725E+02 -0.34726378732E+03  0.35164834299E+03  0.41800000000E+01 0. -1.
        -11    1    1    2    0    0 -0.88584994856E+01  0.11425366661E+02 -0.44296201089E+01  0.15120633280E+02  0.00000000000E+00 0.  1.
         11    1    1    2    0    0  0.12403364094E+03 -0.18277337323E+02 -0.19560339050E+03  0.23233400853E+03  0.00000000000E+00 0. -1.
</event>
<event>
 7    1  0.2844572E-009  0.1546176E+03  0.7561462E-02  0.1194911E+00
          2   -1    0    0  501    0  0.00000000000E+00  0.00000000000E+00  0.18718503985E+04  0.18718503985E+04  0.00000000000E+00 0. -1.
         -2   -1    0    0    0  501 -0.00000000000E+00 -0.00000000000E+00 -0.17435179159E+02  0.17435179159E+02  0.00000000000E+00 0.  1.
         25    2    1    2    0    0  0.37791527923E+02 -0.13652922243E+03  0.11467095284E+04  0.11621784162E+04  0.12508996930E+03 0.  0.
          5    1    3    3  502    0  0.26764280020E+02 -0.51440024893E+02  0.88125612695E+03  0.88317169142E+03  0.41800000000E+01 0. -1.
         -5    1    3    3    0  502  0.11027247903E+02 -0.85089197542E+02  0.26545340145E+03  0.27900672479E+03  0.41800000000E+01 0. -1.
        -11    1    1    2    0    0 -0.50844765078E+02  0.32485123793E+02  0.21121218659E+03  0.21966124185E+03  0.00000000000E+00 0.  1.
         11    1    1    2    0    0  0.13053237155E+02  0.10404409864E+03  0.49649350437E+03  0.50744591963E+03  0.00000000000E+00 0. -1.
</event>
<event>
 7    1  0.2844572E-009  0.1119950E+03  0.7561462E-02  0.1256919E+00
         -1   -1    0    0    0  501 -0.00000000000E+00  0.00000000000E+00  0.26869332000E+02  0.26869332000E+02  0.00000000000E+00 0.  1.
          1   -1    0    0  501    0  0.00000000000E+00 -0.00000000000E+00 -0.62785647017E+03  0.62785647017E+03  0.00000000000E+00 0. -1.
         25    2    1    2    0    0 -0.28878163141E+02  0.52601875821E+02 -0.23261475568E+03  0.27084611249E+03  0.12508831459E+03 0.  0.
          5    1    3    3  502    0 -0.58189989232E+02  0.63572551613E+02 -0.22092387109E+03  0.23717582799E+03  0.41800000000E+01 0.  1.
         -5    1    3    3    0  502  0.29311826091E+02 -0.10970675792E+02 -0.11690884591E+02  0.33670284505E+02  0.41800000000E+01 0.  1.
        -11    1    1    2    0    0 -0.18168799987E+02  0.15142365999E+02 -0.11548551314E+03  0.11788256990E+03  0.00000000000E+00 0. -1.
         11    1    1    2    0    0  0.47046963128E+02 -0.67744241820E+02 -0.25288686935E+03  0.26599711978E+03  0.00000000000E+00 0.  1.
</event>
<event>
 7    1  0.2844572E-009  0.1906111E+03  0.7561462E-02  0.1157911E+00
          1   -1    0    0  501    0  0.00000000000E+00  0.00000000000E+00  0.21084917680E+03  0.21084917680E+03  0.00000000000E+00 0. -1.
         -1   -1    0    0    0  501 -0.00000000000E+00 -0.00000000000E+00 -0.23517262889E+03  0.23517262889E+03  0.00000000000E+00 0.  1.
         25    2    1    2    0    0 -0.16422913325E+03  0.13081057485E+01 -0.11685462867E+03  0.23721891567E+03  0.12507953614E+03 0.  0.
          5    1    3    3  502    0 -0.67161101999E+02  0.62197616019E+02 -0.47475964957E+02  0.10320172823E+03  0.41800000000E+01 0. -1.
         -5    1    3    3    0  502 -0.97068031252E+02 -0.60889510270E+02 -0.69378663711E+02  0.13401718744E+03  0.41800000000E+01 0. -1.
        -11    1    1    2    0    0  0.50080850907E+02 -0.28448988475E+02  0.67677499526E+02  0.88868895092E+02  0.00000000000E+00 0.  1.
         11    1    1    2    0    0  0.11414828234E+03  0.27140882727E+02  0.24853677045E+02  0.11993399493E+03  0.00000000000E+00 0. -1.
</event>
<event>
 7    1  0.2844572E-009  0.5674274E+02  0.7561462E-02  0.1412033E+00
          1   -1    0    0  501    0  0.00000000000E+00  0.00000000000E+00  0.41012547879E+02  0.41012547879E+02  0.00000000000E+00 0. -1.
         -1   -1    0    0    0  501 -0.00000000000E+00 -0.00000000000E+00 -0.32969928969E+03  0.32969928969E+03  0.00000000000E+00 0.  1.
         25    2    1    2    0    0  0.52843698207E+01  0.38822056924E+02 -0.19770292420E+03  0.23721027317E+03  0.12508873168E+03 0.  0.
          5    1    3    3  502    0 -0.63442565005E+01  0.47592760861E+02 -0.21137554086E+03  0.21680039703E+03  0.41800000000E+01 0. -1.
         -5    1    3    3    0  502  0.11628626321E+02 -0.87707039365E+01  0.13672616664E+02  0.20409876141E+02  0.41800000000E+01 0. -1.
        -11    1    1    2    0    0  0.13167921890E+02 -0.14170482485E+02  0.14139705035E+02  0.23960968245E+02  0.00000000000E+00 0. -1.
         11    1    1    2    0    0 -0.18452291711E+02 -0.24651574439E+02 -0.10512352265E+03  0.10954059615E+03  0.00000000000E+00 0.  1.
</event>
<event>
 7    1  0.2844572E-009  0.9800374E+02  0.7561462E-02  0.1284551E+00
          2   -1    0    0  501    0  0.00000000000E+00  0.00000000000E+00  0.18113081776E+04  0.18113081776E+04  0.00000000000E+00 0. -1.
         -2   -1    0    0    0  501 -0.00000000000E+00 -0.00000000000E+00 -0.90730925335E+01  0.90730925335E+01  0.00000000000E+00 0.  1.
         25    2    1    2    0    0 -0.39483639508E+02  0.15376988670E+02  0.14029070006E+04  0.14091093704E+04  0.12508299509E+03 0.  0.
          5    1    3    3  502    0  0.20096105952E+02  0.32962962090E+02  0.10523546782E+04  0.10530708673E+04  0.41800000000E+01 0. -1.
         -5    1    3    3    0  502 -0.59579745460E+02 -0.17585973420E+02  0.35055232241E+03  0.35603850308E+03  0.41800000000E+01 0. -1.
        -11    1    1    2    0    0  0.12385778351E+02  0.35320693499E+02  0.10733297798E+03  0.11367201527E+03  0.00000000000E+00 0.  1.
         11    1    1    2    0    0  0.27097861157E+02 -0.50697682169E+02  0.29199510644E+03  0.29759988447E+03  0.00000000000E+00 0. -1.
</event>
<event>
 7    1  0.2844572E-009  0.1242528E+03  0.7561462E-02  0.1236242E+00
         -2   -1    0    0    0  501 -0.00000000000E+00  0.00000000000E+00  0.47113833048E+02  0.47113833048E+02  0.00000000000E+00 0.  1.
          2   -1    0    0  501    0  0.00000000000E+00 -0.00000000000E+00 -0.43937573445E+03  0.43937573445E+03  0.00000000000E+00 0. -1.
         25    2    1    2    0    0  0.57820058132E+02  0.52326982894E+02 -0.11390842834E+03  0.18630165556E+03  0.12510757194E+03 0.  0.
          5    1    3    3  502    0  0.89656487818E+02  0.12991108529E+02 -0.96980210925E+02  0.13277683691E+03  0.41800000000E+01 0.  1.
         -5    1    3    3    0  502 -0.31836429685E+02  0.39335874365E+02 -0.16928217417E+02  0.53524818655E+02  0.41800000000E+01 0.  1.
        -11    1    1    2    0    0  0.17696130679E+02 -0.12485192504E+02 -0.26320892464E+02  0.34085516763E+02  0.00000000000E+00 0.  1.
         11    1    1    2    0    0 -0.75516188811E+02 -0.39841790389E+02 -0.25203258060E+03  0.26610239517E+03  0.00000000000E+00 0. -1.
</event>
<event>
 7    1  0.2844572E-009  0.1283393E+03  0.7561462E-02  0.1229941E+00
         -1   -1    0    0    0  501 -0.00000000000E+00  0.00000000000E+00  0.24909936843E+03  0.24909936843E+03  0.00000000000E+00 0.  1.
          1   -1    0    0  501    0  0.00000000000E+00 -0.00000000000E+00 -0.72679083730E+02  0.72679083730E+02  0.00000000000E+00 0. -1.
         25    2    1    2    0    0  0.73889328325E+02  0.35898914107E+01  0.13420944178E+03  0.19781045256E+03  0.12507709909E+03 0.  0.
          5    1    3    3  502    0 -0.38758939153E+01 -0.48538803807E+02  0.28636846352E+02  0.56644323614E+02  0.41800000000E+01 0. -1.
         -5    1    3    3    0  502  0.77765222241E+02  0.52128695218E+02  0.10557259543E+03  0.14116612895E+03  0.41800000000E+01 0. -1.
        -11    1    1    2    0    0 -0.61954403462E+02 -0.41353286068E+02  0.39393998769E+02  0.84263453027E+02  0.00000000000E+00 0. -1.
         11    1    1    2    0    0 -0.11934924863E+02  0.37763394658E+02  0.28168441465E+01  0.39704546572E+02  0.00000000000E+00 0.  1.
</event>
<event>
 7    1  0.2844572E-009  0.1062123E+03  0.7561462E-02  0.1267749E+00
          2   -1    0    0  501    0  0.00000000000E+00  0.00000000000E+00  0.15841321046E+03  0.15841321046E+03  0.00000000000E+00 0. -1.
         -2   -1    0    0    0  501 -0.00000000000E+00 -0.00000000000E+00 -0.12343155478E+03  0.12343155478E+03  0.00000000000E+00 0.  1.
         25    2    1    2    0    0  0.65591990883E+02  0.37633190730E+02  0.58085766948E+02  0.15726533619E+03  0.12505943920E+03 0.  0.
          5    1    3    3  502    0  0.85503625366E+02 -0.86415363530E+01  0.62762489640E+02  0.10649952398E+03  0.41800000000E+01 0. -1.
         -5    1    3    3    0  502 -0.19911634484E+02  0.46274727083E+02 -0.46767226921E+01  0.50765812212E+02  0.41800000000E+01 0. -1.
        -11    1    1    2    0    0 -0.49528037831E+02 -0.25530121341E+02 -0.60418198271E+02  0.82189855271E+02  0.00000000000E+00 0.  1.
         11    1    1    2    0    0 -0.16063953051E+02 -0.12103069389E+02  0.37314087005E+02  0.42389573781E+02  0.00000000000E+00 0. -1.
</event>
<event>
 7    1  0.2844572E-009  0.1151275E+03  0.7561462E-02  0.1251359E+00
          1   -1    0    0  501    0  0.00000000000E+00  0.00000000000E+00  0.74211991880E+02  0.74211991880E+02  0.00000000000E+00 0. -1.
         -1   -1    0    0    0  501 -0.00000000000E+00 -0.00000000000E+00 -0.33868704874E+03  0.33868704874E+03  0.00000000000E+00 0.  1.
         25    2    1    2    0    0  0.84530168281E+02 -0.76553916498E+02 -0.12649719339E+03  0.21131807576E+03  0.12509171725E+03 0.  0.
          5    1    3    3  502    0  0.42081193575E+02 -0.25002697922E+02  0.17808595420E+02  0.52254954089E+02  0.41800000000E+01 0.  1.
         -5    1    3    3    0  502  0.42448974706E+02 -0.51551218576E+02 -0.14430578881E+03  0.15906312167E+03  0.41800000000E+01 0.  1.
        -11    1    1    2    0    0 -0.29242222902E+02  0.22492988297E+02 -0.11520982568E+03  0.12097250124E+03  0.00000000000E+00 0.  1.
         11    1    1    2    0    0 -0.55287945379E+02  0.54060928201E+02 -0.22768037781E+02  0.80608463617E+02  0.00000000000E+00 0. -1.
</event>
<event>
 7    1  0.2844572E-009  0.1643551E+03  0.7561462E-02  0.1183866E+00
          1   -1    0    0  501    0  0.00000000000E+00  0.00000000000E+00  0.14152051749E+04  0.14152051749E+04  0.00000000000E+00 0. -1.
         -1   -1    0    0    0  501 -0.00000000000E+00 -0.00000000000E+00 -0.20689935473E+02  0.20689935473E+02  0.00000000000E+00 0.  1.
         25    2    1    2    0    0 -0.10440056595E+02 -0.13330823673E+03  0.63939934937E+03  0.66510115478E+03  0.12509171575E+03 0.  0.
          5    1    3    3  502    0 -0.11910236448E+02 -0.15320493186E+03  0.61163655434E+03  0.63065866512E+03  0.41800000000E+01 0. -1.
         -5    1    3    3    0  502  0.14701798527E+01  0.19896695137E+02  0.27762795026E+02  0.34442489658E+02  0.41800000000E+01 0. -1.
        -11    1    1    2    0    0  0.36005036017E+02  0.26313535205E+02  0.22843145041E+03  0.23274383405E+03  0.00000000000E+00 0. -1.
         11    1    1    2    0    0 -0.25564979422E+02  0.10699470152E+03  0.52668443967E+03  0.53805012157E+03  0.00000000000E+00 0.  1.
</event>
<event>
 7    1  0.2844572E-009  0.5855650E+02  0.7561462E-02  0.1403991E+00
         -2   -1    0    0    0  501 -0.00000000000E+00  0.00000000000E+00  0.47186597161E+03  0.47186597161E+03  0.00000000000E+00 0.  1.
          2   -1    0    0  501    0  0.00000000000E+00 -0.00000000000E+00 -0.38021861134E+02  0.38021861134E+02  0.00000000000E+00 0. -1.
         25    2    1    2    0    0 -0.24201575869E+02  0.17538092495E+02  0.37408931845E+03  0.39558314446E+03  0.12509958047E+03 0.  0.
          5    1    3    3  502    0 -0.43935810907E+02  0.77260515470E+01  0.38010178695E+02  0.58756220410E+02  0.41800000000E+01 0.  1.
         -5    1    3    3    0  502  0.19734235038E+02  0.98120409482E+01  0.33607913976E+03  0.33682692405E+03  0.41800000000E+01 0.  1.
        -11    1    1    2    0    0 -0.11239358341E+02 -0.46719537021E+01 -0.21512359272E+02  0.24717037217E+02  0.00000000000E+00 0. -1.
         11    1    1    2    0    0  0.35440934209E+02 -0.12866138793E+02  0.81267151291E+02  0.89587651069E+02  0.00000000000E+00 0.  1.
</event>
<event>
 7    1  0.2844572E-009  0.9957790E+02  0.7561462E-02  0.1281186E+00
          1   -1    0    0  501    0  0.00000000000E+00  0.00000000000E+00  0.87491996461E+02  0.87491996461E+02  0.00000000000E+00 0. -1.
         -1   -1    0    0    0  501 -0.00000000000E+00 -0.00000000000E+00 -0.14298000995E+03  0.14298000995E+03  0.00000000000E+00 0.  1.
         25    2    1    2    0    0  0.68206571531E+01 -0.18648743948E+02 -0.13710593425E+02  0.12739427227E+03  0.12508806186E+03 0.  0.
          5    1    3    3  502    0 -0.49393919919E+02 -0.38583468713E+02  0.89548359461E+01  0.63451594697E+02  0.41800000000E+01 0. -1.
         -5    1    3    3    0  502  0.56214577072E+02  0.19934724764E+02 -0.22665429371E+02  0.63942677574E+02  0.41800000000E+01 0. -1.
        -11    1    1    2    0    0  0.29641652864E+02  0.25910770667E+02 -0.51331849439E+02  0.64691223422E+02  0.00000000000E+00 0.  1.
         11    1    1    2    0    0 -0.36462310017E+02 -0.72620267181E+01  0.95544293800E+01  0.38386510712E+02  0.00000000000E+00 0. -1.
</event>
<event>
 7    1  0.2844572E-009  0.1105384E+03  0.7561462E-02  0.1259576E+00
         -2   -1    0    0    0  501 -0.00000000000E+00  0.00000000000E+00  0.14741983953E+02  0.14741983953E+02  0.00000000000E+00 0.  1.
          2   -1    0    0  501    0  0.00000000000E+00 -0.00000000000E+00 -0.98107272786E+03  0.98107272786E+03  0.00000000000E+00 0. -1.
         25    2    1    2    0    0 -0.32841809978E+02 -0.17318655028E+02 -0.68490046697E+03  0.69721961413E+03  0.12509204759E+03 0.  0.
          5    1    3    3  502    0 -0.15636356561E+01  0.52911408719E+02 -0.30649503760E+03  0.31106067351E+03  0.41800000000E+01 0. -1.
         -5    1    3    3    0  502 -0.31278174322E+02 -0.70230063747E+02 -0.37840542937E+03  0.38615894062E+03  0.41800000000E+01 0. -1.
        -11    1    1    2    0    0  0.19521375583E+02 -0.33322667891E+02 -0.18374926261E+03  0.18776388313E+03  0.00000000000E+00 0. -1.
         11    1    1    2    0    0  0.13320434395E+02  0.50641322919E+02 -0.97681014327E+02  0.11083121455E+03  0.00000000000E+00 0.  1.
</event>
<event>
 7    1  0.2844572E-009  0.1162775E+03  0.7561462E-02  0.1249368E+00
          1   -1    0    0  501    0  0.00000000000E+00  0.00000000000E+00  0.15719174208E+04  0.15719174208E+04  0.00000000000E+00 0. -1.
         -1   -1    0    0    0  501 -0.00000000000E+00 -0.00000000000E+00 -0.95654008630E+01  0.95654008630E+01  0.00000000000E+00 0.  1.
         25    2    1    2    0    0  0.36446199518E+02  0.28425076946E+02  0.10883165960E+04  0.10964564730E+04  0.12508986213E+03 0.  0.
          5    1    3    3  502    0 -0.38558962510E+02  0.41253225638E+02  0.41650142920E+03  0.42033264820E+03  0.41800000000E+01 0. -1.
         -5    1    3    3    0  502  0.75005162028E+02 -0.12828148692E+02  0.67181516677E+03  0.67612382478E+03  0.41800000000E+01 0. -1.
        -11    1    1    2    0    0 -0.64856381680E+02 -0.29594247223E+02  0.38552274312E+03  0.39205861192E+03  0.00000000000E+00 0. -1.
         11    1    1    2    0    0  0.28410182163E+02  0.11691702772E+01  0.88512680801E+02  0.92967736728E+02  0.00000000000E+00 0.  1.
</event>
<event>
 7    1  0.2844572E-009  0.9594963E+02  0.7561462E-02  0.1289051E+00
         -2   -1    0    0    0  501 -0.00000000000E+00  0.00000000000E+00  0.28675702399E+02  0.28675702399E+02  0.00000000000E+00 0.  1.
          2   -1    0    0  501    0  0.00000000000E+00 -0.00000000000E+00 -0.66084091998E+03  0.66084091998E+03  0.00000000000E+00 0. -1.
         25    2    1    2    0    0 -0.33096704309E+02  0.21614679216E+02 -0.53612027564E+03  0.55193772543E+03  0.12509083339E+03 0.  0.
          5    1    3    3  502    0  0.31734393039E+02 -0.32514244183E+02 -0.15660774649E+03  0.16311868819E+03  0.41800000000E+01 0. -1.
         -5    1    3    3    0  502 -0.64831097348E+02  0.54128923399E+02 -0.37951252915E+03  0.38881903724E+03  0.41800000000E+01 0. -1.
        -11    1    1    2    0    0  0.45263801820E+02 -0.19824343545E+02 -0.10902334353E+03  0.11969923052E+03  0.00000000000E+00 0. -1.
         11    1    1    2    0    0 -0.12167097511E+02 -0.17903356709E+01  0.12978401597E+02  0.17879666431E+02  0.00000000000E+00 0.  1.
</event>
<event>
 7    1  0.2844572E-009  0.1431235E+03  0.7561462E-02  0.1209187E+00
         -1   -1    0    0    0  501 -0.00000000000E+00  0.00000000000E+00  0.37123333409E+03  0.37123333409E+03  0.00000000000E+00 0.  1.
          1   -1    0    0  501    0  0.00000000000E+00 -0.00000000000E+00 -0.66209304382E+02  0.66209304382E+02  0.00000000000E+00 0. -1.
         25    2    1    2    0    0  0.74189642724E+01  0.10781050205E+03  0.20664007572E+03  0.26462829404E+03  0.12509943138E+03 0.  0.
          5    1    3    3  502    0 -0.57943553547E+02  0.62138241160E+02  0.11575315135E+03  0.14364846278E+03  0.41800000000E+01 0.  1.
         -5    1    3    3    0  502  0.65362517819E+02  0.45672260885E+02  0.90886924371E+02  0.12097983126E+03  0.41800000000E+01 0.  1.
        -11    1    1    2    0    0 -0.24357589816E+02 -0.18916366149E+02  0.72352366502E+02  0.78651039589E+02  0.00000000000E+00 0.  1.
         11    1    1    2    0    0  0.16938625544E+02 -0.88894135896E+02  0.26031587488E+02  0.94163304844E+02  0.00000000000E+00 0. -1.
</event>
<event>
 7    1  0.2844572E-009  0.1092352E+03  0.7561462E-02  0.1261993E+00
          1   -1    0    0  501    0  0.00000000000E+00  0.00000000000E+00  0.59534727841E+03  0.59534727841E+03  0.00000000000E+00 0. -1.
         -1   -1    0    0    0  501 -0.00000000000E+00 -0.00000000000E+00 -0.26204340619E+02  0.26204340619E+02  0.00000000000E+00 0.  1.
         25    2    1    2    0    0 -0.42895382400E+02 -0.16862026812E+02  0.45057288170E+03  0.46988051094E+03  0.12508969207E+03 0.  0.
          5    1    3    3  502    0 -0.17503278022E+02 -0.69375245488E+02  0.29765134700E+03  0.30615859648E+03  0.41800000000E+01 0.  1.
         -5    1    3    3    0  502 -0.25392104378E+02  0.52513218676E+02  0.15292153470E+03  0.16372191446E+03  0.41800000000E+01 0.  1.
        -11    1    1    2    0    0 -0.19860839326E+02  0.16086717037E+02  0.62452922187E+02  0.67480388955E+02  0.00000000000E+00 0. -1.
         11    1    1    2    0    0  0.62756221726E+02  0.77530977492E+00  0.56117133912E+02  0.84190719138E+02  0.00000000000E+00 0.  1.
</event>
<event>
 7    1  0.2844572E-009  0.7979729E+02  0.7561462E-02  0.1329628E+00
          1   -1    0    0  501    0  0.00000000000E+00  0.00000000000E+00  0.70694137626E+02  0.70694137626E+02  0.00000000000E+00 0. -1.
         -1   -1    0    0    0  501 -0.00000000000E+00 -0.00000000000E+00 -0.20566611033E+03  0.20566611033E+03  0.00000000000E+00 0.  1.
         25    2    1    2    0    0  0.53632313549E+02  0.22108169872E+02 -0.69085396559E+02  0.15422727754E+03  0.12509222553E+03 0.  0.
          5    1    3    3  502    0 -0.34524538228E+01  0.34137870459E+02 -0.86542046114E+02  0.93189654911E+02  0.41800000000E+01 0.  1.
         -5    1    3    3    0  502  0.57084767372E+02 -0.12029700587E+02  0.17456649555E+02  0.61037622626E+02  0.41800000000E+01 0.  1.
        -11    1    1    2    0    0 -0.17107852962E+02  0.83001437121E+01  0.17701153850E+02  0.25978873459E+02  0.00000000000E+00 0. -1.
         11    1    1    2    0    0 -0.36524460588E+02 -0.30408313584E+02 -0.83587729998E+02  0.96154096962E+02  0.00000000000E+00 0.  1.
</event>
<event>
 7    1  0.2844572E-009  0.8312744E+02  0.7561462E-02  0.1320403E+00
          1   -1    0    0  501    0  0.00000000000E+00  0.00000000000E+00  0.35721534515E+03  0.35721534515E+03  0.00000000000E+00 0. -1.
         -1   -1    0    0    0  501 -0.00000000000E+00 -0.00000000000E+00 -0.55725536010E+02  0.55725536010E+02  0.00000000000E+00 0.  1.
         25    2    1    2    0    0  0.16639663551E+02 -0.29153972106E+02  0.42179428316E+02  0.13621004103E+03  0.12508892282E+03 0.  0.
          5    1    3    3  502    0  0.38766216958E+02 -0.27352635244E+02  0.79447413742E+02  0.92630179651E+02  0.41800000000E+01 0. -1.
         -5    1    3    3    0  502 -0.22126553407E+02 -0.18013368623E+01 -0.37267985426E+02  0.43579861379E+02  0.41800000000E+01 0. -1.
        -11    1    1    2    0    0  0.35912871583E+02  0.24082418742E+02  0.13219440832E+03  0.13908651562E+03  0.00000000000E+00 0.  1.
         11    1    1    2    0    0 -0.52552535133E+02  0.50715533643E+01  0.12711597250E+03  0.13764432450E+03  0.00000000000E+00 0. -1.
</event>
<event>
 7    1  0.2844572E-009  0.1618591E+03  0.7561462E-02  0.1186614E+00
         -2   -1    0    0    0  501 -0.00000000000E+00  0.00000000000E+00  0.38437009497E+03  0.38437009497E+03  0.00000000000E+00 0. -1.
          2   -1    0    0  501    0  0.00000000000E+00 -0.00000000000E+00 -0.99532004721E+02  0.99532004721E+02  0.00000000000E+00 0.  1.
         25    2    1    2    0    0  0.71390627752E+02 -0.10744459223E+03  0.26787462697E+02  0.18167456943E+03  0.12508844427E+03 0.  0.
          5    1    3    3  502    0  0.26556842057E+02  0.19249856142E+02 -0.20777350287E+02  0.39051165238E+02  0.41800000000E+01 0.  1.
         -5    1    3    3    0  502  0.44833785696E+02 -0.12669444838E+03  0.47564812984E+02  0.14262340419E+03  0.41800000000E+01 0.  1.
        -11    1    1    2    0    0 -0.31833912852E+02  0.11194478756E+03  0.20716898794E+03  0.23762159632E+03  0.00000000000E+00 0.  1.
         11    1    1    2    0    0 -0.39556714900E+02 -0.45001953309E+01  0.50881639612E+02  0.64605933948E+02  0.00000000000E+00 0. -1.
</event>
<event>
 7    1  0.2844572E-009  0.1178898E+03  0.7561462E-02  0.1246619E+00
         -1   -1    0    0    0  501 -0.00000000000E+00  0.00000000000E+00  0.42953516122E+03  0.42953516122E+03  0.00000000000E+00 0.  1.
          1   -1    0    0  501    0  0.00000000000E+00 -0.00000000000E+00 -0.50548952637E+02  0.50548952637E+02  0.00000000000E+00 0. -1.
         25    2    1    2    0    0  0.48252527319E+02 -0.79112859120E+02  0.25964008258E+03  0.30273177407E+03  0.12508558542E+03 0.  0.
          5    1    3    3  502    0  0.82980805148E+02 -0.46344215452E+02  0.10914492402E+03  0.14478842208E+03  0.41800000000E+01 0. -1.
         -5    1    3    3    0  502 -0.34728277829E+02 -0.32768643668E+02  0.15049515856E+03  0.15794335199E+03  0.41800000000E+01 0. -1.
        -11    1    1    2    0    0 -0.26333609329E+02  0.45930779918E+02  0.14873889085E+01  0.52965156943E+02  0.00000000000E+00 0. -1.
         11    1    1    2    0    0 -0.21918917991E+02  0.33182079202E+02  0.11785873710E+03  0.12438718285E+03  0.00000000000E+00 0.  1.
</event>
<event>
 7    1  0.2844572E-009  0.8865415E+02  0.7561462E-02  0.1306144E+00
          3   -1    0    0  501    0  0.00000000000E+00  0.00000000000E+00  0.35401973727E+02  0.35401973727E+02  0.00000000000E+00 0. -1.
         -3   -1    0    0    0  501 -0.00000000000E+00 -0.00000000000E+00 -0.37103913597E+03  0.37103913597E+03  0.00000000000E+00 0.  1.
         25    2    1    2    0    0  0.27852187892E+02 -0.14117762946E+02 -0.16353495992E+03  0.20824476835E+03  0.12508854795E+03 0.  0.
          5    1    3    3  502    0  0.35396976398E+02 -0.42411519237E+02 -0.16927822615E+03  0.17811309090E+03  0.41800000000E+01 0. -1.
         -5    1    3    3    0  502 -0.75447885058E+01  0.28293756291E+02  0.57432662341E+01  0.30131677446E+02  0.41800000000E+01 0. -1.
        -11    1    1    2    0    0 -0.25438366553E+02 -0.34935896996E+02 -0.47255505257E+02  0.64036787621E+02  0.00000000000E+00 0.  1.
         11    1    1    2    0    0 -0.24138213395E+01  0.49053659942E+02 -0.12484669707E+03  0.13415955373E+03  0.00000000000E+00 0. -1.
</event>
<event>
 7    1  0.2844572E-009  0.1448793E+03  0.7561462E-02  0.1206910E+00
         -1   -1    0    0    0  501 -0.00000000000E+00  0.00000000000E+00  0.33381640134E+02  0.33381640134E+02  0.00000000000E+00 0.  1.
          1   -1    0    0  501    0  0.00000000000E+00 -0.00000000000E+00 -0.99270731225E+03  0.99270731225E+03  0.00000000000E+00 0. -1.
         25    2    1    2    0    0 -0.11552616183E+03  0.60824667834E+02 -0.70096763725E+03  0.72391219586E+03  0.12508918639E+03 0.  0.
          5    1    3    3  502    0 -0.51940022294E+02  0.58075071548E+02 -0.14827417634E+03  0.16755054050E+03  0.41800000000E+01 0. -1.
         -5    1    3    3    0  502 -0.63586139536E+02  0.27495962857E+01 -0.55269346091E+03  0.55636165536E+03  0.41800000000E+01 0. -1.
        -11    1    1    2    0    0  0.10725317020E+03 -0.23601771271E+02 -0.22927975846E+03  0.25422331476E+03  0.00000000000E+00 0. -1.
         11    1    1    2    0    0  0.82729916328E+01 -0.37222896563E+02 -0.29078276395E+02  0.47953441766E+02  0.00000000000E+00 0.  1.
</event>
<event>
 7    1  0.2844572E-009  0.1118022E+03  0.7561462E-02  0.1257268E+00
          1   -1    0    0  501    0  0.00000000000E+00  0.00000000000E+00  0.21427853709E+04  0.21427853709E+04  0.00000000000E+00 0. -1.
         -1   -1    0    0    0  501 -0.00000000000E+00 -0.00000000000E+00 -0.15299741845E+02  0.15299741845E+02  0.00000000000E+00 0.  1.
         25    2    1    2    0    0  0.46022762960E+02 -0.46482693011E+02  0.18870349078E+04  0.18923080647E+04  0.12510129179E+03 0.  0.
          5    1    3    3  502    0  0.74721946606E+02  0.75994348213E+01  0.79525000139E+03  0.79879982338E+03  0.41800000000E+01 0. -1.
         -5    1    3    3    0  502 -0.28699183646E+02 -0.54082127833E+02  0.10917849064E+04  0.10935082414E+04  0.41800000000E+01 0. -1.
        -11    1    1    2    0    0  0.56509650895E+01  0.33175523066E+02  0.20409808567E+02  0.39358722323E+02  0.00000000000E+00 0.  1.
         11    1    1    2    0    0 -0.51673728050E+02  0.13307169945E+02  0.22004091266E+03  0.22641832564E+03  0.00000000000E+00 0. -1.
</event>
<event>
 7    1  0.2844572E-009  0.1288631E+03  0.7561462E-02  0.1229152E+00
          1   -1    0    0  501    0  0.00000000000E+00  0.00000000000E+00  0.47167806121E+03  0.47167806121E+03  0.00000000000E+00 0. -1.
         -1   -1    0    0    0  501 -0.00000000000E+00 -0.00000000000E+00 -0.48599554197E+02  0.48599554197E+02  0.00000000000E+00 0.  1.
         25    2    1    2    0    0  0.92912008035E+02  0.44311392879E+02  0.19741042378E+03  0.25537275459E+03  0.12509287587E+03 0.  0.
          5    1    3    3  502    0  0.69516852686E+02 -0.36861726349E+00  0.19228259343E+03  0.20450622685E+03  0.41800000000E+01 0.  1.
         -5    1    3    3    0  502  0.23395155348E+02  0.44680010142E+02  0.51278303563E+01  0.50866527739E+02  0.41800000000E+01 0.  1.
        -11    1    1    2    0    0 -0.58656885153E+02  0.22154758814E+02  0.12087230647E+03  0.13616746302E+03  0.00000000000E+00 0. -1.
         11    1    1    2    0    0 -0.34255122882E+02 -0.66466151693E+02  0.10479577676E+03  0.12873739780E+03  0.00000000000E+00 0.  1.
</event>
<event>
 7    1  0.2844572E-009  0.1088616E+03  0.7561462E-02  0.1262693E+00
         -1   -1    0    0    0  501 -0.00000000000E+00  0.00000000000E+00  0.56449942402E+02  0.56449942402E+02  0.00000000000E+00 0.  1.
          1   -1    0    0  501    0  0.00000000000E+00 -0.00000000000E+00 -0.37939965614E+03  0.37939965614E+03  0.00000000000E+00 0. -1.
         25    2    1    2    0    0 -0.31455398580E+02  0.83590425846E+02 -0.11634586176E+03  0.19277052300E+03  0.12508922254E+03 0.  0.
          5    1    3    3  502    0 -0.12894479540E+02  0.47304584722E+02 -0.13794175553E+03  0.14645610829E+03  0.41800000000E+01 0.  1.
         -5    1    3    3    0  502 -0.18560919040E+02  0.36285841123E+02  0.21595893769E+02  0.46314414704E+02  0.41800000000E+01 0.  1.
        -11    1    1    2    0    0  0.35578278867E+02  0.74997817286E+01 -0.69225644389E+02  0.78193672981E+02  0.00000000000E+00 0.  1.
         11    1    1    2    0    0 -0.41228802874E+01 -0.91090207574E+02 -0.13737820759E+03  0.16488540256E+03  0.00000000000E+00 0. -1.
</event>
<event>
 7    1  0.2844572E-009  0.1050295E+03  0.7561462E-02  0.1270061E+00
          3   -1    0    0  501    0  0.00000000000E+00  0.00000000000E+00  0.15732659465E+03  0.15732659465E+03  0.00000000000E+00 0. -1.
         -3   -1    0    0    0  501 -0.00000000000E+00 -0.00000000000E+00 -0.87231977490E+02  0.87231977490E+02  0.00000000000E+00 0.  1.
         25    2    1    2    0    0 -0.53622504620E+00  0.30010234906E+02  0.52909606906E+02  0.13909543816E+03  0.12508881915E+03 0.  0.
          5    1    3    3  502    0 -0.99299774445E+01 -0.44281261551E+02 -0.28151371046E+01  0.45659960288E+02  0.41800000000E+01 0. -1.
         -5    1    3    3    0  502  0.93937523983E+01  0.74291496457E+02  0.55724744011E+02  0.93435477871E+02  0.41800000000E+01 0. -1.
        -11    1    1    2    0    0 -0.41118577888E+02 -0.23398899476E+02 -0.17918537127E+02  0.50589721456E+02  0.00000000000E+00 0.  1.
         11    1    1    2    0    0  0.41654802934E+02 -0.66113354305E+01  0.35103547385E+02  0.54873412530E+02  0.00000000000E+00 0. -1.
</event>
<event>
 6    1  0.2844572E-009  0.1328152E+03  0.7561462E-02  0.1223337E+00
         -2   -1    0    0    0  501 -0.00000000000E+00  0.00000000000E+00  0.58509240386E+02  0.58509240386E+02  0.00000000000E+00 0.  1.
          2   -1    0    0  501    0  0.00000000000E+00 -0.00000000000E+00 -0.47554837001E+03  0.47554837001E+03  0.00000000000E+00 0. -1.
          5    1    1    2  502    0 -0.26402735670E+02 -0.28258518072E+02 -0.77319348939E+02  0.86552887964E+02  0.41800000000E+01 0. -1.
         -5    1    1    2    0  502 -0.61220387823E+02  0.87530847667E+02 -0.35986365941E+02  0.11279218108E+03  0.41800000000E+01 0. -1.
        -11    1    1    2    0    0  0.60050194645E+02 -0.68183367460E+02 -0.13014483307E+03  0.15872200557E+03  0.00000000000E+00 0.  1.
         11    1    1    2    0    0  0.27572928849E+02  0.89110378643E+01 -0.17358858167E+03  0.17599053579E+03  0.00000000000E+00 0. -1.
</event>
<event>
 7    1  0.2844572E-009  0.1127097E+03  0.7561462E-02  0.1255633E+00
          1   -1    0    0  501    0  0.00000000000E+00  0.00000000000E+00  0.36294158822E+03  0.36294158822E+03  0.00000000000E+00 0. -1.
         -1   -1    0    0    0  501 -0.00000000000E+00 -0.00000000000E+00 -0.48173468155E+02  0.48173468155E+02  0.00000000000E+00 0.  1.
         25    2    1    2    0    0 -0.22109554364E+02  0.33973977937E+02  0.81318394055E+02  0.15461113204E+03  0.12509539307E+03 0.  0.
          5    1    3    3  502    0  0.34328907004E+02 -0.24746219856E+02  0.53722769681E+02  0.68516112233E+02  0.41800000000E+01 0.  1.
         -5    1    3    3    0  502 -0.56438461368E+02  0.58720197794E+02  0.27595624374E+02  0.86095019804E+02  0.41800000000E+01 0.  1.
        -11    1    1    2    0    0 -0.17718087297E+02  0.24718398400E+02  0.38573257037E+02  0.49120525194E+02  0.00000000000E+00 0.  1.
         11    1    1    2    0    0  0.39827641661E+02 -0.58692376337E+02  0.19487646897E+03  0.20738339914E+03  0.00000000000E+00 0. -1.
</event>
<event>
 7    1  0.2844572E-009  0.8976042E+02  0.7561462E-02  0.1303433E+00
         -1   -1    0    0    0  501 -0.00000000000E+00  0.00000000000E+00  0.10945446259E+02  0.10945446259E+02  0.00000000000E+00 0.  1.
          1   -1    0    0  501    0  0.00000000000E+00 -0.00000000000E+00 -0.17479929775E+04  0.17479929775E+04  0.00000000000E+00 0. -1.
         25    2    1    2    0    0 -0.26174732018E+02 -0.27334991883E+02 -0.14353966871E+04  0.14413339260E+04  0.12509004175E+03 0.  0.
          5    1    3    3  502    0 -0.44721491231E+02 -0.44985446199E+02 -0.35637531378E+03  0.36200074422E+03  0.41800000000E+01 0.  1.
         -5    1    3    3    0  502  0.18546759213E+02  0.17650454316E+02 -0.10790213733E+04  0.10793331818E+04  0.41800000000E+01 0.  1.
        -11    1    1    2    0    0 -0.83004103238E+01 -0.25558013819E+02 -0.38271380827E+02  0.46763313317E+02  0.00000000000E+00 0.  1.
         11    1    1    2    0    0  0.34475142342E+02  0.52893005701E+02 -0.26337946336E+03  0.27084118448E+03  0.00000000000E+00 0. -1.
</event>
<event>
 7    1  0.2844572E-009  0.7352457E+02  0.7561462E-02  0.1348502E+00
          2   -1    0    0  501    0  0.00000000000E+00  0.00000000000E+00  0.10634333650E+04  0.10634333650E+04  0.00000000000E+00 0.  1.
         -2   -1    0    0    0  501 -0.00000000000E+00 -0.00000000000E+00 -0.11760702570E+02  0.11760702570E+02  0.00000000000E+00 0. -1.
         25    2    1    2    0    0 -0.16743406966E+02 -0.15634764520E+02  0.67386357994E+03  0.68575849715E+03  0.12509118477E+03 0.  0.
          5    1    3    3  502    0  0.10401335636E+02 -0.25069412226E+02  0.64222907976E+03  0.64281593517E+03  0.41800000000E+01 0.  1.
         -5    1    3    3    0  502 -0.27144742602E+02  0.94346477055E+01  0.31634500175E+02  0.42942561982E+02  0.41800000000E+01 0.  1.
        -11    1    1    2    0    0 -0.75797255098E+01 -0.34234113811E+02  0.20381394113E+03  0.20680800126E+03  0.00000000000E+00 0.  1.
         11    1    1    2    0    0  0.24323132475E+02  0.49868878332E+02  0.17399514141E+03  0.18262756920E+03  0.00000000000E+00 0. -1.
</event>
<event>
 7    1  0.2844572E-009  0.1198893E+03  0.7561462E-02  0.1243280E+00
         -2   -1    0    0    0  501 -0.00000000000E+00  0.00000000000E+00  0.24870945051E+02  0.24870945051E+02  0.00000000000E+00 0.  1.
          2   -1    0    0  501    0  0.00000000000E+00 -0.00000000000E+00 -0.82127935217E+03  0.82127935217E+03  0.00000000000E+00 0. -1.
         25    2    1    2    0    0  0.17395325898E+02 -0.83688993825E+02 -0.54380131789E+03  0.56451208617E+03  0.12509027554E+03 0.  0.
          5    1    3    3  502    0  0.22035464241E+02  0.28690822575E+02 -0.18200803511E+03  0.18561552259E+03  0.41800000000E+01 0.  1.
         -5    1    3    3    0  502 -0.46401383432E+01 -0.11237981640E+03 -0.36179328279E+03  0.37889656358E+03  0.41800000000E+01 0.  1.
        -11    1    1    2    0    0 -0.23703365584E+02  0.38720920464E+02 -0.22266579094E+03  0.22724703227E+03  0.00000000000E+00 0. -1.
         11    1    1    2    0    0  0.63080396865E+01  0.44968073361E+02 -0.29941298291E+02  0.54391178787E+02  0.00000000000E+00 0.  1.
</event>
<event>
 7    1  0.2844572E-009  0.1774295E+03  0.7561462E-02  0.1170314E+00
         -2   -1    0    0    0  501 -0.00000000000E+00  0.00000000000E+00  0.97851974806E+03  0.97851974806E+03  0.00000000000E+00 0. -1.
          2   -1    0    0  501    0  0.00000000000E+00 -0.00000000000E+00 -0.34092037583E+02  0.34092037583E+02  0.00000000000E+00 0.  1.
         25    2    1    2    0    0 -0.13960097509E+03  0.14537386497E+02  0.38109064500E+03  0.42494407876E+03  0.12509045732E+03 0.  0.
          5    1    3    3  502    0  0.20549505909E+02  0.18133762178E+02  0.53147220548E+02  0.59943431465E+02  0.41800000000E+01 0. -1.
         -5    1    3    3    0  502 -0.16015048100E+03 -0.35963756812E+01  0.32794342445E+03  0.36500064729E+03  0.41800000000E+01 0. -1.
        -11    1    1    2    0    0  0.91533850580E+02  0.34877415736E+02  0.30903065157E+03  0.32418331780E+03  0.00000000000E+00 0. -1.
         11    1    1    2    0    0  0.48067124507E+02 -0.49414802233E+02  0.25430641390E+03  0.26348438908E+03  0.00000000000E+00 0.  1.
</event>
<event>
 7    1  0.2844572E-009  0.1017430E+03  0.7561462E-02  0.1276673E+00
         -1   -1    0    0    0  501 -0.00000000000E+00  0.00000000000E+00  0.98442574580E+02  0.98442574580E+02  0.00000000000E+00 0.  1.
          1   -1    0    0  501    0  0.00000000000E+00 -0.00000000000E+00 -0.18305128389E+03  0.18305128389E+03  0.00000000000E+00 0. -1.
         25    2    1    2    0    0  0.15408846142E+02  0.68800931481E+02 -0.19583498118E+02  0.14491844954E+03  0.12508734111E+03 0.  0.
          5    1    3    3  502    0  0.36819352953E+02 -0.13158422623E+02 -0.41651988751E+02  0.57281492690E+02  0.41800000000E+01 0. -1.
         -5    1    3    3    0  502 -0.21410506811E+02  0.81959354104E+02  0.22068490633E+02  0.87636956850E+02  0.41800000000E+01 0. -1.
        -11    1    1    2    0    0 -0.26946692949E+02 -0.39091220934E+02  0.15522051618E+02  0.49951795777E+02  0.00000000000E+00 0.  1.
         11    1    1    2    0    0  0.11537846806E+02 -0.29709710547E+02 -0.80547262813E+02  0.86623613157E+02  0.00000000000E+00 0. -1.
</event>
<event>
 7    1  0.2844572E-009  0.2495482E+03  0.7561462E-02  0.1113591E+00
         -1   -1    0    0    0  501 -0.00000000000E+00  0.00000000000E+00  0.15429169153E+03  0.15429169153E+03  0.00000000000E+00 0.  1.
          1   -1    0    0  501    0  0.00000000000E+00 -0.00000000000E+00 -0.47721150097E+03  0.47721150097E+03  0.00000000000E+00 0. -1.
         25    2    1    2    0    0  0.11252818007E+03 -0.22116376727E+03 -0.16072779913E+03  0.32102097711E+03  0.12508013058E+03 0.  0.
          5    1    3    3  502    0  0.38685459593E+02 -0.10100809440E+03 -0.14721687196E+01  0.10825358932E+03  0.41800000000E+01 0. -1.
         -5    1    3    3    0  502  0.73842720476E+02 -0.12015567287E+03 -0.15925563041E+03  0.21276738779E+03  0.41800000000E+01 0. -1.
        -11    1    1    2    0    0 -0.67662397157E+02  0.10174181568E+03 -0.13102846412E+03  0.17915930190E+03  0.00000000000E+00 0.  1.
         11    1    1    2    0    0 -0.44865782913E+02  0.11942195159E+03 -0.31163546183E+02  0.13132291350E+03  0.00000000000E+00 0. -1.
</event>
<event>
 7    1  0.2844572E-009  0.1292477E+03  0.7561462E-02  0.1228576E+00
         -2   -1    0    0    0  501 -0.00000000000E+00  0.00000000000E+00  0.64693709442E+02  0.64693709442E+02  0.00000000000E+00 0.  1.
          2   -1    0    0  501    0  0.00000000000E+00 -0.00000000000E+00 -0.30496308658E+03  0.30496308658E+03  0.00000000000E+00 0. -1.
         25    2    1    2    0    0  0.36097337303E+02  0.71616833926E+02 -0.18816566702E+03  0.23976346906E+03  0.12509282230E+03 0.  0.
          5    1    3    3  502    0  0.68478558218E+02  0.35039423789E+01 -0.11869193772E+03  0.13713802911E+03  0.41800000000E+01 0. -1.
         -5    1    3    3    0  502 -0.32381220915E+02  0.68112891548E+02 -0.69473729294E+02  0.10262543995E+03  0.41800000000E+01 0. -1.
        -11    1    1    2    0    0  0.23592004849E+02 -0.40703891522E+02 -0.39657886691E+02  0.61531597205E+02  0.00000000000E+00 0.  1.
         11    1    1    2    0    0 -0.59689342152E+02 -0.30912942404E+02 -0.12445823431E+02  0.68361729758E+02  0.00000000000E+00 0. -1.
</event>
<event>
 6    1  0.2844572E-009  0.9723396E+02  0.7561462E-02  0.1286222E+00
         -2   -1    0    0    0  501 -0.00000000000E+00  0.00000000000E+00  0.31423826849E+02  0.31423826849E+02  0.00000000000E+00 0.  1.
          2   -1    0    0  501    0  0.00000000000E+00 -0.00000000000E+00 -0.56432183729E+03  0.56432183729E+03  0.00000000000E+00 0. -1.
          5    1    1    2  502    0  0.42336051976E+01  0.54853406940E+02 -0.22578896852E+02  0.59616261615E+02  0.41800000000E+01 0.  1.
         -5    1    1    2    0  502  0.39047839920E+02  0.17625144470E+01 -0.21126221385E+03  0.21488842607E+03  0.41800000000E+01 0.  1.
        -11    1    1    2    0    0 -0.62832839596E+02 -0.42145946133E+02 -0.28083768694E+03  0.29085056802E+03  0.00000000000E+00 0. -1.
         11    1    1    2    0    0  0.19551394478E+02 -0.14469975254E+02 -0.18219212791E+02  0.30390408431E+02  0.00000000000E+00 0.  1.
</event>
<event>
 7    1  0.2844572E-009  0.1196443E+03  0.7561462E-02  0.1243685E+00
         -1   -1    0    0    0  501 -0.00000000000E+00  0.00000000000E+00  0.84277234981E+02  0.84277234981E+02  0.00000000000E+00 0.  1.
          1   -1    0    0  501    0  0.00000000000E+00 -0.00000000000E+00 -0.19235406048E+03  0.19235406048E+03  0.00000000000E+00 0. -1.
         25    2    1    2    0    0 -0.41309872205E+00  0.60131969011E+02 -0.27435059437E+02  0.14147710160E+03  0.12508822264E+03 0.  0.
          5    1    3    3  502    0  0.44991837093E+02 -0.14676040925E+02 -0.25336798135E+02  0.53843080539E+02  0.41800000000E+01 0.  1.
         -5    1    3    3    0  502 -0.45404935815E+02  0.74808009936E+02 -0.20982613020E+01  0.87634021061E+02  0.41800000000E+01 0.  1.
        -11    1    1    2    0    0 -0.40939252515E+02 -0.43110736444E+02 -0.26939550256E+02  0.65270953427E+02  0.00000000000E+00 0.  1.
         11    1    1    2    0    0  0.41352351237E+02 -0.17021232567E+02 -0.53702215805E+02  0.69883240433E+02  0.00000000000E+00 0. -1.
</event>
<event>
 7    1  0.2844572E-009  0.1271739E+03  0.7561462E-02  0.1231710E+00
         -1   -1    0    0    0  501 -0.00000000000E+00  0.00000000000E+00  0.48400896573E+02  0.48400896573E+02  0.00000000000E+00 0.  1.
          1   -1    0    0  501    0  0.00000000000E+00 -0.00000000000E+00 -0.38816915049E+03  0.38816915049E+03  0.00000000000E+00 0. -1.
         25    2    1    2    0    0  0.25687747388E+02 -0.65676762414E+02 -0.26036093675E+03  0.29733537748E+03  0.12508881577E+03 0.  0.
          5    1    3    3  502    0 -0.47074702058E+02 -0.45862785632E+02 -0.95591331664E+02  0.11608013512E+03  0.41800000000E+01 0. -1.
         -5    1    3    3    0  502  0.72762449446E+02 -0.19813976782E+02 -0.16476960508E+03  0.18125524237E+03  0.41800000000E+01 0. -1.
        -11    1    1    2    0    0 -0.39466367695E+02  0.82359810159E+02 -0.54969364857E+02  0.10659438813E+03  0.00000000000E+00 0.  1.
         11    1    1    2    0    0  0.13778620307E+02 -0.16683047745E+02 -0.24437952308E+02  0.32640281442E+02  0.00000000000E+00 0. -1.
</event>
<event>
 6    1  0.2844572E-009  0.8560225E+02  0.7561462E-02  0.1313865E+00
         -1   -1    0    0    0  501 -0.00000000000E+00  0.00000000000E+00  0.25870543809E+02  0.25870543809E+02  0.00000000000E+00 0.  1.
          1   -1    0    0  501    0  0.00000000000E+00 -0.00000000000E+00 -0.52947594090E+03  0.52947594090E+03  0.00000000000E+00 0. -1.
          5    1    1    2  502    0 -0.12360094914E+02  0.33259583113E+02 -0.33325996916E+03  0.33516958582E+03  0.41800000000E+01 0.  1.
         -5    1    1    2    0  502 -0.20301326842E+01 -0.44770544495E+02 -0.44663022054E+02  0.63409628860E+02  0.41800000000E+01 0.  1.
        -11    1    1    2    0    0 -0.37480101946E+02  0.89428001320E+01 -0.33954773686E+02  0.51358138325E+02  0.00000000000E+00 0.  1.
         11    1    1    2    0    0  0.51870329545E+02  0.25681612496E+01 -0.91727632192E+02  0.10540913171E+03  0.00000000000E+00 0. -1.
</event>
<event>
 7    1  0.2844572E-009  0.6358681E+02  0.7561462E-02  0.1383368E+00
          2   -1    0    0  501    0  0.00000000000E+00  0.00000000000E+00  0.39246599937E+03  0.39246599937E+03  0.00000000000E+00 0. -1.
         -2   -1    0    0    0  501 -0.00000000000E+00 -0.00000000000E+00 -0.31468659990E+02  0.31468659990E+02  0.00000000000E+00 0.  1.
         25    2    1    2    0    0  0.23057313250E+02 -0.23384093618E+02  0.20214486490E+03  0.23997596000E+03  0.12508980552E+03 0.  0.
          5    1    3    3  502    0  0.40120898478E+02 -0.19387464835E+02  0.85748851941E+01  0.45569302644E+02  0.41800000000E+01 0. -1.
         -5    1    3    3    0  502 -0.17063585228E+02 -0.39966287828E+01  0.19356997971E+03  0.19440665736E+03  0.41800000000E+01 0. -1.
        -11    1    1    2    0    0  0.44911170859E+01 -0.15843000165E+02 -0.15567254773E+01  0.16540682608E+02  0.00000000000E+00 0.  1.
         11    1    1    2    0    0 -0.27548430336E+02  0.39227093783E+02  0.16040919995E+03  0.16741801674E+03  0.00000000000E+00 0. -1.
</event>
<event>
 7    1  0.2844572E-009  0.1267769E+03  0.7561462E-02  0.1232318E+00
          1   -1    0    0  501    0  0.00000000000E+00  0.00000000000E+00  0.45194243437E+03  0.45194243437E+03  0.00000000000E+00 0.  1.
         -1   -1    0    0    0  501 -0.00000000000E+00 -0.00000000000E+00 -0.36363640266E+02  0.36363640266E+02  0.00000000000E+00 0. -1.
         25    2    1    2    0    0 -0.67457983109E+02  0.31003112331E+01  0.21673286488E+03  0.25919205554E+03  0.12508875058E+03 0.  0.
          5    1    3    3  502    0 -0.42723767539E+02  0.62287251239E+02  0.94141774198E+02  0.12076906901E+03  0.41800000000E+01 0.  1.
         -5    1    3    3    0  502 -0.24734215570E+02 -0.59186940005E+02  0.12259109068E+03  0.13842298654E+03  0.41800000000E+01 0.  1.
        -11    1    1    2    0    0  0.55722552097E+02  0.40232883514E+02  0.12668472749E+03  0.14412740165E+03  0.00000000000E+00 0.  1.
         11    1    1    2    0    0  0.11735431012E+02 -0.43333194747E+02  0.72161201734E+02  0.84986617439E+02  0.00000000000E+00 0. -1.
</event>
<event>
 7    1  0.2844572E-009  0.1090795E+03  0.7561462E-02  0.1262284E+00
          2   -1    0    0  501    0  0.00000000000E+00  0.00000000000E+00  0.78210882737E+02  0.78210882737E+02  0.00000000000E+00 0. -1.
         -2   -1    0    0    0  501 -0.00000000000E+00 -0.00000000000E+00 -0.25974119586E+03  0.25974119586E+03  0.00000000000E+00 0.  1.
         25    2    1    2    0    0  0.52344725443E+02  0.52297769086E+02 -0.33001501808E+02  0.14903324625E+03  0.12508709938E+03 0.  0.
          5    1    3    3  502    0 -0.18200966239E+02  0.11480812969E+02  0.36008724996E+02  0.42156671053E+02  0.41800000000E+01 0.  1.
         -5    1    3    3    0  502  0.70545691682E+02  0.40816956117E+02 -0.69010226804E+02  0.10687657519E+03  0.41800000000E+01 0.  1.
        -11    1    1    2    0    0 -0.76900415577E+02 -0.44578356341E+02 -0.98639472423E+02  0.13278045523E+03  0.00000000000E+00 0.  1.
         11    1    1    2    0    0  0.24555690134E+02 -0.77194127458E+01 -0.49889338889E+02  0.56138377123E+02  0.00000000000E+00 0. -1.
</event>
<event>
 7    1  0.2844572E-009  0.1491628E+03  0.7561462E-02  0.1201506E+00
          3   -1    0    0  501    0  0.00000000000E+00  0.00000000000E+00  0.87250744044E+03  0.87250744044E+03  0.00000000000E+00 0. -1.
         -3   -1    0    0    0  501 -0.00000000000E+00 -0.00000000000E+00 -0.29539370524E+02  0.29539370524E+02  0.00000000000E+00 0.  1.
         25    2    1    2    0    0 -0.97115924632E+02  0.64718048214E+02  0.47508089018E+03  0.50494611620E+03  0.12509516164E+03 0.  0.
          5    1    3    3  502    0  0.26224922286E+02  0.34676411775E+02  0.13694426160E+03  0.14374075020E+03  0.41800000000E+01 0. -1.
         -5    1    3    3    0  502 -0.12334084692E+03  0.30041636440E+02  0.33813662858E+03  0.36120536600E+03  0.41800000000E+01 0. -1.
        -11    1    1    2    0    0  0.70906281287E+02 -0.71356983908E+02  0.35121202329E+03  0.36533464821E+03  0.00000000000E+00 0. -1.
         11    1    1    2    0    0  0.26209643346E+02  0.66389356934E+01  0.16675156445E+02  0.31766046558E+02  0.00000000000E+00 0.  1.
</event>
<event>
 7    1  0.2844572E-009  0.1477570E+03  0.7561462E-02  0.1203257E+00
          2   -1    0    0  501    0  0.00000000000E+00  0.00000000000E+00  0.83188138693E+02  0.83188138693E+02  0.00000000000E+00 0. -1.
         -2   -1    0    0    0  501 -0.00000000000E+00 -0.00000000000E+00 -0.27714075915E+03  0.27714075915E+03  0.00000000000E+00 0.  1.
         25    2    1    2    0    0  0.84712370390E+02 -0.55320005217E+02 -0.14536559315E+03  0.21683020231E+03  0.12509073622E+03 0.  0.
          5    1    3    3  502    0  0.62227882019E+02 -0.95754224295E+02 -0.10763968551E+03  0.15698711752E+03  0.41800000000E+01 0.  1.
         -5    1    3    3    0  502  0.22484488371E+02  0.40434219078E+02 -0.37725907637E+02  0.59843084787E+02  0.41800000000E+01 0.  1.
        -11    1    1    2    0    0  0.30508201541E+01  0.46478411230E+02 -0.20859040986E+02  0.51035769858E+02  0.00000000000E+00 0.  1.
         11    1    1    2    0    0 -0.87763190544E+02  0.88415939863E+01 -0.27727986317E+02  0.92462925673E+02  0.00000000000E+00 0. -1.
</event>
<event>
 7    1  0.2844572E-009  0.9265288E+02  0.7561462E-02  0.1296552E+00
          1   -1    0    0  501    0  0.00000000000E+00  0.00000000000E+00  0.33221665699E+03  0.33221665699E+03  0.00000000000E+00 0. -1.
         -1   -1    0    0    0  501 -0.00000000000E+00 -0.00000000000E+00 -0.49579881748E+02  0.49579881748E+02  0.00000000000E+00 0.  1.
         25    2    1    2    0    0 -0.35429549745E+02 -0.38891221417E+02  0.92617376728E+02  0.16430128117E+03  0.12509657239E+03 0.  0.
          5    1    3    3  502    0  0.35356727165E+02 -0.29910166646E+02 -0.10089551629E+01  0.46510285047E+02  0.41800000000E+01 0. -1.
         -5    1    3    3    0  502 -0.70786276910E+02 -0.89810547708E+01  0.93626331891E+02  0.11779099612E+03  0.41800000000E+01 0. -1.
        -11    1    1    2    0    0  0.40078163136E+01  0.35500706933E+02  0.13536202407E+02  0.38204601293E+02  0.00000000000E+00 0.  1.
         11    1    1    2    0    0  0.31421733431E+02  0.33905144838E+01  0.17648319611E+03  0.17929065628E+03  0.00000000000E+00 0. -1.
</event>
<event>
 7    1  0.2844572E-009  0.1064230E+03  0.7561462E-02  0.1267341E+00
          1   -1    0    0  501    0  0.00000000000E+00  0.00000000000E+00  0.17202976436E+03  0.17202976436E+03  0.00000000000E+00 0. -1.
         -1   -1    0    0    0  501 -0.00000000000E+00 -0.00000000000E+00 -0.87646267888E+02  0.87646267888E+02  0.00000000000E+00 0.  1.
         25    2    1    2    0    0 -0.24014265003E+02  0.98675090844E+01 -0.13691552211E+01  0.12776303105E+03  0.12508982716E+03 0.  0.
          5    1    3    3  502    0 -0.15439651640E+02 -0.54238769599E+02 -0.20559241576E+02  0.60169608480E+02  0.41800000000E+01 0.  1.
         -5    1    3    3    0  502 -0.85746133633E+01  0.64106278684E+02  0.19190086355E+02  0.67593422574E+02  0.41800000000E+01 0.  1.
        -11    1    1    2    0    0  0.37629087859E+02 -0.42118052993E+02  0.77586822594E+02  0.95966627956E+02  0.00000000000E+00 0. -1.
         11    1    1    2    0    0 -0.13614822856E+02  0.32250543909E+02  0.81658290937E+01  0.35946373233E+02  0.00000000000E+00 0.  1.
</event>
<event>
 7    1  0.2844572E-009  0.2178050E+03  0.7561462E-02  0.1135530E+00
          2   -1    0    0  501    0  0.00000000000E+00  0.00000000000E+00  0.15549035710E+04  0.15549035710E+04  0.00000000000E+00 0. -1.
         -2   -1    0    0    0  501 -0.00000000000E+00 -0.00000000000E+00 -0.56720785785E+02  0.56720785785E+02  0.00000000000E+00 0.  1.
         25    2    1    2    0    0  0.54236046495E+02  0.20085160465E+03  0.12595597486E+04  0.12827397646E+04  0.12509047812E+03 0.  0.
          5    1    3    3  502    0  0.47317173612E+02  0.55926037059E+02  0.72898463300E+03  0.73266820873E+03  0.41800000000E+01 0.  1.
         -5    1    3    3    0  502  0.69188728835E+01  0.14492556759E+03  0.53057511558E+03  0.55007155590E+03  0.41800000000E+01 0.  1.
        -11    1    1    2    0    0  0.21287074260E+01 -0.11096581316E+03  0.16829199234E+03  0.20159399240E+03  0.00000000000E+00 0.  1.
         11    1    1    2    0    0 -0.56364753921E+02 -0.89885791493E+02  0.70331044337E+02  0.12729059979E+03  0.00000000000E+00 0. -1.
</event>
<event>
 7    1  0.2844572E-009  0.9266729E+02  0.7561462E-02  0.1296518E+00
         -4   -1    0    0    0  501 -0.00000000000E+00  0.00000000000E+00  0.11161340086E+03  0.11161340086E+03  0.00000000000E+00 0. -1.
          4   -1    0    0  501    0  0.00000000000E+00 -0.00000000000E+00 -0.13777592028E+03  0.13777592028E+03  0.00000000000E+00 0.  1.
         25    2    1    2    0    0 -0.13452419541E+02 -0.28570609358E+02 -0.89108483135E+02  0.15679570546E+03  0.12508926482E+03 0.  0.
          5    1    3    3  502    0 -0.26859738218E+02 -0.74329245332E+02 -0.41832214165E+02  0.89519209060E+02  0.41800000000E+01 0. -1.
         -5    1    3    3    0  502  0.13407318677E+02  0.45758635974E+02 -0.47276268969E+02  0.67276496401E+02  0.41800000000E+01 0. -1.
        -11    1    1    2    0    0  0.12671256110E+02 -0.12174942683E+02  0.44531754053E+02  0.47873448589E+02  0.00000000000E+00 0. -1.
         11    1    1    2    0    0  0.78116343035E+00  0.40745552041E+02  0.18414209657E+02  0.44720167091E+02  0.00000000000E+00 0.  1.
</event>
<event>
 7    1  0.2844572E-009  0.1589551E+03  0.7561462E-02  0.1189881E+00
          2   -1    0    0  501    0  0.00000000000E+00  0.00000000000E+00  0.40288484771E+03  0.40288484771E+03  0.00000000000E+00 0. -1.
         -2   -1    0    0    0  501 -0.00000000000E+00 -0.00000000000E+00 -0.71342497526E+02  0.71342497526E+02  0.00000000000E+00 0.  1.
         25    2    1    2    0    0  0.82168731038E+02 -0.86421621063E+02  0.10438247799E+03  0.20188939731E+03  0.12507289909E+03 0.  0.
          5    1    3    3  502    0 -0.30809796100E+02 -0.23198329520E+02  0.60521307443E+01  0.39262026371E+02  0.41800000000E+01 0.  1.
         -5    1    3    3    0  502  0.11297852714E+03 -0.63223291543E+02  0.98330347245E+02  0.16262737093E+03  0.41800000000E+01 0.  1.
        -11    1    1    2    0    0 -0.56535599793E+02 -0.29470681356E+01  0.74055850501E+02  0.93216029995E+02  0.00000000000E+00 0.  1.
         11    1    1    2    0    0 -0.25633131245E+02  0.89368689198E+02  0.15310402170E+03  0.17912191794E+03  0.00000000000E+00 0. -1.
</event>
<event>
 7    1  0.2844572E-009  0.3033843E+03  0.7561462E-02  0.1083561E+00
          2   -1    0    0  501    0  0.00000000000E+00  0.00000000000E+00  0.10699928857E+04  0.10699928857E+04  0.00000000000E+00 0. -1.
         -2   -1    0    0    0  501 -0.00000000000E+00 -0.00000000000E+00 -0.94588845445E+02  0.94588845445E+02  0.00000000000E+00 0.  1.
         25    2    1    2    0    0  0.23106052502E+03 -0.18350276272E+03  0.41720427646E+03  0.52608882116E+03  0.12509120391E+03 0.  0.
          5    1    3    3  502    0  0.14699333279E+03 -0.15518689201E+03  0.20563274549E+03  0.29663497730E+03  0.41800000000E+01 0.  1.
         -5    1    3    3    0  502  0.84067192233E+02 -0.28315870705E+02  0.21157153097E+03  0.22945384386E+03  0.41800000000E+01 0.  1.
        -11    1    1    2    0    0 -0.89321573889E+02  0.27649309625E+02  0.11863509165E+03  0.15105334440E+03  0.00000000000E+00 0.  1.
         11    1    1    2    0    0 -0.14173895113E+03  0.15585345309E+03  0.43956467219E+03  0.48743956563E+03  0.00000000000E+00 0. -1.
</event>
<event>
 7    1  0.2844572E-009  0.1717082E+03  0.7561462E-02  0.1176078E+00
          2   -1    0    0  501    0  0.00000000000E+00  0.00000000000E+00  0.11295543170E+04  0.11295543170E+04  0.00000000000E+00 0. -1.
         -2   -1    0    0    0  501 -0.00000000000E+00 -0.00000000000E+00 -0.39218076452E+02  0.39218076452E+02  0.00000000000E+00 0.  1.
         25    2    1    2    0    0  0.40240549664E+02 -0.14887888315E+03  0.82769355772E+03  0.85117945683E+03  0.12508244701E+03 0.  0.
          5    1    3    3  502    0  0.77746456425E+02 -0.10386953019E+03  0.67915239556E+03  0.69144691740E+03  0.41800000000E+01 0.  1.
         -5    1    3    3    0  502 -0.37505906761E+02 -0.45009352963E+02  0.14854116216E+03  0.15973253943E+03  0.41800000000E+01 0.  1.
        -11    1    1    2    0    0 -0.19082963904E+02  0.96673171006E+02  0.23504698650E+03  0.25486652853E+03  0.00000000000E+00 0. -1.
         11    1    1    2    0    0 -0.21157585760E+02  0.52205712148E+02  0.27595696328E+02  0.62726408090E+02  0.00000000000E+00 0.  1.
</event>
<event>
 7    1  0.2844572E-009  0.1333401E+03  0.7561462E-02  0.1222582E+00
          2   -1    0    0  501    0  0.00000000000E+00  0.00000000000E+00  0.69589729786E+03  0.69589729786E+03  0.00000000000E+00 0.  1.
         -2   -1    0    0    0  501 -0.00000000000E+00 -0.00000000000E+00 -0.37306149514E+02  0.37306149514E+02  0.00000000000E+00 0. -1.
         25    2    1    2    0    0  0.10379395821E+03  0.35167474955E+02  0.25498029569E+03  0.30442200271E+03  0.12509143649E+03 0.  0.
          5    1    3    3  502    0  0.10240451630E+03  0.45547406798E+02  0.26598644936E+03  0.28866505654E+03  0.41800000000E+01 0. -1.
         -5    1    3    3    0  502  0.13894419087E+01 -0.10379931843E+02 -0.11006153667E+02  0.15756946164E+02  0.41800000000E+01 0. -1.
        -11    1    1    2    0    0  0.22540044810E+01 -0.37115107930E+02  0.13382210844E+03  0.13889193094E+03  0.00000000000E+00 0.  1.
         11    1    1    2    0    0 -0.10604796269E+03  0.19476329747E+01  0.26978874421E+03  0.28988951373E+03  0.00000000000E+00 0. -1.
</event>
<event>
 7    1  0.2844572E-009  0.1790698E+03  0.7561462E-02  0.1168706E+00
         -1   -1    0    0    0  501 -0.00000000000E+00  0.00000000000E+00  0.77202854921E+02  0.77202854921E+02  0.00000000000E+00 0.  1.
          1   -1    0    0  501    0  0.00000000000E+00 -0.00000000000E+00 -0.75371301839E+03  0.75371301839E+03  0.00000000000E+00 0. -1.
         25    2    1    2    0    0  0.82425498900E+02 -0.13350343411E+03 -0.60137079179E+03  0.63396499509E+03  0.12509059117E+03 0.  0.
          5    1    3    3  502    0  0.44426808223E+02 -0.66642448364E+01 -0.51988346208E+02  0.68836138689E+02  0.41800000000E+01 0. -1.
         -5    1    3    3    0  502  0.37998690677E+02 -0.12683918927E+03 -0.54938244558E+03  0.56512885641E+03  0.41800000000E+01 0. -1.
        -11    1    1    2    0    0  0.64033074535E+01  0.72513632962E+02 -0.18005820077E+02  0.74989591733E+02  0.00000000000E+00 0. -1.
         11    1    1    2    0    0 -0.88828806353E+02  0.60989801149E+02 -0.57133551607E+02  0.12196128649E+03  0.00000000000E+00 0.  1.
</event>
<event>
 7    1  0.2844572E-009  0.8230047E+02  0.7561462E-02  0.1322647E+00
          3   -1    0    0  501    0  0.00000000000E+00  0.00000000000E+00  0.19106606074E+03  0.19106606074E+03  0.00000000000E+00 0. -1.
         -3   -1    0    0    0  501 -0.00000000000E+00 -0.00000000000E+00 -0.61016981794E+02  0.61016981794E+02  0.00000000000E+00 0.  1.
         25    2    1    2    0    0  0.21316982303E+02 -0.18058584341E+02  0.56841298518E+02  0.14021700708E+03  0.12509736070E+03 0.  0.
          5    1    3    3  502    0  0.49666727462E+02 -0.14173383128E+02  0.85195828344E+02  0.99716950281E+02  0.41800000000E+01 0.  1.
         -5    1    3    3    0  502 -0.28349745159E+02 -0.38852012127E+01 -0.28354529826E+02  0.40500056799E+02  0.41800000000E+01 0.  1.
        -11    1    1    2    0    0  0.17976190271E+01 -0.30253712559E+02  0.19622085435E+02  0.36104636746E+02  0.00000000000E+00 0.  1.
         11    1    1    2    0    0 -0.23114601330E+02  0.48312296900E+02  0.53585694992E+02  0.75761398707E+02  0.00000000000E+00 0. -1.
</event>
<event>
 7    1  0.2844572E-009  0.1245925E+03  0.7561462E-02  0.1235708E+00
          2   -1    0    0  501    0  0.00000000000E+00  0.00000000000E+00  0.10267954650E+03  0.10267954650E+03  0.00000000000E+00 0. -1.
         -2   -1    0    0    0  501 -0.00000000000E+00 -0.00000000000E+00 -0.20233962635E+03  0.20233962635E+03  0.00000000000E+00 0.  1.
         25    2    1    2    0    0 -0.43319124108E+02 -0.83057177951E+02 -0.32893450769E+02  0.15970116283E+03  0.12508973172E+03 0.  0.
          5    1    3    3  502    0 -0.70657086139E+02 -0.54253290763E+02  0.21967159663E+02  0.91847002585E+02  0.41800000000E+01 0.  1.
         -5    1    3    3    0  502  0.27337962030E+02 -0.28803887188E+02 -0.54860610432E+02  0.67854160242E+02  0.41800000000E+01 0.  1.
        -11    1    1    2    0    0  0.49574960192E+02  0.15093960985E+02 -0.55869442730E+02  0.76203011536E+02  0.00000000000E+00 0.  1.
         11    1    1    2    0    0 -0.62558360833E+01  0.67963216966E+02 -0.10897186345E+02  0.69114998486E+02  0.00000000000E+00 0. -1.
</event>
<event>
 7    1  0.2844572E-009  0.8004650E+02  0.7561462E-02  0.1328920E+00
          3   -1    0    0  501    0  0.00000000000E+00  0.00000000000E+00  0.58373347070E+02  0.58373347070E+02  0.00000000000E+00 0. -1.
         -3   -1    0    0    0  501 -0.00000000000E+00 -0.00000000000E+00 -0.13049350264E+03  0.13049350264E+03  0.00000000000E+00 0.  1.
         25    2    1    2    0    0 -0.47548542200E+01 -0.22232958987E+02 -0.72947925264E+02  0.14658021155E+03  0.12508974983E+03 0.  0.
          5    1    3    3  502    0  0.50723411552E+02  0.15467664652E+02 -0.92658599657E+01  0.53994830217E+02  0.41800000000E+01 0.  1.
         -5    1    3    3    0  502 -0.55478265772E+02 -0.37700623639E+02 -0.63682065299E+02  0.92585381333E+02  0.41800000000E+01 0.  1.
        -11    1    1    2    0    0  0.10607020173E+02 -0.50796501809E+01 -0.64613905865E+01  0.13418691859E+02  0.00000000000E+00 0.  1.
         11    1    1    2    0    0 -0.58521659526E+01  0.27312609168E+02  0.72891602835E+01  0.28867946299E+02  0.00000000000E+00 0. -1.
</event>
<event>
 7    1  0.2844572E-009  0.8621661E+02  0.7561462E-02  0.1312281E+00
          2   -1    0    0  501    0  0.00000000000E+00  0.00000000000E+00  0.47549108740E+03  0.47549108740E+03  0.00000000000E+00 0. -1.
         -2   -1    0    0    0  501 -0.00000000000E+00 -0.00000000000E+00 -0.42805710937E+02  0.42805710937E+02  0.00000000000E+00 0.  1.
         25    2    1    2    0    0 -0.18897426178E+02 -0.47091928649E+02  0.37947312913E+03  0.40276597565E+03  0.12508322410E+03 0.  0.
          5    1    3    3  502    0 -0.39797309431E+02  0.24098330912E+02  0.67651238559E+02  0.82211421769E+02  0.41800000000E+01 0. -1.
         -5    1    3    3    0  502  0.20899883253E+02 -0.71190259561E+02  0.31182189057E+03  0.32055455388E+03  0.41800000000E+01 0. -1.
        -11    1    1    2    0    0  0.15001099270E+02  0.26499794678E+02  0.77608530494E+02  0.83368795737E+02  0.00000000000E+00 0. -1.
         11    1    1    2    0    0  0.38963269083E+01  0.20592133971E+02 -0.24396283164E+02  0.32162026943E+02  0.00000000000E+00 0.  1.
</event>
<event>
 7    1  0.2844572E-009  0.1160369E+03  0.7561462E-02  0.1249782E+00
         -1   -1    0    0    0  501 -0.00000000000E+00  0.00000000000E+00  0.29592784009E+03  0.29592784009E+03  0.00000000000E+00 0.  1.
          1   -1    0    0  501    0  0.00000000000E+00 -0.00000000000E+00 -0.49511732955E+02  0.49511732955E+02  0.00000000000E+00 0. -1.
         25    2    1    2    0    0 -0.32500306973E+02 -0.96932912597E+01  0.94311123278E+02  0.16029131346E+03  0.12509391411E+03 0.  0.
          5    1    3    3  502    0 -0.71772567637E+02 -0.36611555961E+02  0.48776943155E+02  0.94278152711E+02  0.41800000000E+01 0.  1.
         -5    1    3    3    0  502  0.39272260664E+02  0.26918264701E+02  0.45534180123E+02  0.66013160746E+02  0.41800000000E+01 0.  1.
        -11    1    1    2    0    0  0.12120200306E+02  0.53727357766E+02  0.98435474459E+02  0.11279659064E+03  0.00000000000E+00 0.  1.
         11    1    1    2    0    0  0.20380106667E+02 -0.44034066506E+02  0.53669509402E+02  0.72351668953E+02  0.00000000000E+00 0. -1.
</event>
<event>
 7    1  0.2844572E-009  0.9458747E+02  0.7561462E-02  0.1292108E+00
         -2   -1    0    0    0  501 -0.00000000000E+00  0.00000000000E+00  0.18040857030E+02  0.18040857030E+02  0.00000000000E+00 0. -1.
          2   -1    0    0  501    0  0.00000000000E+00 -0.00000000000E+00 -0.90891257850E+03  0.90891257850E+03  0.00000000000E+00 0.  1.
         25    2    1    2    0    0 -0.10509133906E+02  0.54851165604E+02 -0.61223407933E+03  0.62737229655E+03  0.12508532416E+03 0.  0.
          5    1    3    3  502    0 -0.31805991071E+02 -0.35530952696E+01 -0.38386763593E+02  0.50152383524E+02  0.41800000000E+01 0.  1.
         -5    1    3    3    0  502  0.21296857165E+02  0.58404260874E+02 -0.57384731574E+03  0.57721991303E+03  0.41800000000E+01 0.  1.
        -11    1    1    2    0    0  0.41373519961E+02 -0.14607703118E+02 -0.20826986996E+03  0.21284147123E+03  0.00000000000E+00 0.  1.
         11    1    1    2    0    0 -0.30864386055E+02 -0.40243462486E+02 -0.70367772184E+02  0.86739667751E+02  0.00000000000E+00 0. -1.
</event>
<event>
 7    1  0.2844572E-009  0.1639356E+03  0.7561462E-02  0.1184324E+00
         -2   -1    0    0    0  501 -0.00000000000E+00  0.00000000000E+00  0.30767707786E+02  0.30767707786E+02  0.00000000000E+00 0.  1.
          2   -1    0    0  501    0  0.00000000000E+00 -0.00000000000E+00 -0.10338454977E+04  0.10338454977E+04  0.00000000000E+00 0. -1.
         25    2    1    2    0    0  0.11399275104E+03 -0.81294865751E+02 -0.47095154724E+03  0.50699710013E+03  0.12508995643E+03 0.  0.
          5    1    3    3  502    0 -0.96407012642E+01 -0.55308763855E+02 -0.95741898896E+02  0.11106748437E+03  0.41800000000E+01 0.  1.
         -5    1    3    3    0  502  0.12363345230E+03 -0.25986101897E+02 -0.37520964835E+03  0.39592961576E+03  0.41800000000E+01 0.  1.
        -11    1    1    2    0    0 -0.33107976528E+02  0.46584641964E+02 -0.88549535657E+02  0.10539111557E+03  0.00000000000E+00 0.  1.
         11    1    1    2    0    0 -0.80884774511E+02  0.34710223787E+02 -0.44357670704E+03  0.45222498982E+03  0.00000000000E+00 0. -1.
</event>
<event>
 7    1  0.2844572E-009  0.1038795E+03  0.7561462E-02  0.1272343E+00
         -2   -1    0    0    0  501 -0.00000000000E+00  0.00000000000E+00  0.20621536661E+02  0.20621536661E+02  0.00000000000E+00 0.  1.
          2   -1    0    0  501    0  0.00000000000E+00 -0.00000000000E+00 -0.61845569822E+03  0.61845569822E+03  0.00000000000E+00 0. -1.
         25    2    1    2    0    0  0.70980825558E+01  0.26628200768E+02 -0.39255667561E+03  0.41292577927E+03  0.12509001466E+03 0.  0.
          5    1    3    3  502    0 -0.43035764176E+02 -0.27756625968E+02 -0.12128272659E+03  0.13171742273E+03  0.41800000000E+01 0. -1.
         -5    1    3    3    0  502  0.50133846731E+02  0.54384826737E+02 -0.27127394902E+03  0.28120835654E+03  0.41800000000E+01 0. -1.
        -11    1    1    2    0    0  0.85931353499E+01  0.25996006831E+02 -0.13070369051E+03  0.13354058956E+03  0.00000000000E+00 0. -1.
         11    1    1    2    0    0 -0.15691217906E+02 -0.52624207600E+02 -0.74573795435E+02  0.92610866050E+02  0.00000000000E+00 0.  1.
</event>
<event>
 7    1  0.2844572E-009  0.1738770E+03  0.7561462E-02  0.1173864E+00
         -2   -1    0    0    0  501 -0.00000000000E+00  0.00000000000E+00  0.42197547996E+02  0.42197547996E+02  0.00000000000E+00 0.  1.
          2   -1    0    0  501    0  0.00000000000E+00 -0.00000000000E+00 -0.14150544984E+04  0.14150544984E+04  0.00000000000E+00 0. -1.
         25    2    1    2    0    0  0.77942625094E+02 -0.15398146210E+03 -0.11096732812E+04  0.11299595964E+04  0.12509418457E+03 0.  0.
          5    1    3    3  502    0  0.73622628269E+02 -0.12528305767E+03 -0.53089318094E+03  0.55043726064E+03  0.41800000000E+01 0. -1.
         -5    1    3    3    0  502  0.43199968250E+01 -0.28698404432E+02 -0.57878010030E+03  0.57952233580E+03  0.41800000000E+01 0. -1.
        -11    1    1    2    0    0 -0.13737729287E+02  0.17658071674E+02  0.18161625871E+01  0.22446183367E+02  0.00000000000E+00 0.  1.
         11    1    1    2    0    0 -0.64204895807E+02  0.13632339042E+03 -0.26499983171E+03  0.30484626655E+03  0.00000000000E+00 0. -1.
</event>
<event>
 7    1  0.2844572E-009  0.1098749E+03  0.7561462E-02  0.1260802E+00
          1   -1    0    0  501    0  0.00000000000E+00  0.00000000000E+00  0.18255251392E+03  0.18255251392E+03  0.00000000000E+00 0. -1.
         -1   -1    0    0    0  501 -0.00000000000E+00 -0.00000000000E+00 -0.11591749779E+03  0.11591749779E+03  0.00000000000E+00 0.  1.
         25    2    1    2    0    0 -0.37983990212E+02  0.11524953491E+02 -0.56292651840E+02  0.14280017443E+03  0.12508964426E+03 0.  0.
          5    1    3    3  502    0 -0.14679009194E+02  0.66112613967E+02 -0.47090703639E+02  0.82591511705E+02  0.41800000000E+01 0.  1.
         -5    1    3    3    0  502 -0.23304981017E+02 -0.54587660476E+02 -0.92019482013E+01  0.60208662725E+02  0.41800000000E+01 0.  1.
        -11    1    1    2    0    0  0.48369214160E+02  0.24983392713E+02  0.52316346178E+02  0.75503316929E+02  0.00000000000E+00 0. -1.
         11    1    1    2    0    0 -0.10385223948E+02 -0.36508346204E+02  0.70611321791E+02  0.80166520344E+02  0.00000000000E+00 0.  1.
</event>
<event>
 7    1  0.2844572E-009  0.1321203E+03  0.7561462E-02  0.1224343E+00
         -1   -1    0    0    0  501 -0.00000000000E+00  0.00000000000E+00  0.16639579685E+02  0.16639579685E+02  0.00000000000E+00 0.  1.
          1   -1    0    0  501    0  0.00000000000E+00 -0.00000000000E+00 -0.12241029504E+04  0.12241029504E+04  0.00000000000E+00 0. -1.
         25    2    1    2    0    0 -0.25432285376E+01 -0.74165029667E+02 -0.87038359536E+03  0.88245237921E+03  0.12509068250E+03 0.  0.
          5    1    3    3  502    0 -0.43301246296E+02 -0.89848280772E+02 -0.53762175882E+03  0.54681106376E+03  0.41800000000E+01 0. -1.
         -5    1    3    3    0  502  0.40758017758E+02  0.15683251105E+02 -0.33276183654E+03  0.33564131545E+03  0.41800000000E+01 0. -1.
        -11    1    1    2    0    0 -0.28284849422E+02 -0.10709218840E+02 -0.66875088329E+02  0.73396168252E+02  0.00000000000E+00 0. -1.
         11    1    1    2    0    0  0.30828077959E+02  0.84874248507E+02 -0.27020468707E+03  0.28489398267E+03  0.00000000000E+00 0.  1.
</event>
<event>
 7    1  0.2844572E-009  0.1220446E+03  0.7561462E-02  0.1239762E+00
          2   -1    0    0  501    0  0.00000000000E+00  0.00000000000E+00  0.61499150956E+03  0.61499150956E+03  0.00000000000E+00 0.  1.
         -2   -1    0    0    0  501 -0.00000000000E+00 -0.00000000000E+00 -0.29836158575E+02  0.29836158575E+02  0.00000000000E+00 0. -1.
         25    2    1    2    0    0 -0.45722913948E+02 -0.55641999427E+02  0.40554217452E+03  0.43046903968E+03  0.12511003893E+03 0.  0.
          5    1    3    3  502    0 -0.39717312596E+02  0.29688216527E+02  0.22776894209E+03  0.23314162756E+03  0.41800000000E+01 0. -1.
         -5    1    3    3    0  502 -0.60056013520E+01 -0.85330215953E+02  0.17777323243E+03  0.19732741212E+03  0.41800000000E+01 0. -1.
        -11    1    1    2    0    0 -0.22993034887E+02  0.23306156557E+02  0.22120308915E+02  0.39511576193E+02  0.00000000000E+00 0. -1.
         11    1    1    2    0    0  0.68715948836E+02  0.32335842870E+02  0.15749286754E+03  0.17484705227E+03  0.00000000000E+00 0.  1.
</event>
<event>
 7    1  0.2844572E-009  0.2056189E+03  0.7561462E-02  0.1145083E+00
         -1   -1    0    0    0  501 -0.00000000000E+00  0.00000000000E+00  0.17261983533E+02  0.17261983533E+02  0.00000000000E+00 0.  1.
          1   -1    0    0  501    0  0.00000000000E+00 -0.00000000000E+00 -0.28814341439E+04  0.28814341439E+04  0.00000000000E+00 0. -1.
         25    2    1    2    0    0  0.17999069911E+03 -0.36588729548E+02 -0.18877946869E+04  0.19008290644E+04  0.12508783055E+03 0.  0.
          5    1    3    3  502    0  0.95577638410E+02 -0.77745717426E+02 -0.86790595257E+03  0.87661718922E+03  0.41800000000E+01 0. -1.
         -5    1    3    3    0  502  0.84413060702E+02  0.41156987878E+02 -0.10198887344E+04  0.10242118752E+04  0.41800000000E+01 0. -1.
        -11    1    1    2    0    0 -0.13064490988E+03  0.54367665356E+02 -0.83837256714E+03  0.85023084915E+03  0.00000000000E+00 0.  1.
         11    1    1    2    0    0 -0.49345789228E+02 -0.17778935809E+02 -0.13800490628E+03  0.14763621382E+03  0.00000000000E+00 0. -1.
</event>
<event>
 7    1  0.2844572E-009  0.5694245E+02  0.7561462E-02  0.1411130E+00
         -2   -1    0    0    0  501 -0.00000000000E+00  0.00000000000E+00  0.36837205261E+02  0.36837205261E+02  0.00000000000E+00 0.  1.
          2   -1    0    0  501    0  0.00000000000E+00 -0.00000000000E+00 -0.33749072777E+03  0.33749072777E+03  0.00000000000E+00 0. -1.
         25    2    1    2    0    0 -0.41517667943E+01 -0.17256521991E+02 -0.19955564122E+03  0.23618909841E+03  0.12509121290E+03 0.  0.
          5    1    3    3  502    0 -0.28217059333E+01 -0.12513718225E+02  0.15777252129E+02  0.20759317256E+02  0.41800000000E+01 0. -1.
         -5    1    3    3    0  502 -0.13300608611E+01 -0.47428037660E+01 -0.21533289335E+03  0.21542978116E+03  0.41800000000E+01 0. -1.
        -11    1    1    2    0    0 -0.44021210282E+02  0.10822856072E+02 -0.53328596929E+02  0.69992431153E+02  0.00000000000E+00 0.  1.
         11    1    1    2    0    0  0.48172977077E+02  0.64336659187E+01 -0.47769284361E+02  0.68146403470E+02  0.00000000000E+00 0. -1.
</event>
<event>
 7    1  0.3117085E-009  0.1073158E+03  0.7561462E-02  0.1265623E+00
          1   -1    0    0  501    0  0.00000000000E+00  0.00000000000E+00  0.30103918730E+03  0.30103918730E+03  0.00000000000E+00 0. -1.
         -1   -1    0    0    0  501 -0.00000000000E+00 -0.00000000000E+00 -0.71189548948E+02  0.71189548948E+02  0.00000000000E+00 0.  1.
         25    2    1    2    0    0 -0.49349645392E+02  0.55245078323E+02  0.20680795552E+03  0.25278751119E+03  0.12507833213E+03 0.  0.
          5    1    3    3  502    0  0.35601244299E+01  0.43086274703E+02  0.49512114251E+01  0.43715997625E+02  0.41800000000E+01 0. -1.
         -5    1    3    3    0  502 -0.52909769822E+02  0.12158803620E+02  0.20185674409E+03  0.20907151356E+03  0.41800000000E+01 0. -1.
        -11    1    1    2    0    0  0.30101304833E+02  0.21907789329E+02  0.12258076416E+02  0.39195665875E+02  0.00000000000E+00 0. -1.
         11    1    1    2    0    0  0.19248340558E+02 -0.77152867652E+02  0.10783606415E+02  0.80245559183E+02  0.00000000000E+00 0.  1.
</event>
<event>
 7    1  0.2844572E-009  0.1180497E+03  0.7561462E-02  0.1246350E+00
         -1   -1    0    0    0  501 -0.00000000000E+00  0.00000000000E+00  0.10894156580E+03  0.10894156580E+03  0.00000000000E+00 0.  1.
          1   -1    0    0  501    0  0.00000000000E+00 -0.00000000000E+00 -0.18063530952E+03  0.18063530952E+03  0.00000000000E+00 0. -1.
         25    2    1    2    0    0 -0.21139104437E+02  0.41393428975E+02 -0.11625409227E+03  0.17698204015E+03  0.12508937153E+03 0.  0.
          5    1    3    3  502    0 -0.15428371943E+02  0.86067350144E+02 -0.68031359425E+02  0.11086641370E+03  0.41800000000E+01 0.  1.
         -5    1    3    3    0  502 -0.57107324945E+01 -0.44673921169E+02 -0.48222732847E+02  0.66115626454E+02  0.41800000000E+01 0.  1.
        -11    1    1    2    0    0 -0.21498517149E+02  0.19478304702E+02  0.10627328819E+02  0.30895480438E+02  0.00000000000E+00 0.  1.
         11    1    1    2    0    0  0.42637621587E+02 -0.60871733676E+02  0.33933019730E+02  0.81699354730E+02  0.00000000000E+00 0. -1.
</event>
<event>
 7    1  0.2844572E-009  0.1130319E+03  0.7561462E-02  0.1255056E+00
         -1   -1    0    0    0  501 -0.00000000000E+00  0.00000000000E+00  0.39537712778E+03  0.39537712778E+03  0.00000000000E+00 0.  1.
          1   -1    0    0  501    0  0.00000000000E+00 -0.00000000000E+00 -0.34823983517E+02  0.34823983517E+02  0.00000000000E+00 0. -1.
         25    2    1    2    0    0 -0.28345840561E+01  0.41792442968E+02  0.16870451737E+03  0.21415804067E+03  0.12509120291E+03 0.  0.
          5    1    3    3  502    0 -0.61101088492E+02  0.26234183490E+02  0.11686107805E+03  0.13451973595E+03  0.41800000000E+01 0.  1.
         -5    1    3    3    0  502  0.58266504436E+02  0.15558259478E+02  0.51843439324E+02  0.79638304717E+02  0.41800000000E+01 0.  1.
        -11    1    1    2    0    0  0.44068289536E+02 -0.36871353899E+02  0.10223125937E+03  0.11727208225E+03  0.00000000000E+00 0.  1.
         11    1    1    2    0    0 -0.41233705480E+02 -0.49210890691E+01  0.89617367515E+02  0.98770988379E+02  0.00000000000E+00 0. -1.
</event>
<event>
 7    1  0.2844572E-009  0.6695713E+02  0.7561462E-02  0.1370757E+00
          2   -1    0    0  501    0  0.00000000000E+00  0.00000000000E+00  0.10165644901E+04  0.10165644901E+04  0.00000000000E+00 0.  1.
         -2   -1    0    0    0  501 -0.00000000000E+00 -0.00000000000E+00 -0.22321612161E+02  0.22321612161E+02  0.00000000000E+00 0. -1.
         25    2    1    2    0    0 -0.17546887058E+02  0.10685592765E+02  0.86401479545E+03  0.87326512407E+03  0.12509330521E+03 0.  0.
          5    1    3    3  502    0 -0.22480640629E+02  0.14167344147E+02  0.86537761125E+03  0.86579557362E+03  0.41800000000E+01 0.  1.
         -5    1    3    3    0  502  0.49337535710E+01 -0.34817513819E+01 -0.13628157977E+01  0.74695504472E+01  0.41800000000E+01 0.  1.
        -11    1    1    2    0    0 -0.23311091041E+02 -0.42106244429E+02  0.44260907622E+02  0.65386319127E+02  0.00000000000E+00 0.  1.
         11    1    1    2    0    0  0.40857978099E+02  0.31420651664E+02  0.85967174894E+02  0.10023465910E+03  0.00000000000E+00 0. -1.
</event>
<event>
 7    1  0.2844572E-009  0.1049987E+03  0.7561462E-02  0.1270122E+00
          1   -1    0    0  501    0  0.00000000000E+00  0.00000000000E+00  0.53159201637E+03  0.53159201637E+03  0.00000000000E+00 0. -1.
         -1   -1    0    0    0  501 -0.00000000000E+00 -0.00000000000E+00 -0.29113919141E+02  0.29113919141E+02  0.00000000000E+00 0.  1.
         25    2    1    2    0    0 -0.50863360269E+02  0.21817602065E+02  0.22164038794E+03  0.26045510503E+03  0.12509720618E+03 0.  0.
          5    1    3    3  502    0 -0.19421641449E+02  0.55523986979E+02  0.20154862902E+03  0.20999865606E+03  0.41800000000E+01 0.  1.
         -5    1    3    3    0  502 -0.31441718820E+02 -0.33706384914E+02  0.20091758916E+02  0.50456448970E+02  0.41800000000E+01 0.  1.
        -11    1    1    2    0    0 -0.13782347153E+02 -0.36010052526E+02  0.80379321658E+02  0.89148821227E+02  0.00000000000E+00 0. -1.
         11    1    1    2    0    0  0.64645707422E+02  0.14192450460E+02  0.20045838763E+03  0.21110200925E+03  0.00000000000E+00 0.  1.
</event>
<event>
 7    1  0.2844572E-009  0.1073325E+03  0.7561462E-02  0.1265591E+00
          2   -1    0    0  501    0  0.00000000000E+00  0.00000000000E+00  0.90172971066E+03  0.90172971066E+03  0.00000000000E+00 0. -1.
         -2   -1    0    0    0  501 -0.00000000000E+00 -0.00000000000E+00 -0.15998485351E+02  0.15998485351E+02  0.00000000000E+00 0.  1.
         25    2    1    2    0    0  0.40999568639E+02 -0.27656218579E+01  0.36413203546E+03  0.38720499240E+03  0.12508778358E+03 0.  0.
          5    1    3    3  502    0  0.62952900510E+02  0.36399591993E+02  0.13227528532E+03  0.15100404460E+03  0.41800000000E+01 0. -1.
         -5    1    3    3    0  502 -0.21953331871E+02 -0.39165213851E+02  0.23185675013E+03  0.23620094780E+03  0.41800000000E+01 0. -1.
        -11    1    1    2    0    0 -0.68672310573E+02 -0.17521527519E+01  0.35604019924E+03  0.36260664604E+03  0.00000000000E+00 0. -1.
         11    1    1    2    0    0  0.27672741934E+02  0.45177746098E+01  0.16555899061E+03  0.16791655756E+03  0.00000000000E+00 0.  1.
</event>
<event>
 7    1  0.2844572E-009  0.9547481E+02  0.7561462E-02  0.1290110E+00
          1   -1    0    0  501    0  0.00000000000E+00  0.00000000000E+00  0.24860215871E+03  0.24860215871E+03  0.00000000000E+00 0. -1.
         -1   -1    0    0    0  501 -0.00000000000E+00 -0.00000000000E+00 -0.53880303421E+02  0.53880303421E+02  0.00000000000E+00 0.  1.
         25    2    1    2    0    0  0.10578854007E+02  0.50714230717E+01  0.59509342769E+02  0.13901833367E+03  0.12508838370E+03 0.  0.
          5    1    3    3  502    0  0.63817522754E+02 -0.36614065750E+01  0.55501450317E+02  0.84758276857E+02  0.41800000000E+01 0.  1.
         -5    1    3    3    0  502 -0.53238668747E+02  0.87328296467E+01  0.40078924517E+01  0.54260056814E+02  0.41800000000E+01 0.  1.
        -11    1    1    2    0    0  0.25653138783E+02 -0.21045929268E+02  0.11361214108E+03  0.11835849471E+03  0.00000000000E+00 0. -1.
         11    1    1    2    0    0 -0.36231992790E+02  0.15974506196E+02  0.21600371434E+02  0.45105633748E+02  0.00000000000E+00 0.  1.
</event>
<event>
 7    1  0.2844572E-009  0.2170647E+03  0.7561462E-02  0.1136091E+00
         -1   -1    0    0    0  501 -0.00000000000E+00  0.00000000000E+00  0.15897305184E+03  0.15897305184E+03  0.00000000000E+00 0.  1.
          1   -1    0    0  501    0  0.00000000000E+00 -0.00000000000E+00 -0.31600287738E+03  0.31600287738E+03  0.00000000000E+00 0. -1.
         25    2    1    2    0    0  0.19034592054E+03  0.28458785186E+02 -0.12532130148E+03  0.26152438018E+03  0.12509236949E+03 0.  0.
          5    1    3    3  502    0  0.20365326682E+03  0.39085171000E+02 -0.12808400867E+03  0.24377302836E+03  0.41800000000E+01 0.  1.
         -5    1    3    3    0  502 -0.13307346279E+02 -0.10626385814E+02  0.27627071924E+01  0.17751351821E+02  0.41800000000E+01 0.  1.
        -11    1    1    2    0    0 -0.12570432120E+03  0.21442813700E+02 -0.33217497939E+02  0.13177546356E+03  0.00000000000E+00 0. -1.
         11    1    1    2    0    0 -0.64641599344E+02 -0.49901598886E+02  0.15089738768E+01  0.81676085479E+02  0.00000000000E+00 0.  1.
</event>
<event>
 7    1  0.2844572E-009  0.1786196E+03  0.7561462E-02  0.1169146E+00
         -2   -1    0    0    0  501 -0.00000000000E+00  0.00000000000E+00  0.37099260024E+02  0.37099260024E+02  0.00000000000E+00 0.  1.
          2   -1    0    0  501    0  0.00000000000E+00 -0.00000000000E+00 -0.10384596420E+04  0.10384596420E+04  0.00000000000E+00 0. -1.
         25    2    1    2    0    0 -0.17861996220E+02 -0.15997816892E+03 -0.60509970520E+03  0.63850837827E+03  0.12504091511E+03 0.  0.
          5    1    3    3  502    0 -0.44909311333E+02 -0.15962909809E+03 -0.57195334876E+03  0.59552195658E+03  0.41800000000E+01 0. -1.
         -5    1    3    3    0  502  0.27047315113E+02 -0.34907082727E+00 -0.33146356437E+02  0.42986421697E+02  0.41800000000E+01 0. -1.
        -11    1    1    2    0    0  0.98647763563E-01  0.12265644105E+03 -0.18624668037E+03  0.22300770886E+03  0.00000000000E+00 0.  1.
         11    1    1    2    0    0  0.17763348457E+02  0.37321727869E+02 -0.21001399642E+03  0.21404281490E+03  0.00000000000E+00 0. -1.
</event>
<event>
 7    1  0.2844572E-009  0.1105198E+03  0.7561462E-02  0.1259610E+00
          2   -1    0    0  501    0  0.00000000000E+00  0.00000000000E+00  0.59657198301E+03  0.59657198301E+03  0.00000000000E+00 0.  1.
         -2   -1    0    0    0  501 -0.00000000000E+00 -0.00000000000E+00 -0.31471454304E+02  0.31471454304E+02  0.00000000000E+00 0. -1.
         25    2    1    2    0    0  0.22065577596E+02  0.49976035126E+02  0.16881384286E+03  0.21709859762E+03  0.12509673755E+03 0.  0.
          5    1    3    3  502    0 -0.40038478911E+02  0.25237776704E+02  0.15807447625E+02  0.50073675388E+02  0.41800000000E+01 0.  1.
         -5    1    3    3    0  502  0.62104056507E+02  0.24738258422E+02  0.15300639523E+03  0.16702492223E+03  0.41800000000E+01 0.  1.
        -11    1    1    2    0    0 -0.31169762526E+02  0.19308658106E+02  0.17830936187E+03  0.18204012443E+03  0.00000000000E+00 0. -1.
         11    1    1    2    0    0  0.91041849296E+01 -0.69284693232E+02  0.21797732399E+03  0.22890471527E+03  0.00000000000E+00 0.  1.
</event>
<event>
 7    1  0.2844572E-009  0.1500731E+03  0.7561462E-02  0.1200383E+00
          1   -1    0    0  501    0  0.00000000000E+00  0.00000000000E+00  0.30365542994E+03  0.30365542994E+03  0.00000000000E+00 0. -1.
         -1   -1    0    0    0  501 -0.00000000000E+00 -0.00000000000E+00 -0.17916634545E+03  0.17916634545E+03  0.00000000000E+00 0.  1.
         25    2    1    2    0    0 -0.13603614820E+02 -0.13944120316E+03 -0.92243694996E+02  0.20924883552E+03  0.12508904198E+03 0.  0.
          5    1    3    3  502    0  0.20967199531E+01 -0.87652819457E+02 -0.11968989203E+03  0.14842693707E+03  0.41800000000E+01 0. -1.
         -5    1    3    3    0  502 -0.15700334773E+02 -0.51788383705E+02  0.27446197037E+02  0.60821898446E+02  0.41800000000E+01 0. -1.
        -11    1    1    2    0    0 -0.26763279011E+02  0.24559088839E+02  0.93592385105E+02  0.10039400628E+03  0.00000000000E+00 0. -1.
         11    1    1    2    0    0  0.40366893831E+02  0.11488211432E+03  0.12314039438E+03  0.17317893358E+03  0.00000000000E+00 0.  1.
</event>
<event>
 7    1  0.2844572E-009  0.9857771E+02  0.7561462E-02  0.1283316E+00
          2   -1    0    0  501    0  0.00000000000E+00  0.00000000000E+00  0.13484780955E+03  0.13484780955E+03  0.00000000000E+00 0. -1.
         -2   -1    0    0    0  501 -0.00000000000E+00 -0.00000000000E+00 -0.99374142749E+02  0.99374142749E+02  0.00000000000E+00 0.  1.
         25    2    1    2    0    0  0.37690469355E+02  0.72207269049E+00  0.29537388081E+01  0.13068750818E+03  0.12509759131E+03 0.  0.
          5    1    3    3  502    0  0.74436087411E+02  0.20213052990E+02 -0.24071033405E+02  0.80908501837E+02  0.41800000000E+01 0.  1.
         -5    1    3    3    0  502 -0.36745618056E+02 -0.19490980300E+02  0.27024772213E+02  0.49779006344E+02  0.41800000000E+01 0.  1.
        -11    1    1    2    0    0 -0.13623996018E+02 -0.34235425457E+02 -0.15717173120E+02  0.40058796220E+02  0.00000000000E+00 0.  1.
         11    1    1    2    0    0 -0.24066473337E+02  0.33513352766E+02  0.48237101113E+02  0.63475647900E+02  0.00000000000E+00 0. -1.
</event>
<event>
 7    1  0.2844572E-009  0.1676859E+03  0.7561462E-02  0.1180283E+00
          2   -1    0    0  501    0  0.00000000000E+00  0.00000000000E+00  0.28211689185E+03  0.28211689185E+03  0.00000000000E+00 0. -1.
         -2   -1    0    0    0  501 -0.00000000000E+00 -0.00000000000E+00 -0.12918431822E+03  0.12918431822E+03  0.00000000000E+00 0.  1.
         25    2    1    2    0    0  0.12900867732E+03 -0.92625725448E+02  0.95976998446E+02  0.22378918723E+03  0.12508897733E+03 0.  0.
          5    1    3    3  502    0  0.42851503367E+02 -0.59671189379E+02  0.10798563058E+03  0.13067238038E+03  0.41800000000E+01 0.  1.
         -5    1    3    3    0  502  0.86157173953E+02 -0.32954536069E+02 -0.12008632135E+02  0.93116806844E+02  0.41800000000E+01 0.  1.
        -11    1    1    2    0    0 -0.74343787074E+02  0.17216059492E+02  0.55504488199E+02  0.94361748559E+02  0.00000000000E+00 0. -1.
         11    1    1    2    0    0 -0.54664890246E+02  0.75409665957E+02  0.14510869837E+01  0.93150274281E+02  0.00000000000E+00 0.  1.
</event>
<event>
 7    1  0.2844572E-009  0.1074181E+03  0.7561462E-02  0.1265427E+00
         -1   -1    0    0    0  501 -0.00000000000E+00  0.00000000000E+00  0.45428691819E+02  0.45428691819E+02  0.00000000000E+00 0.  1.
          1   -1    0    0  501    0  0.00000000000E+00 -0.00000000000E+00 -0.42558215670E+03  0.42558215670E+03  0.00000000000E+00 0. -1.
         25    2    1    2    0    0 -0.66941914800E+02 -0.54265453401E+02 -0.22458598694E+03  0.27113103526E+03  0.12508882190E+03 0.  0.
          5    1    3    3  502    0 -0.37483588705E+02 -0.60385215705E+02 -0.22956293524E+03  0.24034976042E+03  0.41800000000E+01 0.  1.
         -5    1    3    3    0  502 -0.29458326095E+02  0.61197623046E+01  0.49769482973E+01  0.30781274849E+02  0.41800000000E+01 0.  1.
        -11    1    1    2    0    0  0.70204672134E+02  0.12424011020E+02 -0.52334080999E+02  0.88441551736E+02  0.00000000000E+00 0.  1.
         11    1    1    2    0    0 -0.32627573340E+01  0.41841442380E+02 -0.10323339695E+03  0.11143826152E+03  0.00000000000E+00 0. -1.
</event>
<event>
 7    1  0.2844572E-009  0.1299598E+03  0.7561462E-02  0.1227515E+00
          1   -1    0    0  501    0  0.00000000000E+00  0.00000000000E+00  0.29600614580E+03  0.29600614580E+03  0.00000000000E+00 0. -1.
         -1   -1    0    0    0  501 -0.00000000000E+00 -0.00000000000E+00 -0.75388580915E+02  0.75388580915E+02  0.00000000000E+00 0.  1.
         25    2    1    2    0    0 -0.14339254176E+02 -0.94076665583E+02  0.65431468123E+02  0.17024718050E+03  0.12508713855E+03 0.  0.
          5    1    3    3  502    0  0.49949607813E+02 -0.25444306402E+02  0.10840748699E+01  0.56222981665E+02  0.41800000000E+01 0.  1.
         -5    1    3    3    0  502 -0.64288861989E+02 -0.68632359180E+02  0.64347393253E+02  0.11402419884E+03  0.41800000000E+01 0.  1.
        -11    1    1    2    0    0 -0.20919472880E+02  0.35419611088E+02  0.12657638092E+02  0.43039388904E+02  0.00000000000E+00 0.  1.
         11    1    1    2    0    0  0.35258727056E+02  0.58657054494E+02  0.14252845867E+03  0.15810815730E+03  0.00000000000E+00 0. -1.
</event>
<event>
 7    1  0.2844572E-009  0.1077888E+03  0.7561462E-02  0.1264720E+00
          2   -1    0    0  501    0  0.00000000000E+00  0.00000000000E+00  0.65103471121E+03  0.65103471121E+03  0.00000000000E+00 0. -1.
         -2   -1    0    0    0  501 -0.00000000000E+00 -0.00000000000E+00 -0.23509406746E+02  0.23509406746E+02  0.00000000000E+00 0.  1.
         25    2    1    2    0    0  0.16668964000E+01  0.30956005252E+02  0.24548695238E+03  0.27725888994E+03  0.12509034919E+03 0.  0.
          5    1    3    3  502    0 -0.52100858128E+02  0.17647520146E+02  0.51478420242E+02  0.75454850975E+02  0.41800000000E+01 0.  1.
         -5    1    3    3    0  502  0.53767754528E+02  0.13308485106E+02  0.19400853214E+03  0.20180403897E+03  0.41800000000E+01 0.  1.
        -11    1    1    2    0    0  0.28391274502E+02 -0.57906191200E+02  0.17878152534E+03  0.19005795235E+03  0.00000000000E+00 0.  1.
         11    1    1    2    0    0 -0.30058170902E+02  0.26950185948E+02  0.20325682675E+03  0.20722727567E+03  0.00000000000E+00 0. -1.
</event>
<event>
 7    1  0.2844572E-009  0.8290299E+02  0.7561462E-02  0.1321009E+00
          2   -1    0    0  501    0  0.00000000000E+00  0.00000000000E+00  0.36861693614E+03  0.36861693614E+03  0.00000000000E+00 0. -1.
         -2   -1    0    0    0  501 -0.00000000000E+00 -0.00000000000E+00 -0.38978842812E+02  0.38978842812E+02  0.00000000000E+00 0.  1.
         25    2    1    2    0    0  0.36084569043E+01 -0.25182920475E+02  0.26224852004E+03  0.29166549391E+03  0.12508906281E+03 0.  0.
          5    1    3    3  502    0 -0.18940844358E+02 -0.51590503904E+02  0.24774494417E+03  0.25380182316E+03  0.41800000000E+01 0.  1.
         -5    1    3    3    0  502  0.22549301263E+02  0.26407583429E+02  0.14503575868E+02  0.37863670754E+02  0.41800000000E+01 0.  1.
        -11    1    1    2    0    0  0.33143615321E+02  0.42405084356E+01  0.65567897058E+02  0.73590965974E+02  0.00000000000E+00 0. -1.
         11    1    1    2    0    0 -0.36752072225E+02  0.20942412039E+02  0.18216762361E+01  0.42339319068E+02  0.00000000000E+00 0.  1.
</event>
<event>
 7    1  0.2844572E-009  0.1084234E+03  0.7561462E-02  0.1263518E+00
         -1   -1    0    0    0  501 -0.00000000000E+00  0.00000000000E+00  0.39582284923E+03  0.39582284923E+03  0.00000000000E+00 0.  1.
          1   -1    0    0  501    0  0.00000000000E+00 -0.00000000000E+00 -0.38419380895E+02  0.38419380895E+02  0.00000000000E+00 0. -1.
         25    2    1    2    0    0 -0.12897113967E+02  0.56379302716E+02  0.21850938709E+03  0.25833868356E+03  0.12509021485E+03 0.  0.
          5    1    3    3  502    0 -0.39672330582E+02 -0.26751025760E+02  0.10129072557E+03  0.11210171577E+03  0.41800000000E+01 0. -1.
         -5    1    3    3    0  502  0.26775216615E+02  0.83130328475E+02  0.11721866153E+03  0.14623696779E+03  0.41800000000E+01 0. -1.
        -11    1    1    2    0    0  0.35123659323E+02 -0.25822657658E+02  0.12995930139E+03  0.13707626020E+03  0.00000000000E+00 0.  1.
         11    1    1    2    0    0 -0.22226545356E+02 -0.30556645058E+02  0.89347798528E+01  0.38827286368E+02  0.00000000000E+00 0. -1.
</event>
<event>
 7    1  0.2844572E-009  0.1432767E+03  0.7561462E-02  0.1208987E+00
         -1   -1    0    0    0  501 -0.00000000000E+00  0.00000000000E+00  0.18303410892E+03  0.18303410892E+03  0.00000000000E+00 0.  1.
          1   -1    0    0  501    0  0.00000000000E+00 -0.00000000000E+00 -0.12148301425E+03  0.12148301425E+03  0.00000000000E+00 0. -1.
         25    2    1    2    0    0 -0.69643930189E+02 -0.70683406255E+02  0.43334171217E+02  0.16544447191E+03  0.12509037516E+03 0.  0.
          5    1    3    3  502    0 -0.98225947315E+02 -0.18818577393E+02  0.31213972923E+02  0.10485351728E+03  0.41800000000E+01 0.  1.
         -5    1    3    3    0  502  0.28582017126E+02 -0.51864828862E+02  0.12120198293E+02  0.60590954626E+02  0.41800000000E+01 0.  1.
        -11    1    1    2    0    0  0.74763205855E+02  0.21716077180E+02  0.37227011674E+02  0.86295859437E+02  0.00000000000E+00 0.  1.
         11    1    1    2    0    0 -0.51192756659E+01  0.48967329075E+02 -0.19010088221E+02  0.52776791815E+02  0.00000000000E+00 0. -1.
</event>
<event>
 7    1  0.2844572E-009  0.1109212E+03  0.7561462E-02  0.1258873E+00
          1   -1    0    0  501    0  0.00000000000E+00  0.00000000000E+00  0.47761563379E+03  0.47761563379E+03  0.00000000000E+00 0. -1.
         -1   -1    0    0    0  501 -0.00000000000E+00 -0.00000000000E+00 -0.38680820254E+02  0.38680820254E+02  0.00000000000E+00 0.  1.
         25    2    1    2    0    0  0.56753428219E+02  0.23100005866E+01  0.35224241413E+03  0.37808520594E+03  0.12508963555E+03 0.  0.
          5    1    3    3  502    0  0.70813853870E+02 -0.33758605503E+02  0.12576769104E+03  0.14828765915E+03  0.41800000000E+01 0. -1.
         -5    1    3    3    0  502 -0.14060425651E+02  0.36068606090E+02  0.22647472309E+03  0.22979754679E+03  0.41800000000E+01 0. -1.
        -11    1    1    2    0    0 -0.57897442962E+02  0.34579431498E+02  0.71539394330E+02  0.98314474648E+02  0.00000000000E+00 0. -1.
         11    1    1    2    0    0  0.11440147429E+01 -0.36889432085E+02  0.15153005077E+02  0.39896773455E+02  0.00000000000E+00 0.  1.
</event>
<event>
 7    1  0.2844572E-009  0.1214955E+03  0.7561462E-02  0.1240650E+00
          1   -1    0    0  501    0  0.00000000000E+00  0.00000000000E+00  0.28306993990E+02  0.28306993990E+02  0.00000000000E+00 0. -1.
         -1   -1    0    0    0  501 -0.00000000000E+00 -0.00000000000E+00 -0.59653795826E+03  0.59653795826E+03  0.00000000000E+00 0.  1.
         25    2    1    2    0    0 -0.25489707641E+02 -0.58363123388E+02 -0.35636010144E+03  0.38300701410E+03  0.12508345849E+03 0.  0.
          5    1    3    3  502    0  0.18264097252E+02  0.25648579543E+02 -0.17994551387E+03  0.18272735768E+03  0.41800000000E+01 0. -1.
         -5    1    3    3    0  502 -0.43753804893E+02 -0.84011702931E+02 -0.17641458756E+03  0.20027965642E+03  0.41800000000E+01 0. -1.
        -11    1    1    2    0    0  0.59812668506E+02  0.56117524095E+02 -0.15543158981E+03  0.17574330979E+03  0.00000000000E+00 0. -1.
         11    1    1    2    0    0 -0.34322960865E+02  0.22455992931E+01 -0.56439273020E+02  0.66094628357E+02  0.00000000000E+00 0.  1.
</event>
<event>
 7    1  0.2844572E-009  0.1106318E+03  0.7561462E-02  0.1259404E+00
         -2   -1    0    0    0  501 -0.00000000000E+00  0.00000000000E+00  0.57732075130E+03  0.57732075130E+03  0.00000000000E+00 0.  1.
          2   -1    0    0  501    0  0.00000000000E+00 -0.00000000000E+00 -0.32781414796E+02  0.32781414796E+02  0.00000000000E+00 0. -1.
         25    2    1    2    0    0 -0.24450331843E+02 -0.73990367677E+02  0.22703221921E+03  0.27067483057E+03  0.12509533207E+03 0.  0.
          5    1    3    3  502    0 -0.58814381271E+02 -0.74191174150E+02  0.95024853471E+02  0.13420378886E+03  0.41800000000E+01 0.  1.
         -5    1    3    3    0  502  0.34364049428E+02  0.20080647376E+00  0.13200736574E+03  0.13647104171E+03  0.41800000000E+01 0.  1.
        -11    1    1    2    0    0  0.23091963522E+02  0.59796864545E+01  0.12507169177E+02  0.26933709552E+02  0.00000000000E+00 0. -1.
         11    1    1    2    0    0  0.13583683210E+01  0.68010681222E+02  0.30499994812E+03  0.31249362598E+03  0.00000000000E+00 0.  1.
</event>
<event>
 7    1  0.2844572E-009  0.1227553E+03  0.7561462E-02  0.1238620E+00
         -2   -1    0    0    0  501 -0.00000000000E+00  0.00000000000E+00  0.99324732730E+02  0.99324732730E+02  0.00000000000E+00 0.  1.
          2   -1    0    0  501    0  0.00000000000E+00 -0.00000000000E+00 -0.18479731238E+03  0.18479731238E+03  0.00000000000E+00 0. -1.
         25    2    1    2    0    0  0.57484275980E+02 -0.57008313011E+02 -0.42909867661E+02  0.15505770055E+03  0.12508894444E+03 0.  0.
          5    1    3    3  502    0  0.92009881143E+02 -0.47233062708E+02 -0.64173498407E+01  0.10370841441E+03  0.41800000000E+01 0. -1.
         -5    1    3    3    0  502 -0.34525605162E+02 -0.97752503033E+01 -0.36492517820E+02  0.51349286141E+02  0.41800000000E+01 0. -1.
        -11    1    1    2    0    0 -0.66169954977E+00 -0.14513720558E+02 -0.34413759222E+02  0.37354956225E+02  0.00000000000E+00 0. -1.
         11    1    1    2    0    0 -0.56822576431E+02  0.71522033569E+02 -0.81489527717E+01  0.91709388338E+02  0.00000000000E+00 0.  1.
</event>
<event>
 7    1  0.2844572E-009  0.1772582E+03  0.7561462E-02  0.1170483E+00
          4   -1    0    0  501    0  0.00000000000E+00  0.00000000000E+00  0.45642435773E+03  0.45642435773E+03  0.00000000000E+00 0. -1.
         -4   -1    0    0    0  501 -0.00000000000E+00 -0.00000000000E+00 -0.87193762279E+02  0.87193762279E+02  0.00000000000E+00 0.  1.
         25    2    1    2    0    0 -0.98041583356E+02 -0.13305469685E+03  0.15816778474E+03  0.26072980698E+03  0.12508908705E+03 0.  0.
          5    1    3    3  502    0 -0.94029157149E+02 -0.12796108269E+03  0.17852203744E+03  0.23896257307E+03  0.41800000000E+01 0. -1.
         -5    1    3    3    0  502 -0.40124262070E+01 -0.50936141516E+01 -0.20354252698E+02  0.21767233910E+02  0.41800000000E+01 0. -1.
        -11    1    1    2    0    0  0.97011808009E+02  0.58281685475E+02  0.13606106581E+03  0.17697643737E+03  0.00000000000E+00 0.  1.
         11    1    1    2    0    0  0.10297753471E+01  0.74773011371E+02  0.75001744905E+02  0.10591187566E+03  0.00000000000E+00 0. -1.
</event>
<event>
 7    1  0.2844572E-009  0.9735268E+02  0.7561462E-02  0.1285963E+00
         -1   -1    0    0    0  501 -0.00000000000E+00  0.00000000000E+00  0.49523948511E+02  0.49523948511E+02  0.00000000000E+00 0.  1.
          1   -1    0    0  501    0  0.00000000000E+00 -0.00000000000E+00 -0.27813975864E+03  0.27813975864E+03  0.00000000000E+00 0. -1.
         25    2    1    2    0    0 -0.79993494187E+01 -0.42947069551E+02 -0.15252300334E+03  0.20206661828E+03  0.12513677037E+03 0.  0.
          5    1    3    3  502    0 -0.51275549531E+02 -0.41755043354E+02 -0.31303905685E+02  0.73280778765E+02  0.41800000000E+01 0.  1.
         -5    1    3    3    0  502  0.43276200113E+02 -0.11920261971E+01 -0.12121909765E+03  0.12878583951E+03  0.41800000000E+01 0.  1.
        -11    1    1    2    0    0  0.40638714719E+02  0.22829153295E+02 -0.77754454155E+01  0.47256035864E+02  0.00000000000E+00 0.  1.
         11    1    1    2    0    0 -0.32639365301E+02  0.20117916256E+02 -0.68317361373E+02  0.78341053010E+02  0.00000000000E+00 0. -1.
</event>
<event>
 7    1  0.2844572E-009  0.9717857E+02  0.7561462E-02  0.1286343E+00
         -2   -1    0    0    0  501 -0.00000000000E+00  0.00000000000E+00  0.57417096489E+02  0.57417096489E+02  0.00000000000E+00 0.  1.
          2   -1    0    0  501    0  0.00000000000E+00 -0.00000000000E+00 -0.22561459811E+03  0.22561459811E+03  0.00000000000E+00 0. -1.
         25    2    1    2    0    0  0.25402757786E+02 -0.16143824962E+02 -0.82818684541E+02  0.15301265496E+03  0.12509202565E+03 0.  0.
          5    1    3    3  502    0 -0.39986228638E+02  0.26749878898E+02 -0.18647412053E+02  0.51765363691E+02  0.41800000000E+01 0. -1.
         -5    1    3    3    0  502  0.65388986424E+02 -0.42893703860E+02 -0.64171272488E+02  0.10124729127E+03  0.41800000000E+01 0. -1.
        -11    1    1    2    0    0  0.96495634612E+01  0.28887257363E+02  0.62493580658E+01  0.31090869868E+02  0.00000000000E+00 0.  1.
         11    1    1    2    0    0 -0.35052321247E+02 -0.12743432401E+02 -0.91628175146E+02  0.98928169773E+02  0.00000000000E+00 0. -1.
</event>
<event>
 7    1  0.2844572E-009  0.7882746E+02  0.7561462E-02  0.1332412E+00
          1   -1    0    0  501    0  0.00000000000E+00  0.00000000000E+00  0.30728439323E+02  0.30728439323E+02  0.00000000000E+00 0. -1.
         -1   -1    0    0    0  501 -0.00000000000E+00 -0.00000000000E+00 -0.34848102559E+03  0.34848102559E+03  0.00000000000E+00 0.  1.
         25    2    1    2    0    0 -0.80118960227E+01 -0.43693373936E+01 -0.17531043909E+03  0.21555812392E+03  0.12509305795E+03 0.  0.
          5    1    3    3  502    0  0.28169070587E+02  0.24542357032E+02 -0.37191121903E+01  0.37777348000E+02  0.41800000000E+01 0. -1.
         -5    1    3    3    0  502 -0.36180966610E+02 -0.28911694426E+02 -0.17159132690E+03  0.17778077592E+03  0.41800000000E+01 0. -1.
        -11    1    1    2    0    0 -0.66678842181E+01 -0.32865537621E+02 -0.32702722968E+02  0.46840925830E+02  0.00000000000E+00 0. -1.
         11    1    1    2    0    0  0.14679780241E+02  0.37234875014E+02 -0.10973942421E+03  0.11681041517E+03  0.00000000000E+00 0.  1.
</event>
<event>
 7    1  0.2844572E-009  0.1547334E+03  0.7561462E-02  0.1194774E+00
         -1   -1    0    0    0  501 -0.00000000000E+00  0.00000000000E+00  0.66221564562E+02  0.66221564562E+02  0.00000000000E+00 0.  1.
          1   -1    0    0  501    0  0.00000000000E+00 -0.00000000000E+00 -0.38494953488E+03  0.38494953488E+03  0.00000000000E+00 0. -1.
         25    2    1    2    0    0 -0.81969493662E+02  0.80864349105E+02 -0.14254241737E+03  0.22186244945E+03  0.12508622976E+03 0.  0.
          5    1    3    3  502    0 -0.11220683087E+02  0.90748556791E+02 -0.11041529205E+03  0.14342319689E+03  0.41800000000E+01 0. -1.
         -5    1    3    3    0  502 -0.70748810575E+02 -0.98842076860E+01 -0.32127125327E+02  0.78439252554E+02  0.41800000000E+01 0. -1.
        -11    1    1    2    0    0  0.58958092236E+01 -0.69152845506E+02 -0.75165834191E+02  0.10230727852E+03  0.00000000000E+00 0.  1.
         11    1    1    2    0    0  0.76073684439E+02 -0.11711503599E+02 -0.10101971875E+03  0.12700137148E+03  0.00000000000E+00 0. -1.
</event>
<event>
 7    1  0.2844572E-009  0.1224825E+03  0.7561462E-02  0.1239057E+00
         -2   -1    0    0    0  501 -0.00000000000E+00  0.00000000000E+00  0.15898356421E+03  0.15898356421E+03  0.00000000000E+00 0.  1.
          2   -1    0    0  501    0  0.00000000000E+00 -0.00000000000E+00 -0.13985523163E+03  0.13985523163E+03  0.00000000000E+00 0. -1.
         25    2    1    2    0    0  0.70274000902E+02 -0.54281208833E+02  0.61798479395E+02  0.16538261287E+03  0.12508985470E+03 0.  0.
          5    1    3    3  502    0  0.45817941525E+02 -0.94648881485E+02  0.34774052348E+02  0.11083501996E+03  0.41800000000E+01 0.  1.
         -5    1    3    3    0  502  0.24456059378E+02  0.40367672651E+02  0.27024427047E+02  0.54547592915E+02  0.41800000000E+01 0.  1.
        -11    1    1    2    0    0 -0.49040365980E+01  0.15676486713E+02 -0.54230041760E+02  0.56663032392E+02  0.00000000000E+00 0. -1.
         11    1    1    2    0    0 -0.65369964304E+02  0.38604722120E+02  0.11559894946E+02  0.76793150569E+02  0.00000000000E+00 0.  1.
</event>
<event>
 7    1  0.3356003E-009  0.1109806E+03  0.7561462E-02  0.1258765E+00
          1   -1    0    0  501    0  0.00000000000E+00  0.00000000000E+00  0.18657425077E+03  0.18657425077E+03  0.00000000000E+00 0. -1.
         -1   -1    0    0    0  501 -0.00000000000E+00 -0.00000000000E+00 -0.14485651568E+03  0.14485651568E+03  0.00000000000E+00 0.  1.
         25    2    1    2    0    0  0.59860476743E+02 -0.69043487463E+02 -0.60911091376E+02  0.16644702785E+03  0.12507666526E+03 0.  0.
          5    1    3    3  502    0  0.69043114361E+02 -0.13020018610E+02  0.14600464977E+02  0.71882671784E+02  0.41800000000E+01 0. -1.
         -5    1    3    3    0  502 -0.91826376177E+01 -0.56023468853E+02 -0.75511556352E+02  0.94564356069E+02  0.41800000000E+01 0. -1.
        -11    1    1    2    0    0 -0.44421165079E+02  0.32681396813E+02  0.14345578655E+00  0.55148292668E+02  0.00000000000E+00 0.  1.
         11    1    1    2    0    0 -0.15439311664E+02  0.36362090650E+02  0.10248537067E+03  0.10983544593E+03  0.00000000000E+00 0. -1.
</event>
<event>
 7    1  0.2844572E-009  0.1488320E+03  0.7561462E-02  0.1201916E+00
          2   -1    0    0  501    0  0.00000000000E+00  0.00000000000E+00  0.11137382212E+04  0.11137382212E+04  0.00000000000E+00 0. -1.
         -2   -1    0    0    0  501 -0.00000000000E+00 -0.00000000000E+00 -0.33028891828E+02  0.33028891828E+02  0.00000000000E+00 0.  1.
         25    2    1    2    0    0  0.30212496212E+02  0.10440503220E+03  0.91332654944E+03  0.92823828039E+03  0.12509082137E+03 0.  0.
          5    1    3    3  502    0  0.77382283284E+02  0.76762355179E+02  0.54000050306E+03  0.55090697277E+03  0.41800000000E+01 0.  1.
         -5    1    3    3    0  502 -0.47169787072E+02  0.27642677026E+02  0.37332604638E+03  0.37733130762E+03  0.41800000000E+01 0.  1.
        -11    1    1    2    0    0 -0.55213993950E+02 -0.87876851698E+02  0.15399809127E+03  0.18570497653E+03  0.00000000000E+00 0.  1.
         11    1    1    2    0    0  0.25001497738E+02 -0.16528180507E+02  0.13384688674E+02  0.32823856125E+02  0.00000000000E+00 0. -1.
</event>
<event>
 7    1  0.2844572E-009  0.1137718E+03  0.7561462E-02  0.1253740E+00
         -2   -1    0    0    0  501 -0.00000000000E+00  0.00000000000E+00  0.21883286675E+02  0.21883286675E+02  0.00000000000E+00 0.  1.
          2   -1    0    0  501    0  0.00000000000E+00 -0.00000000000E+00 -0.61204387708E+03  0.61204387708E+03  0.00000000000E+00 0. -1.
         25    2    1    2    0    0 -0.15073930226E+02 -0.27356113144E+02 -0.32882703944E+03  0.35319768878E+03  0.12508319310E+03 0.  0.
          5    1    3    3  502    0  0.22778827127E+02 -0.66863718841E+02 -0.14482336144E+03  0.16118594939E+03  0.41800000000E+01 0. -1.
         -5    1    3    3    0  502 -0.37852757353E+02  0.39507605696E+02 -0.18400367800E+03  0.19201173939E+03  0.41800000000E+01 0. -1.
        -11    1    1    2    0    0 -0.41153346198E+02  0.52286910739E+01 -0.91432221235E+02  0.10040312841E+03  0.00000000000E+00 0. -1.
         11    1    1    2    0    0  0.56227276425E+02  0.22127422070E+02 -0.16990132973E+03  0.18032634657E+03  0.00000000000E+00 0.  1.
</event>
<event>
 7    1  0.2844572E-009  0.1137861E+03  0.7561462E-02  0.1253715E+00
         -1   -1    0    0    0  501 -0.00000000000E+00  0.00000000000E+00  0.96323449738E+02  0.96323449738E+02  0.00000000000E+00 0.  1.
          1   -1    0    0  501    0  0.00000000000E+00 -0.00000000000E+00 -0.15656612300E+03  0.15656612300E+03  0.00000000000E+00 0. -1.
         25    2    1    2    0    0  0.33290764609E+02 -0.45037958620E+02 -0.35125876272E+02  0.14148195075E+03  0.12508646002E+03 0.  0.
          5    1    3    3  502    0  0.25937401567E+02  0.32756675520E+02 -0.46220318176E+02  0.62446287347E+02  0.41800000000E+01 0.  1.
         -5    1    3    3    0  502  0.73533630416E+01 -0.77794634139E+02  0.11094441904E+02  0.79035663406E+02  0.41800000000E+01 0.  1.
        -11    1    1    2    0    0  0.26914879762E+02  0.38208736486E+02 -0.19203111747E+02  0.50527990236E+02  0.00000000000E+00 0.  1.
         11    1    1    2    0    0 -0.60205644371E+02  0.68292221335E+01 -0.59136852467E+01  0.60879631752E+02  0.00000000000E+00 0. -1.
</event>
<event>
 7    1  0.2844572E-009  0.1234287E+03  0.7561462E-02  0.1237546E+00
          1   -1    0    0  501    0  0.00000000000E+00  0.00000000000E+00  0.27869807358E+03  0.27869807358E+03  0.00000000000E+00 0. -1.
         -1   -1    0    0    0  501 -0.00000000000E+00 -0.00000000000E+00 -0.83046344675E+02  0.83046344675E+02  0.00000000000E+00 0.  1.
         25    2    1    2    0    0  0.45361609587E+02 -0.93716696421E+02  0.13114468222E+03  0.20901562281E+03  0.12509239822E+03 0.  0.
          5    1    3    3  502    0 -0.10114297684E+02  0.10028045336E+02  0.78794077058E+02  0.80180045462E+02  0.41800000000E+01 0. -1.
         -5    1    3    3    0  502  0.55475907270E+02 -0.10374474176E+03  0.52350605164E+02  0.12883557735E+03  0.41800000000E+01 0. -1.
        -11    1    1    2    0    0 -0.50910482500E+02  0.54090747917E+02  0.80593325301E+02  0.10960369666E+03  0.00000000000E+00 0. -1.
         11    1    1    2    0    0  0.55488729132E+01  0.39625948504E+02 -0.16086278617E+02  0.43125098784E+02  0.00000000000E+00 0.  1.
</event>
<event>
 7    1  0.2844572E-009  0.1119465E+03  0.7561462E-02  0.1257007E+00
          2   -1    0    0  501    0  0.00000000000E+00  0.00000000000E+00  0.60208561025E+03  0.60208561025E+03  0.00000000000E+00 0.  1.
         -2   -1    0    0    0  501 -0.00000000000E+00 -0.00000000000E+00 -0.33802807569E+02  0.33802807569E+02  0.00000000000E+00 0. -1.
         25    2    1    2    0    0  0.71907051747E+02 -0.22165296620E+02  0.19308163947E+03  0.24205282407E+03  0.12508847139E+03 0.  0.
          5    1    3    3  502    0 -0.11025402003E+02 -0.17880267632E+02  0.14382278595E+03  0.14540883611E+03  0.41800000000E+01 0. -1.
         -5    1    3    3    0  502  0.82932453750E+02 -0.42850289880E+01  0.49258853518E+02  0.96643987957E+02  0.41800000000E+01 0. -1.
        -11    1    1    2    0    0 -0.11907111442E+02  0.51274126260E+02  0.15001113831E+03  0.15897847950E+03  0.00000000000E+00 0. -1.
         11    1    1    2    0    0 -0.59999940305E+02 -0.29108829640E+02  0.22519002490E+03  0.23485711425E+03  0.00000000000E+00 0.  1.
</event>
<event>
 7    1  0.2844572E-009  0.2383566E+03  0.7561462E-02  0.1120892E+00
         -2   -1    0    0    0  501 -0.00000000000E+00  0.00000000000E+00  0.28715324896E+02  0.28715324896E+02  0.00000000000E+00 0.  1.
          2   -1    0    0  501    0  0.00000000000E+00 -0.00000000000E+00 -0.22832693873E+04  0.22832693873E+04  0.00000000000E+00 0. -1.
         25    2    1    2    0    0  0.14133034752E+03  0.17657203019E+03 -0.13787047140E+04  0.14027210418E+04  0.12509070186E+03 0.  0.
          5    1    3    3  502    0  0.98336867979E+02  0.15777142548E+03 -0.76760462774E+03  0.78980776094E+03  0.41800000000E+01 0.  1.
         -5    1    3    3    0  502  0.42993479537E+02  0.18800604707E+02 -0.61110008625E+03  0.61291328085E+03  0.41800000000E+01 0.  1.
        -11    1    1    2    0    0  0.94696972924E+01 -0.36921700244E+02 -0.11560280674E+03  0.12172467311E+03  0.00000000000E+00 0.  1.
         11    1    1    2    0    0 -0.15080004481E+03 -0.13965032995E+03 -0.76024654166E+03  0.78753899731E+03  0.00000000000E+00 0. -1.
</event>
<event>
 7    1  0.2844572E-009  0.1714496E+03  0.7561462E-02  0.1176345E+00
          2   -1    0    0  501    0  0.00000000000E+00  0.00000000000E+00  0.94650382770E+02  0.94650382770E+02  0.00000000000E+00 0. -1.
         -2   -1    0    0    0  501 -0.00000000000E+00 -0.00000000000E+00 -0.44198837893E+03  0.44198837893E+03  0.00000000000E+00 0.  1.
         25    2    1    2    0    0 -0.16397848046E+03  0.21422986959E+02 -0.18938913126E+03  0.28082707323E+03  0.12509082938E+03 0.  0.
          5    1    3    3  502    0 -0.91460875550E+02  0.39617326946E+02 -0.29113636382E+02  0.10392160783E+03  0.41800000000E+01 0.  1.
         -5    1    3    3    0  502 -0.72517604908E+02 -0.18194339987E+02 -0.16027549488E+03  0.17690546540E+03  0.41800000000E+01 0.  1.
        -11    1    1    2    0    0  0.13532950263E+03 -0.29466403110E+02 -0.17368851448E+03  0.22214869628E+03  0.00000000000E+00 0.  1.
         11    1    1    2    0    0  0.28648977825E+02  0.80434161510E+01  0.15739649590E+02  0.33662992187E+02  0.00000000000E+00 0. -1.
</event>
<event>
 7    1  0.2844572E-009  0.9438280E+02  0.7561462E-02  0.1292572E+00
         -1   -1    0    0    0  501 -0.00000000000E+00  0.00000000000E+00  0.65496131179E+02  0.65496131179E+02  0.00000000000E+00 0.  1.
          1   -1    0    0  501    0  0.00000000000E+00 -0.00000000000E+00 -0.23655099277E+03  0.23655099277E+03  0.00000000000E+00 0. -1.
         25    2    1    2    0    0 -0.79540341220E+01  0.16604621539E+02 -0.26246595434E+02  0.12913188937E+03  0.12508869239E+03 0.  0.
          5    1    3    3  502    0  0.26456384157E+02  0.44903510488E+02  0.27596817762E+02  0.59121250557E+02  0.41800000000E+01 0.  1.
         -5    1    3    3    0  502 -0.34410418279E+02 -0.28298888949E+02 -0.53843413196E+02  0.70010638809E+02  0.41800000000E+01 0.  1.
        -11    1    1    2    0    0  0.49068420406E+02 -0.77727654689E+01 -0.98779740830E+02  0.11056926771E+03  0.00000000000E+00 0. -1.
         11    1    1    2    0    0 -0.41114386284E+02 -0.88318560703E+01 -0.46028525327E+02  0.62345966870E+02  0.00000000000E+00 0.  1.
</event>
<event>
 7    1  0.2844572E-009  0.1386474E+03  0.7561462E-02  0.1215161E+00
         -2   -1    0    0    0  501 -0.00000000000E+00  0.00000000000E+00  0.40651609614E+02  0.40651609614E+02  0.00000000000E+00 0. -1.
          2   -1    0    0  501    0  0.00000000000E+00 -0.00000000000E+00 -0.66071817542E+03  0.66071817542E+03  0.00000000000E+00 0.  1.
         25    2    1    2    0    0 -0.71455883568E+02 -0.92104501762E+02 -0.24691906051E+03  0.30034070240E+03  0.12508530103E+03 0.  0.
          5    1    3    3  502    0 -0.95031846200E+02 -0.39651269322E+02 -0.10485585969E+03  0.14702210263E+03  0.41800000000E+01 0.  1.
         -5    1    3    3    0  502  0.23575962632E+02 -0.52453232440E+02 -0.14206320082E+03  0.15331859977E+03  0.41800000000E+01 0.  1.
        -11    1    1    2    0    0  0.41880863804E+02  0.54894603446E+02 -0.87537665943E+02  0.11149110816E+03  0.00000000000E+00 0. -1.
         11    1    1    2    0    0  0.29575019764E+02  0.37209898316E+02 -0.28560983934E+03  0.28953797446E+03  0.00000000000E+00 0.  1.
</event>
<event>
 7    1  0.2844572E-009  0.7922178E+02  0.7561462E-02  0.1331275E+00
         -1   -1    0    0    0  501 -0.00000000000E+00  0.00000000000E+00  0.88289719710E+02  0.88289719710E+02  0.00000000000E+00 0.  1.
          1   -1    0    0  501    0  0.00000000000E+00 -0.00000000000E+00 -0.13343874648E+03  0.13343874648E+03  0.00000000000E+00 0. -1.
         25    2    1    2    0    0  0.21825052263E+01  0.75145319297E+00 -0.85521300763E+01  0.12540357074E+03  0.12509032182E+03 0.  0.
          5    1    3    3  502    0  0.32119324243E+02 -0.27211457913E+02  0.42398528455E+02  0.59893422400E+02  0.41800000000E+01 0. -1.
         -5    1    3    3    0  502 -0.29936819017E+02  0.27962911106E+02 -0.50950658532E+02  0.65510148337E+02  0.41800000000E+01 0. -1.
        -11    1    1    2    0    0 -0.37870074866E+02 -0.75957345953E+01  0.73323630348E+01  0.39314136161E+02  0.00000000000E+00 0.  1.
         11    1    1    2    0    0  0.35687569640E+02  0.68442814023E+01 -0.43929259726E+02  0.57010759290E+02  0.00000000000E+00 0. -1.
</event>
<event>
 7    1  0.2844572E-009  0.1491006E+03  0.7561462E-02  0.1201583E+00
          2   -1    0    0  501    0  0.00000000000E+00  0.00000000000E+00  0.22000890431E+03  0.22000890431E+03  0.00000000000E+00 0.  1.
         -2   -1    0    0    0  501 -0.00000000000E+00 -0.00000000000E+00 -0.14261069096E+03  0.14261069096E+03  0.00000000000E+00 0. -1.
         25    2    1    2    0    0 -0.10682162028E+03 -0.88201408488E+02  0.60026836954E+02  0.19606416970E+03  0.12509032924E+03 0.  0.
          5    1    3    3  502    0 -0.70770030063E+02 -0.27608466173E+02 -0.29875460327E+02  0.81735182689E+02  0.41800000000E+01 0. -1.
         -5    1    3    3    0  502 -0.36051590219E+02 -0.60592942315E+02  0.89902297280E+02  0.11432898702E+03  0.41800000000E+01 0. -1.
        -11    1    1    2    0    0  0.26967301551E+02 -0.63757835182E+01 -0.23362613694E+02  0.36244967747E+02  0.00000000000E+00 0. -1.
         11    1    1    2    0    0  0.79854318731E+02  0.94577192006E+02  0.40733990085E+02  0.13031045782E+03  0.00000000000E+00 0.  1.
</event>
<event>
 7    1  0.2844572E-009  0.8798476E+02  0.7561462E-02  0.1307807E+00
         -2   -1    0    0    0  501 -0.00000000000E+00  0.00000000000E+00  0.76036627665E+03  0.76036627665E+03  0.00000000000E+00 0.  1.
          2   -1    0    0  501    0  0.00000000000E+00 -0.00000000000E+00 -0.24784432121E+02  0.24784432121E+02  0.00000000000E+00 0. -1.
         25    2    1    2    0    0 -0.20966804482E+02  0.39366552821E+02  0.60947569945E+03  0.62377681431E+03  0.12509018140E+03 0.  0.
          5    1    3    3  502    0  0.31392708136E+02 -0.86993447755E+01  0.42135893277E+03  0.42263696401E+03  0.41800000000E+01 0.  1.
         -5    1    3    3    0  502 -0.52359512617E+02  0.48065897596E+02  0.18811676669E+03  0.20113985031E+03  0.41800000000E+01 0.  1.
        -11    1    1    2    0    0  0.34274824753E+02 -0.44520977784E+01  0.53565676619E+01  0.34975385682E+02  0.00000000000E+00 0. -1.
         11    1    1    2    0    0 -0.13308020272E+02 -0.34914455043E+02  0.12074957742E+03  0.12639850878E+03  0.00000000000E+00 0.  1.
</event>
<event>
 7    1  0.2844572E-009  0.1064270E+03  0.7561462E-02  0.1267333E+00
          2   -1    0    0  501    0  0.00000000000E+00  0.00000000000E+00  0.43455362526E+03  0.43455362526E+03  0.00000000000E+00 0. -1.
         -2   -1    0    0    0  501 -0.00000000000E+00 -0.00000000000E+00 -0.52955502245E+02  0.52955502245E+02  0.00000000000E+00 0.  1.
         25    2    1    2    0    0  0.23202804310E+02 -0.46076547713E+02  0.35130349419E+03  0.37646152399E+03  0.12509082954E+03 0.  0.
          5    1    3    3  502    0  0.71343344850E+02 -0.44367124246E+02  0.25811416575E+03  0.27147506245E+03  0.41800000000E+01 0. -1.
         -5    1    3    3    0  502 -0.48140540540E+02 -0.17094234670E+01  0.93189328439E+02  0.10498646154E+03  0.41800000000E+01 0. -1.
        -11    1    1    2    0    0 -0.42693815356E+02  0.43102373361E+02  0.53295503468E+02  0.80752629362E+02  0.00000000000E+00 0. -1.
         11    1    1    2    0    0  0.19491011046E+02  0.29741743516E+01 -0.23000874644E+02  0.30294974155E+02  0.00000000000E+00 0.  1.
</event>
<event>
 7    1  0.2844572E-009  0.1877672E+03  0.7561462E-02  0.1160491E+00
          2   -1    0    0  501    0  0.00000000000E+00  0.00000000000E+00  0.38590444662E+03  0.38590444662E+03  0.00000000000E+00 0. -1.
         -2   -1    0    0    0  501 -0.00000000000E+00 -0.00000000000E+00 -0.11121533011E+03  0.11121533011E+03  0.00000000000E+00 0.  1.
         25    2    1    2    0    0 -0.10765301200E+03  0.12129263668E+03  0.61941850057E+02  0.21397583744E+03  0.12509113283E+03 0.  0.
          5    1    3    3  502    0  0.11002609044E+02  0.71076307457E+02  0.42388825245E+02  0.83589376078E+02  0.41800000000E+01 0. -1.
         -5    1    3    3    0  502 -0.11865562105E+03  0.50216329226E+02  0.19553024812E+02  0.13038646136E+03  0.41800000000E+01 0. -1.
        -11    1    1    2    0    0 -0.62363003174E+01 -0.23976280103E+02  0.23788161921E+01  0.24887993405E+02  0.00000000000E+00 0.  1.
         11    1    1    2    0    0  0.11388931232E+03 -0.97316356580E+02  0.21036845027E+03  0.25825594589E+03  0.00000000000E+00 0. -1.
</event>
<event>
 7    1  0.2844572E-009  0.9583765E+02  0.7561462E-02  0.1289301E+00
          1   -1    0    0  501    0  0.00000000000E+00  0.00000000000E+00  0.53837503912E+02  0.53837503912E+02  0.00000000000E+00 0. -1.
         -1   -1    0    0    0  501 -0.00000000000E+00 -0.00000000000E+00 -0.24793710189E+03  0.24793710189E+03  0.00000000000E+00 0.  1.
         25    2    1    2    0    0 -0.31247199917E+02  0.37068200256E+01 -0.81901765271E+02  0.15280621595E+03  0.12510680421E+03 0.  0.
          5    1    3    3  502    0 -0.66903592906E+02  0.18021133443E+02 -0.86070987074E+01  0.69945739988E+02  0.41800000000E+01 0.  1.
         -5    1    3    3    0  502  0.35656392989E+02 -0.14314313418E+02 -0.73294666564E+02  0.82860475960E+02  0.41800000000E+01 0.  1.
        -11    1    1    2    0    0 -0.15641394613E+02 -0.27040453292E+02 -0.78425346295E+01  0.32207835834E+02  0.00000000000E+00 0. -1.
         11    1    1    2    0    0  0.46888594530E+02  0.23333633266E+02 -0.10435529808E+03  0.11676055402E+03  0.00000000000E+00 0.  1.
</event>
<event>
 7    1  0.2844572E-009  0.8965898E+02  0.7561462E-02  0.1303680E+00
          2   -1    0    0  501    0  0.00000000000E+00  0.00000000000E+00  0.25218737750E+03  0.25218737750E+03  0.00000000000E+00 0. -1.
         -2   -1    0    0    0  501 -0.00000000000E+00 -0.00000000000E+00 -0.71965538600E+02  0.71965538600E+02  0.00000000000E+00 0.  1.
         25    2    1    2    0    0  0.13743537999E+02  0.29458847942E+02  0.13368326615E+02  0.12993542521E+03  0.12509114281E+03 0.  0.
          5    1    3    3  502    0  0.41394006264E+02 -0.11964504596E+02 -0.38479855158E+02  0.57920503950E+02  0.41800000000E+01 0. -1.
         -5    1    3    3    0  502 -0.27650468265E+02  0.41423352538E+02  0.51848181773E+02  0.72014921259E+02  0.41800000000E+01 0. -1.
        -11    1    1    2    0    0 -0.30337210042E+02 -0.50706361222E+02  0.60767389582E+02  0.84759406665E+02  0.00000000000E+00 0.  1.
         11    1    1    2    0    0  0.16593672043E+02  0.21247513279E+02  0.10608612270E+03  0.10945808422E+03  0.00000000000E+00 0. -1.
</event>
<event>
 7    1  0.2844572E-009  0.8519681E+02  0.7561462E-02  0.1314919E+00
          2   -1    0    0  501    0  0.00000000000E+00  0.00000000000E+00  0.70524576633E+03  0.70524576633E+03  0.00000000000E+00 0. -1.
         -2   -1    0    0    0  501 -0.00000000000E+00 -0.00000000000E+00 -0.87494087070E+02  0.87494087070E+02  0.00000000000E+00 0.  1.
         25    2    1    2    0    0 -0.21399096044E+02 -0.26198826675E+02  0.66925777877E+03  0.68169043680E+03  0.12510626425E+03 0.  0.
          5    1    3    3  502    0  0.31448894141E+02 -0.44221642373E+02  0.15274316126E+03  0.16214972189E+03  0.41800000000E+01 0.  1.
         -5    1    3    3    0  502 -0.52847990185E+02  0.18022815698E+02  0.51651461751E+03  0.51954071492E+03  0.41800000000E+01 0.  1.
        -11    1    1    2    0    0  0.18770982773E+01  0.37414454949E+02 -0.71641397285E+02  0.80844633353E+02  0.00000000000E+00 0.  1.
         11    1    1    2    0    0  0.19521997766E+02 -0.11215628274E+02  0.20135297774E+02  0.30204783244E+02  0.00000000000E+00 0. -1.
</event>
<event>
 7    1  0.2844572E-009  0.1941146E+03  0.7561462E-02  0.1154802E+00
          1   -1    0    0  501    0  0.00000000000E+00  0.00000000000E+00  0.22175144615E+03  0.22175144615E+03  0.00000000000E+00 0. -1.
         -1   -1    0    0    0  501 -0.00000000000E+00 -0.00000000000E+00 -0.18229690462E+03  0.18229690462E+03  0.00000000000E+00 0.  1.
         25    2    1    2    0    0  0.14408849802E+03  0.88052641906E+02  0.23235318937E+02  0.21142585830E+03  0.12508497314E+03 0.  0.
          5    1    3    3  502    0 -0.82665500053E+01 -0.11140578799E+02  0.25765604022E+02  0.29559889979E+02  0.41800000000E+01 0.  1.
         -5    1    3    3    0  502  0.15235504802E+03  0.99193220705E+02 -0.25302850851E+01  0.18186596832E+03  0.41800000000E+01 0.  1.
        -11    1    1    2    0    0 -0.43121058843E+02 -0.79652861617E+02  0.55453937817E+01  0.90745553455E+02  0.00000000000E+00 0.  1.
         11    1    1    2    0    0 -0.10096743918E+03 -0.83997802883E+01  0.10673828812E+02  0.10187693902E+03  0.00000000000E+00 0. -1.
</event>
<event>
 7    1  0.2844572E-009  0.1018567E+03  0.7561462E-02  0.1276439E+00
          2   -1    0    0  501    0  0.00000000000E+00  0.00000000000E+00  0.51540959463E+03  0.51540959463E+03  0.00000000000E+00 0. -1.
         -2   -1    0    0    0  501 -0.00000000000E+00 -0.00000000000E+00 -0.28316945740E+02  0.28316945740E+02  0.00000000000E+00 0.  1.
         25    2    1    2    0    0 -0.37132541847E+01 -0.35715689752E+02  0.35782054113E+03  0.38075270932E+03  0.12509071608E+03 0.  0.
          5    1    3    3  502    0 -0.63145038864E+02 -0.14103921584E+02  0.14822766904E+03  0.16178730112E+03  0.41800000000E+01 0.  1.
         -5    1    3    3    0  502  0.59431784679E+02 -0.21611768168E+02  0.20959287209E+03  0.21896540820E+03  0.41800000000E+01 0.  1.
        -11    1    1    2    0    0  0.33888133537E+02  0.28963688111E+02  0.12378773540E+03  0.13157014957E+03  0.00000000000E+00 0. -1.
         11    1    1    2    0    0 -0.30174879352E+02  0.67520016409E+01  0.54843723597E+01  0.31403681476E+02  0.00000000000E+00 0.  1.
</event>
<event>
 7    1  0.2844572E-009  0.1358771E+03  0.7561462E-02  0.1218987E+00
         -1   -1    0    0    0  501 -0.00000000000E+00  0.00000000000E+00  0.17797078919E+03  0.17797078919E+03  0.00000000000E+00 0.  1.
          1   -1    0    0  501    0  0.00000000000E+00 -0.00000000000E+00 -0.14140358100E+03  0.14140358100E+03  0.00000000000E+00 0. -1.
         25    2    1    2    0    0  0.37001880012E+01  0.10591567222E+03 -0.23725309003E+02  0.16565561900E+03  0.12508826006E+03 0.  0.
          5    1    3    3  502    0  0.55702920175E+02  0.13635618427E+02 -0.14166077981E+02  0.59219047369E+02  0.41800000000E+01 0.  1.
         -5    1    3    3    0  502 -0.52002732174E+02  0.92280053795E+02 -0.95592310220E+01  0.10643657163E+03  0.41800000000E+01 0.  1.
        -11    1    1    2    0    0  0.74369509477E+01 -0.15984246640E+02 -0.24119573426E+02  0.29875712583E+02  0.00000000000E+00 0. -1.
         11    1    1    2    0    0 -0.11137138949E+02 -0.89931425582E+02  0.84412090612E+02  0.12384303861E+03  0.00000000000E+00 0.  1.
</event>
<event>
 7    1  0.2844572E-009  0.2834900E+03  0.7561462E-02  0.1093798E+00
         -1   -1    0    0    0  501 -0.00000000000E+00  0.00000000000E+00  0.16041966473E+03  0.16041966473E+03  0.00000000000E+00 0.  1.
          1   -1    0    0  501    0  0.00000000000E+00 -0.00000000000E+00 -0.55925897793E+03  0.55925897793E+03  0.00000000000E+00 0. -1.
         25    2    1    2    0    0  0.58920513985E+02 -0.26359237653E+03 -0.12021152430E+03  0.32101550258E+03  0.12509026496E+03 0.  0.
          5    1    3    3  502    0 -0.26764971252E+02 -0.18447911355E+02 -0.34330899364E+02  0.47463377151E+02  0.41800000000E+01 0.  1.
         -5    1    3    3    0  502  0.85685485237E+02 -0.24514446518E+03 -0.85880624936E+02  0.27355212543E+03  0.41800000000E+01 0.  1.
        -11    1    1    2    0    0 -0.37307014885E+01  0.12848508623E+03 -0.18498498719E+03  0.22525936386E+03  0.00000000000E+00 0. -1.
         11    1    1    2    0    0 -0.55189812497E+02  0.13510729030E+03 -0.93642801707E+02  0.17340377622E+03  0.00000000000E+00 0.  1.
</event>
<event>
 7    1  0.3419759E-009  0.1393963E+03  0.7561462E-02  0.1214144E+00
         -2   -1    0    0    0  501 -0.00000000000E+00  0.00000000000E+00  0.27852877138E+03  0.27852877138E+03  0.00000000000E+00 0.  1.
          2   -1    0    0  501    0  0.00000000000E+00 -0.00000000000E+00 -0.93813792102E+02  0.93813792102E+02  0.00000000000E+00 0. -1.
         25    2    1    2    0    0  0.96616516989E+02 -0.61002264493E+02  0.59442428219E+02  0.17954609221E+03  0.12508944531E+03 0.  0.
          5    1    3    3  502    0 -0.12062303289E+02 -0.10149833966E+02  0.57184058113E+02  0.59464335467E+02  0.41800000000E+01 0. -1.
         -5    1    3    3    0  502  0.10867882028E+03 -0.50852430527E+02  0.22583701056E+01  0.12008175675E+03  0.41800000000E+01 0. -1.
        -11    1    1    2    0    0 -0.76648046880E+02 -0.16496114889E+01  0.89823696909E+02  0.11809293304E+03  0.00000000000E+00 0.  1.
         11    1    1    2    0    0 -0.19968470110E+02  0.62651875982E+02  0.35448854147E+02  0.74703538222E+02  0.00000000000E+00 0. -1.
</event>
<event>
 7    1  0.2844572E-009  0.1418814E+03  0.7561462E-02  0.1210820E+00
          1   -1    0    0  501    0  0.00000000000E+00  0.00000000000E+00  0.44635697377E+03  0.44635697377E+03  0.00000000000E+00 0. -1.
         -1   -1    0    0    0  501 -0.00000000000E+00 -0.00000000000E+00 -0.86588360940E+02  0.86588360940E+02  0.00000000000E+00 0.  1.
         25    2    1    2    0    0  0.11066920223E+03  0.50134308459E+02  0.33706612228E+03  0.37950313409E+03  0.12509171349E+03 0.  0.
          5    1    3    3  502    0  0.11225371989E+03  0.76253711386E+02  0.21264408342E+03  0.25229051655E+03  0.41800000000E+01 0.  1.
         -5    1    3    3    0  502 -0.15845176515E+01 -0.26119402927E+02  0.12442203886E+03  0.12721261753E+03  0.41800000000E+01 0.  1.
        -11    1    1    2    0    0 -0.47968488751E+02 -0.21693943106E+02 -0.35326470635E+02  0.63400020569E+02  0.00000000000E+00 0.  1.
         11    1    1    2    0    0 -0.62700713484E+02 -0.28440365353E+02  0.58028961181E+02  0.90042180052E+02  0.00000000000E+00 0. -1.
</event>
<event>
 7    1  0.2844572E-009  0.7054634E+02  0.7561462E-02  0.1358245E+00
         -2   -1    0    0    0  501 -0.00000000000E+00  0.00000000000E+00  0.44108946992E+02  0.44108946992E+02  0.00000000000E+00 0.  1.
          2   -1    0    0  501    0  0.00000000000E+00 -0.00000000000E+00 -0.34661886069E+03  0.34661886069E+03  0.00000000000E+00 0. -1.
         25    2    1    2    0    0  0.51544011466E+02  0.11233626063E+02 -0.19463949276E+03  0.23730667756E+03  0.12508775959E+03 0.  0.
          5    1    3    3  502    0  0.67240317916E+02  0.19176420532E+02 -0.20488253896E+03  0.21652557038E+03  0.41800000000E+01 0. -1.
         -5    1    3    3    0  502 -0.15696306449E+02 -0.79427944682E+01  0.10243046200E+02  0.20781107179E+02  0.41800000000E+01 0. -1.
        -11    1    1    2    0    0 -0.20182285410E+02 -0.67693743101E+01 -0.11820005723E+03  0.12010163447E+03  0.00000000000E+00 0. -1.
         11    1    1    2    0    0 -0.31361726056E+02 -0.44642517532E+01  0.10329636289E+02  0.33319495656E+02  0.00000000000E+00 0.  1.
</event>
<event>
 6    1  0.2844572E-009  0.1444983E+03  0.7561462E-02  0.1207401E+00
         -2   -1    0    0    0  501 -0.00000000000E+00  0.00000000000E+00  0.15197527466E+03  0.15197527466E+03  0.00000000000E+00 0.  1.
          2   -1    0    0  501    0  0.00000000000E+00 -0.00000000000E+00 -0.20607026792E+03  0.20607026792E+03  0.00000000000E+00 0. -1.
          5    1    1    2  502    0 -0.81754555057E+01  0.66868739669E+02  0.74152049775E+02  0.10027095942E+03  0.41800000000E+01 0. -1.
         -5    1    1    2    0  502  0.18202102395E+02  0.62086042703E+02 -0.49415965353E+02  0.81519342869E+02  0.41800000000E+01 0. -1.
        -11    1    1    2    0    0 -0.44098909013E+02 -0.10802368753E+03 -0.67033115718E+02  0.13456325444E+03  0.00000000000E+00 0. -1.
         11    1    1    2    0    0  0.34072262123E+02 -0.20931094842E+02 -0.11797961969E+02  0.41691985850E+02  0.00000000000E+00 0.  1.
</event>
<event>
 7    1  0.2844572E-009  0.1388409E+03  0.7561462E-02  0.1214897E+00
         -1   -1    0    0    0  501 -0.00000000000E+00  0.00000000000E+00  0.15313996383E+03  0.15313996383E+03  0.00000000000E+00 0.  1.
          1   -1    0    0  501    0  0.00000000000E+00 -0.00000000000E+00 -0.14637303756E+03  0.14637303756E+03  0.00000000000E+00 0. -1.
         25    2    1    2    0    0 -0.16567463490E+02  0.96367697050E+02 -0.33281608328E+02  0.16222385229E+03  0.12509076272E+03 0.  0.
          5    1    3    3  502    0 -0.30864015974E+02 -0.15671111655E+02 -0.34699404348E+02  0.49190367803E+02  0.41800000000E+01 0.  1.
         -5    1    3    3    0  502  0.14296552484E+02  0.11203880871E+03  0.14177960195E+01  0.11303348448E+03  0.41800000000E+01 0.  1.
        -11    1    1    2    0    0 -0.21793540844E+02 -0.87827375638E+02  0.37351360359E+02  0.97896529329E+02  0.00000000000E+00 0.  1.
         11    1    1    2    0    0  0.38361004334E+02 -0.85403214120E+01  0.26971742409E+01  0.39392619769E+02  0.00000000000E+00 0. -1.
</event>
<event>
 7    1  0.2844572E-009  0.9194085E+02  0.7561462E-02  0.1298219E+00
          1   -1    0    0  501    0  0.00000000000E+00  0.00000000000E+00  0.31314444320E+03  0.31314444320E+03  0.00000000000E+00 0. -1.
         -1   -1    0    0    0  501 -0.00000000000E+00 -0.00000000000E+00 -0.48955790218E+02  0.48955790218E+02  0.00000000000E+00 0.  1.
         25    2    1    2    0    0 -0.43417970250E+02 -0.48265764340E+01  0.20948503202E+03  0.24786994937E+03  0.12508843743E+03 0.  0.
          5    1    3    3  502    0  0.20314628991E+02 -0.12887704985E+02  0.17127745867E+03  0.17300929841E+03  0.41800000000E+01 0.  1.
         -5    1    3    3    0  502 -0.63732599241E+02  0.80611285505E+01  0.38207573356E+02  0.74860650954E+02  0.41800000000E+01 0.  1.
        -11    1    1    2    0    0  0.12303028267E+02 -0.39250905928E+02  0.42028415309E+02  0.58808042087E+02  0.00000000000E+00 0.  1.
         11    1    1    2    0    0  0.31114941984E+02  0.44077482362E+02  0.12675205653E+02  0.55422241964E+02  0.00000000000E+00 0. -1.
</event>
<event>
 7    1  0.2844572E-009  0.1058154E+03  0.7561462E-02  0.1268521E+00
         -1   -1    0    0    0  501 -0.00000000000E+00  0.00000000000E+00  0.82753827949E+02  0.82753827949E+02  0.00000000000E+00 0.  1.
          1   -1    0    0  501    0  0.00000000000E+00 -0.00000000000E+00 -0.25237056681E+03  0.25237056681E+03  0.00000000000E+00 0. -1.
         25    2    1    2    0    0  0.52414566944E+01  0.20591449667E+02 -0.19765482054E+03  0.23487566708E+03  0.12509064807E+03 0.  0.
          5    1    3    3  502    0 -0.56110778839E+02  0.31415220159E+02 -0.10009644958E+03  0.11904665966E+03  0.41800000000E+01 0. -1.
         -5    1    3    3    0  502  0.61352235533E+02 -0.10823770492E+02 -0.97558370966E+02  0.11582900741E+03  0.41800000000E+01 0. -1.
        -11    1    1    2    0    0  0.14020339690E+02 -0.48697632051E+02 -0.72543488913E+01  0.51192332143E+02  0.00000000000E+00 0.  1.
         11    1    1    2    0    0 -0.19261796385E+02  0.28106182384E+02  0.35292430569E+02  0.49056395543E+02  0.00000000000E+00 0. -1.
</event>
<event>
 7    1  0.2844572E-009  0.1849257E+03  0.7561462E-02  0.1163119E+00
          1   -1    0    0  501    0  0.00000000000E+00  0.00000000000E+00  0.27028260177E+03  0.27028260177E+03  0.00000000000E+00 0. -1.
         -1   -1    0    0    0  501 -0.00000000000E+00 -0.00000000000E+00 -0.19800342231E+03  0.19800342231E+03  0.00000000000E+00 0.  1.
         25    2    1    2    0    0  0.15725834516E+03 -0.82622548462E+02  0.13852787964E+03  0.25767173877E+03  0.12509228147E+03 0.  0.
          5    1    3    3  502    0  0.12283237366E+02 -0.23511406445E+02  0.89676968751E+02  0.93611405702E+02  0.41800000000E+01 0. -1.
         -5    1    3    3    0  502  0.14497510780E+03 -0.59111142017E+02  0.48850910893E+02  0.16406033307E+03  0.41800000000E+01 0. -1.
        -11    1    1    2    0    0 -0.90829787414E+02  0.15870809495E+02  0.52792845980E+01  0.92356936510E+02  0.00000000000E+00 0. -1.
         11    1    1    2    0    0 -0.66428557750E+02  0.66751738967E+02 -0.71527984778E+02  0.11825734880E+03  0.00000000000E+00 0.  1.
</event>
<event>
 7    1  0.2844572E-009  0.8475259E+02  0.7561462E-02  0.1316081E+00
          2   -1    0    0  501    0  0.00000000000E+00  0.00000000000E+00  0.12199635510E+04  0.12199635510E+04  0.00000000000E+00 0.  1.
         -2   -1    0    0    0  501 -0.00000000000E+00 -0.00000000000E+00 -0.22290167792E+02  0.22290167792E+02  0.00000000000E+00 0. -1.
         25    2    1    2    0    0  0.66178083632E+02 -0.78062348447E+01  0.10461498016E+04  0.10557069419E+04  0.12508902321E+03 0.  0.
          5    1    3    3  502    0 -0.81774320577E+01 -0.14370018686E+02  0.17829289607E+02  0.24672328629E+02  0.41800000000E+01 0.  1.
         -5    1    3    3    0  502  0.74355515690E+02  0.65637838415E+01  0.10283205120E+04  0.10310346133E+04  0.41800000000E+01 0.  1.
        -11    1    1    2    0    0 -0.43224143584E+02 -0.14589583518E+02  0.14729708798E+03  0.15419991784E+03  0.00000000000E+00 0.  1.
         11    1    1    2    0    0 -0.22953940048E+02  0.22395818363E+02  0.42264936599E+01  0.32346859083E+02  0.00000000000E+00 0. -1.
</event>
<event>
 7    1  0.2844572E-009  0.2247681E+03  0.7561462E-02  0.1130377E+00
         -1   -1    0    0    0  501 -0.00000000000E+00  0.00000000000E+00  0.28455785950E+03  0.28455785950E+03  0.00000000000E+00 0.  1.
          1   -1    0    0  501    0  0.00000000000E+00 -0.00000000000E+00 -0.19392974210E+03  0.19392974210E+03  0.00000000000E+00 0. -1.
         25    2    1    2    0    0 -0.85265285867E+02  0.18749406631E+03  0.70268613599E+02  0.25101930327E+03  0.12509523844E+03 0.  0.
          5    1    3    3  502    0 -0.10981594700E+03  0.95245913624E+02  0.41503849891E+02  0.15123282790E+03  0.41800000000E+01 0.  1.
         -5    1    3    3    0  502  0.24550661135E+02  0.92248152684E+02  0.28764763708E+02  0.99786475371E+02  0.41800000000E+01 0.  1.
        -11    1    1    2    0    0 -0.27219729767E+01 -0.11225766644E+02 -0.23006559715E+02  0.25743518865E+02  0.00000000000E+00 0. -1.
         11    1    1    2    0    0  0.87987258844E+02 -0.17626829966E+03  0.43366063521E+02  0.20172477947E+03  0.00000000000E+00 0.  1.
</event>
<event>
 7    1  0.2844572E-009  0.1436636E+03  0.7561462E-02  0.1208483E+00
         -1   -1    0    0    0  501 -0.00000000000E+00  0.00000000000E+00  0.27990961922E+03  0.27990961922E+03  0.00000000000E+00 0.  1.
          1   -1    0    0  501    0  0.00000000000E+00 -0.00000000000E+00 -0.10444914157E+03  0.10444914157E+03  0.00000000000E+00 0. -1.
         25    2    1    2    0    0 -0.39060826442E+02  0.10822399835E+03  0.14739459082E+03  0.22496838685E+03  0.12508967863E+03 0.  0.
          5    1    3    3  502    0 -0.83672601351E+02  0.56411148460E+02  0.95857356951E+02  0.13924592335E+03  0.41800000000E+01 0.  1.
         -5    1    3    3    0  502  0.44611774909E+02  0.51812849890E+02  0.51537233864E+02  0.85722463501E+02  0.41800000000E+01 0.  1.
        -11    1    1    2    0    0  0.21438851534E+00 -0.34457941708E+02  0.60750519568E+02  0.69842833111E+02  0.00000000000E+00 0.  1.
         11    1    1    2    0    0  0.38846437926E+02 -0.73766056642E+02 -0.32684632735E+02  0.89547540832E+02  0.00000000000E+00 0. -1.
</event>
<event>
 7    1  0.2844572E-009  0.1434036E+03  0.7561462E-02  0.1208821E+00
         -2   -1    0    0    0  501 -0.00000000000E+00  0.00000000000E+00  0.60927377014E+02  0.60927377014E+02  0.00000000000E+00 0.  1.
          2   -1    0    0  501    0  0.00000000000E+00 -0.00000000000E+00 -0.69017870343E+03  0.69017870343E+03  0.00000000000E+00 0. -1.
         25    2    1    2    0    0  0.81142343697E+02 -0.84093078845E+02 -0.93928266746E+02  0.19525731712E+03  0.12508866753E+03 0.  0.
          5    1    3    3  502    0  0.86815523126E+02 -0.14515289785E+01 -0.35992102428E+02  0.94084780009E+02  0.41800000000E+01 0. -1.
         -5    1    3    3    0  502 -0.56731794290E+01 -0.82641549867E+02 -0.57936164318E+02  0.10117253711E+03  0.41800000000E+01 0. -1.
        -11    1    1    2    0    0 -0.12972469884E+02  0.15805017314E+02 -0.12007767325E+02  0.23712233621E+02  0.00000000000E+00 0.  1.
         11    1    1    2    0    0 -0.68169873813E+02  0.68288061531E+02 -0.52331529235E+03  0.53213652971E+03  0.00000000000E+00 0. -1.
</event>
<event>
 7    1  0.2844572E-009  0.9736333E+02  0.7561462E-02  0.1285940E+00
         -1   -1    0    0    0  501 -0.00000000000E+00  0.00000000000E+00  0.57688102358E+02  0.57688102358E+02  0.00000000000E+00 0.  1.
          1   -1    0    0  501    0  0.00000000000E+00 -0.00000000000E+00 -0.25725714896E+03  0.25725714896E+03  0.00000000000E+00 0. -1.
         25    2    1    2    0    0 -0.32045520708E+02 -0.73641708972E+01 -0.52647139281E+02  0.13964111054E+03  0.12508705795E+03 0.  0.
          5    1    3    3  502    0 -0.27388177735E+02  0.43342392661E+02  0.16178428790E+02  0.53924848070E+02  0.41800000000E+01 0.  1.
         -5    1    3    3    0  502 -0.46573429724E+01 -0.50706563558E+02 -0.68825568071E+02  0.85716262469E+02  0.41800000000E+01 0.  1.
        -11    1    1    2    0    0  0.36549757221E+02  0.42909054141E+02 -0.65923349328E+02  0.86734996782E+02  0.00000000000E+00 0.  1.
         11    1    1    2    0    0 -0.45042365134E+01 -0.35544883243E+02 -0.80998557994E+02  0.88569143998E+02  0.00000000000E+00 0. -1.
</event>
<event>
 7    1  0.2844572E-009  0.1122062E+03  0.7561462E-02  0.1256538E+00
         -3   -1    0    0    0  501 -0.00000000000E+00  0.00000000000E+00  0.81908681944E+02  0.81908681944E+02  0.00000000000E+00 0.  1.
          3   -1    0    0  501    0  0.00000000000E+00 -0.00000000000E+00 -0.20397209163E+03  0.20397209163E+03  0.00000000000E+00 0. -1.
         25    2    1    2    0    0  0.14316761459E+02  0.62696462939E+02 -0.40525864863E+02  0.14637563365E+03  0.12509062427E+03 0.  0.
          5    1    3    3  502    0 -0.39000132246E+02 -0.40131809891E+01  0.17403701552E+02  0.43098458958E+02  0.41800000000E+01 0.  1.
         -5    1    3    3    0  502  0.53316893705E+02  0.66709643928E+02 -0.57929566415E+02  0.10327717469E+03  0.41800000000E+01 0.  1.
        -11    1    1    2    0    0  0.91579214064E+01 -0.73196877009E+02 -0.25848477336E+02  0.78165171969E+02  0.00000000000E+00 0.  1.
         11    1    1    2    0    0 -0.23474682865E+02  0.10500414070E+02 -0.55689067481E+02  0.61339967951E+02  0.00000000000E+00 0. -1.
</event>
<event>
 7    1  0.2844572E-009  0.1852179E+03  0.7561462E-02  0.1162847E+00
         -1   -1    0    0    0  501 -0.00000000000E+00  0.00000000000E+00  0.15769030783E+03  0.15769030783E+03  0.00000000000E+00 0.  1.
          1   -1    0    0  501    0  0.00000000000E+00 -0.00000000000E+00 -0.31727929623E+03  0.31727929623E+03  0.00000000000E+00 0. -1.
         25    2    1    2    0    0 -0.95992856107E+02  0.12445208363E+03  0.38176375074E+02  0.20446888269E+03  0.12508852398E+03 0.  0.
          5    1    3    3  502    0  0.27327613859E+02  0.78539509648E+01  0.16990026872E+02  0.33385871834E+02  0.41800000000E+01 0.  1.
         -5    1    3    3    0  502 -0.12332046997E+03  0.11659813266E+03  0.21186348201E+02  0.17108301085E+03  0.41800000000E+01 0.  1.
        -11    1    1    2    0    0  0.98105513181E+02 -0.77746085636E+02 -0.93527904291E+02  0.15625816596E+03  0.00000000000E+00 0.  1.
         11    1    1    2    0    0 -0.21126570738E+01 -0.46705997990E+02 -0.10423745918E+03  0.11424255540E+03  0.00000000000E+00 0. -1.
</event>
<event>
 7    1  0.2844572E-009  0.1733192E+03  0.7561462E-02  0.1174430E+00
          2   -1    0    0  501    0  0.00000000000E+00  0.00000000000E+00  0.25870174755E+04  0.25870174755E+04  0.00000000000E+00 0. -1.
         -2   -1    0    0    0  501 -0.00000000000E+00 -0.00000000000E+00 -0.19794185501E+02  0.19794185501E+02  0.00000000000E+00 0.  1.
         25    2    1    2    0    0 -0.13453236303E+03  0.88647995039E+02  0.20009852267E+04  0.20113542799E+04  0.12508692265E+03 0.  0.
          5    1    3    3  502    0 -0.46026131050E+02  0.60685055357E+01  0.12326409108E+04  0.12335219166E+04  0.41800000000E+01 0.  1.
         -5    1    3    3    0  502 -0.88506231980E+02  0.82579489503E+02  0.76834431590E+03  0.77783236328E+03  0.41800000000E+01 0.  1.
        -11    1    1    2    0    0  0.14615291937E+02 -0.51248346775E+02  0.10978958598E+03  0.12203996475E+03  0.00000000000E+00 0. -1.
         11    1    1    2    0    0  0.11991707109E+03 -0.37399648264E+02  0.45644847740E+03  0.47341741640E+03  0.00000000000E+00 0.  1.
</event>
<event>
 7    1  0.2844572E-009  0.1061457E+03  0.7561462E-02  0.1267879E+00
          2   -1    0    0  501    0  0.00000000000E+00  0.00000000000E+00  0.44801945725E+03  0.44801945725E+03  0.00000000000E+00 0. -1.
         -2   -1    0    0    0  501 -0.00000000000E+00 -0.00000000000E+00 -0.29505653128E+02  0.29505653128E+02  0.00000000000E+00 0.  1.
         25    2    1    2    0    0 -0.34684760757E+02  0.22899752452E+02  0.29683011497E+03  0.32478101450E+03  0.12508860435E+03 0.  0.
          5    1    3    3  502    0 -0.74645758293E+02  0.43489545702E+02  0.18699384960E+03  0.20602791560E+03  0.41800000000E+01 0. -1.
         -5    1    3    3    0  502  0.39960997536E+02 -0.20589793249E+02  0.10983626537E+03  0.11875309891E+03  0.41800000000E+01 0. -1.
        -11    1    1    2    0    0  0.11850073014E+02 -0.46397608590E+02  0.10621478163E+03  0.11651069544E+03  0.00000000000E+00 0. -1.
         11    1    1    2    0    0  0.22834687743E+02  0.23497856138E+02  0.15468907518E+02  0.36233400437E+02  0.00000000000E+00 0.  1.
</event>
<event>
 7    1  0.2844572E-009  0.1564354E+03  0.7561462E-02  0.1192781E+00
         -1   -1    0    0    0  501 -0.00000000000E+00  0.00000000000E+00  0.48219124898E+02  0.48219124898E+02  0.00000000000E+00 0.  1.
          1   -1    0    0  501    0  0.00000000000E+00 -0.00000000000E+00 -0.52916519861E+03  0.52916519861E+03  0.00000000000E+00 0. -1.
         25    2    1    2    0    0 -0.96562279880E+02  0.60417354982E+02 -0.21506277048E+03  0.27363129107E+03  0.12509019756E+03 0.  0.
          5    1    3    3  502    0  0.21943855448E+02  0.40950243406E+02 -0.81993994159E+02  0.94334207503E+02  0.41800000000E+01 0. -1.
         -5    1    3    3    0  502 -0.11850613533E+03  0.19467111576E+02 -0.13306877632E+03  0.17929708356E+03  0.41800000000E+01 0. -1.
        -11    1    1    2    0    0  0.11948512323E+02 -0.60269926927E+02 -0.96286689372E+02  0.11422065307E+03  0.00000000000E+00 0.  1.
         11    1    1    2    0    0  0.84613767556E+02 -0.14742805563E+00 -0.16959661386E+03  0.18953237936E+03  0.00000000000E+00 0. -1.
</event>
<event>
 7    1  0.2844572E-009  0.1121589E+03  0.7561462E-02  0.1256623E+00
         -2   -1    0    0    0  501 -0.00000000000E+00  0.00000000000E+00  0.61864483011E+02  0.61864483011E+02  0.00000000000E+00 0.  1.
          2   -1    0    0  501    0  0.00000000000E+00 -0.00000000000E+00 -0.32207934138E+03  0.32207934138E+03  0.00000000000E+00 0. -1.
         25    2    1    2    0    0 -0.58671755612E+01  0.89038467678E+02 -0.15094967112E+03  0.21539661648E+03  0.12509047408E+03 0.  0.
          5    1    3    3  502    0 -0.20275191950E+02  0.56322110926E+02 -0.16590334170E+03  0.17642180924E+03  0.41800000000E+01 0.  1.
         -5    1    3    3    0  502  0.14408016389E+02  0.32716356752E+02  0.14953670586E+02  0.38974807240E+02  0.41800000000E+01 0.  1.
        -11    1    1    2    0    0  0.37715758993E+02 -0.88791954213E+02 -0.81102879000E+02  0.12603240294E+03  0.00000000000E+00 0.  1.
         11    1    1    2    0    0 -0.31848583432E+02 -0.24651346492E+00 -0.28162308256E+02  0.42514804973E+02  0.00000000000E+00 0. -1.
</event>
<event>
 7    1  0.2844572E-009  0.1521362E+03  0.7561462E-02  0.1197872E+00
          3   -1    0    0  501    0  0.00000000000E+00  0.00000000000E+00  0.18473459589E+03  0.18473459589E+03  0.00000000000E+00 0. -1.
         -3   -1    0    0    0  501 -0.00000000000E+00 -0.00000000000E+00 -0.14866380449E+03  0.14866380449E+03  0.00000000000E+00 0.  1.
         25    2    1    2    0    0  0.78820946084E+02  0.97039975894E+02  0.11813915429E+02  0.17724401885E+03  0.12508547140E+03 0.  0.
          5    1    3    3  502    0  0.11054642622E+03  0.88228099528E+02  0.20394739422E+02  0.14296197988E+03  0.41800000000E+01 0. -1.
         -5    1    3    3    0  502 -0.31725480137E+02  0.88118763662E+01 -0.85808239929E+01  0.34282038962E+02  0.41800000000E+01 0. -1.
        -11    1    1    2    0    0 -0.30736695806E+02 -0.64711749800E+02  0.55225980441E+02  0.90455867399E+02  0.00000000000E+00 0. -1.
         11    1    1    2    0    0 -0.48084250279E+02 -0.32328226093E+02 -0.30969104470E+02  0.65698514130E+02  0.00000000000E+00 0.  1.
</event>
<event>
 7    1  0.2844572E-009  0.1261413E+03  0.7561462E-02  0.1233296E+00
          1   -1    0    0  501    0  0.00000000000E+00  0.00000000000E+00  0.90092442292E+03  0.90092442292E+03  0.00000000000E+00 0. -1.
         -1   -1    0    0    0  501 -0.00000000000E+00 -0.00000000000E+00 -0.22534599533E+02  0.22534599533E+02  0.00000000000E+00 0.  1.
         25    2    1    2    0    0  0.90342090125E+02 -0.29335658110E+02  0.44681007559E+03  0.47361316386E+03  0.12509161142E+03 0.  0.
          5    1    3    3  502    0 -0.17124150526E+02 -0.37951213016E+02  0.19871816961E+03  0.20307612965E+03  0.41800000000E+01 0.  1.
         -5    1    3    3    0  502  0.10746624065E+03  0.86155549055E+01  0.24809190598E+03  0.27053703421E+03  0.41800000000E+01 0.  1.
        -11    1    1    2    0    0 -0.22987578666E+02 -0.94133159417E+01  0.22707231639E+02  0.33654979701E+02  0.00000000000E+00 0.  1.
         11    1    1    2    0    0 -0.67354511459E+02  0.38748974052E+02  0.40887251616E+03  0.41619087889E+03  0.00000000000E+00 0. -1.
</event>
<event>
 7    1  0.2844572E-009  0.6906998E+02  0.7561462E-02  0.1363284E+00
          1   -1    0    0  501    0  0.00000000000E+00  0.00000000000E+00  0.19054701995E+03  0.19054701995E+03  0.00000000000E+00 0. -1.
         -1   -1    0    0    0  501 -0.00000000000E+00 -0.00000000000E+00 -0.64864040483E+02  0.64864040483E+02  0.00000000000E+00 0.  1.
         25    2    1    2    0    0  0.12140416078E+02  0.54964589523E+01  0.63405791816E+02  0.14087473707E+03  0.12509115214E+03 0.  0.
          5    1    3    3  502    0  0.15912986483E+02  0.25388795125E+02 -0.31539994039E+02  0.43704206670E+02  0.41800000000E+01 0. -1.
         -5    1    3    3    0  502 -0.37725704047E+01 -0.19892336173E+02  0.94945785854E+02  0.97170530396E+02  0.41800000000E+01 0. -1.
        -11    1    1    2    0    0 -0.27377218253E+02 -0.40586589978E+02  0.10350144239E+02  0.50039073244E+02  0.00000000000E+00 0.  1.
         11    1    1    2    0    0  0.15236802175E+02  0.35090131026E+02  0.51927043415E+02  0.64497250125E+02  0.00000000000E+00 0. -1.
</event>
<event>
 7    1  0.2844572E-009  0.1190022E+03  0.7561462E-02  0.1244752E+00
         -4   -1    0    0    0  501 -0.00000000000E+00  0.00000000000E+00  0.21053902824E+03  0.21053902824E+03  0.00000000000E+00 0.  1.
          4   -1    0    0  501    0  0.00000000000E+00 -0.00000000000E+00 -0.69137319832E+02  0.69137319832E+02  0.00000000000E+00 0. -1.
         25    2    1    2    0    0  0.53226869973E+02 -0.66579221927E+01  0.71360520111E+02  0.15367897851E+03  0.12508987566E+03 0.  0.
          5    1    3    3  502    0  0.79077053722E+00 -0.59230226430E+02  0.17677845707E+02  0.61958241339E+02  0.41800000000E+01 0. -1.
         -5    1    3    3    0  502  0.52436099436E+02  0.52572304237E+02  0.53682674403E+02  0.91720737175E+02  0.41800000000E+01 0. -1.
        -11    1    1    2    0    0  0.11761071092E+02  0.32310331007E+02  0.28901565034E+02  0.44917488180E+02  0.00000000000E+00 0.  1.
         11    1    1    2    0    0 -0.64987941065E+02 -0.25652408814E+02  0.41139623259E+02  0.81079881375E+02  0.00000000000E+00 0. -1.
</event>
<event>
 7    1  0.2844572E-009  0.9778181E+02  0.7561462E-02  0.1285031E+00
          2   -1    0    0  501    0  0.00000000000E+00  0.00000000000E+00  0.36989981144E+02  0.36989981144E+02  0.00000000000E+00 0. -1.
         -2   -1    0    0    0  501 -0.00000000000E+00 -0.00000000000E+00 -0.34681353787E+03  0.34681353787E+03  0.00000000000E+00 0.  1.
         25    2    1    2    0    0  0.25664776783E+02  0.30963702987E+01 -0.21100639240E+03  0.24665741359E+03  0.12509162150E+03 0.  0.
          5    1    3    3  502    0  0.56564112936E+02 -0.30858852102E+02 -0.57783384552E+02  0.86649636789E+02  0.41800000000E+01 0.  1.
         -5    1    3    3    0  502 -0.30899336153E+02  0.33955222400E+02 -0.15322300785E+03  0.16000777681E+03  0.41800000000E+01 0.  1.
        -11    1    1    2    0    0  0.22211205847E+02  0.21635867661E+02 -0.87989416057E+01  0.32231503347E+02  0.00000000000E+00 0. -1.
         11    1    1    2    0    0 -0.47875982629E+02 -0.24732237960E+02 -0.90018222720E+02  0.10491460208E+03  0.00000000000E+00 0.  1.
</event>
<event>
 6    1  0.2844572E-009  0.1136508E+03  0.7561462E-02  0.1253955E+00
         -2   -1    0    0    0  501 -0.00000000000E+00  0.00000000000E+00  0.76176976787E+02  0.76176976787E+02  0.00000000000E+00 0.  1.
          2   -1    0    0  501    0  0.00000000000E+00 -0.00000000000E+00 -0.23100809423E+03  0.23100809423E+03  0.00000000000E+00 0. -1.
          5    1    1    2  502    0  0.65980131093E+02 -0.82476876680E+02 -0.77392492171E+02  0.13100718732E+03  0.41800000000E+01 0. -1.
         -5    1    1    2    0  502 -0.49103983577E+01  0.39278787619E+02 -0.34973827649E+02  0.52986566121E+02  0.41800000000E+01 0. -1.
        -11    1    1    2    0    0 -0.21208819891E+02  0.35263701524E+02  0.22243950900E+02  0.46777516372E+02  0.00000000000E+00 0.  1.
         11    1    1    2    0    0 -0.39860912845E+02  0.79343875378E+01 -0.64708748523E+02  0.76413801200E+02  0.00000000000E+00 0. -1.
</event>
<event>
 7    1  0.2844572E-009  0.4012419E+03  0.7561462E-02  0.1043351E+00
          1   -1    0    0  501    0  0.00000000000E+00  0.00000000000E+00  0.28565266409E+04  0.28565266409E+04  0.00000000000E+00 0. -1.
         -1   -1    0    0    0  501 -0.00000000000E+00 -0.00000000000E+00 -0.63562180487E+02  0.63562180487E+02  0.00000000000E+00 0.  1.
         25    2    1    2    0    0  0.11364218258E+03  0.38153917110E+03  0.10520833216E+04  0.11318184408E+04  0.12508789908E+03 0.  0.
          5    1    3    3  502    0  0.72286526884E+01  0.10987327092E+03  0.16876769527E+03  0.20155494648E+03  0.41800000000E+01 0.  1.
         -5    1    3    3    0  502  0.10641352989E+03  0.27166590018E+03  0.88331562633E+03  0.93026349428E+03  0.41800000000E+01 0.  1.
        -11    1    1    2    0    0 -0.89901167848E+02 -0.22711070246E+03  0.87726655056E+03  0.91063609191E+03  0.00000000000E+00 0. -1.
         11    1    1    2    0    0 -0.23741014735E+02 -0.15442846864E+03  0.86361458824E+03  0.87763428872E+03  0.00000000000E+00 0.  1.
</event>
<event>
 7    1  0.2844572E-009  0.9470010E+02  0.7561462E-02  0.1291853E+00
          2   -1    0    0  501    0  0.00000000000E+00  0.00000000000E+00  0.75294311744E+03  0.75294311744E+03  0.00000000000E+00 0. -1.
         -2   -1    0    0    0  501 -0.00000000000E+00 -0.00000000000E+00 -0.18703054150E+02  0.18703054150E+02  0.00000000000E+00 0.  1.
         25    2    1    2    0    0  0.13659778995E+02  0.44144490380E+01  0.55849169271E+03  0.57250955524E+03  0.12509253813E+03 0.  0.
          5    1    3    3  502    0  0.64811014589E+02 -0.20675139305E+02  0.27509543244E+03  0.28341294668E+03  0.41800000000E+01 0.  1.
         -5    1    3    3    0  502 -0.51151235594E+02  0.25089588343E+02  0.28339626027E+03  0.28909660856E+03  0.41800000000E+01 0.  1.
        -11    1    1    2    0    0 -0.33233902709E+02 -0.20269053093E+02  0.16848112556E+03  0.17291968214E+03  0.00000000000E+00 0. -1.
         11    1    1    2    0    0  0.19574123715E+02  0.15854604055E+02  0.72672450194E+01  0.26216934205E+02  0.00000000000E+00 0.  1.
</event>
<event>
 7    1  0.2844572E-009  0.1145571E+03  0.7561462E-02  0.1252356E+00
          1   -1    0    0  501    0  0.00000000000E+00  0.00000000000E+00  0.50614474584E+03  0.50614474584E+03  0.00000000000E+00 0. -1.
         -1   -1    0    0    0  501 -0.00000000000E+00 -0.00000000000E+00 -0.47756599256E+02  0.47756599256E+02  0.00000000000E+00 0.  1.
         25    2    1    2    0    0  0.46179730497E+02  0.85496691175E+02  0.33286112497E+03  0.36862698743E+03  0.12508827137E+03 0.  0.
          5    1    3    3  502    0  0.20418591217E+02  0.78671974935E+01 -0.34005130828E+01  0.22535473212E+02  0.41800000000E+01 0.  1.
         -5    1    3    3    0  502  0.25761139280E+02  0.77629493682E+02  0.33626163805E+03  0.34609151422E+03  0.41800000000E+01 0.  1.
        -11    1    1    2    0    0 -0.63714703646E+02 -0.86431678405E+02  0.12850683101E+03  0.16746344111E+03  0.00000000000E+00 0. -1.
         11    1    1    2    0    0  0.17534973149E+02  0.93498722961E+00 -0.29798093987E+01  0.17810916554E+02  0.00000000000E+00 0.  1.
</event>
<event>
 7    1  0.2844572E-009  0.1050248E+03  0.7561462E-02  0.1270071E+00
          1   -1    0    0  501    0  0.00000000000E+00  0.00000000000E+00  0.66602016791E+02  0.66602016791E+02  0.00000000000E+00 0. -1.
         -1   -1    0    0    0  501 -0.00000000000E+00 -0.00000000000E+00 -0.21925624733E+03  0.21925624733E+03  0.00000000000E+00 0.  1.
         25    2    1    2    0    0 -0.13712536760E+02  0.51704365046E+02 -0.11098144036E+03  0.17556231658E+03  0.12507546470E+03 0.  0.
          5    1    3    3  502    0  0.37104859248E+02  0.58929535658E+02 -0.22709935971E+02  0.73366711419E+02  0.41800000000E+01 0.  1.
         -5    1    3    3    0  502 -0.50817396008E+02 -0.72251706121E+01 -0.88271504390E+02  0.10219560516E+03  0.41800000000E+01 0.  1.
        -11    1    1    2    0    0 -0.97582684146E+01  0.15100927080E+02 -0.34780607894E+02  0.39152937139E+02  0.00000000000E+00 0.  1.
         11    1    1    2    0    0  0.23470805175E+02 -0.66805292126E+02 -0.68921822822E+01  0.71143010396E+02  0.00000000000E+00 0. -1.
</event>
<event>
 7    1  0.2844572E-009  0.9424816E+02  0.7561462E-02  0.1292878E+00
         -2   -1    0    0    0  501 -0.00000000000E+00  0.00000000000E+00  0.10828688617E+03  0.10828688617E+03  0.00000000000E+00 0.  1.
          2   -1    0    0  501    0  0.00000000000E+00 -0.00000000000E+00 -0.15117702340E+03  0.15117702340E+03  0.00000000000E+00 0. -1.
         25    2    1    2    0    0 -0.37458414788E+02  0.54616320009E+02 -0.55109050897E+02  0.15188872812E+03  0.12508838072E+03 0.  0.
          5    1    3    3  502    0 -0.28711095316E+02 -0.13114729466E+02 -0.74293295693E+02  0.80828765351E+02  0.41800000000E+01 0.  1.
         -5    1    3    3    0  502 -0.87473194713E+01  0.67731049475E+02  0.19184244796E+02  0.71059962773E+02  0.41800000000E+01 0.  1.
        -11    1    1    2    0    0  0.32820605240E+02  0.59799457932E+00  0.34711737353E+02  0.47775039884E+02  0.00000000000E+00 0.  1.
         11    1    1    2    0    0  0.46378095475E+01 -0.55214314588E+02 -0.22492823683E+02  0.59800141556E+02  0.00000000000E+00 0. -1.
</event>
<event>
 7    1  0.2844572E-009  0.1171371E+03  0.7561462E-02  0.1247896E+00
          2   -1    0    0  501    0  0.00000000000E+00  0.00000000000E+00  0.60449114992E+03  0.60449114992E+03  0.00000000000E+00 0. -1.
         -2   -1    0    0    0  501 -0.00000000000E+00 -0.00000000000E+00 -0.30807051463E+02  0.30807051463E+02  0.00000000000E+00 0.  1.
         25    2    1    2    0    0 -0.12142696866E+02  0.57421942117E+02  0.17980040171E+03  0.22676129381E+03  0.12509106840E+03 0.  0.
          5    1    3    3  502    0 -0.59182632762E+02  0.55028062986E+02  0.15121808293E+03  0.17150817106E+03  0.41800000000E+01 0.  1.
         -5    1    3    3    0  502  0.47039935896E+02  0.23938791310E+01  0.28582318775E+02  0.55253122744E+02  0.41800000000E+01 0.  1.
        -11    1    1    2    0    0 -0.34099232703E+02 -0.23839661083E+01  0.16975596074E+03  0.17316329626E+03  0.00000000000E+00 0. -1.
         11    1    1    2    0    0  0.46241929569E+02 -0.55037976008E+02  0.22412773601E+03  0.23537361132E+03  0.00000000000E+00 0.  1.
</event>
<event>
 7    1  0.2844572E-009  0.3615990E+03  0.7561462E-02  0.1057953E+00
         -2   -1    0    0    0  501 -0.00000000000E+00  0.00000000000E+00  0.59507034179E+02  0.59507034179E+02  0.00000000000E+00 0.  1.
          2   -1    0    0  501    0  0.00000000000E+00 -0.00000000000E+00 -0.23402465332E+04  0.23402465332E+04  0.00000000000E+00 0. -1.
         25    2    1    2    0    0 -0.31373850714E+03  0.16690331891E+03 -0.11226512891E+04  0.11841801851E+04  0.12509286661E+03 0.  0.
          5    1    3    3  502    0 -0.11225479975E+03  0.67971999902E+02 -0.24154911877E+03  0.27492686667E+03  0.41800000000E+01 0. -1.
         -5    1    3    3    0  502 -0.20148370739E+03  0.98931319012E+02 -0.88110217031E+03  0.90925331848E+03  0.41800000000E+01 0. -1.
        -11    1    1    2    0    0  0.11958370575E+03 -0.14268318921E+02 -0.44096942971E+03  0.45711911527E+03  0.00000000000E+00 0.  1.
         11    1    1    2    0    0  0.19415480139E+03 -0.15263499999E+03 -0.71711878023E+03  0.75845426697E+03  0.00000000000E+00 0. -1.
</event>
<event>
 7    1  0.2844572E-009  0.1849269E+03  0.7561462E-02  0.1163118E+00
          2   -1    0    0  501    0  0.00000000000E+00  0.00000000000E+00  0.34820880117E+03  0.34820880117E+03  0.00000000000E+00 0. -1.
         -2   -1    0    0    0  501 -0.00000000000E+00 -0.00000000000E+00 -0.13575243227E+03  0.13575243227E+03  0.00000000000E+00 0.  1.
         25    2    1    2    0    0  0.95721557713E+01 -0.16916539587E+03  0.20422857967E+03  0.29336943582E+03  0.12509099005E+03 0.  0.
          5    1    3    3  502    0  0.28081769735E+02 -0.17745351893E+03  0.20503777603E+03  0.27264683965E+03  0.41800000000E+01 0. -1.
         -5    1    3    3    0  502 -0.18509613964E+02  0.82881230588E+01 -0.80919636639E+00  0.20722596162E+02  0.41800000000E+01 0. -1.
        -11    1    1    2    0    0 -0.99949962481E+00  0.15300513816E+02  0.31220410926E+02  0.34782449323E+02  0.00000000000E+00 0. -1.
         11    1    1    2    0    0 -0.85726561465E+01  0.15386488206E+03 -0.22992621695E+02  0.15580934829E+03  0.00000000000E+00 0.  1.
</event>
<event>
 7    1  0.2844572E-009  0.9575476E+02  0.7561462E-02  0.1289485E+00
          2   -1    0    0  501    0  0.00000000000E+00  0.00000000000E+00  0.65159580431E+02  0.65159580431E+02  0.00000000000E+00 0. -1.
         -2   -1    0    0    0  501 -0.00000000000E+00 -0.00000000000E+00 -0.25621309832E+03  0.25621309832E+03  0.00000000000E+00 0.  1.
         25    2    1    2    0    0 -0.13399019646E+02  0.57321941322E+02 -0.58716062641E+02  0.15020130319E+03  0.12509003471E+03 0.  0.
          5    1    3    3  502    0 -0.35228197847E+02  0.88556462695E+01 -0.83685661332E+02  0.91324754076E+02  0.41800000000E+01 0. -1.
         -5    1    3    3    0  502  0.21829178201E+02  0.48466295052E+02  0.24969598691E+02  0.58876549116E+02  0.41800000000E+01 0. -1.
        -11    1    1    2    0    0  0.42494673456E+02 -0.58735775795E+02 -0.63309076918E+02  0.96248261546E+02  0.00000000000E+00 0. -1.
         11    1    1    2    0    0 -0.29095653811E+02  0.14138344729E+01 -0.69028378328E+02  0.74923114011E+02  0.00000000000E+00 0.  1.
</event>
<event>
 7    1  0.2844572E-009  0.1293884E+03  0.7561462E-02  0.1228366E+00
         -1   -1    0    0    0  501 -0.00000000000E+00  0.00000000000E+00  0.50181011966E+02  0.50181011966E+02  0.00000000000E+00 0.  1.
          1   -1    0    0  501    0  0.00000000000E+00 -0.00000000000E+00 -0.44222503894E+03  0.44222503894E+03  0.00000000000E+00 0. -1.
         25    2    1    2    0    0  0.85085986241E+02 -0.40332211614E+02 -0.27315646109E+03  0.31484624830E+03  0.12508954987E+03 0.  0.
          5    1    3    3  502    0  0.27089955463E+01  0.35278559823E+02 -0.27839539489E+02  0.45215349153E+02  0.41800000000E+01 0. -1.
         -5    1    3    3    0  502  0.82376990694E+02 -0.75610771437E+02 -0.24531692160E+03  0.26963089915E+03  0.41800000000E+01 0. -1.
        -11    1    1    2    0    0 -0.37823765123E+01 -0.13317605422E+02 -0.64553999784E+02  0.66021843918E+02  0.00000000000E+00 0. -1.
         11    1    1    2    0    0 -0.81303609728E+02  0.53649817036E+02 -0.54333566107E+02  0.11153795869E+03  0.00000000000E+00 0.  1.
</event>
<event>
 7    1  0.2844572E-009  0.1079217E+03  0.7561462E-02  0.1264468E+00
          1   -1    0    0  501    0  0.00000000000E+00  0.00000000000E+00  0.15793926358E+03  0.15793926358E+03  0.00000000000E+00 0.  1.
         -1   -1    0    0    0  501 -0.00000000000E+00 -0.00000000000E+00 -0.95057682185E+02  0.95057682185E+02  0.00000000000E+00 0. -1.
         25    2    1    2    0    0 -0.53733013541E+02  0.18267196875E+02  0.50585534979E+02  0.14638252930E+03  0.12509205134E+03 0.  0.
          5    1    3    3  502    0 -0.34730184984E+02  0.61157952446E+02 -0.83405124675E+01  0.70947286379E+02  0.41800000000E+01 0.  1.
         -5    1    3    3    0  502 -0.19002828557E+02 -0.42890755570E+02  0.58926047447E+02  0.75435242919E+02  0.41800000000E+01 0.  1.
        -11    1    1    2    0    0 -0.59673358480E+01 -0.35622289399E+02 -0.14491395582E+02  0.38917311638E+02  0.00000000000E+00 0. -1.
         11    1    1    2    0    0  0.59700349389E+02  0.17355092524E+02  0.26787442002E+02  0.67697104832E+02  0.00000000000E+00 0.  1.
</event>
<event>
 7    1  0.2844572E-009  0.1118549E+03  0.7561462E-02  0.1257173E+00
         -3   -1    0    0    0  501 -0.00000000000E+00  0.00000000000E+00  0.13398752854E+03  0.13398752854E+03  0.00000000000E+00 0.  1.
          3   -1    0    0  501    0  0.00000000000E+00 -0.00000000000E+00 -0.11823950878E+03  0.11823950878E+03  0.00000000000E+00 0. -1.
         25    2    1    2    0    0 -0.48787570848E+02  0.19274606015E+02 -0.23105283905E+02  0.13760715456E+03  0.12510050894E+03 0.  0.
          5    1    3    3  502    0 -0.71749858823E+02 -0.32067962911E+02 -0.73179804070E+01  0.79040633370E+02  0.41800000000E+01 0.  1.
         -5    1    3    3    0  502  0.22962287975E+02  0.51342568926E+02 -0.15787303498E+02  0.58566521193E+02  0.41800000000E+01 0.  1.
        -11    1    1    2    0    0  0.22120362230E+02 -0.45884020779E+02 -0.11021330654E+02  0.52116441911E+02  0.00000000000E+00 0. -1.
         11    1    1    2    0    0  0.26667208618E+02  0.26609414765E+02  0.49874634311E+02  0.62503440844E+02  0.00000000000E+00 0.  1.
</event>
<event>
 7    1  0.2844572E-009  0.1766169E+03  0.7561462E-02  0.1171118E+00
         -2   -1    0    0    0  501 -0.00000000000E+00  0.00000000000E+00  0.13401531682E+03  0.13401531682E+03  0.00000000000E+00 0.  1.
          2   -1    0    0  501    0  0.00000000000E+00 -0.00000000000E+00 -0.26629800715E+03  0.26629800715E+03  0.00000000000E+00 0. -1.
         25    2    1    2    0    0  0.10398410773E+02 -0.15353682643E+03 -0.63472547855E+02  0.20822632195E+03  0.12509097811E+03 0.  0.
          5    1    3    3  502    0  0.69113401991E+01 -0.17531214143E+03 -0.60241655267E+02  0.18554957016E+03  0.41800000000E+01 0.  1.
         -5    1    3    3    0  502  0.34870705738E+01  0.21775315007E+02 -0.32308925878E+01  0.22676751790E+02  0.41800000000E+01 0.  1.
        -11    1    1    2    0    0 -0.12830532283E+02  0.46832282182E+02 -0.70185710735E+02  0.85345879833E+02  0.00000000000E+00 0. -1.
         11    1    1    2    0    0  0.24321215102E+01  0.10670454424E+03  0.13755682568E+01  0.10674112219E+03  0.00000000000E+00 0.  1.
</event>
<event>
 7    1  0.3485095E-009  0.1802117E+03  0.7561462E-02  0.1167598E+00
         -1   -1    0    0    0  501 -0.00000000000E+00  0.00000000000E+00  0.32443727628E+02  0.32443727628E+02  0.00000000000E+00 0.  1.
          1   -1    0    0  501    0  0.00000000000E+00 -0.00000000000E+00 -0.10456894253E+04  0.10456894253E+04  0.00000000000E+00 0. -1.
         25    2    1    2    0    0 -0.42099824365E+02 -0.13970758237E+03 -0.61198099292E+03  0.64145079045E+03  0.12509107516E+03 0.  0.
          5    1    3    3  502    0  0.34132840497E+02 -0.99045854477E+02 -0.36502508886E+03  0.37978404388E+03  0.41800000000E+01 0. -1.
         -5    1    3    3    0  502 -0.76232664862E+02 -0.40661727895E+02 -0.24695590406E+03  0.26166674656E+03  0.41800000000E+01 0. -1.
        -11    1    1    2    0    0  0.68123685504E+02  0.88974318753E+02 -0.22387826650E+03  0.25035723304E+03  0.00000000000E+00 0.  1.
         11    1    1    2    0    0 -0.26023861139E+02  0.50733263618E+02 -0.17738643826E+03  0.18632512945E+03  0.00000000000E+00 0. -1.
</event>
<event>
 7    1  0.2844572E-009  0.1090060E+03  0.7561462E-02  0.1262422E+00
         -1   -1    0    0    0  501 -0.00000000000E+00  0.00000000000E+00  0.15289979587E+03  0.15289979587E+03  0.00000000000E+00 0.  1.
          1   -1    0    0  501    0  0.00000000000E+00 -0.00000000000E+00 -0.10602118842E+03  0.10602118842E+03  0.00000000000E+00 0. -1.
         25    2    1    2    0    0 -0.61581650714E+02 -0.15094587806E+02  0.60175637474E+01  0.14036744529E+03  0.12508661935E+03 0.  0.
          5    1    3    3  502    0  0.19462488920E+02 -0.20430554502E+02 -0.38295300477E+02  0.47751423757E+02  0.41800000000E+01 0.  1.
         -5    1    3    3    0  502 -0.81044139634E+02  0.53359666960E+01  0.44312864225E+02  0.92616021537E+02  0.41800000000E+01 0.  1.
        -11    1    1    2    0    0  0.53228467724E+02  0.49540745915E+02  0.13928550075E+02  0.74037556613E+02  0.00000000000E+00 0. -1.
         11    1    1    2    0    0  0.83531829900E+01 -0.34446158109E+02  0.26932493624E+02  0.44515982381E+02  0.00000000000E+00 0.  1.
</event>
<event>
 7    1  0.2844572E-009  0.3007728E+03  0.7561462E-02  0.1084855E+00
         -2   -1    0    0    0  501 -0.00000000000E+00  0.00000000000E+00  0.34986108587E+03  0.34986108587E+03  0.00000000000E+00 0.  1.
          2   -1    0    0  501    0  0.00000000000E+00 -0.00000000000E+00 -0.42429954023E+03  0.42429954023E+03  0.00000000000E+00 0. -1.
         25    2    1    2    0    0 -0.18136245741E+03  0.21485621361E+03 -0.27772358878E+03  0.41452872309E+03  0.12509251386E+03 0.  0.
          5    1    3    3  502    0 -0.18785841042E+03  0.15149649024E+03 -0.24002211810E+03  0.34039691318E+03  0.41800000000E+01 0.  1.
         -5    1    3    3    0  502  0.64959530143E+01  0.63359723365E+02 -0.37701470674E+02  0.74131809916E+02  0.41800000000E+01 0.  1.
        -11    1    1    2    0    0  0.95931405162E+02 -0.18021916074E+03  0.13225294300E+03  0.24325423188E+03  0.00000000000E+00 0. -1.
         11    1    1    2    0    0  0.85431052248E+02 -0.34637052865E+02  0.71032191417E+02  0.11637767113E+03  0.00000000000E+00 0.  1.
</event>
<event>
 7    1  0.2844572E-009  0.8821096E+02  0.7561462E-02  0.1307243E+00
         -3   -1    0    0    0  501 -0.00000000000E+00  0.00000000000E+00  0.62891645017E+03  0.62891645017E+03  0.00000000000E+00 0.  1.
          3   -1    0    0  501    0  0.00000000000E+00 -0.00000000000E+00 -0.35382556046E+02  0.35382556046E+02  0.00000000000E+00 0. -1.
         25    2    1    2    0    0  0.97951329528E+01 -0.81978448064E+01  0.54634477434E+03  0.56062697123E+03  0.12508732600E+03 0.  0.
          5    1    3    3  502    0 -0.86639243121E+01  0.35671596783E+02  0.50961408929E+02  0.62944928323E+02  0.41800000000E+01 0. -1.
         -5    1    3    3    0  502  0.18459057265E+02 -0.43869441589E+02  0.49538336541E+03  0.49768204290E+03  0.41800000000E+01 0. -1.
        -11    1    1    2    0    0  0.82654205281E+00 -0.41181207509E+02  0.15301403020E+02  0.43939822008E+02  0.00000000000E+00 0. -1.
         11    1    1    2    0    0 -0.10621675006E+02  0.49379052316E+02  0.31887716760E+02  0.59732212982E+02  0.00000000000E+00 0.  1.
</event>
<event>
 7    1  0.2844572E-009  0.1263910E+03  0.7561462E-02  0.1232911E+00
          2   -1    0    0  501    0  0.00000000000E+00  0.00000000000E+00  0.15772805929E+04  0.15772805929E+04  0.00000000000E+00 0.  1.
         -2   -1    0    0    0  501 -0.00000000000E+00 -0.00000000000E+00 -0.11972618434E+02  0.11972618434E+02  0.00000000000E+00 0. -1.
         25    2    1    2    0    0 -0.34667621690E+01 -0.66242647234E+02  0.11203312601E+04  0.11292428912E+04  0.12508904132E+03 0.  0.
          5    1    3    3  502    0 -0.24830970549E+01 -0.10226376622E+03  0.71516175390E+03  0.72245266301E+03  0.41800000000E+01 0.  1.
         -5    1    3    3    0  502 -0.98366511418E+00  0.36021118986E+02  0.40516950621E+03  0.40679022822E+03  0.41800000000E+01 0.  1.
        -11    1    1    2    0    0  0.47366220972E+02  0.23577160196E+02  0.15960192260E+03  0.16814343600E+03  0.00000000000E+00 0. -1.
         11    1    1    2    0    0 -0.43899458803E+02  0.42665487039E+02  0.28537479172E+03  0.29186688407E+03  0.00000000000E+00 0.  1.
</event>
<event>
 7    1  0.2844572E-009  0.2319238E+03  0.7561462E-02  0.1125293E+00
         -4   -1    0    0    0  501 -0.00000000000E+00  0.00000000000E+00  0.77062130187E+03  0.77062130187E+03  0.00000000000E+00 0. -1.
          4   -1    0    0  501    0  0.00000000000E+00 -0.00000000000E+00 -0.12748440092E+03  0.12748440092E+03  0.00000000000E+00 0.  1.
         25    2    1    2    0    0 -0.18541461085E+03 -0.12288452012E+03  0.60337032900E+03  0.65512019467E+03  0.12509009693E+03 0.  0.
          5    1    3    3  502    0  0.92313907867E+01 -0.91435695151E+01  0.32390571040E+01  0.14028090756E+02  0.41800000000E+01 0. -1.
         -5    1    3    3    0  502 -0.19464600164E+03 -0.11374095061E+03  0.60013127190E+03  0.64109210392E+03  0.41800000000E+01 0. -1.
        -11    1    1    2    0    0  0.84301291457E+02  0.75018257349E+02 -0.22331372999E+02  0.11503537237E+03  0.00000000000E+00 0.  1.
         11    1    1    2    0    0  0.10111331939E+03  0.47866262774E+02  0.62097944945E+02  0.12795013574E+03  0.00000000000E+00 0. -1.
</event>
<event>
 7    1  0.2844572E-009  0.1114475E+03  0.7561462E-02  0.1257913E+00
          1   -1    0    0  501    0  0.00000000000E+00  0.00000000000E+00  0.38356795410E+03  0.38356795410E+03  0.00000000000E+00 0. -1.
         -1   -1    0    0    0  501 -0.00000000000E+00 -0.00000000000E+00 -0.40273397336E+02  0.40273397336E+02  0.00000000000E+00 0.  1.
         25    2    1    2    0    0  0.46591838901E+02  0.38838658497E+02  0.18807003434E+03  0.23386948789E+03  0.12508140831E+03 0.  0.
          5    1    3    3  502    0  0.75078739321E+02  0.39009452623E+02  0.18672912628E+03  0.20504583267E+03  0.41800000000E+01 0. -1.
         -5    1    3    3    0  502 -0.28486900419E+02 -0.17079412545E+00  0.13409080546E+01  0.28823655225E+02  0.41800000000E+01 0. -1.
        -11    1    1    2    0    0  0.15324734751E+02 -0.44645817101E+02  0.62437869877E+02  0.78272498840E+02  0.00000000000E+00 0.  1.
         11    1    1    2    0    0 -0.61916573653E+02  0.58071586039E+01  0.92786652547E+02  0.11169936470E+03  0.00000000000E+00 0. -1.
</event>
<event>
 7    1  0.2844572E-009  0.1017309E+03  0.7561462E-02  0.1276698E+00
          3   -1    0    0  501    0  0.00000000000E+00  0.00000000000E+00  0.40873235542E+02  0.40873235542E+02  0.00000000000E+00 0. -1.
         -3   -1    0    0    0  501 -0.00000000000E+00 -0.00000000000E+00 -0.31528939415E+03  0.31528939415E+03  0.00000000000E+00 0.  1.
         25    2    1    2    0    0 -0.20687762341E+00 -0.11223367170E+02 -0.20991375964E+03  0.24460257742E+03  0.12506249487E+03 0.  0.
          5    1    3    3  502    0  0.58839900234E+02 -0.25395270718E+02 -0.97122008976E+02  0.11643543559E+03  0.41800000000E+01 0.  1.
         -5    1    3    3    0  502 -0.59046777857E+02  0.14171903549E+02 -0.11279175066E+03  0.12816714182E+03  0.41800000000E+01 0.  1.
        -11    1    1    2    0    0 -0.37837721267E+02 -0.25189188269E+01 -0.59837005951E+02  0.70841410093E+02  0.00000000000E+00 0.  1.
         11    1    1    2    0    0  0.38044598890E+02  0.13742285996E+02 -0.46653930185E+01  0.40718642182E+02  0.00000000000E+00 0. -1.
</event>
<event>
 7    1  0.2844572E-009  0.1069137E+03  0.7561462E-02  0.1266394E+00
          2   -1    0    0  501    0  0.00000000000E+00  0.00000000000E+00  0.79320132668E+03  0.79320132668E+03  0.00000000000E+00 0. -1.
         -2   -1    0    0    0  501 -0.00000000000E+00 -0.00000000000E+00 -0.25645588302E+02  0.25645588302E+02  0.00000000000E+00 0.  1.
         25    2    1    2    0    0  0.36868857534E+02  0.76446248896E+02  0.53053685010E+03  0.55165266435E+03  0.12509185084E+03 0.  0.
          5    1    3    3  502    0  0.20111135747E+02  0.46138287160E+01  0.59338581778E+01  0.21873003208E+02  0.41800000000E+01 0. -1.
         -5    1    3    3    0  502  0.16757721787E+02  0.71832420180E+02  0.52460299192E+03  0.52977966114E+03  0.41800000000E+01 0. -1.
        -11    1    1    2    0    0  0.88285538509E+01 -0.72491199526E+02  0.17836130826E+03  0.19273212928E+03  0.00000000000E+00 0.  1.
         11    1    1    2    0    0 -0.45697411385E+02 -0.39550493703E+01  0.58657580021E+02  0.74462121355E+02  0.00000000000E+00 0. -1.
</event>
<event>
 7    1  0.2844572E-009  0.2155596E+03  0.7561462E-02  0.1137237E+00
         -1   -1    0    0    0  501 -0.00000000000E+00  0.00000000000E+00  0.38634796006E+02  0.38634796006E+02  0.00000000000E+00 0.  1.
          1   -1    0    0  501    0  0.00000000000E+00 -0.00000000000E+00 -0.12759754373E+04  0.12759754373E+04  0.00000000000E+00 0. -1.
         25    2    1    2    0    0  0.14900220004E+03 -0.12176474419E+03 -0.56878815834E+03  0.61334827884E+03  0.12509130086E+03 0.  0.
          5    1    3    3  502    0  0.16182523237E+03 -0.13465020359E+03 -0.51328678633E+03  0.55479625141E+03  0.41800000000E+01 0.  1.
         -5    1    3    3    0  502 -0.12823032329E+02  0.12885459393E+02 -0.55501372009E+02  0.58552027435E+02  0.41800000000E+01 0.  1.
        -11    1    1    2    0    0 -0.28333021561E+02  0.59988720719E+02 -0.32950429085E+03  0.33611677199E+03  0.00000000000E+00 0. -1.
         11    1    1    2    0    0 -0.12066917848E+03  0.61776023475E+02 -0.33904819213E+03  0.36514518249E+03  0.00000000000E+00 0.  1.
</event>
<event>
 7    1  0.2844572E-009  0.1258514E+03  0.7561462E-02  0.1233745E+00
         -1   -1    0    0    0  501 -0.00000000000E+00  0.00000000000E+00  0.20157514742E+03  0.20157514742E+03  0.00000000000E+00 0.  1.
          1   -1    0    0  501    0  0.00000000000E+00 -0.00000000000E+00 -0.14299433294E+03  0.14299433294E+03  0.00000000000E+00 0. -1.
         25    2    1    2    0    0  0.53857593156E+02 -0.80231290685E+02  0.11952625391E+03  0.19817147949E+03  0.12509080527E+03 0.  0.
          5    1    3    3  502    0  0.91036387957E+02 -0.66948726218E+02  0.10908566188E+03  0.15712068579E+03  0.41800000000E+01 0. -1.
         -5    1    3    3    0  502 -0.37178794800E+02 -0.13282564467E+02  0.10440592026E+02  0.41050793701E+02  0.41800000000E+01 0. -1.
        -11    1    1    2    0    0 -0.13055050943E+02  0.38082776102E+02  0.21166546363E+02  0.45483567095E+02  0.00000000000E+00 0.  1.
         11    1    1    2    0    0 -0.40802542213E+02  0.42148514583E+02 -0.82111985792E+02  0.10091443377E+03  0.00000000000E+00 0. -1.
</event>
<event>
 7    1  0.2844572E-009  0.1045353E+03  0.7561462E-02  0.1271038E+00
         -2   -1    0    0    0  501 -0.00000000000E+00  0.00000000000E+00  0.12990706419E+03  0.12990706419E+03  0.00000000000E+00 0.  1.
          2   -1    0    0  501    0  0.00000000000E+00 -0.00000000000E+00 -0.11541413928E+03  0.11541413928E+03  0.00000000000E+00 0. -1.
         25    2    1    2    0    0  0.11962443750E+02  0.40366896199E+02 -0.11003004286E+02  0.13245527787E+03  0.12510295025E+03 0.  0.
          5    1    3    3  502    0 -0.27229269463E+02  0.55499662756E+02 -0.46361500748E+02  0.77385443290E+02  0.41800000000E+01 0. -1.
         -5    1    3    3    0  502  0.39191713213E+02 -0.15132766557E+02  0.35358496462E+02  0.55069834577E+02  0.41800000000E+01 0. -1.
        -11    1    1    2    0    0  0.38299166259E+02  0.31223688338E+01 -0.67130317251E+01  0.39008205780E+02  0.00000000000E+00 0.  1.
         11    1    1    2    0    0 -0.50261610009E+02 -0.43489265033E+02  0.32208960921E+02  0.73857719823E+02  0.00000000000E+00 0. -1.
</event>
<event>
 7    1  0.2844572E-009  0.9937113E+02  0.7561462E-02  0.1281624E+00
         -2   -1    0    0    0  501 -0.00000000000E+00  0.00000000000E+00  0.24992372572E+02  0.24992372572E+02  0.00000000000E+00 0.  1.
          2   -1    0    0  501    0  0.00000000000E+00 -0.00000000000E+00 -0.68885102876E+03  0.68885102876E+03  0.00000000000E+00 0. -1.
         25    2    1    2    0    0 -0.60566383862E+02 -0.33425852635E+02 -0.29353789062E+03  0.32649242792E+03  0.12508891950E+03 0.  0.
          5    1    3    3  502    0 -0.64330549802E+02 -0.13187011741E+02 -0.51536562254E+02  0.83581137617E+02  0.41800000000E+01 0. -1.
         -5    1    3    3    0  502  0.37641659392E+01 -0.20238840894E+02 -0.24200132836E+03  0.24291129030E+03  0.41800000000E+01 0. -1.
        -11    1    1    2    0    0  0.52447603940E+02 -0.21301866809E+02 -0.22018299771E+03  0.22734351358E+03  0.00000000000E+00 0. -1.
         11    1    1    2    0    0  0.81187799220E+01  0.54727719444E+02 -0.15013776787E+03  0.16000745984E+03  0.00000000000E+00 0.  1.
</event>
<event>
 7    1  0.2844572E-009  0.2334192E+03  0.7561462E-02  0.1124256E+00
         -2   -1    0    0    0  501 -0.00000000000E+00  0.00000000000E+00  0.61158229960E+02  0.61158229960E+02  0.00000000000E+00 0.  1.
          2   -1    0    0  501    0  0.00000000000E+00 -0.00000000000E+00 -0.10711638934E+04  0.10711638934E+04  0.00000000000E+00 0. -1.
         25    2    1    2    0    0 -0.21984652476E+03  0.70417010262E+02 -0.49458364243E+03  0.55995697113E+03  0.12509108831E+03 0.  0.
          5    1    3    3  502    0 -0.20022799656E+03  0.50518776253E+02 -0.30547336789E+03  0.36874767559E+03  0.41800000000E+01 0.  1.
         -5    1    3    3    0  502 -0.19618528199E+02  0.19898234009E+02 -0.18911027454E+03  0.19120929554E+03  0.41800000000E+01 0.  1.
        -11    1    1    2    0    0  0.90944337784E+02 -0.41333726558E+02 -0.12396526991E+03  0.15920658803E+03  0.00000000000E+00 0.  1.
         11    1    1    2    0    0  0.12890218698E+03 -0.29083283704E+02 -0.39145675112E+03  0.41315856422E+03  0.00000000000E+00 0. -1.
</event>
<event>
 7    1  0.2844572E-009  0.1854803E+03  0.7561462E-02  0.1162602E+00
         -2   -1    0    0    0  501 -0.00000000000E+00  0.00000000000E+00  0.27620261922E+02  0.27620261922E+02  0.00000000000E+00 0.  1.
          2   -1    0    0  501    0  0.00000000000E+00 -0.00000000000E+00 -0.14878642819E+04  0.14878642819E+04  0.00000000000E+00 0. -1.
         25    2    1    2    0    0 -0.16290373222E+03 -0.34938314389E+02 -0.89495379045E+03  0.91888427118E+03  0.12509078705E+03 0.  0.
          5    1    3    3  502    0  0.15824779863E+02  0.11054758143E+02 -0.15492816678E+03  0.15618207515E+03  0.41800000000E+01 0.  1.
         -5    1    3    3    0  502 -0.17872851208E+03 -0.45993072532E+02 -0.74002562367E+03  0.76270219603E+03  0.41800000000E+01 0.  1.
        -11    1    1    2    0    0  0.49681669541E+02  0.11088267323E+02 -0.62194093960E+02  0.80369915293E+02  0.00000000000E+00 0.  1.
         11    1    1    2    0    0  0.11322206268E+03  0.23850047066E+02 -0.50309613553E+03  0.51623035731E+03  0.00000000000E+00 0. -1.
</event>
<event>
 7    1  0.2844572E-009  0.9698998E+02  0.7561462E-02  0.1286756E+00
          1   -1    0    0  501    0  0.00000000000E+00  0.00000000000E+00  0.30689797071E+03  0.30689797071E+03  0.00000000000E+00 0. -1.
         -1   -1    0    0    0  501 -0.00000000000E+00 -0.00000000000E+00 -0.55733018955E+02  0.55733018955E+02  0.00000000000E+00 0.  1.
         25    2    1    2    0    0  0.50931958659E+02 -0.21949661391E+02  0.72479703008E+02  0.15485175097E+03  0.12509958186E+03 0.  0.
          5    1    3    3  502    0 -0.47067463096E+01 -0.31415947563E+02 -0.26004512745E+02  0.41265267540E+02  0.41800000000E+01 0. -1.
         -5    1    3    3    0  502  0.55638704969E+02  0.94662861715E+01  0.98484215753E+02  0.11358648342E+03  0.41800000000E+01 0. -1.
        -11    1    1    2    0    0 -0.43996884863E+01  0.50541212683E+02  0.97917962056E+02  0.11028009218E+03  0.00000000000E+00 0. -1.
         11    1    1    2    0    0 -0.46532270173E+02 -0.28591551292E+02  0.80767286693E+02  0.97499146522E+02  0.00000000000E+00 0.  1.
</event>
<event>
 7    1  0.2844572E-009  0.1415901E+03  0.7561462E-02  0.1211205E+00
          1   -1    0    0  501    0  0.00000000000E+00  0.00000000000E+00  0.62948920895E+02  0.62948920895E+02  0.00000000000E+00 0.  1.
         -1   -1    0    0    0  501 -0.00000000000E+00 -0.00000000000E+00 -0.44076410712E+03  0.44076410712E+03  0.00000000000E+00 0. -1.
         25    2    1    2    0    0  0.21866388331E+02  0.12150751030E+03 -0.23310326201E+03  0.29193653815E+03  0.12509035754E+03 0.  0.
          5    1    3    3  502    0  0.35921264669E+02  0.48017845014E+02 -0.15915344560E+02  0.62183770292E+02  0.41800000000E+01 0. -1.
         -5    1    3    3    0  502 -0.14054876338E+02  0.73489665282E+02 -0.21718791745E+03  0.22975276786E+03  0.41800000000E+01 0. -1.
        -11    1    1    2    0    0  0.28537994930E+02 -0.72124724737E+02 -0.45165384051E+02  0.89756921680E+02  0.00000000000E+00 0.  1.
         11    1    1    2    0    0 -0.50404383261E+02 -0.49382785559E+02 -0.99546540162E+02  0.12201956818E+03  0.00000000000E+00 0. -1.
</event>
<event>
 7    1  0.2844572E-009  0.7850311E+02  0.7561462E-02  0.1333354E+00
         -2   -1    0    0    0  501 -0.00000000000E+00  0.00000000000E+00  0.22280510626E+03  0.22280510626E+03  0.00000000000E+00 0.  1.
          2   -1    0    0  501    0  0.00000000000E+00 -0.00000000000E+00 -0.54770803735E+02  0.54770803735E+02  0.00000000000E+00 0. -1.
         25    2    1    2    0    0  0.36617422183E+02  0.12284604453E+02  0.11259622842E+03  0.17267638533E+03  0.12508987282E+03 0.  0.
          5    1    3    3  502    0  0.18694863447E+02 -0.26976871609E+02 -0.16154863065E+02  0.36819852278E+02  0.41800000000E+01 0. -1.
         -5    1    3    3    0  502  0.17922558736E+02  0.39261476062E+02  0.12875109148E+03  0.13585653305E+03  0.41800000000E+01 0. -1.
        -11    1    1    2    0    0  0.81084303089E+01  0.22488621936E+02  0.39287854311E+02  0.45989349365E+02  0.00000000000E+00 0.  1.
         11    1    1    2    0    0 -0.44725852492E+02 -0.34773226389E+02  0.16150219795E+02  0.58910175302E+02  0.00000000000E+00 0. -1.
</event>
<event>
 7    1  0.2844572E-009  0.1654413E+03  0.7561462E-02  0.1182687E+00
          1   -1    0    0  501    0  0.00000000000E+00  0.00000000000E+00  0.22860424536E+04  0.22860424536E+04  0.00000000000E+00 0. -1.
         -1   -1    0    0    0  501 -0.00000000000E+00 -0.00000000000E+00 -0.16753982012E+02  0.16753982012E+02  0.00000000000E+00 0.  1.
         25    2    1    2    0    0 -0.87595994658E+02  0.91579738726E+02  0.17642011677E+04  0.17731651609E+04  0.12509604719E+03 0.  0.
          5    1    3    3  502    0 -0.11575308129E+03  0.56634911746E+02  0.14542070527E+04  0.14599116116E+04  0.41800000000E+01 0.  1.
         -5    1    3    3    0  502  0.28157086630E+02  0.34944826980E+02  0.30999411493E+03  0.31325354930E+03  0.41800000000E+01 0.  1.
        -11    1    1    2    0    0 -0.17307225053E+02 -0.31623991897E+02  0.15972087558E+03  0.16373874006E+03  0.00000000000E+00 0.  1.
         11    1    1    2    0    0  0.10490321971E+03 -0.59955746829E+02  0.34536642839E+03  0.36589253469E+03  0.00000000000E+00 0. -1.
</event>
<event>
 7    1  0.2844572E-009  0.1417569E+03  0.7561462E-02  0.1210984E+00
         -1   -1    0    0    0  501 -0.00000000000E+00  0.00000000000E+00  0.38424504179E+03  0.38424504179E+03  0.00000000000E+00 0.  1.
          1   -1    0    0  501    0  0.00000000000E+00 -0.00000000000E+00 -0.66820207376E+02  0.66820207376E+02  0.00000000000E+00 0. -1.
         25    2    1    2    0    0 -0.52021257214E+02 -0.75924076101E+02  0.69040540163E+02  0.16995769877E+03  0.12509335174E+03 0.  0.
          5    1    3    3  502    0  0.21015550474E+02  0.23517029026E+02  0.12671946851E+02  0.34245505587E+02  0.41800000000E+01 0.  1.
         -5    1    3    3    0  502 -0.73036807688E+02 -0.99441105127E+02  0.56368593312E+02  0.13571219318E+03  0.41800000000E+01 0.  1.
        -11    1    1    2    0    0  0.61869602295E+02  0.11319949332E+02  0.90277604779E+02  0.11002742779E+03  0.00000000000E+00 0.  1.
         11    1    1    2    0    0 -0.98483450816E+01  0.64604126769E+02  0.15810668947E+03  0.17108012261E+03  0.00000000000E+00 0. -1.
</event>
<event>
 7    1  0.2844572E-009  0.1419585E+03  0.7561462E-02  0.1210718E+00
         -2   -1    0    0    0  501 -0.00000000000E+00  0.00000000000E+00  0.17480220391E+03  0.17480220391E+03  0.00000000000E+00 0.  1.
          2   -1    0    0  501    0  0.00000000000E+00 -0.00000000000E+00 -0.15414087614E+03  0.15414087614E+03  0.00000000000E+00 0. -1.
         25    2    1    2    0    0  0.75981747058E+02  0.90860109988E+02  0.45682958001E+02  0.17826011941E+03  0.12514372556E+03 0.  0.
          5    1    3    3  502    0  0.18449720496E+02  0.99427534500E+02 -0.45187188632E+01  0.10131198361E+03  0.41800000000E+01 0. -1.
         -5    1    3    3    0  502  0.57532026562E+02 -0.85674245123E+01  0.50201676864E+02  0.76948135800E+02  0.41800000000E+01 0. -1.
        -11    1    1    2    0    0 -0.79282098691E+02 -0.78400658493E+02 -0.50290251097E+02  0.12231689900E+03  0.00000000000E+00 0. -1.
         11    1    1    2    0    0  0.33003516329E+01 -0.12459451494E+02  0.25268620865E+02  0.28366061638E+02  0.00000000000E+00 0.  1.
</event>
<event>
 7    1  0.2844572E-009  0.9567950E+02  0.7561462E-02  0.1289653E+00
          2   -1    0    0  501    0  0.00000000000E+00  0.00000000000E+00  0.15640096244E+02  0.15640096244E+02  0.00000000000E+00 0. -1.
         -2   -1    0    0    0  501 -0.00000000000E+00 -0.00000000000E+00 -0.15978700510E+04  0.15978700510E+04  0.00000000000E+00 0.  1.
         25    2    1    2    0    0 -0.73807284024E+02 -0.26201345311E+02 -0.12808520119E+04  0.12893262260E+04  0.12508483099E+03 0.  0.
          5    1    3    3  502    0 -0.43667813899E+02  0.11014634897E+02 -0.11320235495E+04  0.11329267360E+04  0.41800000000E+01 0.  1.
         -5    1    3    3    0  502 -0.30139470125E+02 -0.37215980207E+02 -0.14882846243E+03  0.15639949000E+03  0.41800000000E+01 0.  1.
        -11    1    1    2    0    0  0.57316605608E+00 -0.14339924476E+02 -0.35052597583E+01  0.14773246064E+02  0.00000000000E+00 0. -1.
         11    1    1    2    0    0  0.73234117967E+02  0.40541269786E+02 -0.29787268307E+03  0.30941067517E+03  0.00000000000E+00 0.  1.
</event>
<event>
 7    1  0.2844572E-009  0.1401001E+03  0.7561462E-02  0.1213194E+00
          1   -1    0    0  501    0  0.00000000000E+00  0.00000000000E+00  0.23373822192E+02  0.23373822192E+02  0.00000000000E+00 0. -1.
         -1   -1    0    0    0  501 -0.00000000000E+00 -0.00000000000E+00 -0.11808152285E+04  0.11808152285E+04  0.00000000000E+00 0.  1.
         25    2    1    2    0    0 -0.37931692307E+02  0.11331237614E+03 -0.76343467835E+03  0.78278919761E+03  0.12509161407E+03 0.  0.
          5    1    3    3  502    0 -0.57679113662E+02  0.75895005170E+02 -0.24988234973E+03  0.26748007976E+03  0.41800000000E+01 0.  1.
         -5    1    3    3    0  502  0.19747421355E+02  0.37417370970E+02 -0.51355232862E+03  0.51530911785E+03  0.41800000000E+01 0.  1.
        -11    1    1    2    0    0  0.61973376651E+02 -0.80573669620E+02 -0.21466617245E+03  0.23751711780E+03  0.00000000000E+00 0. -1.
         11    1    1    2    0    0 -0.24041684344E+02 -0.32738706520E+02 -0.17934055554E+03  0.18388273532E+03  0.00000000000E+00 0.  1.
</event>
<event>
 7    1  0.2844572E-009  0.2554476E+03  0.7561462E-02  0.1109910E+00
          1   -1    0    0  501    0  0.00000000000E+00  0.00000000000E+00  0.56907585457E+03  0.56907585457E+03  0.00000000000E+00 0. -1.
         -1   -1    0    0    0  501 -0.00000000000E+00 -0.00000000000E+00 -0.13667740183E+03  0.13667740183E+03  0.00000000000E+00 0.  1.
         25    2    1    2    0    0  0.67447565669E+02 -0.23361771132E+03  0.11827107958E+03  0.29792814080E+03  0.12508684846E+03 0.  0.
          5    1    3    3  502    0  0.58083043258E+02 -0.33498846651E+02  0.41059003934E+01  0.67306340408E+02  0.41800000000E+01 0.  1.
         -5    1    3    3    0  502  0.93645224110E+01 -0.20011886467E+03  0.11416517919E+03  0.23062180039E+03  0.41800000000E+01 0.  1.
        -11    1    1    2    0    0 -0.51482492069E+02  0.19121197577E+03  0.30162812217E+03  0.36082127259E+03  0.00000000000E+00 0.  1.
         11    1    1    2    0    0 -0.15965073600E+02  0.42405735551E+02  0.12499250991E+02  0.47003843013E+02  0.00000000000E+00 0. -1.
</event>
<event>
 7    1  0.2844572E-009  0.1036682E+03  0.7561462E-02  0.1272766E+00
         -3   -1    0    0    0  501 -0.00000000000E+00  0.00000000000E+00  0.33481786818E+02  0.33481786818E+02  0.00000000000E+00 0.  1.
          3   -1    0    0  501    0  0.00000000000E+00 -0.00000000000E+00 -0.59488236139E+03  0.59488236139E+03  0.00000000000E+00 0. -1.
         25    2    1    2    0    0 -0.45121009802E+02 -0.46886303514E+02 -0.44885876862E+03  0.47048415681E+03  0.12508763589E+03 0.  0.
          5    1    3    3  502    0 -0.38857096683E+02  0.25661494702E+02 -0.66863365026E+02  0.81587794771E+02  0.41800000000E+01 0.  1.
         -5    1    3    3    0  502 -0.62639131182E+01 -0.72547798216E+02 -0.38199540360E+03  0.38889636203E+03  0.41800000000E+01 0.  1.
        -11    1    1    2    0    0  0.52964507111E+02  0.15343453886E+02 -0.11259934822E+03  0.12537652815E+03  0.00000000000E+00 0. -1.
         11    1    1    2    0    0 -0.78434973089E+01  0.31542849627E+02  0.57542269163E-01  0.32503463258E+02  0.00000000000E+00 0.  1.
</event>
<event>
 7    1  0.2844572E-009  0.1389641E+03  0.7561462E-02  0.1214730E+00
          2   -1    0    0  501    0  0.00000000000E+00  0.00000000000E+00  0.12322020573E+02  0.12322020573E+02  0.00000000000E+00 0. -1.
         -2   -1    0    0    0  501 -0.00000000000E+00 -0.00000000000E+00 -0.17523780963E+04  0.17523780963E+04  0.00000000000E+00 0.  1.
         25    2    1    2    0    0  0.28533766990E+02  0.88102556000E+02 -0.11487582357E+04  0.11592536340E+04  0.12508903825E+03 0.  0.
          5    1    3    3  502    0  0.68390316526E+02  0.13778744265E+02 -0.44642450140E+03  0.45186214384E+03  0.41800000000E+01 0. -1.
         -5    1    3    3    0  502 -0.39856549535E+02  0.74323811735E+02 -0.70233373435E+03  0.70739149015E+03  0.41800000000E+01 0. -1.
        -11    1    1    2    0    0 -0.45330170490E+02 -0.13745505559E+02 -0.14105855827E+03  0.14879946284E+03  0.00000000000E+00 0.  1.
         11    1    1    2    0    0  0.16796403500E+02 -0.74357050441E+02 -0.45023928168E+03  0.45664702002E+03  0.00000000000E+00 0. -1.
</event>
<event>
 7    1  0.2844572E-009  0.1746472E+03  0.7561462E-02  0.1173086E+00
         -2   -1    0    0    0  501 -0.00000000000E+00  0.00000000000E+00  0.30912542941E+03  0.30912542941E+03  0.00000000000E+00 0.  1.
          2   -1    0    0  501    0  0.00000000000E+00 -0.00000000000E+00 -0.15698686663E+03  0.15698686663E+03  0.00000000000E+00 0. -1.
         25    2    1    2    0    0 -0.12182801575E+03 -0.10471071223E+03 -0.31075521255E+02  0.20596021300E+03  0.12509005812E+03 0.  0.
          5    1    3    3  502    0 -0.80404453085E+01  0.34824993968E+01  0.34434403898E+02  0.35776768086E+02  0.41800000000E+01 0.  1.
         -5    1    3    3    0  502 -0.11378757044E+03 -0.10819321163E+03 -0.65509925153E+02  0.17018344492E+03  0.41800000000E+01 0.  1.
        -11    1    1    2    0    0  0.56965069716E+02 -0.27127349423E+01  0.76546608751E+02  0.95455546774E+02  0.00000000000E+00 0.  1.
         11    1    1    2    0    0  0.64862946035E+02  0.10742344718E+03  0.10666747528E+03  0.16469653626E+03  0.00000000000E+00 0. -1.
</event>
<event>
 7    1  0.2844572E-009  0.1205950E+03  0.7561462E-02  0.1242119E+00
         -2   -1    0    0    0  501 -0.00000000000E+00  0.00000000000E+00  0.38934153195E+02  0.38934153195E+02  0.00000000000E+00 0.  1.
          2   -1    0    0  501    0  0.00000000000E+00 -0.00000000000E+00 -0.52989289855E+03  0.52989289855E+03  0.00000000000E+00 0. -1.
         25    2    1    2    0    0  0.89268562700E+02  0.27461930510E+02 -0.22519944586E+03  0.27401754423E+03  0.12509112766E+03 0.  0.
          5    1    3    3  502    0  0.60560980531E+02  0.70927999454E+02 -0.92608080631E+02  0.13149959113E+03  0.41800000000E+01 0.  1.
         -5    1    3    3    0  502  0.28707582169E+02 -0.43466068944E+02 -0.13259136523E+03  0.14251795310E+03  0.41800000000E+01 0.  1.
        -11    1    1    2    0    0 -0.61056479208E+02 -0.86548239276E+01 -0.24986599847E+03  0.25736320021E+03  0.00000000000E+00 0. -1.
         11    1    1    2    0    0 -0.28212083493E+02 -0.18807106582E+02 -0.15893301023E+02  0.37446307300E+02  0.00000000000E+00 0.  1.
</event>
<event>
 7    1  0.2844572E-009  0.1851058E+03  0.7561462E-02  0.1162951E+00
         -2   -1    0    0    0  501 -0.00000000000E+00  0.00000000000E+00  0.82768409092E+02  0.82768409092E+02  0.00000000000E+00 0.  1.
          2   -1    0    0  501    0  0.00000000000E+00 -0.00000000000E+00 -0.50114243459E+03  0.50114243459E+03  0.00000000000E+00 0. -1.
         25    2    1    2    0    0 -0.41012701737E+02 -0.15922264576E+03 -0.14564818888E+03  0.25277500444E+03  0.12509162769E+03 0.  0.
          5    1    3    3  502    0 -0.69264642743E+02 -0.33974102268E+02 -0.43619311039E+02  0.88723993681E+02  0.41800000000E+01 0. -1.
         -5    1    3    3    0  502  0.28251941006E+02 -0.12524854349E+03 -0.10202887784E+03  0.16405101076E+03  0.41800000000E+01 0. -1.
        -11    1    1    2    0    0  0.34462201358E+02  0.12619923399E+03 -0.12976017241E+03  0.18425957866E+03  0.00000000000E+00 0.  1.
         11    1    1    2    0    0  0.65505003790E+01  0.33023411769E+02 -0.14296566422E+03  0.14687626059E+03  0.00000000000E+00 0. -1.
</event>
<event>
 7    1  0.2844572E-009  0.1110068E+03  0.7561462E-02  0.1258717E+00
          2   -1    0    0  501    0  0.00000000000E+00  0.00000000000E+00  0.42836850191E+03  0.42836850191E+03  0.00000000000E+00 0.  1.
         -2   -1    0    0    0  501 -0.00000000000E+00 -0.00000000000E+00 -0.31161403907E+02  0.31161403907E+02  0.00000000000E+00 0. -1.
         25    2    1    2    0    0  0.26759188256E+02  0.24066309324E+02  0.20008786321E+03  0.23869884443E+03  0.12508694548E+03 0.  0.
          5    1    3    3  502    0 -0.47505689322E+02  0.87969029715E+01  0.11412908426E+03  0.12400442046E+03  0.41800000000E+01 0.  1.
         -5    1    3    3    0  502  0.74264877578E+02  0.15269406353E+02  0.85958778954E+02  0.11469442398E+03  0.41800000000E+01 0.  1.
        -11    1    1    2    0    0  0.29295939757E+02 -0.29116644426E+02  0.10560200800E+03  0.11339230645E+03  0.00000000000E+00 0.  1.
         11    1    1    2    0    0 -0.56055128014E+02  0.50503351018E+01  0.91517226798E+02  0.10743875494E+03  0.00000000000E+00 0. -1.
</event>
<event>
 7    1  0.2844572E-009  0.2108512E+03  0.7561462E-02  0.1140894E+00
         -2   -1    0    0    0  501 -0.00000000000E+00  0.00000000000E+00  0.57446846324E+02  0.57446846324E+02  0.00000000000E+00 0.  1.
          2   -1    0    0  501    0  0.00000000000E+00 -0.00000000000E+00 -0.98225244197E+03  0.98225244197E+03  0.00000000000E+00 0. -1.
         25    2    1    2    0    0  0.14532980971E+03  0.12940020752E+03 -0.65228009598E+03  0.69208520490E+03  0.12508972755E+03 0.  0.
          5    1    3    3  502    0  0.46994105009E+02 -0.15926309366E+02 -0.87695812176E+02  0.10084701834E+03  0.41800000000E+01 0.  1.
         -5    1    3    3    0  502  0.98335704702E+02  0.14532651689E+03 -0.56458428380E+03  0.59123818656E+03  0.41800000000E+01 0.  1.
        -11    1    1    2    0    0 -0.12187024006E+03 -0.93958433739E+02 -0.26196468474E+03  0.30381908883E+03  0.00000000000E+00 0. -1.
         11    1    1    2    0    0 -0.23459569649E+02 -0.35441773784E+02 -0.10560814929E+02  0.43794994566E+02  0.00000000000E+00 0.  1.
</event>
<event>
 7    1  0.2844572E-009  0.1481806E+03  0.7561462E-02  0.1202727E+00
         -4   -1    0    0    0  501 -0.00000000000E+00  0.00000000000E+00  0.85208724455E+02  0.85208724455E+02  0.00000000000E+00 0.  1.
          4   -1    0    0  501    0  0.00000000000E+00 -0.00000000000E+00 -0.27205726800E+03  0.27205726800E+03  0.00000000000E+00 0. -1.
         25    2    1    2    0    0 -0.10570073187E+03  0.64355696505E+01 -0.10415582647E+03  0.19419084224E+03  0.12509031037E+03 0.  0.
          5    1    3    3  502    0 -0.32298447975E+01 -0.42241840346E+02 -0.57290260993E+02  0.71375425588E+02  0.41800000000E+01 0.  1.
         -5    1    3    3    0  502 -0.10247088707E+03  0.48677409996E+02 -0.46865565476E+02  0.12281541665E+03  0.41800000000E+01 0.  1.
        -11    1    1    2    0    0  0.31934599784E+01 -0.33976153102E+02 -0.24665990680E+02  0.42106867165E+02  0.00000000000E+00 0.  1.
         11    1    1    2    0    0  0.10250727189E+03  0.27540583451E+02 -0.58026726392E+02  0.12096828304E+03  0.00000000000E+00 0. -1.
</event>
<event>
 7    1  0.2844572E-009  0.1396648E+03  0.7561462E-02  0.1213781E+00
          1   -1    0    0  501    0  0.00000000000E+00  0.00000000000E+00  0.15933110224E+03  0.15933110224E+03  0.00000000000E+00 0. -1.
         -1   -1    0    0    0  501 -0.00000000000E+00 -0.00000000000E+00 -0.13904000160E+03  0.13904000160E+03  0.00000000000E+00 0.  1.
         25    2    1    2    0    0 -0.62867487952E+02  0.78606954151E+02  0.13384332496E+02  0.16111577818E+03  0.12509108417E+03 0.  0.
          5    1    3    3  502    0 -0.50549160812E+01 -0.26229369094E+02  0.29760811408E+02  0.40208335893E+02  0.41800000000E+01 0. -1.
         -5    1    3    3    0  502 -0.57812571871E+02  0.10483632324E+03 -0.16376478912E+02  0.12090744228E+03  0.41800000000E+01 0. -1.
        -11    1    1    2    0    0  0.44166552211E+02  0.71371620755E+01  0.19112330549E+02  0.48650843731E+02  0.00000000000E+00 0.  1.
         11    1    1    2    0    0  0.18700935741E+02 -0.85744116226E+02 -0.12205562406E+02  0.88604481933E+02  0.00000000000E+00 0. -1.
</event>
<event>
 7    1  0.2844572E-009  0.1286326E+03  0.7561462E-02  0.1229499E+00
          2   -1    0    0  501    0  0.00000000000E+00  0.00000000000E+00  0.35197303247E+03  0.35197303247E+03  0.00000000000E+00 0. -1.
         -2   -1    0    0    0  501 -0.00000000000E+00 -0.00000000000E+00 -0.60704250919E+02  0.60704250919E+02  0.00000000000E+00 0.  1.
         25    2    1    2    0    0  0.86028526001E+02 -0.20266753641E+02  0.20867128436E+03  0.25884867277E+03  0.12508909580E+03 0.  0.
          5    1    3    3  502    0  0.70941796233E+01 -0.55686891791E+02  0.39425660101E+02  0.68725631145E+02  0.41800000000E+01 0.  1.
         -5    1    3    3    0  502  0.78934346377E+02  0.35420138150E+02  0.16924562426E+03  0.19012304162E+03  0.41800000000E+01 0.  1.
        -11    1    1    2    0    0  0.19964322951E+01  0.26062870052E+02 -0.80410124755E+01  0.27348067919E+02  0.00000000000E+00 0.  1.
         11    1    1    2    0    0 -0.88024958296E+02 -0.57961164107E+01  0.90638509670E+02  0.12648054271E+03  0.00000000000E+00 0. -1.
</event>
<event>
 7    1  0.2844572E-009  0.1506107E+03  0.7561462E-02  0.1199725E+00
         -2   -1    0    0    0  501 -0.00000000000E+00  0.00000000000E+00  0.33152650882E+02  0.33152650882E+02  0.00000000000E+00 0.  1.
          2   -1    0    0  501    0  0.00000000000E+00 -0.00000000000E+00 -0.80743064714E+03  0.80743064714E+03  0.00000000000E+00 0. -1.
         25    2    1    2    0    0  0.11482762564E+03 -0.43858075931E+02 -0.44734117587E+03  0.48048911974E+03  0.12508697823E+03 0.  0.
          5    1    3    3  502    0  0.35396319160E+02  0.30116618218E+02 -0.25814143139E+03  0.26232495326E+03  0.41800000000E+01 0.  1.
         -5    1    3    3    0  502  0.79431306480E+02 -0.73974694149E+02 -0.18919974448E+03  0.21816416648E+03  0.41800000000E+01 0.  1.
        -11    1    1    2    0    0 -0.18933446832E+02 -0.22435655087E+02 -0.10961876739E+03  0.11348175268E+03  0.00000000000E+00 0. -1.
         11    1    1    2    0    0 -0.95894178808E+02  0.66293731017E+02 -0.21731805300E+03  0.24661242560E+03  0.00000000000E+00 0.  1.
</event>
<event>
 7    1  0.2844572E-009  0.1214622E+03  0.7561462E-02  0.1240704E+00
          3   -1    0    0  501    0  0.00000000000E+00  0.00000000000E+00  0.24769657303E+03  0.24769657303E+03  0.00000000000E+00 0. -1.
         -3   -1    0    0    0  501 -0.00000000000E+00 -0.00000000000E+00 -0.10544559978E+03  0.10544559978E+03  0.00000000000E+00 0.  1.
         25    2    1    2    0    0  0.91241708968E+02 -0.77718821157E+02  0.74277942187E+02  0.18849413028E+03  0.12509020680E+03 0.  0.
          5    1    3    3  502    0  0.62368057967E+02 -0.35940272911E+02 -0.25481422906E+02  0.76473872563E+02  0.41800000000E+01 0.  1.
         -5    1    3    3    0  502  0.28873651002E+02 -0.41778548246E+02  0.99759365093E+02  0.11202025772E+03  0.41800000000E+01 0.  1.
        -11    1    1    2    0    0 -0.71523316465E+02  0.61692300846E+02  0.25770785160E+01  0.94488973513E+02  0.00000000000E+00 0.  1.
         11    1    1    2    0    0 -0.19718392503E+02  0.16026520311E+02  0.65395952546E+02  0.70159069019E+02  0.00000000000E+00 0. -1.
</event>
<event>
 7    1  0.3314266E-009  0.3164007E+03  0.7561462E-02  0.1077318E+00
          1   -1    0    0  501    0  0.00000000000E+00  0.00000000000E+00  0.17486912128E+04  0.17486912128E+04  0.00000000000E+00 0. -1.
         -1   -1    0    0    0  501 -0.00000000000E+00 -0.00000000000E+00 -0.59442988205E+02  0.59442988205E+02  0.00000000000E+00 0.  1.
         25    2    1    2    0    0  0.82916908429E+02  0.28963471520E+03  0.75795741951E+03  0.82517287202E+03  0.12508931600E+03 0.  0.
          5    1    3    3  502    0  0.16195505147E+02 -0.96381305250E+01  0.37709885232E+02  0.42363850052E+02  0.41800000000E+01 0.  1.
         -5    1    3    3    0  502  0.66721403282E+02  0.29927284573E+03  0.72024753427E+03  0.78280902197E+03  0.41800000000E+01 0.  1.
        -11    1    1    2    0    0 -0.64574162802E+02 -0.12041035406E+03  0.30999264159E+03  0.33876823007E+03  0.00000000000E+00 0.  1.
         11    1    1    2    0    0 -0.18342745627E+02 -0.16922436114E+03  0.62129816352E+03  0.64419309894E+03  0.00000000000E+00 0. -1.
</event>
<event>
 7    1  0.2844572E-009  0.1437936E+03  0.7561462E-02  0.1208314E+00
         -2   -1    0    0    0  501 -0.00000000000E+00  0.00000000000E+00  0.20531090308E+02  0.20531090308E+02  0.00000000000E+00 0.  1.
          2   -1    0    0  501    0  0.00000000000E+00 -0.00000000000E+00 -0.11439140051E+04  0.11439140051E+04  0.00000000000E+00 0. -1.
         25    2    1    2    0    0  0.10154373674E+03  0.19538682415E+02 -0.49245863905E+03  0.51851361629E+03  0.12509184035E+03 0.  0.
          5    1    3    3  502    0  0.34781975392E+02  0.64501018984E+02 -0.15410495019E+03  0.17069263410E+03  0.41800000000E+01 0. -1.
         -5    1    3    3    0  502  0.66761761352E+02 -0.44962336569E+02 -0.33835368886E+03  0.34782098219E+03  0.41800000000E+01 0. -1.
        -11    1    1    2    0    0 -0.92668504642E+02  0.18525796774E+02 -0.51490713172E+03  0.52350741274E+03  0.00000000000E+00 0.  1.
         11    1    1    2    0    0 -0.88752321020E+01 -0.38064479188E+02 -0.11601714401E+03  0.12242406636E+03  0.00000000000E+00 0. -1.
</event>
<event>
 7    1  0.2844572E-009  0.9928980E+02  0.7561462E-02  0.1281797E+00
          2   -1    0    0  501    0  0.00000000000E+00  0.00000000000E+00  0.37603662615E+03  0.37603662615E+03  0.00000000000E+00 0. -1.
         -2   -1    0    0    0  501 -0.00000000000E+00 -0.00000000000E+00 -0.35269421512E+02  0.35269421512E+02  0.00000000000E+00 0.  1.
         25    2    1    2    0    0 -0.21321478623E+02 -0.31941125239E+02  0.20707855945E+03  0.24495737491E+03  0.12509094614E+03 0.  0.
          5    1    3    3  502    0  0.43668467695E+02 -0.19091012201E+02  0.14988954640E+03  0.15733960193E+03  0.41800000000E+01 0.  1.
         -5    1    3    3    0  502 -0.64989946318E+02 -0.12850113038E+02  0.57189013053E+02  0.87617772977E+02  0.41800000000E+01 0.  1.
        -11    1    1    2    0    0 -0.28317612013E+02  0.93681065985E+01  0.10484224180E+02  0.31615937880E+02  0.00000000000E+00 0.  1.
         11    1    1    2    0    0  0.49639090636E+02  0.22573018640E+02  0.12320442101E+03  0.13473273487E+03  0.00000000000E+00 0. -1.
</event>
<event>
 7    1  0.2844572E-009  0.1324746E+03  0.7561462E-02  0.1223829E+00
          2   -1    0    0  501    0  0.00000000000E+00  0.00000000000E+00  0.80271070237E+02  0.80271070237E+02  0.00000000000E+00 0. -1.
         -2   -1    0    0    0  501 -0.00000000000E+00 -0.00000000000E+00 -0.28183082477E+03  0.28183082477E+03  0.00000000000E+00 0.  1.
         25    2    1    2    0    0 -0.44983234904E+02  0.68981940163E+02 -0.18066576909E+03  0.23466990478E+03  0.12509134501E+03 0.  0.
          5    1    3    3  502    0  0.10701267855E+02  0.81451071945E+02 -0.14654316629E+03  0.16805108223E+03  0.41800000000E+01 0. -1.
         -5    1    3    3    0  502 -0.55684502759E+02 -0.12469131782E+02 -0.34122602806E+02  0.66618822544E+02  0.41800000000E+01 0. -1.
        -11    1    1    2    0    0  0.22541963624E+02 -0.91171121071E+02 -0.18978534117E+02  0.95814916368E+02  0.00000000000E+00 0. -1.
         11    1    1    2    0    0  0.22441271280E+02  0.22189180908E+02 -0.19154513271E+01  0.31617073865E+02  0.00000000000E+00 0.  1.
</event>
<event>
 7    1  0.2844572E-009  0.1204889E+03  0.7561462E-02  0.1242293E+00
          2   -1    0    0  501    0  0.00000000000E+00  0.00000000000E+00  0.15617878959E+03  0.15617878959E+03  0.00000000000E+00 0. -1.
         -2   -1    0    0    0  501 -0.00000000000E+00 -0.00000000000E+00 -0.18827788176E+03  0.18827788176E+03  0.00000000000E+00 0.  1.
         25    2    1    2    0    0 -0.86284725427E+02 -0.70527133544E+02 -0.88964337661E+02  0.18968802594E+03  0.12509102046E+03 0.  0.
          5    1    3    3  502    0 -0.86914759776E+02 -0.35056065790E+02  0.90547094006E-02  0.93811383625E+02  0.41800000000E+01 0.  1.
         -5    1    3    3    0  502  0.63003434882E+00 -0.35471067753E+02 -0.88973392370E+02  0.95876642311E+02  0.41800000000E+01 0.  1.
        -11    1    1    2    0    0  0.33359888394E+02  0.26734228185E+02 -0.23710271457E+02  0.48885356528E+02  0.00000000000E+00 0.  1.
         11    1    1    2    0    0  0.52924837033E+02  0.43792905359E+02  0.80575516945E+02  0.10588328889E+03  0.00000000000E+00 0. -1.
</event>
<event>
 7    1  0.2844572E-009  0.1855770E+03  0.7561462E-02  0.1162512E+00
          1   -1    0    0  501    0  0.00000000000E+00  0.00000000000E+00  0.85602289565E+03  0.85602289565E+03  0.00000000000E+00 0. -1.
         -1   -1    0    0    0  501 -0.00000000000E+00 -0.00000000000E+00 -0.50920724775E+02  0.50920724775E+02  0.00000000000E+00 0.  1.
         25    2    1    2    0    0  0.11513927305E+03 -0.13060936344E+03  0.50259426136E+03  0.54641802887E+03  0.12512319011E+03 0.  0.
          5    1    3    3  502    0  0.79582845805E+01 -0.40948552433E+02  0.25064290150E+02  0.48844746704E+02  0.41800000000E+01 0.  1.
         -5    1    3    3    0  502  0.10718098847E+03 -0.89660811010E+02  0.47752997121E+03  0.49757328217E+03  0.41800000000E+01 0.  1.
        -11    1    1    2    0    0 -0.73604195609E+02  0.28031162051E+02  0.17358796835E+03  0.19062032004E+03  0.00000000000E+00 0. -1.
         11    1    1    2    0    0 -0.41535077441E+02  0.10257820139E+03  0.12891994117E+03  0.16990527152E+03  0.00000000000E+00 0.  1.
</event>
<event>
 7    1  0.2844572E-009  0.1234097E+03  0.7561462E-02  0.1237576E+00
          2   -1    0    0  501    0  0.00000000000E+00  0.00000000000E+00  0.34996569665E+03  0.34996569665E+03  0.00000000000E+00 0.  1.
         -2   -1    0    0    0  501 -0.00000000000E+00 -0.00000000000E+00 -0.44515007705E+02  0.44515007705E+02  0.00000000000E+00 0. -1.
         25    2    1    2    0    0  0.11194998961E+02 -0.57452393687E+02  0.19032985846E+03  0.23515730814E+03  0.12508956395E+03 0.  0.
          5    1    3    3  502    0 -0.14562664897E+02 -0.92841521264E+02  0.13310101470E+03  0.16298764307E+03  0.41800000000E+01 0.  1.
         -5    1    3    3    0  502  0.25757663858E+02  0.35389127577E+02  0.57228843761E+02  0.72169665070E+02  0.41800000000E+01 0.  1.
        -11    1    1    2    0    0 -0.82971270040E+01  0.82826621580E+02  0.97977687738E+02  0.12856406517E+03  0.00000000000E+00 0. -1.
         11    1    1    2    0    0 -0.28978719567E+01 -0.25374227893E+02  0.17143142748E+02  0.30759331045E+02  0.00000000000E+00 0.  1.
</event>
<event>
 7    1  0.2844572E-009  0.9101168E+02  0.7561462E-02  0.1300420E+00
          1   -1    0    0  501    0  0.00000000000E+00  0.00000000000E+00  0.16591427408E+03  0.16591427408E+03  0.00000000000E+00 0. -1.
         -1   -1    0    0    0  501 -0.00000000000E+00 -0.00000000000E+00 -0.85907072266E+02  0.85907072266E+02  0.00000000000E+00 0.  1.
         25    2    1    2    0    0  0.22800816583E+02  0.41700089793E+02  0.48489321899E+02  0.14233029887E+03  0.12509166604E+03 0.  0.
          5    1    3    3  502    0 -0.22392999883E+02 -0.33432446228E+02 -0.29987550631E+01  0.40566486617E+02  0.41800000000E+01 0.  1.
         -5    1    3    3    0  502  0.45193816466E+02  0.75132536021E+02  0.51488076963E+02  0.10176381226E+03  0.41800000000E+01 0.  1.
        -11    1    1    2    0    0 -0.36309772300E+01 -0.32185029870E+02  0.63340559360E+02  0.71141314322E+02  0.00000000000E+00 0. -1.
         11    1    1    2    0    0 -0.19169839353E+02 -0.95150599233E+01 -0.31822679442E+02  0.38349733155E+02  0.00000000000E+00 0.  1.
</event>
<event>
 7    1  0.2844572E-009  0.9036132E+02  0.7561462E-02  0.1301979E+00
          3   -1    0    0  501    0  0.00000000000E+00  0.00000000000E+00  0.23358233273E+03  0.23358233273E+03  0.00000000000E+00 0. -1.
         -3   -1    0    0    0  501 -0.00000000000E+00 -0.00000000000E+00 -0.60028454816E+02  0.60028454816E+02  0.00000000000E+00 0.  1.
         25    2    1    2    0    0  0.23187112582E+02  0.36168675910E+02  0.12227435187E+03  0.18012385819E+03  0.12509105426E+03 0.  0.
          5    1    3    3  502    0 -0.25957455156E+02 -0.34932550838E+02  0.26853893278E+02  0.51309614795E+02  0.41800000000E+01 0.  1.
         -5    1    3    3    0  502  0.49144567739E+02  0.71101226748E+02  0.95420458591E+02  0.12881424339E+03  0.41800000000E+01 0.  1.
        -11    1    1    2    0    0 -0.72520650144E+01 -0.33543018291E+02 -0.20458550293E+02  0.39953457962E+02  0.00000000000E+00 0.  1.
         11    1    1    2    0    0 -0.15935047568E+02 -0.26256576191E+01  0.71738076334E+02  0.73533471393E+02  0.00000000000E+00 0. -1.
</event>
<event>
 7    1  0.2844572E-009  0.1128088E+03  0.7561462E-02  0.1255455E+00
         -1   -1    0    0    0  501 -0.00000000000E+00  0.00000000000E+00  0.13487509985E+03  0.13487509985E+03  0.00000000000E+00 0.  1.
          1   -1    0    0  501    0  0.00000000000E+00 -0.00000000000E+00 -0.13785649478E+03  0.13785649478E+03  0.00000000000E+00 0. -1.
         25    2    1    2    0    0  0.58053026882E+02  0.38129775517E+02  0.43549440069E+02  0.14955843943E+03  0.12508852611E+03 0.  0.
          5    1    3    3  502    0  0.79141993565E+02  0.66974669206E+02  0.17704141393E+02  0.10526143873E+03  0.41800000000E+01 0. -1.
         -5    1    3    3    0  502 -0.21088966683E+02 -0.28844893689E+02  0.25845298676E+02  0.44297000703E+02  0.41800000000E+01 0. -1.
        -11    1    1    2    0    0 -0.44866083845E+00 -0.27254364468E+02  0.20513281667E+02  0.34114460334E+02  0.00000000000E+00 0.  1.
         11    1    1    2    0    0 -0.57604366043E+02 -0.10875411049E+02 -0.67044116662E+02  0.89058694869E+02  0.00000000000E+00 0. -1.
</event>
<event>
 7    1  0.2844572E-009  0.9678731E+02  0.7561462E-02  0.1287201E+00
         -1   -1    0    0    0  501 -0.00000000000E+00  0.00000000000E+00  0.48173006843E+02  0.48173006843E+02  0.00000000000E+00 0.  1.
          1   -1    0    0  501    0  0.00000000000E+00 -0.00000000000E+00 -0.35591929459E+03  0.35591929459E+03  0.00000000000E+00 0. -1.
         25    2    1    2    0    0  0.54858475203E+02 -0.43048859585E+02 -0.13450678616E+03  0.19647277321E+03  0.12508724346E+03 0.  0.
          5    1    3    3  502    0  0.36679938655E+02 -0.51031097499E+02 -0.15519932862E+03  0.16749296945E+03  0.41800000000E+01 0. -1.
         -5    1    3    3    0  502  0.18178536548E+02  0.79822379146E+01  0.20692542453E+02  0.28979803766E+02  0.41800000000E+01 0. -1.
        -11    1    1    2    0    0  0.17713141004E+02  0.32435951277E+02 -0.86266803400E+02  0.93849920982E+02  0.00000000000E+00 0. -1.
         11    1    1    2    0    0 -0.72571616208E+02  0.10612908308E+02 -0.86972698188E+02  0.11376960724E+03  0.00000000000E+00 0.  1.
</event>
<event>
 7    1  0.2844572E-009  0.1717678E+03  0.7561462E-02  0.1176017E+00
         -2   -1    0    0    0  501 -0.00000000000E+00  0.00000000000E+00  0.32453743458E+03  0.32453743458E+03  0.00000000000E+00 0.  1.
          2   -1    0    0  501    0  0.00000000000E+00 -0.00000000000E+00 -0.11337852630E+03  0.11337852630E+03  0.00000000000E+00 0. -1.
         25    2    1    2    0    0  0.89905848372E+02 -0.11358978967E+03  0.17422137220E+03  0.25881705959E+03  0.12508989534E+03 0.  0.
          5    1    3    3  502    0  0.14439885715E+02 -0.99308498103E+02  0.14530974173E+03  0.17664393999E+03  0.41800000000E+01 0.  1.
         -5    1    3    3    0  502  0.75465962657E+02 -0.14281291572E+02  0.28911630471E+02  0.82173119602E+02  0.41800000000E+01 0.  1.
        -11    1    1    2    0    0 -0.12421008270E+02  0.81282941925E+02 -0.10140386486E+02  0.82849414799E+02  0.00000000000E+00 0. -1.
         11    1    1    2    0    0 -0.77484840102E+02  0.32306847750E+02  0.47077922563E+02  0.96249486492E+02  0.00000000000E+00 0.  1.
</event>
<event>
 7    1  0.2844572E-009  0.1930938E+03  0.7561462E-02  0.1155700E+00
         -2   -1    0    0    0  501 -0.00000000000E+00  0.00000000000E+00  0.46676249907E+02  0.46676249907E+02  0.00000000000E+00 0.  1.
          2   -1    0    0  501    0  0.00000000000E+00 -0.00000000000E+00 -0.11630872395E+04  0.11630872395E+04  0.00000000000E+00 0. -1.
         25    2    1    2    0    0 -0.26011039280E+02 -0.18426079494E+03 -0.80731254461E+03  0.83787229321E+03  0.12509124803E+03 0.  0.
          5    1    3    3  502    0  0.37435228552E+01 -0.15702977643E+03 -0.75757838681E+03  0.77370204163E+03  0.41800000000E+01 0.  1.
         -5    1    3    3    0  502 -0.29754562135E+02 -0.27231018513E+02 -0.49734157793E+02  0.64170251585E+02  0.41800000000E+01 0.  1.
        -11    1    1    2    0    0  0.30720089516E+02  0.11331756098E+03 -0.11160150719E+03  0.16198607944E+03  0.00000000000E+00 0.  1.
         11    1    1    2    0    0 -0.47090502365E+01  0.70943233964E+02 -0.19749693780E+03  0.20990511676E+03  0.00000000000E+00 0. -1.
</event>
<event>
 7    1  0.2844572E-009  0.4028372E+03  0.7561462E-02  0.1042802E+00
          2   -1    0    0  501    0  0.00000000000E+00  0.00000000000E+00  0.80528114929E+03  0.80528114929E+03  0.00000000000E+00 0.  1.
         -2   -1    0    0    0  501 -0.00000000000E+00 -0.00000000000E+00 -0.21563153739E+03  0.21563153739E+03  0.00000000000E+00 0. -1.
         25    2    1    2    0    0 -0.37363295324E+03  0.14472180105E+03  0.25899693851E+03  0.49322874059E+03  0.12509673435E+03 0.  0.
          5    1    3    3  502    0 -0.24417626632E+03  0.10934974275E+03  0.10128568197E+03  0.28610431147E+03  0.41800000000E+01 0.  1.
         -5    1    3    3    0  502 -0.12945668692E+03  0.35372058304E+02  0.15771125655E+03  0.20712442912E+03  0.41800000000E+01 0.  1.
        -11    1    1    2    0    0  0.16162966857E+03 -0.89495825593E+02  0.10209012816E+03  0.21108303302E+03  0.00000000000E+00 0.  1.
         11    1    1    2    0    0  0.21200328466E+03 -0.55225975458E+02  0.22856254523E+03  0.31660091307E+03  0.00000000000E+00 0. -1.
</event>
<event>
 7    1  0.2844572E-009  0.1097978E+03  0.7561462E-02  0.1260945E+00
          3   -1    0    0  501    0  0.00000000000E+00  0.00000000000E+00  0.78335252834E+02  0.78335252834E+02  0.00000000000E+00 0. -1.
         -3   -1    0    0    0  501 -0.00000000000E+00 -0.00000000000E+00 -0.47295622852E+03  0.47295622852E+03  0.00000000000E+00 0.  1.
         25    2    1    2    0    0 -0.25270057977E+02 -0.35816928830E+02 -0.42774802307E+03  0.44781420009E+03  0.12509100027E+03 0.  0.
          5    1    3    3  502    0 -0.49985331223E+02 -0.72468899271E+02 -0.28707044942E+03  0.30029517151E+03  0.41800000000E+01 0.  1.
         -5    1    3    3    0  502  0.24715273246E+02  0.36651970441E+02 -0.14067757364E+03  0.14751902859E+03  0.41800000000E+01 0.  1.
        -11    1    1    2    0    0 -0.10698397442E+02  0.47925583504E+02  0.41868900394E+02  0.64531558808E+02  0.00000000000E+00 0. -1.
         11    1    1    2    0    0  0.35968455419E+02 -0.12108654674E+02 -0.87418530147E+01  0.38945722453E+02  0.00000000000E+00 0.  1.
</event>
<event>
 7    1  0.2844572E-009  0.2043699E+03  0.7561462E-02  0.1146104E+00
          1   -1    0    0  501    0  0.00000000000E+00  0.00000000000E+00  0.73096890788E+03  0.73096890788E+03  0.00000000000E+00 0. -1.
         -1   -1    0    0    0  501 -0.00000000000E+00 -0.00000000000E+00 -0.72200933428E+02  0.72200933428E+02  0.00000000000E+00 0.  1.
         25    2    1    2    0    0 -0.44195293287E+01 -0.19811802246E+03  0.27221868458E+03  0.35919511121E+03  0.12509129713E+03 0.  0.
          5    1    3    3  502    0  0.14752859441E+02 -0.50857640519E+02  0.48693236171E+01  0.53341627022E+02  0.41800000000E+01 0. -1.
         -5    1    3    3    0  502 -0.19172388770E+02 -0.14726038194E+03  0.26734936097E+03  0.30585348419E+03  0.41800000000E+01 0. -1.
        -11    1    1    2    0    0  0.24001233855E+02  0.33116359831E+02  0.14597666923E+03  0.15159795670E+03  0.00000000000E+00 0. -1.
         11    1    1    2    0    0 -0.19581704527E+02  0.16500166263E+03  0.24057262064E+03  0.29237677340E+03  0.00000000000E+00 0.  1.
</event>
<event>
 7    1  0.2844572E-009  0.8308563E+02  0.7561462E-02  0.1320516E+00
          1   -1    0    0  501    0  0.00000000000E+00  0.00000000000E+00  0.22746110044E+03  0.22746110044E+03  0.00000000000E+00 0. -1.
         -1   -1    0    0    0  501 -0.00000000000E+00 -0.00000000000E+00 -0.62332050385E+02  0.62332050385E+02  0.00000000000E+00 0.  1.
         25    2    1    2    0    0  0.88184830204E+01  0.42741127441E+02  0.96803068429E+02  0.16408209305E+03  0.12509008587E+03 0.  0.
          5    1    3    3  502    0 -0.26808177251E+02  0.46732047961E+02  0.11243774732E+03  0.12474887613E+03  0.41800000000E+01 0. -1.
         -5    1    3    3    0  502  0.35626660271E+02 -0.39909205201E+01 -0.15634678891E+02  0.39333216913E+02  0.41800000000E+01 0. -1.
        -11    1    1    2    0    0 -0.24502003310E+02 -0.52243573598E+02  0.83780484825E+02  0.10172958658E+03  0.00000000000E+00 0. -1.
         11    1    1    2    0    0  0.15683520290E+02  0.95024461574E+01 -0.15454503199E+02  0.23981471197E+02  0.00000000000E+00 0.  1.
</event>
<event>
 7    1  0.2844572E-009  0.1219354E+03  0.7561462E-02  0.1239938E+00
         -1   -1    0    0    0  501 -0.00000000000E+00  0.00000000000E+00  0.18618319888E+03  0.18618319888E+03  0.00000000000E+00 0.  1.
          1   -1    0    0  501    0  0.00000000000E+00 -0.00000000000E+00 -0.87179298538E+02  0.87179298538E+02  0.00000000000E+00 0. -1.
         25    2    1    2    0    0 -0.59958709290E+02  0.17302454131E+02  0.76718545202E+02  0.15946518585E+03  0.12509591753E+03 0.  0.
          5    1    3    3  502    0 -0.65088191203E+02 -0.43651366776E+02  0.42467281060E+02  0.89234840819E+02  0.41800000000E+01 0.  1.
         -5    1    3    3    0  502  0.51294819126E+01  0.60953820906E+02  0.34251264142E+02  0.70230345030E+02  0.41800000000E+01 0.  1.
        -11    1    1    2    0    0  0.54214618746E+02  0.26188529868E+02  0.33111243325E+02  0.68712578303E+02  0.00000000000E+00 0. -1.
         11    1    1    2    0    0  0.57440905442E+01 -0.43490983999E+02 -0.10825888184E+02  0.45184733267E+02  0.00000000000E+00 0.  1.
</event>
<event>
 7    1  0.2844572E-009  0.1160289E+03  0.7561462E-02  0.1249796E+00
         -1   -1    0    0    0  501 -0.00000000000E+00  0.00000000000E+00  0.48049216105E+02  0.48049216105E+02  0.00000000000E+00 0.  1.
          1   -1    0    0  501    0  0.00000000000E+00 -0.00000000000E+00 -0.44936657710E+03  0.44936657710E+03  0.00000000000E+00 0. -1.
         25    2    1    2    0    0  0.61244192400E+02 -0.55698348283E+02 -0.31037613567E+03  0.34472248255E+03  0.12508831791E+03 0.  0.
          5    1    3    3  502    0 -0.61245469796E+01  0.34010133684E+02 -0.47604760139E+02  0.58973594572E+02  0.41800000000E+01 0.  1.
         -5    1    3    3    0  502  0.67368739380E+02 -0.89708481967E+02 -0.26277137553E+03  0.28574888797E+03  0.41800000000E+01 0.  1.
        -11    1    1    2    0    0 -0.37386994214E+02  0.21020876200E+02  0.93753682266E+01  0.43904010090E+02  0.00000000000E+00 0.  1.
         11    1    1    2    0    0 -0.23857198186E+02  0.34677472083E+02 -0.10031659356E+03  0.10878930057E+03  0.00000000000E+00 0. -1.
</event>
<event>
 7    1  0.2844572E-009  0.1338023E+03  0.7561462E-02  0.1221920E+00
          2   -1    0    0  501    0  0.00000000000E+00  0.00000000000E+00  0.41760095493E+03  0.41760095493E+03  0.00000000000E+00 0. -1.
         -2   -1    0    0    0  501 -0.00000000000E+00 -0.00000000000E+00 -0.76788906546E+02  0.76788906546E+02  0.00000000000E+00 0.  1.
         25    2    1    2    0    0 -0.13059238423E+03 -0.20467763005E+02  0.25251354830E+03  0.31126246745E+03  0.12509169208E+03 0.  0.
          5    1    3    3  502    0 -0.11891165661E+03 -0.10472324434E+02  0.94124409673E+02  0.15207408903E+03  0.41800000000E+01 0. -1.
         -5    1    3    3    0  502 -0.11680727620E+02 -0.99954385702E+01  0.15838913862E+03  0.15918837842E+03  0.41800000000E+01 0. -1.
        -11    1    1    2    0    0  0.75259150866E+02  0.13446467941E+02 -0.25832481291E+01  0.76494577978E+02  0.00000000000E+00 0.  1.
         11    1    1    2    0    0  0.55333233368E+02  0.70212950637E+01  0.90881748215E+02  0.10663281605E+03  0.00000000000E+00 0. -1.
</event>
<event>
 7    1  0.2844572E-009  0.1932857E+03  0.7561462E-02  0.1155531E+00
         -1   -1    0    0    0  501 -0.00000000000E+00  0.00000000000E+00  0.77530334544E+02  0.77530334544E+02  0.00000000000E+00 0.  1.
          1   -1    0    0  501    0  0.00000000000E+00 -0.00000000000E+00 -0.61789311614E+03  0.61789311614E+03  0.00000000000E+00 0. -1.
         25    2    1    2    0    0 -0.18050705009E+03 -0.27061083840E+02 -0.19171668769E+03  0.29277586664E+03  0.12508925756E+03 0.  0.
          5    1    3    3  502    0  0.31107511419E+01  0.12563077488E+02 -0.64379678573E+02  0.65800631469E+02  0.41800000000E+01 0.  1.
         -5    1    3    3    0  502 -0.18361780123E+03 -0.39624161328E+02 -0.12733700912E+03  0.22697523517E+03  0.41800000000E+01 0.  1.
        -11    1    1    2    0    0  0.10962647188E+03  0.12131747904E+01 -0.12322472283E+03  0.16493564638E+03  0.00000000000E+00 0.  1.
         11    1    1    2    0    0  0.70880578212E+02  0.25847909050E+02 -0.22542137108E+03  0.23771193767E+03  0.00000000000E+00 0. -1.
</event>
<event>
 7    1  0.2844572E-009  0.1073568E+03  0.7561462E-02  0.1265545E+00
          2   -1    0    0  501    0  0.00000000000E+00  0.00000000000E+00  0.39749760465E+03  0.39749760465E+03  0.00000000000E+00 0.  1.
         -2   -1    0    0    0  501 -0.00000000000E+00 -0.00000000000E+00 -0.41349599457E+02  0.41349599457E+02  0.00000000000E+00 0. -1.
         25    2    1    2    0    0 -0.61099905372E+02 -0.25696711194E+02  0.23932935279E+03  0.27806233151E+03  0.12508637693E+03 0.  0.
          5    1    3    3  502    0 -0.15328781485E+01 -0.44474394010E+02  0.18227579801E+02  0.48270472376E+02  0.41800000000E+01 0. -1.
         -5    1    3    3    0  502 -0.59567027224E+02  0.18777682816E+02  0.22110177299E+03  0.22979185913E+03  0.41800000000E+01 0. -1.
        -11    1    1    2    0    0  0.51872277975E+02  0.55650833257E+02  0.98577055827E+02  0.12451981529E+03  0.00000000000E+00 0.  1.
         11    1    1    2    0    0  0.92276273972E+01 -0.29954122063E+02  0.18241596572E+02  0.36265057307E+02  0.00000000000E+00 0. -1.
</event>
<event>
 7    1  0.2844572E-009  0.9799598E+02  0.7561462E-02  0.1284567E+00
         -1   -1    0    0    0  501 -0.00000000000E+00  0.00000000000E+00  0.31028669914E+03  0.31028669914E+03  0.00000000000E+00 0.  1.
          1   -1    0    0  501    0  0.00000000000E+00 -0.00000000000E+00 -0.63411029863E+02  0.63411029863E+02  0.00000000000E+00 0. -1.
         25    2    1    2    0    0 -0.55067460251E+02  0.64291148865E+02  0.17359832673E+03  0.23010782058E+03  0.12508977995E+03 0.  0.
          5    1    3    3  502    0 -0.69402248956E+02  0.36082734464E+02  0.18110535433E+03  0.19732019069E+03  0.41800000000E+01 0. -1.
         -5    1    3    3    0  502  0.14334788705E+02  0.28208414402E+02 -0.75070276025E+01  0.32787629888E+02  0.41800000000E+01 0. -1.
        -11    1    1    2    0    0  0.19705405452E+02 -0.13630284508E+02 -0.20336355972E+02  0.31426979397E+02  0.00000000000E+00 0. -1.
         11    1    1    2    0    0  0.35362054800E+02 -0.50660864357E+02  0.93613698519E+02  0.11216292902E+03  0.00000000000E+00 0.  1.
</event>
<event>
 7    1  0.2844572E-009  0.1017294E+03  0.7561462E-02  0.1276701E+00
         -2   -1    0    0    0  501 -0.00000000000E+00  0.00000000000E+00  0.10376343993E+03  0.10376343993E+03  0.00000000000E+00 0.  1.
          2   -1    0    0  501    0  0.00000000000E+00 -0.00000000000E+00 -0.14707997594E+03  0.14707997594E+03  0.00000000000E+00 0. -1.
         25    2    1    2    0    0  0.35038015664E+02  0.43774122839E+02 -0.54063229947E+02  0.14735706906E+03  0.12508971420E+03 0.  0.
          5    1    3    3  502    0  0.79500078295E+02  0.39834369294E+02 -0.20488822830E+02  0.91347160256E+02  0.41800000000E+01 0. -1.
         -5    1    3    3    0  502 -0.44462062631E+02  0.39397535448E+01 -0.33574407117E+02  0.56009908808E+02  0.41800000000E+01 0. -1.
        -11    1    1    2    0    0  0.92335373439E+01 -0.11867400588E+02  0.39169871419E+02  0.41956790101E+02  0.00000000000E+00 0.  1.
         11    1    1    2    0    0 -0.44271553008E+02 -0.31906722251E+02 -0.28423177478E+02  0.61529556706E+02  0.00000000000E+00 0. -1.
</event>
<event>
 7    1  0.2844572E-009  0.6627754E+02  0.7561462E-02  0.1373229E+00
         -1   -1    0    0    0  501 -0.00000000000E+00  0.00000000000E+00  0.32893500525E+02  0.32893500525E+02  0.00000000000E+00 0.  1.
          1   -1    0    0  501    0  0.00000000000E+00 -0.00000000000E+00 -0.38211216927E+03  0.38211216927E+03  0.00000000000E+00 0. -1.
         25    2    1    2    0    0 -0.10362027136E+02 -0.19476730445E+02 -0.23839174199E+03  0.27011999988E+03  0.12508987589E+03 0.  0.
          5    1    3    3  502    0 -0.25128969085E+02 -0.89319056579E+01 -0.24779409761E+03  0.24926016777E+03  0.41800000000E+01 0. -1.
         -5    1    3    3    0  502  0.14766941949E+02 -0.10544824787E+02  0.94023556220E+01  0.20859832108E+02  0.41800000000E+01 0. -1.
        -11    1    1    2    0    0  0.46876289416E+02  0.32695456270E+01 -0.85565628674E+02  0.97619430690E+02  0.00000000000E+00 0. -1.
         11    1    1    2    0    0 -0.36514262280E+02  0.16207184818E+02 -0.25261298076E+02  0.47266239221E+02  0.00000000000E+00 0.  1.
</event>
<event>
 7    1  0.2844572E-009  0.1266808E+03  0.7561462E-02  0.1232466E+00
          1   -1    0    0  501    0  0.00000000000E+00  0.00000000000E+00  0.70230997808E+03  0.70230997808E+03  0.00000000000E+00 0. -1.
         -1   -1    0    0    0  501 -0.00000000000E+00 -0.00000000000E+00 -0.23626830979E+02  0.23626830979E+02  0.00000000000E+00 0.  1.
         25    2    1    2    0    0  0.64221367328E+02 -0.20793848466E+02  0.33329938167E+03  0.36234117619E+03  0.12508350007E+03 0.  0.
          5    1    3    3  502    0  0.10101419130E+03 -0.41689682543E+01  0.22587386898E+03  0.24750297822E+03  0.41800000000E+01 0.  1.
         -5    1    3    3    0  502 -0.36792823971E+02 -0.16624880212E+02  0.10742551268E+03  0.11483819797E+03  0.41800000000E+01 0.  1.
        -11    1    1    2    0    0 -0.86493620496E+02  0.10772706214E+02  0.23769368549E+03  0.25317086268E+03  0.00000000000E+00 0.  1.
         11    1    1    2    0    0  0.22272253168E+02  0.10021142253E+02  0.10769007994E+03  0.11042477019E+03  0.00000000000E+00 0. -1.
</event>
<event>
 7    1  0.2844572E-009  0.1497782E+03  0.7561462E-02  0.1200746E+00
         -2   -1    0    0    0  501 -0.00000000000E+00  0.00000000000E+00  0.11711575277E+02  0.11711575277E+02  0.00000000000E+00 0.  1.
          2   -1    0    0  501    0  0.00000000000E+00 -0.00000000000E+00 -0.22080040529E+04  0.22080040529E+04  0.00000000000E+00 0. -1.
         25    2    1    2    0    0  0.29922376380E+02 -0.10324424767E+03 -0.15117409863E+04  0.15207115485E+04  0.12509228875E+03 0.  0.
          5    1    3    3  502    0 -0.14079376377E+02 -0.11709869014E+03 -0.11414319244E+04  0.11475167286E+04  0.41800000000E+01 0. -1.
         -5    1    3    3    0  502  0.44001752757E+02  0.13854442470E+02 -0.37030906191E+03  0.37319481984E+03  0.41800000000E+01 0. -1.
        -11    1    1    2    0    0 -0.31788539683E+02  0.11704936512E+03 -0.65731661256E+03  0.66841319128E+03  0.00000000000E+00 0. -1.
         11    1    1    2    0    0  0.18661633028E+01 -0.13805117447E+02 -0.27234878720E+02  0.30590888383E+02  0.00000000000E+00 0.  1.
</event>
<event>
 6    1  0.3324001E-009  0.6764896E+02  0.7561462E-02  0.1368275E+00
         -1   -1    0    0    0  501 -0.00000000000E+00  0.00000000000E+00  0.65676655365E+02  0.65676655365E+02  0.00000000000E+00 0.  1.
          1   -1    0    0  501    0  0.00000000000E+00 -0.00000000000E+00 -0.23639930688E+03  0.23639930688E+03  0.00000000000E+00 0. -1.
          5    1    1    2  502    0 -0.66739680647E+01 -0.67946669310E+01 -0.16186849866E+03  0.16220231998E+03  0.41800000000E+01 0.  1.
         -5    1    1    2    0  502  0.28583355347E+02 -0.24909506978E+02  0.87916598976E+01  0.39144059888E+02  0.41800000000E+01 0.  1.
        -11    1    1    2    0    0 -0.48799346744E+02  0.53331787079E+01  0.14528714031E+02  0.51194751383E+02  0.00000000000E+00 0.  1.
         11    1    1    2    0    0  0.26889959462E+02  0.26370995201E+02 -0.32174526778E+02  0.49534830989E+02  0.00000000000E+00 0. -1.
</event>
<event>
 7    1  0.2844572E-009  0.1651567E+03  0.7561462E-02  0.1182995E+00
         -1   -1    0    0    0  501 -0.00000000000E+00  0.00000000000E+00  0.31083632526E+03  0.31083632526E+03  0.00000000000E+00 0.  1.
          1   -1    0    0  501    0  0.00000000000E+00 -0.00000000000E+00 -0.12766423835E+03  0.12766423835E+03  0.00000000000E+00 0. -1.
         25    2    1    2    0    0  0.10168178243E+03 -0.12056673242E+03  0.37252336771E+02  0.20472007366E+03  0.12508816939E+03 0.  0.
          5    1    3    3  502    0  0.28328373811E+02 -0.37185168743E+02 -0.46111440892E+02  0.65794915597E+02  0.41800000000E+01 0.  1.
         -5    1    3    3    0  502  0.73353408621E+02 -0.83381563674E+02  0.83363777663E+02  0.13892515806E+03  0.41800000000E+01 0.  1.
        -11    1    1    2    0    0 -0.48133216317E+02  0.96651792918E+01  0.95168462233E+01  0.50007925030E+02  0.00000000000E+00 0. -1.
         11    1    1    2    0    0 -0.53548566115E+02  0.11090155312E+03  0.13640290392E+03  0.18377256492E+03  0.00000000000E+00 0.  1.
</event>
<event>
 7    1  0.2844572E-009  0.1657892E+03  0.7561462E-02  0.1182312E+00
         -1   -1    0    0    0  501 -0.00000000000E+00  0.00000000000E+00  0.13429945553E+03  0.13429945553E+03  0.00000000000E+00 0.  1.
          1   -1    0    0  501    0  0.00000000000E+00 -0.00000000000E+00 -0.27008265407E+03  0.27008265407E+03  0.00000000000E+00 0. -1.
         25    2    1    2    0    0 -0.29325678660E+02  0.14283031275E+03 -0.13233616849E+02  0.19256920384E+03  0.12508907220E+03 0.  0.
          5    1    3    3  502    0 -0.22271712020E+02  0.16230139879E+01 -0.42441791504E+02  0.48139810934E+02  0.41800000000E+01 0.  1.
         -5    1    3    3    0  502 -0.70539666396E+01  0.14120729876E+03  0.29208174655E+02  0.14442939290E+03  0.41800000000E+01 0.  1.
        -11    1    1    2    0    0 -0.19738244732E+02 -0.10108672864E+03 -0.49051199468E+02  0.11407955637E+03  0.00000000000E+00 0.  1.
         11    1    1    2    0    0  0.49063923392E+02 -0.41743584111E+02 -0.73498382223E+02  0.97733349387E+02  0.00000000000E+00 0. -1.
</event>
<event>
 7    1  0.2844572E-009  0.7246346E+02  0.7561462E-02  0.1351911E+00
          2   -1    0    0  501    0  0.00000000000E+00  0.00000000000E+00  0.52014347277E+03  0.52014347277E+03  0.00000000000E+00 0. -1.
         -2   -1    0    0    0  501 -0.00000000000E+00 -0.00000000000E+00 -0.28348828221E+02  0.28348828221E+02  0.00000000000E+00 0.  1.
         25    2    1    2    0    0  0.41564089880E+02 -0.32966243081E+02  0.29257719597E+03  0.32258929366E+03  0.12509232602E+03 0.  0.
          5    1    3    3  502    0  0.29464260781E+02 -0.15128890093E+02  0.29808884633E+03  0.29995242737E+03  0.41800000000E+01 0.  1.
         -5    1    3    3    0  502  0.12099829099E+02 -0.17837352989E+02 -0.55116503534E+01  0.22636866291E+02  0.41800000000E+01 0.  1.
        -11    1    1    2    0    0 -0.41616753543E+02 -0.13016156021E+02  0.15881499288E+03  0.16469236915E+03  0.00000000000E+00 0. -1.
         11    1    1    2    0    0  0.52663663719E-01  0.45982399102E+02  0.40402455704E+02  0.61210638189E+02  0.00000000000E+00 0.  1.
</event>
<event>
 7    1  0.2844572E-009  0.1109768E+03  0.7561462E-02  0.1258772E+00
          2   -1    0    0  501    0  0.00000000000E+00  0.00000000000E+00  0.10197753319E+03  0.10197753319E+03  0.00000000000E+00 0. -1.
         -2   -1    0    0    0  501 -0.00000000000E+00 -0.00000000000E+00 -0.15863973455E+03  0.15863973455E+03  0.00000000000E+00 0.  1.
         25    2    1    2    0    0 -0.57429794686E+02  0.18919383471E+02 -0.50182652939E+01  0.13902845828E+03  0.12509038666E+03 0.  0.
          5    1    3    3  502    0  0.25900279781E+02  0.17120669535E+02 -0.38039294693E+02  0.49278820591E+02  0.41800000000E+01 0.  1.
         -5    1    3    3    0  502 -0.83330074466E+02  0.17987139356E+01  0.33021029399E+02  0.89749637687E+02  0.41800000000E+01 0.  1.
        -11    1    1    2    0    0  0.29759655445E+02 -0.54501545706E+02 -0.43415746782E+02  0.75769272434E+02  0.00000000000E+00 0.  1.
         11    1    1    2    0    0  0.27670139240E+02  0.35582162235E+02 -0.82281892815E+01  0.45819537031E+02  0.00000000000E+00 0. -1.
</event>
<event>
 7    1  0.2844572E-009  0.1827357E+03  0.7561462E-02  0.1165181E+00
          3   -1    0    0  501    0  0.00000000000E+00  0.00000000000E+00  0.27133399383E+03  0.27133399383E+03  0.00000000000E+00 0. -1.
         -3   -1    0    0    0  501 -0.00000000000E+00 -0.00000000000E+00 -0.15802430327E+03  0.15802430327E+03  0.00000000000E+00 0.  1.
         25    2    1    2    0    0  0.12201868617E+03 -0.11869150934E+03  0.13297716524E+02  0.21166566537E+03  0.12509712414E+03 0.  0.
          5    1    3    3  502    0  0.11863966270E+03 -0.79683305308E+02  0.56024740044E+02  0.15356120151E+03  0.41800000000E+01 0.  1.
         -5    1    3    3    0  502  0.33790234606E+01 -0.39008204031E+02 -0.42727023520E+02  0.58104463858E+02  0.41800000000E+01 0.  1.
        -11    1    1    2    0    0 -0.13042476235E+01  0.37764245519E+02  0.52714147721E+02  0.64858466459E+02  0.00000000000E+00 0. -1.
         11    1    1    2    0    0 -0.12071443854E+03  0.80927263820E+02  0.47297826320E+02  0.15283416528E+03  0.00000000000E+00 0.  1.
</event>
<event>
 7    1  0.2844572E-009  0.1300146E+03  0.7561462E-02  0.1227434E+00
         -2   -1    0    0    0  501 -0.00000000000E+00  0.00000000000E+00  0.28086750663E+03  0.28086750663E+03  0.00000000000E+00 0. -1.
          2   -1    0    0  501    0  0.00000000000E+00 -0.00000000000E+00 -0.92927493275E+02  0.92927493275E+02  0.00000000000E+00 0.  1.
         25    2    1    2    0    0  0.45655089034E+01 -0.10467238590E+03  0.16934191107E+03  0.23516261719E+03  0.12509045302E+03 0.  0.
          5    1    3    3  502    0 -0.31610372339E+02  0.10967921327E+02  0.72629369574E+02  0.80075018966E+02  0.41800000000E+01 0. -1.
         -5    1    3    3    0  502  0.36175881243E+02 -0.11564030723E+03  0.96712541494E+02  0.15508759822E+03  0.41800000000E+01 0. -1.
        -11    1    1    2    0    0  0.19418143898E+00  0.76453622609E+02  0.53636896658E+02  0.93392241645E+02  0.00000000000E+00 0. -1.
         11    1    1    2    0    0 -0.47596903424E+01  0.28218763293E+02 -0.35038794366E+02  0.45240141077E+02  0.00000000000E+00 0.  1.
</event>
<event>
 7    1  0.2844572E-009  0.9341237E+02  0.7561462E-02  0.1294792E+00
          1   -1    0    0  501    0  0.00000000000E+00  0.00000000000E+00  0.14989021401E+03  0.14989021401E+03  0.00000000000E+00 0. -1.
         -1   -1    0    0    0  501 -0.00000000000E+00 -0.00000000000E+00 -0.11373610596E+03  0.11373610596E+03  0.00000000000E+00 0.  1.
         25    2    1    2    0    0 -0.25062831087E+02  0.36278974909E+02  0.81123376855E+02  0.15547475292E+03  0.12508831680E+03 0.  0.
          5    1    3    3  502    0 -0.65290482827E+02  0.14845059982E+02  0.58042831762E+01  0.67337842680E+02  0.41800000000E+01 0.  1.
         -5    1    3    3    0  502  0.40227651740E+02  0.21433914927E+02  0.75319093679E+02  0.88136910238E+02  0.41800000000E+01 0.  1.
        -11    1    1    2    0    0 -0.15996537318E+01  0.15575341470E+02 -0.47273170078E+02  0.49798622101E+02  0.00000000000E+00 0.  1.
         11    1    1    2    0    0  0.26662484819E+02 -0.51854316379E+02  0.23039012744E+01  0.58352944956E+02  0.00000000000E+00 0. -1.
</event>
<event>
 7    1  0.2844572E-009  0.4028186E+03  0.7561462E-02  0.1042808E+00
          2   -1    0    0  501    0  0.00000000000E+00  0.00000000000E+00  0.36342044301E+04  0.36342044301E+04  0.00000000000E+00 0. -1.
         -2   -1    0    0    0  501 -0.00000000000E+00 -0.00000000000E+00 -0.52223359559E+02  0.52223359559E+02  0.00000000000E+00 0.  1.
         25    2    1    2    0    0  0.13839464597E+03 -0.36775762118E+03  0.24572369984E+04  0.24915978292E+04  0.12508928907E+03 0.  0.
          5    1    3    3  502    0  0.14729134838E+03 -0.23930429429E+03  0.18067923443E+04  0.18285177972E+04  0.41800000000E+01 0. -1.
         -5    1    3    3    0  502 -0.88967024099E+01 -0.12845332689E+03  0.65044465410E+03  0.66308003208E+03  0.41800000000E+01 0. -1.
        -11    1    1    2    0    0 -0.10574429624E+03  0.21535461994E+03  0.78904501385E+03  0.82471298183E+03  0.00000000000E+00 0. -1.
         11    1    1    2    0    0 -0.32650349736E+02  0.15240300124E+03  0.33569905830E+03  0.37011697863E+03  0.00000000000E+00 0.  1.
</event>
<event>
 7    1  0.2844572E-009  0.1124482E+03  0.7561462E-02  0.1256102E+00
         -4   -1    0    0    0  501 -0.00000000000E+00  0.00000000000E+00  0.28298445572E+02  0.28298445572E+02  0.00000000000E+00 0. -1.
          4   -1    0    0  501    0  0.00000000000E+00 -0.00000000000E+00 -0.47394006660E+03  0.47394006660E+03  0.00000000000E+00 0.  1.
         25    2    1    2    0    0  0.18708723126E+02 -0.27878411700E+02 -0.20070555510E+03  0.23886866200E+03  0.12509314802E+03 0.  0.
          5    1    3    3  502    0 -0.11121387193E+01  0.48711283982E+02 -0.94104463763E+02  0.10605257441E+03  0.41800000000E+01 0. -1.
         -5    1    3    3    0  502  0.19820861846E+02 -0.76589695682E+02 -0.10660109133E+03  0.13281608759E+03  0.41800000000E+01 0. -1.
        -11    1    1    2    0    0 -0.68452327111E+01  0.61106071824E+02 -0.15253916625E+03  0.16446582157E+03  0.00000000000E+00 0.  1.
         11    1    1    2    0    0 -0.11863490415E+02 -0.33227660124E+02 -0.92396899683E+02  0.98904028600E+02  0.00000000000E+00 0. -1.
</event>
<event>
 7    1  0.3049896E-009  0.1195600E+03  0.7561462E-02  0.1243825E+00
          1   -1    0    0  501    0  0.00000000000E+00  0.00000000000E+00  0.10572464059E+04  0.10572464059E+04  0.00000000000E+00 0. -1.
         -1   -1    0    0    0  501 -0.00000000000E+00 -0.00000000000E+00 -0.18703255180E+02  0.18703255180E+02  0.00000000000E+00 0.  1.
         25    2    1    2    0    0  0.79349221411E+02 -0.15957711177E+02  0.70849590567E+03  0.72399265095E+03  0.12509181741E+03 0.  0.
          5    1    3    3  502    0  0.25757601431E+02  0.42965527604E+02  0.11981353510E+03  0.12993169816E+03  0.41800000000E+01 0. -1.
         -5    1    3    3    0  502  0.53591619979E+02 -0.58923238781E+02  0.58868237057E+03  0.59406095278E+03  0.41800000000E+01 0. -1.
        -11    1    1    2    0    0 -0.14241594009E+02 -0.27392184431E+02  0.34784571858E+02  0.46509366875E+02  0.00000000000E+00 0.  1.
         11    1    1    2    0    0 -0.65107627402E+02  0.43349895608E+02  0.29526267324E+03  0.30544764331E+03  0.00000000000E+00 0. -1.
</event>
<event>
 7    1  0.2844572E-009  0.1222953E+03  0.7561462E-02  0.1239358E+00
          1   -1    0    0  501    0  0.00000000000E+00  0.00000000000E+00  0.41525186547E+03  0.41525186547E+03  0.00000000000E+00 0. -1.
         -1   -1    0    0    0  501 -0.00000000000E+00 -0.00000000000E+00 -0.59625972771E+02  0.59625972771E+02  0.00000000000E+00 0.  1.
         25    2    1    2    0    0 -0.92277544396E+02 -0.36147034419E+02  0.27296270212E+03  0.31619266538E+03  0.12508961427E+03 0.  0.
          5    1    3    3  502    0 -0.18871444170E+02  0.36464760587E+02  0.26771148692E+02  0.49193261449E+02  0.41800000000E+01 0. -1.
         -5    1    3    3    0  502 -0.73406100226E+02 -0.72611795006E+02  0.24619155342E+03  0.26699940393E+03  0.41800000000E+01 0. -1.
        -11    1    1    2    0    0  0.72891484820E+02  0.22533774522E+02  0.38534765614E+01  0.76392334924E+02  0.00000000000E+00 0.  1.
         11    1    1    2    0    0  0.19386059576E+02  0.13613259897E+02  0.78809714019E+02  0.82292837930E+02  0.00000000000E+00 0. -1.
</event>
<event>
 7    1  0.2844572E-009  0.3332868E+03  0.7561462E-02  0.1069692E+00
          2   -1    0    0  501    0  0.00000000000E+00  0.00000000000E+00  0.14904805233E+04  0.14904805233E+04  0.00000000000E+00 0. -1.
         -2   -1    0    0    0  501 -0.00000000000E+00 -0.00000000000E+00 -0.10691854513E+03  0.10691854513E+03  0.00000000000E+00 0.  1.
         25    2    1    2    0    0 -0.10889894998E+03  0.30688993830E+03  0.11080415890E+04  0.11616564474E+04  0.12509645529E+03 0.  0.
          5    1    3    3  502    0 -0.11997722943E+03  0.23277862537E+03  0.96757861991E+03  0.10024002604E+04  0.41800000000E+01 0.  1.
         -5    1    3    3    0  502  0.11078279450E+02  0.74111312924E+02  0.14046296913E+03  0.15925618693E+03  0.41800000000E+01 0.  1.
        -11    1    1    2    0    0  0.30342324943E+02 -0.16178355426E+03  0.18466125610E+03  0.24737492722E+03  0.00000000000E+00 0.  1.
         11    1    1    2    0    0  0.78556625034E+02 -0.14510638404E+03  0.90859133000E+02  0.18836769382E+03  0.00000000000E+00 0. -1.
</event>
<event>
 7    1  0.2844572E-009  0.3977558E+02  0.7561462E-02  0.1509870E+00
          2   -1    0    0  501    0  0.00000000000E+00  0.00000000000E+00  0.90756507131E+02  0.90756507131E+02  0.00000000000E+00 0.  1.
         -2   -1    0    0    0  501 -0.00000000000E+00 -0.00000000000E+00 -0.13651893977E+03  0.13651893977E+03  0.00000000000E+00 0. -1.
         25    2    1    2    0    0 -0.75677712403E+01  0.20452446531E+02 -0.19974540239E+02  0.12853911529E+03  0.12509095959E+03 0.  0.
          5    1    3    3  502    0  0.89018539809E+01  0.98080576246E+01  0.52000493034E+02  0.53823458403E+02  0.41800000000E+01 0. -1.
         -5    1    3    3    0  502 -0.16469625221E+02  0.10644388907E+02 -0.71975033273E+02  0.74715656892E+02  0.41800000000E+01 0. -1.
        -11    1    1    2    0    0 -0.16075259672E+02 -0.33227682337E+01  0.30889924147E+02  0.34980597137E+02  0.00000000000E+00 0.  1.
         11    1    1    2    0    0  0.23643030912E+02 -0.17129678297E+02 -0.56677816550E+02  0.63755734473E+02  0.00000000000E+00 0. -1.
</event>
<event>
 7    1  0.2844572E-009  0.9646430E+02  0.7561462E-02  0.1287912E+00
          2   -1    0    0  501    0  0.00000000000E+00  0.00000000000E+00  0.68311637242E+03  0.68311637242E+03  0.00000000000E+00 0. -1.
         -2   -1    0    0    0  501 -0.00000000000E+00 -0.00000000000E+00 -0.26386491908E+02  0.26386491908E+02  0.00000000000E+00 0.  1.
         25    2    1    2    0    0  0.43951206971E+02  0.39033228894E+02  0.50663003478E+03  0.52514796590E+03  0.12510432607E+03 0.  0.
          5    1    3    3  502    0 -0.20199120341E+01 -0.21910920914E+02  0.13552247402E+02  0.26178317547E+02  0.41800000000E+01 0. -1.
         -5    1    3    3    0  502  0.45971119005E+02  0.60944149809E+02  0.49307778737E+03  0.49896964836E+03  0.41800000000E+01 0. -1.
        -11    1    1    2    0    0 -0.22251424321E+02  0.20783191217E+02  0.96395997466E+02  0.10109033212E+03  0.00000000000E+00 0. -1.
         11    1    1    2    0    0 -0.21699782650E+02 -0.59816420111E+02  0.53703848266E+02  0.83264566297E+02  0.00000000000E+00 0.  1.
</event>
<event>
 7    1  0.3552951E-009  0.1522784E+03  0.7561462E-02  0.1197701E+00
          2   -1    0    0  501    0  0.00000000000E+00  0.00000000000E+00  0.11368505222E+04  0.11368505222E+04  0.00000000000E+00 0. -1.
         -2   -1    0    0    0  501 -0.00000000000E+00 -0.00000000000E+00 -0.27946468883E+02  0.27946468883E+02  0.00000000000E+00 0.  1.
         25    2    1    2    0    0  0.37729481809E+02 -0.11145478275E+03  0.84175665570E+03  0.85909706530E+03  0.12509123787E+03 0.  0.
          5    1    3    3  502    0  0.74336266886E+02 -0.10335312216E+03  0.73294927007E+03  0.74393538249E+03  0.41800000000E+01 0. -1.
         -5    1    3    3    0  502 -0.36606785077E+02 -0.81016605949E+01  0.10880738563E+03  0.11516168280E+03  0.41800000000E+01 0. -1.
        -11    1    1    2    0    0  0.19623234274E+02  0.57325413222E+02  0.65742432322E+02  0.89405490503E+02  0.00000000000E+00 0. -1.
         11    1    1    2    0    0 -0.57352716083E+02  0.54129369527E+02  0.20140496528E+03  0.21629443526E+03  0.00000000000E+00 0.  1.
</event>
<event>
 7    1  0.2844572E-009  0.1048402E+03  0.7561462E-02  0.1270435E+00
          1   -1    0    0  501    0  0.00000000000E+00  0.00000000000E+00  0.24623014064E+03  0.24623014064E+03  0.00000000000E+00 0. -1.
         -1   -1    0    0    0  501 -0.00000000000E+00 -0.00000000000E+00 -0.64591261738E+02  0.64591261738E+02  0.00000000000E+00 0.  1.
         25    2    1    2    0    0  0.13586374156E+02  0.46427152719E+02  0.74756395018E+02  0.15354686251E+03  0.12509216729E+03 0.  0.
          5    1    3    3  502    0  0.67175942066E+02  0.15252615925E+02  0.55295090023E+02  0.88432284069E+02  0.41800000000E+01 0. -1.
         -5    1    3    3    0  502 -0.53589567911E+02  0.31174536794E+02  0.19461304995E+02  0.65114578439E+02  0.41800000000E+01 0. -1.
        -11    1    1    2    0    0 -0.11805257786E+02  0.13865714384E+02 -0.13471005843E+02  0.22651493222E+02  0.00000000000E+00 0.  1.
         11    1    1    2    0    0 -0.17811163694E+01 -0.60292867103E+02  0.12035348973E+03  0.13462304665E+03  0.00000000000E+00 0. -1.
</event>
<event>
 7    1  0.2844572E-009  0.1020165E+03  0.7561462E-02  0.1276112E+00
         -1   -1    0    0    0  501 -0.00000000000E+00  0.00000000000E+00  0.48866650830E+02  0.48866650830E+02  0.00000000000E+00 0.  1.
          1   -1    0    0  501    0  0.00000000000E+00 -0.00000000000E+00 -0.33307263993E+03  0.33307263993E+03  0.00000000000E+00 0. -1.
         25    2    1    2    0    0  0.65511777929E+02  0.10202283427E+02 -0.16328276811E+03  0.21611073565E+03  0.12508680212E+03 0.  0.
          5    1    3    3  502    0  0.42178093143E+02  0.36804424863E+02 -0.78908053148E+01  0.56685928053E+02  0.41800000000E+01 0. -1.
         -5    1    3    3    0  502  0.23333684786E+02 -0.26602141436E+02 -0.15539196280E+03  0.15942480760E+03  0.41800000000E+01 0. -1.
        -11    1    1    2    0    0 -0.74381196172E+02  0.23035594664E+02 -0.94520158329E+02  0.12246330592E+03  0.00000000000E+00 0.  1.
         11    1    1    2    0    0  0.88694182434E+01 -0.33237878092E+02 -0.26403062657E+02  0.43365249194E+02  0.00000000000E+00 0. -1.
</event>
<event>
 7    1  0.2844572E-009  0.9978058E+02  0.7561462E-02  0.1280758E+00
          2   -1    0    0  501    0  0.00000000000E+00  0.00000000000E+00  0.18852592628E+03  0.18852592628E+03  0.00000000000E+00 0. -1.
         -2   -1    0    0    0  501 -0.00000000000E+00 -0.00000000000E+00 -0.72645690553E+02  0.72645690553E+02  0.00000000000E+00 0.  1.
         25    2    1    2    0    0  0.38328834373E+02 -0.22318816152E+02  0.46595001477E+02  0.14065671987E+03  0.12508393016E+03 0.  0.
          5    1    3    3  502    0  0.41919236161E+01  0.46177604768E+02 -0.70727455468E+01  0.47089696700E+02  0.41800000000E+01 0.  1.
         -5    1    3    3    0  502  0.34136910757E+02 -0.68496420920E+02  0.53667747024E+02  0.93567023173E+02  0.41800000000E+01 0.  1.
        -11    1    1    2    0    0 -0.55097324296E+02  0.22692144229E+02  0.80635072945E+02  0.10026297194E+03  0.00000000000E+00 0. -1.
         11    1    1    2    0    0  0.16768489923E+02 -0.37332807729E+00 -0.11349838700E+02  0.20251925011E+02  0.00000000000E+00 0.  1.
</event>
<event>
 7    1  0.2844572E-009  0.1031213E+03  0.7561462E-02  0.1273866E+00
         -1   -1    0    0    0  501 -0.00000000000E+00  0.00000000000E+00  0.87291059461E+03  0.87291059461E+03  0.00000000000E+00 0.  1.
          1   -1    0    0  501    0  0.00000000000E+00 -0.00000000000E+00 -0.24574682124E+02  0.24574682124E+02  0.00000000000E+00 0. -1.
         25    2    1    2    0    0  0.29305370854E+02 -0.64185286876E+02  0.67391457415E+03  0.68904789957E+03  0.12509036268E+03 0.  0.
          5    1    3    3  502    0 -0.44099959264E+02 -0.23504692249E+02  0.38208699790E+03  0.38536375457E+03  0.41800000000E+01 0. -1.
         -5    1    3    3    0  502  0.73405330119E+02 -0.40680594626E+02  0.29182757625E+03  0.30368414500E+03  0.41800000000E+01 0. -1.
        -11    1    1    2    0    0 -0.54009576292E+01  0.29198838073E+02  0.16139989831E+03  0.16410871294E+03  0.00000000000E+00 0.  1.
         11    1    1    2    0    0 -0.23904413225E+02  0.34986448803E+02  0.13021440022E+02  0.44328664222E+02  0.00000000000E+00 0. -1.
</event>
<event>
 7    1  0.2844572E-009  0.9640111E+02  0.7561462E-02  0.1288051E+00
         -2   -1    0    0    0  501 -0.00000000000E+00  0.00000000000E+00  0.20846190071E+02  0.20846190071E+02  0.00000000000E+00 0.  1.
          2   -1    0    0  501    0  0.00000000000E+00 -0.00000000000E+00 -0.65285748063E+03  0.65285748063E+03  0.00000000000E+00 0. -1.
         25    2    1    2    0    0 -0.61173938367E+01 -0.19995145711E+02 -0.47183943835E+03  0.48858683379E+03  0.12508960871E+03 0.  0.
          5    1    3    3  502    0  0.56197671079E+02 -0.19332214566E+02 -0.29724799706E+03  0.30315962282E+03  0.41800000000E+01 0. -1.
         -5    1    3    3    0  502 -0.62315064915E+02 -0.66293114538E+00 -0.17459144130E+03  0.18542721097E+03  0.41800000000E+01 0. -1.
        -11    1    1    2    0    0  0.23624624756E+02 -0.17490433441E+02 -0.12822643839E+02  0.32069586088E+02  0.00000000000E+00 0.  1.
         11    1    1    2    0    0 -0.17507230919E+02  0.37485579152E+02 -0.14734920836E+03  0.15304725082E+03  0.00000000000E+00 0. -1.
</event>
<event>
 7    1  0.2844572E-009  0.1071991E+03  0.7561462E-02  0.1265846E+00
          1   -1    0    0  501    0  0.00000000000E+00  0.00000000000E+00  0.32392082457E+03  0.32392082457E+03  0.00000000000E+00 0. -1.
         -1   -1    0    0    0  501 -0.00000000000E+00 -0.00000000000E+00 -0.11057561379E+03  0.11057561379E+03  0.00000000000E+00 0.  1.
         25    2    1    2    0    0  0.26057330155E+02  0.81256773868E+02 -0.36134255342E+02  0.15567297514E+03  0.12508694187E+03 0.  0.
          5    1    3    3  502    0  0.57394660278E+02  0.27117651313E+02  0.24768548429E+02  0.68267616279E+02  0.41800000000E+01 0.  1.
         -5    1    3    3    0  502 -0.31337330123E+02  0.54139122555E+02 -0.60902803772E+02  0.87405358860E+02  0.41800000000E+01 0.  1.
        -11    1    1    2    0    0 -0.34191821732E+01 -0.46396574389E+02  0.29804675435E+02  0.55250806325E+02  0.00000000000E+00 0.  1.
         11    1    1    2    0    0 -0.22638147982E+02 -0.34860199478E+02  0.21967479069E+03  0.22357265690E+03  0.00000000000E+00 0. -1.
</event>
<event>
 7    1  0.2844572E-009  0.8917064E+02  0.7561462E-02  0.1304873E+00
          4   -1    0    0  501    0  0.00000000000E+00  0.00000000000E+00  0.92105843364E+02  0.92105843364E+02  0.00000000000E+00 0. -1.
         -4   -1    0    0    0  501 -0.00000000000E+00 -0.00000000000E+00 -0.13828854993E+03  0.13828854993E+03  0.00000000000E+00 0.  1.
         25    2    1    2    0    0 -0.23478274997E+02 -0.25179504384E+02  0.36615291263E+01  0.12979291631E+03  0.12509019743E+03 0.  0.
          5    1    3    3  502    0  0.26794614700E+02  0.32722283092E+02  0.25992069077E+02  0.49817258482E+02  0.41800000000E+01 0.  1.
         -5    1    3    3    0  502 -0.50272889697E+02 -0.57901787475E+02 -0.22330539951E+02  0.79975657833E+02  0.41800000000E+01 0.  1.
        -11    1    1    2    0    0  0.38075962921E+02  0.22434704178E+02  0.43511088300E+01  0.44407511211E+02  0.00000000000E+00 0. -1.
         11    1    1    2    0    0 -0.14597687924E+02  0.27448002058E+01 -0.54195344522E+02  0.56193965768E+02  0.00000000000E+00 0.  1.
</event>
<event>
 7    1  0.2844572E-009  0.1266440E+03  0.7561462E-02  0.1232522E+00
          1   -1    0    0  501    0  0.00000000000E+00  0.00000000000E+00  0.18963422252E+02  0.18963422252E+02  0.00000000000E+00 0. -1.
         -1   -1    0    0    0  501 -0.00000000000E+00 -0.00000000000E+00 -0.13657927544E+04  0.13657927544E+04  0.00000000000E+00 0.  1.
         25    2    1    2    0    0  0.87962802144E+02 -0.45826763051E+02 -0.99888055741E+03  0.10115563989E+04  0.12508570414E+03 0.  0.
          5    1    3    3  502    0  0.10248279053E+03 -0.38691360310E+02 -0.98091369730E+03  0.98702021138E+03  0.41800000000E+01 0.  1.
         -5    1    3    3    0  502 -0.14519988390E+02 -0.71354027407E+01 -0.17966860110E+02  0.24536187506E+02  0.41800000000E+01 0.  1.
        -11    1    1    2    0    0 -0.67197496510E+02 -0.94945777806E+01 -0.12150240180E+03  0.13917070162E+03  0.00000000000E+00 0.  1.
         11    1    1    2    0    0 -0.20765305635E+02  0.55321340831E+02 -0.22644637298E+03  0.23402907620E+03  0.00000000000E+00 0. -1.
</event>
<event>
 7    1  0.2844572E-009  0.1258638E+03  0.7561462E-02  0.1233725E+00
          2   -1    0    0  501    0  0.00000000000E+00  0.00000000000E+00  0.30724566545E+03  0.30724566545E+03  0.00000000000E+00 0. -1.
         -2   -1    0    0    0  501 -0.00000000000E+00 -0.00000000000E+00 -0.54209741391E+02  0.54209741391E+02  0.00000000000E+00 0.  1.
         25    2    1    2    0    0 -0.15689619145E+02  0.66378256909E+02  0.17184152174E+03  0.22321894177E+03  0.12507977547E+03 0.  0.
          5    1    3    3  502    0 -0.99077171225E+01 -0.36997913105E+02  0.40130548951E+02  0.55632201034E+02  0.41800000000E+01 0.  1.
         -5    1    3    3    0  502 -0.57819020226E+01  0.10337617001E+03  0.13171097279E+03  0.16758674074E+03  0.41800000000E+01 0.  1.
        -11    1    1    2    0    0 -0.26220248455E+01  0.20562177460E+02  0.53224883303E+01  0.21401098995E+02  0.00000000000E+00 0.  1.
         11    1    1    2    0    0  0.18311643991E+02 -0.86940434368E+02  0.75871913990E+02  0.11683536608E+03  0.00000000000E+00 0. -1.
</event>
<event>
 7    1  0.2844572E-009  0.2164027E+03  0.7561462E-02  0.1136594E+00
          2   -1    0    0  501    0  0.00000000000E+00  0.00000000000E+00  0.86972608486E+03  0.86972608486E+03  0.00000000000E+00 0.  1.
         -2   -1    0    0    0  501 -0.00000000000E+00 -0.00000000000E+00 -0.56159596009E+02  0.56159596009E+02  0.00000000000E+00 0. -1.
         25    2    1    2    0    0  0.18545414980E+03 -0.32477349463E+02  0.34454574473E+03  0.41207533961E+03  0.12508515261E+03 0.  0.
          5    1    3    3  502    0  0.12290247164E+03  0.40516879421E+02  0.18634144434E+03  0.22690800191E+03  0.41800000000E+01 0. -1.
         -5    1    3    3    0  502  0.62551678155E+02 -0.72994228884E+02  0.15820430039E+03  0.18516733770E+03  0.41800000000E+01 0. -1.
        -11    1    1    2    0    0 -0.16520163326E+03  0.57495355414E+02  0.36186906839E+03  0.40192849885E+03  0.00000000000E+00 0. -1.
         11    1    1    2    0    0 -0.20252516534E+02 -0.25018005951E+02  0.10715167573E+03  0.11188184240E+03  0.00000000000E+00 0.  1.
</event>
<event>
 7    1  0.2844572E-009  0.1032932E+03  0.7561462E-02  0.1273519E+00
          1   -1    0    0  501    0  0.00000000000E+00  0.00000000000E+00  0.64212268935E+02  0.64212268935E+02  0.00000000000E+00 0. -1.
         -1   -1    0    0    0  501 -0.00000000000E+00 -0.00000000000E+00 -0.24062673964E+03  0.24062673964E+03  0.00000000000E+00 0.  1.
         25    2    1    2    0    0  0.14409664928E+02 -0.34768701793E+02 -0.41375316673E+02  0.13702536681E+03  0.12509010053E+03 0.  0.
          5    1    3    3  502    0 -0.50425209268E+02  0.30232332167E+01  0.10841490580E+01  0.50699994556E+02  0.41800000000E+01 0. -1.
         -5    1    3    3    0  502  0.64834874196E+02 -0.37791935010E+02 -0.42459465731E+02  0.86325372249E+02  0.41800000000E+01 0. -1.
        -11    1    1    2    0    0  0.29172100325E+02  0.11754449441E+02 -0.10609321589E+03  0.11065689756E+03  0.00000000000E+00 0.  1.
         11    1    1    2    0    0 -0.43581765253E+02  0.23014252352E+02 -0.28945938140E+02  0.57156744210E+02  0.00000000000E+00 0. -1.
</event>
<event>
 7    1  0.2844572E-009  0.1041974E+03  0.7561462E-02  0.1271709E+00
          2   -1    0    0  501    0  0.00000000000E+00  0.00000000000E+00  0.10421096318E+04  0.10421096318E+04  0.00000000000E+00 0. -1.
         -2   -1    0    0    0  501 -0.00000000000E+00 -0.00000000000E+00 -0.10897511106E+02  0.10897511106E+02  0.00000000000E+00 0.  1.
         25    2    1    2    0    0 -0.16805927019E+02  0.84204153536E+01  0.62504432619E+03  0.63771583274E+03  0.12509089117E+03 0.  0.
          5    1    3    3  502    0  0.24246372519E+01  0.63418226465E+02  0.24084717232E+03  0.24910355904E+03  0.41800000000E+01 0.  1.
         -5    1    3    3    0  502 -0.19230564270E+02 -0.54997811111E+02  0.38419715387E+03  0.38861227370E+03  0.41800000000E+01 0.  1.
        -11    1    1    2    0    0  0.41841495394E+02 -0.31465616213E+02  0.25946334950E+03  0.26469232228E+03  0.00000000000E+00 0. -1.
         11    1    1    2    0    0 -0.25035568375E+02  0.23045200859E+02  0.14670444497E+03  0.15059898784E+03  0.00000000000E+00 0.  1.
</event>
<event>
 7    1  0.2844572E-009  0.1531273E+03  0.7561462E-02  0.1196682E+00
         -1   -1    0    0    0  501 -0.00000000000E+00  0.00000000000E+00  0.12494622304E+03  0.12494622304E+03  0.00000000000E+00 0.  1.
          1   -1    0    0  501    0  0.00000000000E+00 -0.00000000000E+00 -0.27162063077E+03  0.27162063077E+03  0.00000000000E+00 0. -1.
         25    2    1    2    0    0  0.12777959812E+03 -0.56515709699E+02 -0.24663104260E+02  0.18914435109E+03  0.12508263548E+03 0.  0.
          5    1    3    3  502    0  0.71514551767E+02  0.24439590280E+01 -0.66203787502E+02  0.97574166303E+02  0.41800000000E+01 0.  1.
         -5    1    3    3    0  502  0.56265046352E+02 -0.58959668727E+02  0.41540683242E+02  0.91570184785E+02  0.41800000000E+01 0.  1.
        -11    1    1    2    0    0 -0.82125252683E+02  0.67162701441E+02 -0.12045936459E+03  0.16051742619E+03  0.00000000000E+00 0. -1.
         11    1    1    2    0    0 -0.45654345436E+02 -0.10646991742E+02 -0.15519388729E+01  0.46905076533E+02  0.00000000000E+00 0.  1.
</event>
<event>
 7    1  0.2844572E-009  0.2319948E+03  0.7561462E-02  0.1125244E+00
          2   -1    0    0  501    0  0.00000000000E+00  0.00000000000E+00  0.48516415433E+02  0.48516415433E+02  0.00000000000E+00 0. -1.
         -2   -1    0    0    0  501 -0.00000000000E+00 -0.00000000000E+00 -0.12909285402E+04  0.12909285402E+04  0.00000000000E+00 0.  1.
         25    2    1    2    0    0 -0.19837027342E+03 -0.93956031081E+02 -0.78012824198E+03  0.82001545052E+03  0.12508702573E+03 0.  0.
          5    1    3    3  502    0 -0.16842273784E+03 -0.11027031339E+03 -0.51991273581E+03  0.55754146563E+03  0.41800000000E+01 0.  1.
         -5    1    3    3    0  502 -0.29947535579E+02  0.16314282311E+02 -0.26021550617E+03  0.26247398489E+03  0.41800000000E+01 0.  1.
        -11    1    1    2    0    0  0.81532332061E+02  0.73280761883E+02 -0.15343975470E+03  0.18857717136E+03  0.00000000000E+00 0.  1.
         11    1    1    2    0    0  0.11683794136E+03  0.20675269198E+02 -0.30884412807E+03  0.33085233374E+03  0.00000000000E+00 0. -1.
</event>
<event>
 7    1  0.2844572E-009  0.1334731E+03  0.7561462E-02  0.1222391E+00
          1   -1    0    0  501    0  0.00000000000E+00  0.00000000000E+00  0.93544691315E+03  0.93544691315E+03  0.00000000000E+00 0. -1.
         -1   -1    0    0    0  501 -0.00000000000E+00 -0.00000000000E+00 -0.21016009751E+02  0.21016009751E+02  0.00000000000E+00 0.  1.
         25    2    1    2    0    0 -0.81155145408E+01 -0.84182194547E+02  0.44208095302E+03  0.46715695982E+03  0.12509017798E+03 0.  0.
          5    1    3    3  502    0  0.51058482505E+02 -0.23318591624E+02  0.26267108851E+03  0.26863413501E+03  0.41800000000E+01 0. -1.
         -5    1    3    3    0  502 -0.59173997046E+02 -0.60863602923E+02  0.17940986451E+03  0.19852282481E+03  0.41800000000E+01 0. -1.
        -11    1    1    2    0    0 -0.42463155678E+02  0.43146990233E+02  0.27118874436E+03  0.27786348703E+03  0.00000000000E+00 0. -1.
         11    1    1    2    0    0  0.50578670219E+02  0.41035204314E+02  0.20116120602E+03  0.21144247606E+03  0.00000000000E+00 0.  1.
</event>
<event>
 7    1  0.2844572E-009  0.1176592E+03  0.7561462E-02  0.1247009E+00
         -1   -1    0    0    0  501 -0.00000000000E+00  0.00000000000E+00  0.35942726806E+02  0.35942726806E+02  0.00000000000E+00 0.  1.
          1   -1    0    0  501    0  0.00000000000E+00 -0.00000000000E+00 -0.56385393690E+03  0.56385393690E+03  0.00000000000E+00 0. -1.
         25    2    1    2    0    0 -0.35806461856E+02  0.76026413256E+02 -0.19329671876E+03  0.24512033405E+03  0.12513288319E+03 0.  0.
          5    1    3    3  502    0  0.18535672277E+02  0.86002328667E+02 -0.79931602118E+02  0.11893908147E+03  0.41800000000E+01 0. -1.
         -5    1    3    3    0  502 -0.54342134133E+02 -0.99759154106E+01 -0.11336511665E+03  0.12618125258E+03  0.41800000000E+01 0. -1.
        -11    1    1    2    0    0  0.23960773230E+02 -0.12143886842E+02 -0.20176084248E+02  0.33595639851E+02  0.00000000000E+00 0.  1.
         11    1    1    2    0    0  0.11845688626E+02 -0.63882526414E+02 -0.31443840708E+03  0.32108068981E+03  0.00000000000E+00 0. -1.
</event>
<event>
 7    1  0.2844572E-009  0.1158180E+03  0.7561462E-02  0.1250160E+00
          2   -1    0    0  501    0  0.00000000000E+00  0.00000000000E+00  0.28512765974E+03  0.28512765974E+03  0.00000000000E+00 0. -1.
         -2   -1    0    0    0  501 -0.00000000000E+00 -0.00000000000E+00 -0.53151656696E+02  0.53151656696E+02  0.00000000000E+00 0.  1.
         25    2    1    2    0    0  0.53176626890E+02  0.22376998115E+02  0.14413381108E+03  0.19937531180E+03  0.12508987076E+03 0.  0.
          5    1    3    3  502    0 -0.39809518227E+02  0.69061785449E+01  0.62856529379E+02  0.74839219191E+02  0.41800000000E+01 0.  1.
         -5    1    3    3    0  502  0.92986145117E+02  0.15470819570E+02  0.81277281702E+02  0.12453609261E+03  0.41800000000E+01 0.  1.
        -11    1    1    2    0    0 -0.59235740846E+02 -0.44265274070E+02  0.89541478691E+02  0.11612908287E+03  0.00000000000E+00 0. -1.
         11    1    1    2    0    0  0.60591139556E+01  0.21888275955E+02 -0.16992867223E+01  0.22774921769E+02  0.00000000000E+00 0.  1.
</event>
<event>
 7    1  0.2844572E-009  0.1921975E+03  0.7561462E-02  0.1156494E+00
          3   -1    0    0  501    0  0.00000000000E+00  0.00000000000E+00  0.33423834622E+03  0.33423834622E+03  0.00000000000E+00 0. -1.
         -3   -1    0    0    0  501 -0.00000000000E+00 -0.00000000000E+00 -0.13618226427E+03  0.13618226427E+03  0.00000000000E+00 0.  1.
         25    2    1    2    0    0  0.16142385010E+03  0.17916797445E+02  0.95776964590E+01  0.20522605392E+03  0.12508928781E+03 0.  0.
          5    1    3    3  502    0  0.17914561764E+03  0.30907133206E+02  0.14173507865E+02  0.18239178690E+03  0.41800000000E+01 0. -1.
         -5    1    3    3    0  502 -0.17721767537E+02 -0.12990335761E+02 -0.45958114063E+01  0.22834267019E+02  0.41800000000E+01 0. -1.
        -11    1    1    2    0    0 -0.57353169255E+02 -0.44712679789E+02  0.43534360843E+02  0.84757597485E+02  0.00000000000E+00 0.  1.
         11    1    1    2    0    0 -0.10407068085E+03  0.26795882344E+02  0.14494402465E+03  0.18043695909E+03  0.00000000000E+00 0. -1.
</event>
<event>
 7    1  0.2844572E-009  0.1178333E+03  0.7561462E-02  0.1246715E+00
          2   -1    0    0  501    0  0.00000000000E+00  0.00000000000E+00  0.16659152016E+04  0.16659152016E+04  0.00000000000E+00 0. -1.
         -2   -1    0    0    0  501 -0.00000000000E+00 -0.00000000000E+00 -0.18756251286E+02  0.18756251286E+02  0.00000000000E+00 0.  1.
         25    2    1    2    0    0  0.71161416471E+02  0.92430167322E+02  0.12946715289E+04  0.13059207922E+04  0.12508982628E+03 0.  0.
          5    1    3    3  502    0  0.17313874275E+02  0.18591523978E+02  0.37865125059E+02  0.45789246576E+02  0.41800000000E+01 0. -1.
         -5    1    3    3    0  502  0.53847542196E+02  0.73838643344E+02  0.12568064038E+04  0.12601315456E+04  0.41800000000E+01 0.  1.
        -11    1    1    2    0    0 -0.10240930027E+01 -0.10653498889E+02  0.57652305925E+00  0.10718124085E+02  0.00000000000E+00 0.  1.
         11    1    1    2    0    0 -0.70137323469E+02 -0.81776668433E+02  0.35191089838E+03  0.36803253666E+03  0.00000000000E+00 0. -1.
</event>
<event>
 7    1  0.2844572E-009  0.1101180E+03  0.7561462E-02  0.1260351E+00
         -3   -1    0    0    0  501 -0.00000000000E+00  0.00000000000E+00  0.25252357931E+03  0.25252357931E+03  0.00000000000E+00 0.  1.
          3   -1    0    0  501    0  0.00000000000E+00 -0.00000000000E+00 -0.49985046597E+02  0.49985046597E+02  0.00000000000E+00 0. -1.
         25    2    1    2    0    0  0.31166081043E+02 -0.54468597584E+01  0.98484358150E+02  0.16233162172E+03  0.12510553034E+03 0.  0.
          5    1    3    3  502    0  0.69863960623E+02  0.27639992017E+02  0.42016548290E+02  0.86184713742E+02  0.41800000000E+01 0.  1.
         -5    1    3    3    0  502 -0.38697879581E+02 -0.33086851775E+02  0.56467809861E+02  0.76146907980E+02  0.41800000000E+01 0.  1.
        -11    1    1    2    0    0 -0.47708132559E+02  0.35587893725E+02  0.67529151443E+02  0.90015278629E+02  0.00000000000E+00 0.  1.
         11    1    1    2    0    0  0.16542051516E+02 -0.30141033967E+02  0.36525023124E+02  0.50161725560E+02  0.00000000000E+00 0. -1.
</event>
<event>
 7    1  0.2844572E-009  0.9926743E+02  0.7561462E-02  0.1281844E+00
          1   -1    0    0  501    0  0.00000000000E+00  0.00000000000E+00  0.22189371461E+03  0.22189371461E+03  0.00000000000E+00 0. -1.
         -1   -1    0    0    0  501 -0.00000000000E+00 -0.00000000000E+00 -0.74627476123E+02  0.74627476123E+02  0.00000000000E+00 0.  1.
         25    2    1    2    0    0 -0.20522289514E+02 -0.34078077198E+02  0.16200051902E+02  0.13225152247E+03  0.12508214821E+03 0.  0.
          5    1    3    3  502    0 -0.24487316981E+02 -0.80311342641E+02  0.16450534370E+02  0.85659984419E+02  0.41800000000E+01 0.  1.
         -5    1    3    3    0  502  0.39650274672E+01  0.46233265442E+02 -0.25048246738E+00  0.46591538049E+02  0.41800000000E+01 0.  1.
        -11    1    1    2    0    0 -0.18616688234E+02  0.54859024491E+01 -0.48199084404E+01  0.19997692963E+02  0.00000000000E+00 0.  1.
         11    1    1    2    0    0  0.39138977748E+02  0.28592174749E+02  0.13588609503E+03  0.14427197530E+03  0.00000000000E+00 0. -1.
</event>
<event>
 7    1  0.2844572E-009  0.1360133E+03  0.7561462E-02  0.1218796E+00
         -1   -1    0    0    0  501 -0.00000000000E+00  0.00000000000E+00  0.21952474737E+03  0.21952474737E+03  0.00000000000E+00 0.  1.
          1   -1    0    0  501    0  0.00000000000E+00 -0.00000000000E+00 -0.88496513200E+02  0.88496513200E+02  0.00000000000E+00 0. -1.
         25    2    1    2    0    0  0.71157571465E+02  0.50324449716E+02  0.70417617224E+02  0.16793464649E+03  0.12508978559E+03 0.  0.
          5    1    3    3  502    0  0.42375937575E+02 -0.35548293289E+02  0.50704890997E+02  0.75152242895E+02  0.41800000000E+01 0. -1.
         -5    1    3    3    0  502  0.28781633890E+02  0.85872743006E+02  0.19712726226E+02  0.92782403590E+02  0.41800000000E+01 0. -1.
        -11    1    1    2    0    0 -0.74168218316E+02  0.13010326085E+01  0.41180320964E+02  0.84843598042E+02  0.00000000000E+00 0.  1.
         11    1    1    2    0    0  0.30106468509E+01 -0.51625482325E+02  0.19430295986E+02  0.55243016045E+02  0.00000000000E+00 0. -1.
</event>
<event>
 7    1  0.2844572E-009  0.1148585E+03  0.7561462E-02  0.1251828E+00
         -2   -1    0    0    0  501 -0.00000000000E+00  0.00000000000E+00  0.19159645252E+02  0.19159645252E+02  0.00000000000E+00 0.  1.
          2   -1    0    0  501    0  0.00000000000E+00 -0.00000000000E+00 -0.10244473574E+04  0.10244473574E+04  0.00000000000E+00 0. -1.
         25    2    1    2    0    0 -0.11882929594E+02  0.81403396324E+02 -0.68045847398E+03  0.69673614228E+03  0.12509916146E+03 0.  0.
          5    1    3    3  502    0 -0.47897492749E+02  0.91060543991E+02 -0.37148658756E+03  0.38549442229E+03  0.41800000000E+01 0. -1.
         -5    1    3    3    0  502  0.36014563155E+02 -0.96571476675E+01 -0.30897188643E+03  0.31124171999E+03  0.41800000000E+01 0. -1.
        -11    1    1    2    0    0 -0.12207211687E+02 -0.32252548025E+02 -0.26312697426E+02  0.43377424049E+02  0.00000000000E+00 0.  1.
         11    1    1    2    0    0  0.24090141281E+02 -0.49150848298E+02 -0.29851654074E+03  0.30349343632E+03  0.00000000000E+00 0. -1.
</event>
<event>
 7    1  0.2844572E-009  0.1107674E+03  0.7561462E-02  0.1259155E+00
         -2   -1    0    0    0  501 -0.00000000000E+00  0.00000000000E+00  0.65378585755E+02  0.65378585755E+02  0.00000000000E+00 0.  1.
          2   -1    0    0  501    0  0.00000000000E+00 -0.00000000000E+00 -0.33181963298E+03  0.33181963298E+03  0.00000000000E+00 0. -1.
         25    2    1    2    0    0  0.90108528712E+02  0.16589796943E+02 -0.93183612510E+02  0.18090556804E+03  0.12509544595E+03 0.  0.
          5    1    3    3  502    0  0.85676496916E+02  0.42086030233E+02 -0.11304681959E+03  0.14801605279E+03  0.41800000000E+01 0. -1.
         -5    1    3    3    0  502  0.44320317961E+01 -0.25496233290E+02  0.19863207077E+02  0.32889515247E+02  0.41800000000E+01 0. -1.
        -11    1    1    2    0    0 -0.88612246692E+02 -0.57143770332E+01 -0.18183705781E+03  0.20235982793E+03  0.00000000000E+00 0. -1.
         11    1    1    2    0    0 -0.14962820202E+01 -0.10875419910E+02  0.85796230863E+01  0.13932822772E+02  0.00000000000E+00 0.  1.
</event>
<event>
 7    1  0.2844572E-009  0.7778952E+02  0.7561462E-02  0.1335444E+00
          3   -1    0    0  501    0  0.00000000000E+00  0.00000000000E+00  0.34387488657E+03  0.34387488657E+03  0.00000000000E+00 0. -1.
         -3   -1    0    0    0  501 -0.00000000000E+00 -0.00000000000E+00 -0.56680598798E+02  0.56680598798E+02  0.00000000000E+00 0.  1.
         25    2    1    2    0    0 -0.44773679890E+01 -0.55076678742E+02  0.59298579676E+02  0.14905643550E+03  0.12509201432E+03 0.  0.
          5    1    3    3  502    0 -0.17454733110E+02 -0.19999676908E+02 -0.36963571246E+02  0.45699373996E+02  0.41800000000E+01 0.  1.
         -5    1    3    3    0  502  0.12977365121E+02 -0.35077001833E+02  0.96262150922E+02  0.10335706151E+03  0.41800000000E+01 0.  1.
        -11    1    1    2    0    0 -0.18841269504E+02 -0.10432989114E+02  0.12791095274E+03  0.12971142020E+03  0.00000000000E+00 0. -1.
         11    1    1    2    0    0  0.23318637493E+02  0.65509667856E+02  0.99984755361E+02  0.12178762967E+03  0.00000000000E+00 0.  1.
</event>
<event>
 7    1  0.2844572E-009  0.1551011E+03  0.7561462E-02  0.1194341E+00
         -2   -1    0    0    0  501 -0.00000000000E+00  0.00000000000E+00  0.25227483018E+03  0.25227483018E+03  0.00000000000E+00 0.  1.
          2   -1    0    0  501    0  0.00000000000E+00 -0.00000000000E+00 -0.11600249098E+03  0.11600249098E+03  0.00000000000E+00 0. -1.
         25    2    1    2    0    0  0.33363423358E+02 -0.12404737951E+03  0.10577491557E+03  0.20817561605E+03  0.12509150239E+03 0.  0.
          5    1    3    3  502    0  0.72627799542E+02 -0.96105322021E+02  0.10490939560E+03  0.15979513094E+03  0.41800000000E+01 0. -1.
         -5    1    3    3    0  502 -0.39264376184E+02 -0.27942057494E+02  0.86551997111E+00  0.48380485104E+02  0.41800000000E+01 0. -1.
        -11    1    1    2    0    0 -0.10653869495E+01  0.10241863168E+03  0.52856724522E+02  0.11525859834E+03  0.00000000000E+00 0.  1.
         11    1    1    2    0    0 -0.32298036408E+02  0.21628747833E+02 -0.22359300887E+02  0.44843106770E+02  0.00000000000E+00 0. -1.
</event>
<event>
 6    1  0.2844572E-009  0.1051426E+03  0.7561462E-02  0.1269839E+00
          1   -1    0    0  501    0  0.00000000000E+00  0.00000000000E+00  0.12251596403E+03  0.12251596403E+03  0.00000000000E+00 0. -1.
         -1   -1    0    0    0  501 -0.00000000000E+00 -0.00000000000E+00 -0.22043914907E+03  0.22043914907E+03  0.00000000000E+00 0.  1.
          5    1    1    2  502    0 -0.57922805385E+02  0.21090247023E+02 -0.25332977584E+01  0.61836396246E+02  0.41800000000E+01 0.  1.
         -5    1    1    2    0  502 -0.60090632392E+01  0.32200706251E+02 -0.14493027416E+03  0.14864471431E+03  0.41800000000E+01 0.  1.
        -11    1    1    2    0    0 -0.14561052676E+02 -0.30413651311E+02  0.36482716978E+02  0.49679000384E+02  0.00000000000E+00 0. -1.
         11    1    1    2    0    0  0.78492921300E+02 -0.22877301964E+02  0.13057669902E+02  0.82795002159E+02  0.00000000000E+00 0.  1.
</event>
<event>
 7    1  0.2844572E-009  0.1077694E+03  0.7561462E-02  0.1264757E+00
          2   -1    0    0  501    0  0.00000000000E+00  0.00000000000E+00  0.24919267352E+03  0.24919267352E+03  0.00000000000E+00 0. -1.
         -2   -1    0    0    0  501 -0.00000000000E+00 -0.00000000000E+00 -0.58658541834E+02  0.58658541834E+02  0.00000000000E+00 0.  1.
         25    2    1    2    0    0  0.31300730379E+02 -0.35073903173E+02  0.73682540393E+02  0.15259730926E+03  0.12508759982E+03 0.  0.
          5    1    3    3  502    0 -0.33186658259E+02  0.24190129242E+02  0.57504472548E+01  0.41678011982E+02  0.41800000000E+01 0. -1.
         -5    1    3    3    0  502  0.64487388638E+02 -0.59264032415E+02  0.67932093138E+02  0.11091929728E+03  0.41800000000E+01 0. -1.
        -11    1    1    2    0    0 -0.46852717890E+02  0.47463121485E+02  0.44392741071E+02  0.80116418633E+02  0.00000000000E+00 0.  1.
         11    1    1    2    0    0  0.15551987511E+02 -0.12389218312E+02  0.72458850223E+02  0.75137487459E+02  0.00000000000E+00 0. -1.
</event>
<event>
 7    1  0.2844572E-009  0.1536320E+03  0.7561462E-02  0.1196080E+00
          2   -1    0    0  501    0  0.00000000000E+00  0.00000000000E+00  0.62685595077E+03  0.62685595077E+03  0.00000000000E+00 0.  1.
         -2   -1    0    0    0  501 -0.00000000000E+00 -0.00000000000E+00 -0.83835718717E+02  0.83835718717E+02  0.00000000000E+00 0. -1.
         25    2    1    2    0    0 -0.75875590506E+02 -0.12670379692E+03  0.63572828968E+02  0.20371016168E+03  0.12508144546E+03 0.  0.
          5    1    3    3  502    0 -0.19623440292E+02 -0.78587575794E+02  0.93481652777E+02  0.12376339638E+03  0.41800000000E+01 0.  1.
         -5    1    3    3    0  502 -0.56252150214E+02 -0.48116221129E+02 -0.29908823809E+02  0.79946765294E+02  0.41800000000E+01 0.  1.
        -11    1    1    2    0    0  0.37825809469E+02  0.95794617782E+02  0.40464836914E+03  0.41754964173E+03  0.00000000000E+00 0.  1.
         11    1    1    2    0    0  0.38049781037E+02  0.30909179141E+02  0.74799033940E+02  0.89431866080E+02  0.00000000000E+00 0. -1.
</event>
<event>
 7    1  0.2844572E-009  0.8040345E+02  0.7561462E-02  0.1327910E+00
         -4   -1    0    0    0  501 -0.00000000000E+00  0.00000000000E+00  0.34387564247E+03  0.34387564247E+03  0.00000000000E+00 0.  1.
          4   -1    0    0  501    0  0.00000000000E+00 -0.00000000000E+00 -0.60541085534E+02  0.60541085534E+02  0.00000000000E+00 0. -1.
         25    2    1    2    0    0  0.16766235518E+02 -0.93603918658E+01  0.29895681486E+03  0.32464056182E+03  0.12509034191E+03 0.  0.
          5    1    3    3  502    0 -0.63147701058E+00  0.50987936889E+02  0.20682673139E+03  0.21306087790E+03  0.41800000000E+01 0. -1.
         -5    1    3    3    0  502  0.17397712528E+02 -0.60348328755E+02  0.92130083463E+02  0.11157968392E+03  0.41800000000E+01 0. -1.
        -11    1    1    2    0    0  0.13746780027E+02  0.85229375745E+01  0.24503029747E+02  0.29360056076E+02  0.00000000000E+00 0.  1.
         11    1    1    2    0    0 -0.30513015545E+02  0.83745429121E+00 -0.40125287673E+02  0.50416110106E+02  0.00000000000E+00 0. -1.
</event>
<event>
 7    1  0.2844572E-009  0.1102147E+03  0.7561462E-02  0.1260173E+00
         -2   -1    0    0    0  501 -0.00000000000E+00  0.00000000000E+00  0.12260888774E+03  0.12260888774E+03  0.00000000000E+00 0.  1.
          2   -1    0    0  501    0  0.00000000000E+00 -0.00000000000E+00 -0.15475144507E+03  0.15475144507E+03  0.00000000000E+00 0. -1.
         25    2    1    2    0    0  0.11651799101E+02  0.51696506296E+02  0.51900524615E+02  0.14542797427E+03  0.12508932032E+03 0.  0.
          5    1    3    3  502    0 -0.51952749305E+02  0.27063298170E+02 -0.14291857792E+01  0.58745427398E+02  0.41800000000E+01 0.  1.
         -5    1    3    3    0  502  0.63604548407E+02  0.24633208127E+02  0.53329710394E+02  0.86682546867E+02  0.41800000000E+01 0.  1.
        -11    1    1    2    0    0  0.25615794734E+02 -0.49856754460E+02 -0.74836009437E+02  0.93500231089E+02  0.00000000000E+00 0. -1.
         11    1    1    2    0    0 -0.37267593835E+02 -0.18397518357E+01 -0.92070725109E+01  0.38432127463E+02  0.00000000000E+00 0.  1.
</event>
<event>
 7    1  0.2844572E-009  0.1251375E+03  0.7561462E-02  0.1234854E+00
         -1   -1    0    0    0  501 -0.00000000000E+00  0.00000000000E+00  0.21609852845E+03  0.21609852845E+03  0.00000000000E+00 0.  1.
          1   -1    0    0  501    0  0.00000000000E+00 -0.00000000000E+00 -0.95717251246E+02  0.95717251246E+02  0.00000000000E+00 0. -1.
         25    2    1    2    0    0 -0.83605551981E+02  0.29679889963E+02  0.96693199201E+02  0.18129579212E+03  0.12509118785E+03 0.  0.
          5    1    3    3  502    0  0.32968470182E+02  0.74429483441E+01  0.28151554760E+02  0.44184838368E+02  0.41800000000E+01 0. -1.
         -5    1    3    3    0  502 -0.11657402216E+03  0.22236941619E+02  0.68541644441E+02  0.13711095375E+03  0.41800000000E+01 0. -1.
        -11    1    1    2    0    0  0.62096381561E+02 -0.39740323875E+02  0.54455400728E+02  0.91655030484E+02  0.00000000000E+00 0.  1.
         11    1    1    2    0    0  0.21509170420E+02  0.10060433912E+02 -0.30767322722E+02  0.38864957097E+02  0.00000000000E+00 0. -1.
</event>
<event>
 7    1  0.2844572E-009  0.1316145E+03  0.7561462E-02  0.1225080E+00
          1   -1    0    0  501    0  0.00000000000E+00  0.00000000000E+00  0.99413808789E+02  0.99413808789E+02  0.00000000000E+00 0. -1.
         -1   -1    0    0    0  501 -0.00000000000E+00 -0.00000000000E+00 -0.25558640794E+03  0.25558640794E+03  0.00000000000E+00 0.  1.
         25    2    1    2    0    0 -0.43444406173E+02  0.88192957849E+02 -0.14763575053E+02  0.15977681993E+03  0.12508099295E+03 0.  0.
          5    1    3    3  502    0 -0.53042056694E+02  0.11668481435E+03 -0.16879041963E+02  0.12934906315E+03  0.41800000000E+01 0. -1.
         -5    1    3    3    0  502  0.95976505209E+01 -0.28491856505E+02  0.21154669091E+01  0.30427756784E+02  0.41800000000E+01 0. -1.
        -11    1    1    2    0    0  0.45135733851E+02 -0.53922967955E+02 -0.26247398276E+02  0.75058955892E+02  0.00000000000E+00 0. -1.
         11    1    1    2    0    0 -0.16913276776E+01 -0.34269989894E+02 -0.11516162582E+03  0.12016444091E+03  0.00000000000E+00 0.  1.
</event>
<event>
 7    1  0.2844572E-009  0.1604447E+03  0.7561462E-02  0.1188196E+00
          1   -1    0    0  501    0  0.00000000000E+00  0.00000000000E+00  0.23981386139E+03  0.23981386139E+03  0.00000000000E+00 0. -1.
         -1   -1    0    0    0  501 -0.00000000000E+00 -0.00000000000E+00 -0.11623705193E+03  0.11623705193E+03  0.00000000000E+00 0.  1.
         25    2    1    2    0    0  0.11452514929E+03 -0.48210760191E+02  0.59642255469E+02  0.18613227677E+03  0.12509092133E+03 0.  0.
          5    1    3    3  502    0 -0.13860123967E+02  0.20594140532E+02  0.26777054441E+02  0.36751934713E+02  0.41800000000E+01 0. -1.
         -5    1    3    3    0  502  0.12838527326E+03 -0.68804900723E+02  0.32865201028E+02  0.14938034205E+03  0.41800000000E+01 0. -1.
        -11    1    1    2    0    0 -0.11835002331E+03  0.18198537317E+02  0.28051427214E+02  0.12298291486E+03  0.00000000000E+00 0.  1.
         11    1    1    2    0    0  0.38248740194E+01  0.30012222874E+02  0.35883126775E+02  0.46935721687E+02  0.00000000000E+00 0. -1.
</event>
<event>
 7    1  0.2844572E-009  0.1786924E+03  0.7561462E-02  0.1169075E+00
          2   -1    0    0  501    0  0.00000000000E+00  0.00000000000E+00  0.39159131852E+03  0.39159131852E+03  0.00000000000E+00 0. -1.
         -2   -1    0    0    0  501 -0.00000000000E+00 -0.00000000000E+00 -0.10694049717E+03  0.10694049717E+03  0.00000000000E+00 0.  1.
         25    2    1    2    0    0  0.14725889576E+03  0.63950025452E+02  0.73665463265E+02  0.21644656179E+03  0.12509086896E+03 0.  0.
          5    1    3    3  502    0  0.90331762699E+02  0.26178441595E+01  0.93757659425E+02  0.13028680502E+03  0.41800000000E+01 0.  1.
         -5    1    3    3    0  502  0.56927133065E+02  0.61332181293E+02 -0.20092196160E+02  0.86159756776E+02  0.41800000000E+01 0.  1.
        -11    1    1    2    0    0 -0.11281433612E+03 -0.86331273126E+02  0.13641618978E+03  0.19695060291E+03  0.00000000000E+00 0.  1.
         11    1    1    2    0    0 -0.34444559643E+02  0.22381247674E+02  0.74569168308E+02  0.85134650987E+02  0.00000000000E+00 0. -1.
</event>
<event>
 7    1  0.2844572E-009  0.9998531E+02  0.7561462E-02  0.1280327E+00
          2   -1    0    0  501    0  0.00000000000E+00  0.00000000000E+00  0.13675207657E+03  0.13675207657E+03  0.00000000000E+00 0. -1.
         -2   -1    0    0    0  501 -0.00000000000E+00 -0.00000000000E+00 -0.97608670142E+02  0.97608670142E+02  0.00000000000E+00 0.  1.
         25    2    1    2    0    0 -0.20794797385E+01 -0.47293325951E+02  0.28837332340E+02  0.13683684466E+03  0.12510694387E+03 0.  0.
          5    1    3    3  502    0 -0.38991386113E+02  0.73803957181E+01 -0.28740615916E+02  0.49176151082E+02  0.41800000000E+01 0.  1.
         -5    1    3    3    0  502  0.36911906375E+02 -0.54673721669E+02  0.57577948257E+02  0.87660693579E+02  0.41800000000E+01 0.  1.
        -11    1    1    2    0    0  0.40535569229E+02  0.13359161180E+02 -0.72973808517E+01  0.43299553432E+02  0.00000000000E+00 0.  1.
         11    1    1    2    0    0 -0.38456089490E+02  0.33934164770E+02  0.17603454941E+02  0.54224348621E+02  0.00000000000E+00 0. -1.
</event>
<event>
 7    1  0.2844572E-009  0.9913303E+02  0.7561462E-02  0.1282130E+00
         -1   -1    0    0    0  501 -0.00000000000E+00  0.00000000000E+00  0.22790332027E+02  0.22790332027E+02  0.00000000000E+00 0.  1.
          1   -1    0    0  501    0  0.00000000000E+00 -0.00000000000E+00 -0.51879990228E+03  0.51879990228E+03  0.00000000000E+00 0. -1.
         25    2    1    2    0    0 -0.12173769278E+02  0.14064917506E+02 -0.25969944847E+03  0.28885598281E+03  0.12509177715E+03 0.  0.
          5    1    3    3  502    0 -0.57788801006E+02 -0.74126510777E+01 -0.63677019039E+02  0.86410231289E+02  0.41800000000E+01 0. -1.
         -5    1    3    3    0  502  0.45615031727E+02  0.21477568584E+02 -0.19602242943E+03  0.20244575153E+03  0.41800000000E+01 0. -1.
        -11    1    1    2    0    0 -0.16851033171E+02  0.31218322601E+02 -0.10518022904E+03  0.11100189893E+03  0.00000000000E+00 0.  1.
         11    1    1    2    0    0  0.29024802449E+02 -0.45283240108E+02 -0.13112989275E+03  0.14173235256E+03  0.00000000000E+00 0. -1.
</event>
<event>
 7    1  0.2844572E-009  0.1007705E+03  0.7561462E-02  0.1278684E+00
         -1   -1    0    0    0  501 -0.00000000000E+00  0.00000000000E+00  0.15143731931E+03  0.15143731931E+03  0.00000000000E+00 0.  1.
          1   -1    0    0  501    0  0.00000000000E+00 -0.00000000000E+00 -0.10101155759E+03  0.10101155759E+03  0.00000000000E+00 0. -1.
         25    2    1    2    0    0  0.29750779447E+02 -0.36139393047E+02  0.67403733699E+02  0.14960634018E+03  0.12509048365E+03 0.  0.
          5    1    3    3  502    0  0.60204415223E+02  0.36048088483E+01  0.77566672205E+02  0.98344431953E+02  0.41800000000E+01 0.  1.
         -5    1    3    3    0  502 -0.30453635776E+02 -0.39744201896E+02 -0.10162938506E+02  0.51261908230E+02  0.41800000000E+01 0.  1.
        -11    1    1    2    0    0 -0.53642578954E+02  0.85106088195E+01  0.12700853331E+02  0.55778745187E+02  0.00000000000E+00 0.  1.
         11    1    1    2    0    0  0.23891799506E+02  0.27628784228E+02 -0.29678825304E+02  0.47063791528E+02  0.00000000000E+00 0. -1.
</event>
<event>
 7    1  0.2844572E-009  0.1426775E+03  0.7561462E-02  0.1209771E+00
         -2   -1    0    0    0  501 -0.00000000000E+00  0.00000000000E+00  0.53088129767E+02  0.53088129767E+02  0.00000000000E+00 0.  1.
          2   -1    0    0  501    0  0.00000000000E+00 -0.00000000000E+00 -0.55710780912E+03  0.55710780912E+03  0.00000000000E+00 0. -1.
         25    2    1    2    0    0  0.73109125697E+02 -0.70015259667E+02 -0.42351654796E+03  0.45305745234E+03  0.12509079854E+03 0.  0.
          5    1    3    3  502    0  0.35491634265E+02 -0.99669013903E+02 -0.22305411509E+03  0.24690925275E+03  0.41800000000E+01 0.  1.
         -5    1    3    3    0  502  0.37617491432E+02  0.29653754237E+02 -0.20046243287E+03  0.20614819959E+03  0.41800000000E+01 0.  1.
        -11    1    1    2    0    0 -0.15964010103E+02  0.72455594099E+02 -0.62972821873E+02  0.97315153134E+02  0.00000000000E+00 0. -1.
         11    1    1    2    0    0 -0.57145115594E+02 -0.24403344320E+01 -0.17530309516E+02  0.59823333409E+02  0.00000000000E+00 0.  1.
</event>
<event>
 7    1  0.2844572E-009  0.1539728E+03  0.7561462E-02  0.1195675E+00
          1   -1    0    0  501    0  0.00000000000E+00  0.00000000000E+00  0.10574113039E+04  0.10574113039E+04  0.00000000000E+00 0. -1.
         -1   -1    0    0    0  501 -0.00000000000E+00 -0.00000000000E+00 -0.30410020578E+02  0.30410020578E+02  0.00000000000E+00 0.  1.
         25    2    1    2    0    0 -0.55863242943E+02  0.86081300918E+02  0.62563271729E+03  0.64621514506E+03  0.12508806691E+03 0.  0.
          5    1    3    3  502    0  0.78172871878E+01  0.87188734944E+02  0.46827765744E+03  0.47640783194E+03  0.41800000000E+01 0.  1.
         -5    1    3    3    0  502 -0.63680530131E+02 -0.11074340266E+01  0.15735505986E+03  0.16980731312E+03  0.41800000000E+01 0.  1.
        -11    1    1    2    0    0  0.92749887971E+02 -0.70195149115E+02  0.16516966992E+03  0.20201712932E+03  0.00000000000E+00 0.  1.
         11    1    1    2    0    0 -0.36886645028E+02 -0.15886151803E+02  0.23619889615E+03  0.23958905013E+03  0.00000000000E+00 0. -1.
</event>
<event>
 7    1  0.2844572E-009  0.9205422E+02  0.7561462E-02  0.1297952E+00
         -1   -1    0    0    0  501 -0.00000000000E+00  0.00000000000E+00  0.71089449464E+02  0.71089449464E+02  0.00000000000E+00 0.  1.
          1   -1    0    0  501    0  0.00000000000E+00 -0.00000000000E+00 -0.21837118393E+03  0.21837118393E+03  0.00000000000E+00 0. -1.
         25    2    1    2    0    0  0.39534299667E+02  0.45380424074E+02 -0.93821981848E+02  0.16754837415E+03  0.12509016613E+03 0.  0.
          5    1    3    3  502    0 -0.73886895001E+00 -0.23240287433E+02  0.18381640820E+02  0.29933493056E+02  0.41800000000E+01 0.  1.
         -5    1    3    3    0  502  0.40273168617E+02  0.68620711507E+02 -0.11220362267E+03  0.13761488109E+03  0.41800000000E+01 0.  1.
        -11    1    1    2    0    0 -0.51358545876E+02 -0.24707870016E+02 -0.71931384849E+02  0.91773107181E+02  0.00000000000E+00 0. -1.
         11    1    1    2    0    0  0.11824246209E+02 -0.20672554057E+02  0.18471632235E+02  0.30139152063E+02  0.00000000000E+00 0.  1.
</event>
<event>
 7    1  0.2844572E-009  0.1600317E+03  0.7561462E-02  0.1188661E+00
         -2   -1    0    0    0  501 -0.00000000000E+00  0.00000000000E+00  0.83045471092E+02  0.83045471092E+02  0.00000000000E+00 0.  1.
          2   -1    0    0  501    0  0.00000000000E+00 -0.00000000000E+00 -0.48248481779E+03  0.48248481779E+03  0.00000000000E+00 0. -1.
         25    2    1    2    0    0  0.12242638129E+03 -0.82831636094E+01 -0.49672158620E+02  0.18213162526E+03  0.12509107060E+03 0.  0.
          5    1    3    3  502    0  0.13995149324E+03 -0.30572166841E+02 -0.27573794536E+02  0.14594130461E+03  0.41800000000E+01 0. -1.
         -5    1    3    3    0  502 -0.17525111949E+02  0.22289003232E+02 -0.22098364084E+02  0.36190320655E+02  0.41800000000E+01 0. -1.
        -11    1    1    2    0    0 -0.95418578448E+02 -0.31080106583E+02 -0.17008475281E+03  0.19748291388E+03  0.00000000000E+00 0.  1.
         11    1    1    2    0    0 -0.27007802844E+02  0.39363270192E+02 -0.17968243527E+03  0.18591574973E+03  0.00000000000E+00 0. -1.
</event>
<event>
 7    1  0.2844572E-009  0.2034358E+03  0.7561462E-02  0.1146872E+00
          2   -1    0    0  501    0  0.00000000000E+00  0.00000000000E+00  0.70043671247E+03  0.70043671247E+03  0.00000000000E+00 0. -1.
         -2   -1    0    0    0  501 -0.00000000000E+00 -0.00000000000E+00 -0.84084631709E+02  0.84084631709E+02  0.00000000000E+00 0.  1.
         25    2    1    2    0    0  0.19202142499E+03 -0.17260318432E+02  0.47814374241E+03  0.53050783356E+03  0.12508787635E+03 0.  0.
          5    1    3    3  502    0  0.17870595867E+03 -0.18703179645E+02  0.28555632990E+03  0.33741001547E+03  0.41800000000E+01 0. -1.
         -5    1    3    3    0  502  0.13315466318E+02  0.14428612126E+01  0.19258741251E+03  0.19309781809E+03  0.41800000000E+01 0. -1.
        -11    1    1    2    0    0 -0.13158942420E+03 -0.31677308309E+02  0.89089196915E+02  0.16203738282E+03  0.00000000000E+00 0.  1.
         11    1    1    2    0    0 -0.60432000791E+02  0.48937626741E+02  0.49119141433E+02  0.91976127804E+02  0.00000000000E+00 0. -1.
</event>
<event>
 7    1  0.2844572E-009  0.8420641E+02  0.7561462E-02  0.1317521E+00
         -1   -1    0    0    0  501 -0.00000000000E+00  0.00000000000E+00  0.39342446170E+03  0.39342446170E+03  0.00000000000E+00 0.  1.
          1   -1    0    0  501    0  0.00000000000E+00 -0.00000000000E+00 -0.35017911328E+02  0.35017911328E+02  0.00000000000E+00 0. -1.
         25    2    1    2    0    0 -0.42173149567E+02  0.94861367461E+01  0.22881125708E+03  0.26433002678E+03  0.12508880988E+03 0.  0.
          5    1    3    3  502    0 -0.23729312488E+02 -0.29610778084E+02  0.76365683661E+01  0.38931581349E+02  0.41800000000E+01 0. -1.
         -5    1    3    3    0  502 -0.18443837079E+02  0.39096914830E+02  0.22117468871E+03  0.22539844543E+03  0.41800000000E+01 0. -1.
        -11    1    1    2    0    0  0.57097322078E+02  0.14176628590E+02  0.12149164918E+03  0.13498630229E+03  0.00000000000E+00 0.  1.
         11    1    1    2    0    0 -0.14924172511E+02 -0.23662765336E+02  0.81036441121E+01  0.29126043953E+02  0.00000000000E+00 0. -1.
</event>
<event>
 7    1  0.2844572E-009  0.1302593E+03  0.7561462E-02  0.1227072E+00
         -1   -1    0    0    0  501 -0.00000000000E+00  0.00000000000E+00  0.56230895307E+02  0.56230895307E+02  0.00000000000E+00 0.  1.
          1   -1    0    0  501    0  0.00000000000E+00 -0.00000000000E+00 -0.33983900117E+03  0.33983900117E+03  0.00000000000E+00 0. -1.
         25    2    1    2    0    0  0.65085860948E+02 -0.18295117765E+02 -0.21678019449E+03  0.25925270763E+03  0.12508970006E+03 0.  0.
          5    1    3    3  502    0 -0.30931591093E+02  0.21362655788E+02 -0.49521461244E+02  0.62313513090E+02  0.41800000000E+01 0. -1.
         -5    1    3    3    0  502  0.96017452041E+02 -0.39657773554E+02 -0.16725873325E+03  0.19693919454E+03  0.41800000000E+01 0. -1.
        -11    1    1    2    0    0  0.47007618658E+01  0.44078866428E+02 -0.31994342919E+02  0.54668835789E+02  0.00000000000E+00 0. -1.
         11    1    1    2    0    0 -0.69786622814E+02 -0.25783748663E+02 -0.34833568458E+02  0.82148353060E+02  0.00000000000E+00 0.  1.
</event>
<event>
 7    1  0.2844572E-009  0.1016849E+03  0.7561462E-02  0.1276792E+00
          2   -1    0    0  501    0  0.00000000000E+00  0.00000000000E+00  0.23444252188E+03  0.23444252188E+03  0.00000000000E+00 0.  1.
         -2   -1    0    0    0  501 -0.00000000000E+00 -0.00000000000E+00 -0.73429760463E+02  0.73429760463E+02  0.00000000000E+00 0. -1.
         25    2    1    2    0    0  0.75102966847E+02 -0.12074082888E+02  0.80761882937E+02  0.16720114529E+03  0.12508997620E+03 0.  0.
          5    1    3    3  502    0  0.59280903248E+02 -0.27598711998E+02 -0.16326044198E+02  0.67527227938E+02  0.41800000000E+01 0.  1.
         -5    1    3    3    0  502  0.15822063599E+02  0.15524629110E+02  0.97087927135E+02  0.99673917355E+02  0.41800000000E+01 0.  1.
        -11    1    1    2    0    0 -0.85532866612E+02  0.33182624561E+02  0.60061228856E+02  0.10965541052E+03  0.00000000000E+00 0. -1.
         11    1    1    2    0    0  0.10429899764E+02 -0.21108541672E+02  0.20189649626E+02  0.31015726537E+02  0.00000000000E+00 0.  1.
</event>
<event>
 7    1  0.2844572E-009  0.9690364E+02  0.7561462E-02  0.1286945E+00
         -2   -1    0    0    0  501 -0.00000000000E+00  0.00000000000E+00  0.47244834676E+03  0.47244834676E+03  0.00000000000E+00 0.  1.
          2   -1    0    0  501    0  0.00000000000E+00 -0.00000000000E+00 -0.40496869154E+02  0.40496869154E+02  0.00000000000E+00 0. -1.
         25    2    1    2    0    0 -0.50138069552E+02 -0.33458408903E+02  0.34259662700E+03  0.36966827574E+03  0.12509553994E+03 0.  0.
          5    1    3    3  502    0 -0.62159489690E+02 -0.27985389102E+02  0.73944121019E+02  0.10065877803E+03  0.41800000000E+01 0. -1.
         -5    1    3    3    0  502  0.12021420139E+02 -0.54730198005E+01  0.26865250598E+03  0.26900949771E+03  0.41800000000E+01 0. -1.
        -11    1    1    2    0    0  0.11387074706E+02  0.62311386305E+02  0.56212711107E+02  0.84689097431E+02  0.00000000000E+00 0. -1.
         11    1    1    2    0    0  0.38750994846E+02 -0.28852977403E+02  0.33142139501E+02  0.58587842742E+02  0.00000000000E+00 0.  1.
</event>
<event>
 7    1  0.2844572E-009  0.1691912E+03  0.7561462E-02  0.1178694E+00
          1   -1    0    0  501    0  0.00000000000E+00  0.00000000000E+00  0.83685532251E+02  0.83685532251E+02  0.00000000000E+00 0. -1.
         -1   -1    0    0    0  501 -0.00000000000E+00 -0.00000000000E+00 -0.81657081190E+03  0.81657081190E+03  0.00000000000E+00 0.  1.
         25    2    1    2    0    0 -0.14354511175E+03 -0.45502586905E+02 -0.69219789667E+03  0.71934728957E+03  0.12508761062E+03 0.  0.
          5    1    3    3  502    0 -0.14059216751E+03 -0.13476809382E+00 -0.40940626327E+03  0.43289390910E+03  0.41800000000E+01 0.  1.
         -5    1    3    3    0  502 -0.29529442486E+01 -0.45367818811E+02 -0.28279163340E+03  0.28645338047E+03  0.41800000000E+01 0.  1.
        -11    1    1    2    0    0  0.38987365133E+02  0.26609807931E+01  0.28543555016E+02  0.48392458005E+02  0.00000000000E+00 0. -1.
         11    1    1    2    0    0  0.10455774662E+03  0.42841606112E+02 -0.69230937990E+02  0.13251659657E+03  0.00000000000E+00 0.  1.
</event>
<event>
 7    1  0.2844572E-009  0.1093653E+03  0.7561462E-02  0.1261750E+00
         -2   -1    0    0    0  501 -0.00000000000E+00  0.00000000000E+00  0.31660835366E+03  0.31660835366E+03  0.00000000000E+00 0.  1.
          2   -1    0    0  501    0  0.00000000000E+00 -0.00000000000E+00 -0.96744457235E+02  0.96744457235E+02  0.00000000000E+00 0. -1.
         25    2    1    2    0    0  0.10234108702E+01  0.93783774184E+02 -0.15655115432E+01  0.15635155250E+03  0.12508762318E+03 0.  0.
          5    1    3    3  502    0  0.56107447949E+01  0.70181568015E+02 -0.60272008909E+02  0.92774567658E+02  0.41800000000E+01 0. -1.
         -5    1    3    3    0  502 -0.45873339247E+01  0.23602206168E+02  0.58706497366E+02  0.63576984841E+02  0.41800000000E+01 0. -1.
        -11    1    1    2    0    0  0.21527380655E+01 -0.10861140307E+03  0.21426450554E+03  0.24022978477E+03  0.00000000000E+00 0.  1.
         11    1    1    2    0    0 -0.31761489358E+01  0.14827628890E+02  0.71649024273E+01  0.16771473619E+02  0.00000000000E+00 0. -1.
</event>
<event>
 7    1  0.2844572E-009  0.1077195E+03  0.7561462E-02  0.1264852E+00
         -1   -1    0    0    0  501 -0.00000000000E+00  0.00000000000E+00  0.11353645757E+03  0.11353645757E+03  0.00000000000E+00 0.  1.
          1   -1    0    0  501    0  0.00000000000E+00 -0.00000000000E+00 -0.20586026909E+03  0.20586026909E+03  0.00000000000E+00 0. -1.
         25    2    1    2    0    0  0.82496332730E+02 -0.22099451137E+02  0.20108669888E+02  0.15279305449E+03  0.12508928108E+03 0.  0.
          5    1    3    3  502    0  0.15336285772E+02 -0.19497534422E+02  0.66447216947E+02  0.71049704784E+02  0.41800000000E+01 0.  1.
         -5    1    3    3    0  502  0.67160046958E+02 -0.26019167142E+01 -0.46338547060E+02  0.81743349709E+02  0.41800000000E+01 0.  1.
        -11    1    1    2    0    0 -0.94124942001E+02  0.39448189734E+02 -0.93793310683E+02  0.13861042352E+03  0.00000000000E+00 0.  1.
         11    1    1    2    0    0  0.11628609271E+02 -0.17348738597E+02 -0.18639170719E+02  0.27993248643E+02  0.00000000000E+00 0. -1.
</event>
<event>
 7    1  0.2844572E-009  0.1521459E+03  0.7561462E-02  0.1197861E+00
          3   -1    0    0  501    0  0.00000000000E+00  0.00000000000E+00  0.49485129396E+02  0.49485129396E+02  0.00000000000E+00 0. -1.
         -3   -1    0    0    0  501 -0.00000000000E+00 -0.00000000000E+00 -0.55057411467E+03  0.55057411467E+03  0.00000000000E+00 0.  1.
         25    2    1    2    0    0  0.18803313831E+02  0.11995533496E+03 -0.22275060147E+03  0.28285513775E+03  0.12508537685E+03 0.  0.
          5    1    3    3  502    0 -0.11642592167E+02  0.13110279922E+03 -0.13224806138E+03  0.18662935475E+03  0.41800000000E+01 0. -1.
         -5    1    3    3    0  502  0.30445905998E+02 -0.11147464262E+02 -0.90502540084E+02  0.96225782996E+02  0.41800000000E+01 0. -1.
        -11    1    1    2    0    0 -0.45379039731E+02 -0.78542129506E+02 -0.11416017439E+03  0.14581038637E+03  0.00000000000E+00 0. -1.
         11    1    1    2    0    0  0.26575725900E+02 -0.41413205453E+02 -0.16417820941E+03  0.17139371995E+03  0.00000000000E+00 0.  1.
</event>
<event>
 7    1  0.2844572E-009  0.1058810E+03  0.7561462E-02  0.1268393E+00
         -4   -1    0    0    0  501 -0.00000000000E+00  0.00000000000E+00  0.85050957563E+02  0.85050957563E+02  0.00000000000E+00 0.  1.
          4   -1    0    0  501    0  0.00000000000E+00 -0.00000000000E+00 -0.15472975420E+03  0.15472975420E+03  0.00000000000E+00 0. -1.
         25    2    1    2    0    0  0.21791974758E+02  0.48115852548E+01 -0.36872157514E+02  0.13231375722E+03  0.12509729347E+03 0.  0.
          5    1    3    3  502    0  0.44017818981E+02  0.47165149949E+02  0.97597540244E+01  0.65382298493E+02  0.41800000000E+01 0.  1.
         -5    1    3    3    0  502 -0.22225844223E+02 -0.42353564694E+02 -0.46631911538E+02  0.66931458728E+02  0.41800000000E+01 0.  1.
        -11    1    1    2    0    0  0.37036829136E+02 -0.13925716025E+02 -0.26457156258E+02  0.47598670113E+02  0.00000000000E+00 0. -1.
         11    1    1    2    0    0 -0.58828803894E+02  0.91141307701E+01 -0.63494828603E+01  0.59868284424E+02  0.00000000000E+00 0.  1.
</event>
<event>
 7    1  0.2844572E-009  0.1351356E+03  0.7561462E-02  0.1220028E+00
          1   -1    0    0  501    0  0.00000000000E+00  0.00000000000E+00  0.20885362171E+03  0.20885362171E+03  0.00000000000E+00 0. -1.
         -1   -1    0    0    0  501 -0.00000000000E+00 -0.00000000000E+00 -0.11477637614E+03  0.11477637614E+03  0.00000000000E+00 0.  1.
         25    2    1    2    0    0 -0.97208050623E+02 -0.40156929103E+02  0.14067305283E+02  0.16403527779E+03  0.12509076393E+03 0.  0.
          5    1    3    3  502    0 -0.71831285087E+02  0.37043130193E+02 -0.26186151602E+01  0.80970714194E+02  0.41800000000E+01 0. -1.
         -5    1    3    3    0  502 -0.25376765535E+02 -0.77200059296E+02  0.16685920443E+02  0.83064563595E+02  0.41800000000E+01 0. -1.
        -11    1    1    2    0    0  0.51941901148E+02  0.82566876595E+01 -0.10362296187E+02  0.53605141248E+02  0.00000000000E+00 0.  1.
         11    1    1    2    0    0  0.45266149475E+02  0.31900241443E+02  0.90372236473E+02  0.10598957882E+03  0.00000000000E+00 0. -1.
</event>
<event>
 7    1  0.2844572E-009  0.9594810E+02  0.7561462E-02  0.1289055E+00
          2   -1    0    0  501    0  0.00000000000E+00  0.00000000000E+00  0.84880878793E+03  0.84880878793E+03  0.00000000000E+00 0. -1.
         -2   -1    0    0    0  501 -0.00000000000E+00 -0.00000000000E+00 -0.15561307462E+02  0.15561307462E+02  0.00000000000E+00 0.  1.
         25    2    1    2    0    0 -0.20281586846E+02 -0.26602122078E+01  0.56202041055E+03  0.57613560138E+03  0.12508744865E+03 0.  0.
          5    1    3    3  502    0  0.28705460991E+02 -0.27748320539E+02  0.44438502508E+03  0.44619445951E+03  0.41800000000E+01 0. -1.
         -5    1    3    3    0  502 -0.48987047837E+02  0.25088108331E+02  0.11763538547E+03  0.12994114187E+03  0.41800000000E+01 0. -1.
        -11    1    1    2    0    0 -0.33833915217E+02 -0.18369724700E+02  0.12873735183E+03  0.13437070500E+03  0.00000000000E+00 0.  1.
         11    1    1    2    0    0  0.54115502063E+02  0.21029936908E+02  0.14248971808E+03  0.15386378901E+03  0.00000000000E+00 0. -1.
</event>
<event>
 7    1  0.2844572E-009  0.1184341E+03  0.7561462E-02  0.1245703E+00
         -1   -1    0    0    0  501 -0.00000000000E+00  0.00000000000E+00  0.13044576808E+02  0.13044576808E+02  0.00000000000E+00 0.  1.
          1   -1    0    0  501    0  0.00000000000E+00 -0.00000000000E+00 -0.15505093576E+04  0.15505093576E+04  0.00000000000E+00 0. -1.
         25    2    1    2    0    0  0.33983151116E+02 -0.58608406473E+02 -0.12051251998E+04  0.12134924408E+04  0.12508939538E+03 0.  0.
          5    1    3    3  502    0  0.66483689459E+02 -0.77914868720E+02 -0.95609643592E+03  0.96157614098E+03  0.41800000000E+01 0. -1.
         -5    1    3    3    0  502 -0.32500538343E+02  0.19306462247E+02 -0.24902876385E+03  0.25191629980E+03  0.41800000000E+01 0. -1.
        -11    1    1    2    0    0 -0.18531233122E+02 -0.13277960906E+02 -0.24102755848E+02  0.33176101131E+02  0.00000000000E+00 0.  1.
         11    1    1    2    0    0 -0.15451917995E+02  0.71886367379E+02 -0.30823682514E+03  0.31688539246E+03  0.00000000000E+00 0. -1.
</event>
<event>
 7    1  0.2844572E-009  0.1354902E+03  0.7561462E-02  0.1219529E+00
          4   -1    0    0  501    0  0.00000000000E+00  0.00000000000E+00  0.65463560635E+02  0.65463560635E+02  0.00000000000E+00 0. -1.
         -4   -1    0    0    0  501 -0.00000000000E+00 -0.00000000000E+00 -0.30055884171E+03  0.30055884171E+03  0.00000000000E+00 0.  1.
         25    2    1    2    0    0 -0.55449331314E+02  0.62755793087E+02 -0.16099000290E+03  0.22040784327E+03  0.12509563714E+03 0.  0.
          5    1    3    3  502    0 -0.21439628472E+02 -0.37709269449E+02 -0.57614277145E+02  0.72239352172E+02  0.41800000000E+01 0. -1.
         -5    1    3    3    0  502 -0.34009702841E+02  0.10046506254E+03 -0.10337572576E+03  0.14816849110E+03  0.41800000000E+01 0. -1.
        -11    1    1    2    0    0  0.76914366665E+02 -0.31006211191E+02 -0.32559466097E+02  0.89091659342E+02  0.00000000000E+00 0.  1.
         11    1    1    2    0    0 -0.21465035351E+02 -0.31749581895E+02 -0.41545812072E+02  0.56522899730E+02  0.00000000000E+00 0. -1.
</event>
<event>
 7    1  0.2844572E-009  0.1637512E+03  0.7561462E-02  0.1184526E+00
          3   -1    0    0  501    0  0.00000000000E+00  0.00000000000E+00  0.56533302969E+02  0.56533302969E+02  0.00000000000E+00 0. -1.
         -3   -1    0    0    0  501 -0.00000000000E+00 -0.00000000000E+00 -0.49832167392E+03  0.49832167392E+03  0.00000000000E+00 0.  1.
         25    2    1    2    0    0 -0.87112479158E+02 -0.88376239118E+02 -0.28515758907E+03  0.33520843147E+03  0.12510355015E+03 0.  0.
          5    1    3    3  502    0 -0.11817637446E+03 -0.82841433238E+02 -0.23368449306E+03  0.27468941231E+03  0.41800000000E+01 0.  1.
         -5    1    3    3    0  502  0.31063895298E+02 -0.55348058791E+01 -0.51473096008E+02  0.60519019158E+02  0.41800000000E+01 0.  1.
        -11    1    1    2    0    0  0.84578406234E+02  0.25462458742E+02 -0.11115665301E+03  0.14197762188E+03  0.00000000000E+00 0.  1.
         11    1    1    2    0    0  0.25340729243E+01  0.62913780376E+02 -0.45474128877E+02  0.77668923540E+02  0.00000000000E+00 0. -1.
</event>
<event>
 7    1  0.2941560E-009  0.2059164E+03  0.7561462E-02  0.1144841E+00
          2   -1    0    0  501    0  0.00000000000E+00  0.00000000000E+00  0.28931727605E+04  0.28931727605E+04  0.00000000000E+00 0. -1.
         -2   -1    0    0    0  501 -0.00000000000E+00 -0.00000000000E+00 -0.15227153935E+02  0.15227153935E+02  0.00000000000E+00 0.  1.
         25    2    1    2    0    0  0.17414207379E+03  0.27036966887E+02  0.17249145576E+04  0.17384035627E+04  0.12514094522E+03 0.  0.
          5    1    3    3  502    0 -0.14371839629E+02 -0.13909809113E+02  0.26611537801E+03  0.26689866874E+03  0.41800000000E+01 0.  1.
         -5    1    3    3    0  502  0.18851391342E+03  0.40946776000E+02  0.14587991796E+04  0.14715048940E+04  0.41800000000E+01 0.  1.
        -11    1    1    2    0    0 -0.81922238452E+02  0.33092590645E+02  0.52959286383E+03  0.53691244549E+03  0.00000000000E+00 0.  1.
         11    1    1    2    0    0 -0.92219835337E+02 -0.60129557533E+02  0.62343818509E+03  0.63308390624E+03  0.00000000000E+00 0. -1.
</event>
<event>
 7    1  0.2844572E-009  0.1639844E+03  0.7561462E-02  0.1184270E+00
          2   -1    0    0  501    0  0.00000000000E+00  0.00000000000E+00  0.27170821878E+03  0.27170821878E+03  0.00000000000E+00 0.  1.
         -2   -1    0    0    0  501 -0.00000000000E+00 -0.00000000000E+00 -0.14795281222E+03  0.14795281222E+03  0.00000000000E+00 0. -1.
         25    2    1    2    0    0  0.91711090645E+02  0.11509906317E+03 -0.20369118303E+02  0.19421930549E+03  0.12509004419E+03 0.  0.
          5    1    3    3  502    0  0.12236211331E+01  0.80447204913E+02  0.28703575295E+02  0.85525538067E+02  0.41800000000E+01 0. -1.
         -5    1    3    3    0  502  0.90487469512E+02  0.34651858252E+02 -0.49072693598E+02  0.10869376742E+03  0.41800000000E+01 0. -1.
        -11    1    1    2    0    0 -0.19800498322E+02 -0.48576933368E+02  0.15797066059E+01  0.52481174360E+02  0.00000000000E+00 0.  1.
         11    1    1    2    0    0 -0.71910592323E+02 -0.66522129797E+02  0.14254481826E+03  0.17296055115E+03  0.00000000000E+00 0. -1.
</event>
<event>
 6    1  0.2844572E-009  0.9889064E+02  0.7561462E-02  0.1282646E+00
         -2   -1    0    0    0  501 -0.00000000000E+00  0.00000000000E+00  0.42321067176E+02  0.42321067176E+02  0.00000000000E+00 0.  1.
          2   -1    0    0  501    0  0.00000000000E+00 -0.00000000000E+00 -0.41422140707E+03  0.41422140707E+03  0.00000000000E+00 0. -1.
          5    1    1    2  502    0 -0.29119061987E+02 -0.14352744610E+01  0.12738670646E+02  0.32089342680E+02  0.41800000000E+01 0. -1.
         -5    1    1    2    0  502  0.71881044626E+02  0.12017590540E+02 -0.10450286241E+03  0.12747402759E+03  0.41800000000E+01 0. -1.
        -11    1    1    2    0    0  0.73687262007E+01 -0.37646208988E+02 -0.15170110668E+03  0.15647607147E+03  0.00000000000E+00 0. -1.
         11    1    1    2    0    0 -0.50130708839E+02  0.27063892909E+02 -0.12843504146E+03  0.14050303250E+03  0.00000000000E+00 0.  1.
</event>
<event>
 7    1  0.2844572E-009  0.2305790E+03  0.7561462E-02  0.1126233E+00
         -1   -1    0    0    0  501 -0.00000000000E+00  0.00000000000E+00  0.10016037302E+03  0.10016037302E+03  0.00000000000E+00 0.  1.
          1   -1    0    0  501    0  0.00000000000E+00 -0.00000000000E+00 -0.62099114821E+03  0.62099114821E+03  0.00000000000E+00 0. -1.
         25    2    1    2    0    0  0.55933924636E+01 -0.21569617884E+03 -0.18048312858E+03  0.30786044914E+03  0.12509104219E+03 0.  0.
          5    1    3    3  502    0  0.58562584836E+02 -0.14162383265E+03 -0.82770265500E+02  0.17422765443E+03  0.41800000000E+01 0.  1.
         -5    1    3    3    0  502 -0.52969192373E+02 -0.74072346199E+02 -0.97712863083E+02  0.13363279472E+03  0.41800000000E+01 0.  1.
        -11    1    1    2    0    0 -0.22361756430E+00  0.20165346923E+03 -0.34313331619E+03  0.39800080947E+03  0.00000000000E+00 0. -1.
         11    1    1    2    0    0 -0.53697748993E+01  0.14042709616E+02  0.27856695785E+01  0.15290262615E+02  0.00000000000E+00 0.  1.
</event>
<event>
 7    1  0.2844572E-009  0.1160214E+03  0.7561462E-02  0.1249809E+00
         -1   -1    0    0    0  501 -0.00000000000E+00  0.00000000000E+00  0.73628374394E+02  0.73628374394E+02  0.00000000000E+00 0.  1.
          1   -1    0    0  501    0  0.00000000000E+00 -0.00000000000E+00 -0.25311393786E+03  0.25311393786E+03  0.00000000000E+00 0. -1.
         25    2    1    2    0    0  0.29732680689E+01  0.74303091735E+02 -0.60296496112E+02  0.15752060767E+03  0.12508910677E+03 0.  0.
          5    1    3    3  502    0 -0.35920896690E+02  0.93889027432E+02 -0.50983223884E+02  0.11279282694E+03  0.41800000000E+01 0. -1.
         -5    1    3    3    0  502  0.38894164759E+02 -0.19585935698E+02 -0.93132722278E+01  0.44727780730E+02  0.41800000000E+01 0. -1.
        -11    1    1    2    0    0 -0.23915940424E+02 -0.51138183774E+02 -0.12185591475E+02  0.57754434338E+02  0.00000000000E+00 0.  1.
         11    1    1    2    0    0  0.20942672355E+02 -0.23164907960E+02 -0.10700347588E+03  0.11146727025E+03  0.00000000000E+00 0. -1.
</event>
<event>
 7    1  0.2844572E-009  0.1203321E+03  0.7561462E-02  0.1242550E+00
         -2   -1    0    0    0  501 -0.00000000000E+00  0.00000000000E+00  0.15156899101E+02  0.15156899101E+02  0.00000000000E+00 0. -1.
          2   -1    0    0  501    0  0.00000000000E+00 -0.00000000000E+00 -0.11794703178E+04  0.11794703178E+04  0.00000000000E+00 0.  1.
         25    2    1    2    0    0 -0.49875001006E+02 -0.50403647323E+02 -0.87721281717E+03  0.88892146873E+03  0.12510398703E+03 0.  0.
          5    1    3    3  502    0 -0.63604303737E+02  0.17799723830E+02 -0.57393944941E+03  0.57774241805E+03  0.41800000000E+01 0. -1.
         -5    1    3    3    0  502  0.13729302731E+02 -0.68203371153E+02 -0.30327336775E+03  0.31117905067E+03  0.41800000000E+01 0. -1.
        -11    1    1    2    0    0 -0.11897868703E+01  0.53608702603E+02 -0.15707551331E+03  0.16597597859E+03  0.00000000000E+00 0.  1.
         11    1    1    2    0    0  0.51064787877E+02 -0.32050552801E+01 -0.13002508818E+03  0.13972976954E+03  0.00000000000E+00 0. -1.
</event>
<event>
 7    1  0.2844572E-009  0.1010415E+03  0.7561462E-02  0.1278121E+00
         -2   -1    0    0    0  501 -0.00000000000E+00  0.00000000000E+00  0.16186195400E+02  0.16186195400E+02  0.00000000000E+00 0.  1.
          2   -1    0    0  501    0  0.00000000000E+00 -0.00000000000E+00 -0.95703582738E+03  0.95703582738E+03  0.00000000000E+00 0. -1.
         25    2    1    2    0    0 -0.99213645073E+01  0.57613247123E+02 -0.54982404382E+03  0.56689618662E+03  0.12508831888E+03 0.  0.
          5    1    3    3  502    0  0.27357841134E+02 -0.13454248766E+02 -0.38456219189E+02  0.49252629124E+02  0.41800000000E+01 0. -1.
         -5    1    3    3    0  502 -0.37279205642E+02  0.71067495890E+02 -0.51136782464E+03  0.51764355750E+03  0.41800000000E+01 0. -1.
        -11    1    1    2    0    0  0.31682940478E+02 -0.26003891018E+01 -0.43936075391E+02  0.54230521494E+02  0.00000000000E+00 0.  1.
         11    1    1    2    0    0 -0.21761575971E+02 -0.55012858021E+02 -0.34708951277E+03  0.35209531466E+03  0.00000000000E+00 0. -1.
</event>
<event>
 7    1  0.2844572E-009  0.9028631E+02  0.7561462E-02  0.1302160E+00
         -2   -1    0    0    0  501 -0.00000000000E+00  0.00000000000E+00  0.29299932695E+02  0.29299932695E+02  0.00000000000E+00 0.  1.
          2   -1    0    0  501    0  0.00000000000E+00 -0.00000000000E+00 -0.61418198420E+03  0.61418198420E+03  0.00000000000E+00 0. -1.
         25    2    1    2    0    0  0.46974535418E+02 -0.58465712524E+02 -0.36598826326E+03  0.39397905774E+03  0.12508893868E+03 0.  0.
          5    1    3    3  502    0  0.24079978534E+02 -0.15821947056E+02 -0.33520317691E+03  0.33646518629E+03  0.41800000000E+01 0.  1.
         -5    1    3    3    0  502  0.22894556884E+02 -0.42643765468E+02 -0.30785086350E+02  0.57513871455E+02  0.41800000000E+01 0.  1.
        -11    1    1    2    0    0 -0.55342621444E+02  0.13267511908E+02 -0.54478201269E+02  0.78782656937E+02  0.00000000000E+00 0.  1.
         11    1    1    2    0    0  0.83680860267E+01  0.45198200616E+02 -0.16441558698E+03  0.17072020222E+03  0.00000000000E+00 0. -1.
</event>
<event>
 7    1  0.2844572E-009  0.9972130E+02  0.7561462E-02  0.1280883E+00
          1   -1    0    0  501    0  0.00000000000E+00  0.00000000000E+00  0.20764497232E+03  0.20764497232E+03  0.00000000000E+00 0. -1.
         -1   -1    0    0    0  501 -0.00000000000E+00 -0.00000000000E+00 -0.68842669017E+02  0.68842669017E+02  0.00000000000E+00 0.  1.
         25    2    1    2    0    0 -0.14058470844E+02  0.24827928850E+02  0.12802976482E+03  0.18125984166E+03  0.12509773325E+03 0.  0.
          5    1    3    3  502    0  0.48259326974E+02 -0.38507005937E+01  0.18585921891E+02  0.52025949560E+02  0.41800000000E+01 0.  1.
         -5    1    3    3    0  502 -0.62317797819E+02  0.28678629444E+02  0.10944384293E+03  0.12923389210E+03  0.41800000000E+01 0.  1.
        -11    1    1    2    0    0  0.45079710202E+02 -0.24044602374E+02 -0.16732442099E+02  0.53761489877E+02  0.00000000000E+00 0.  1.
         11    1    1    2    0    0 -0.31021239358E+02 -0.78332647656E+00  0.27504980581E+02  0.41466309800E+02  0.00000000000E+00 0. -1.
</event>
<event>
 7    1  0.2844572E-009  0.6653361E+02  0.7561462E-02  0.1372294E+00
          1   -1    0    0  501    0  0.00000000000E+00  0.00000000000E+00  0.45800369472E+02  0.45800369472E+02  0.00000000000E+00 0. -1.
         -1   -1    0    0    0  501 -0.00000000000E+00 -0.00000000000E+00 -0.29022454523E+03  0.29022454523E+03  0.00000000000E+00 0.  1.
         25    2    1    2    0    0  0.37145274448E+02 -0.13943357565E+02 -0.14476312542E+03  0.19538389518E+03  0.12507723765E+03 0.  0.
          5    1    3    3  502    0 -0.16868790060E+02 -0.31811401805E+02 -0.13205447127E+03  0.13693931921E+03  0.41800000000E+01 0.  1.
         -5    1    3    3    0  502  0.54014064508E+02  0.17868044240E+02 -0.12708654156E+02  0.58444575968E+02  0.41800000000E+01 0.  1.
        -11    1    1    2    0    0 -0.25538835598E+02  0.82047787409E+01 -0.11641590416E+03  0.11946636873E+03  0.00000000000E+00 0.  1.
         11    1    1    2    0    0 -0.11606438850E+02  0.57385788239E+01  0.16754853821E+02  0.21174650794E+02  0.00000000000E+00 0. -1.
</event>
<event>
 7    1  0.3191857E-009  0.1342191E+03  0.7561462E-02  0.1221326E+00
          1   -1    0    0  501    0  0.00000000000E+00  0.00000000000E+00  0.51573196599E+03  0.51573196599E+03  0.00000000000E+00 0. -1.
         -1   -1    0    0    0  501 -0.00000000000E+00 -0.00000000000E+00 -0.52264304594E+02  0.52264304594E+02  0.00000000000E+00 0.  1.
         25    2    1    2    0    0  0.67422326116E+02  0.56426975267E+02  0.39692277691E+03  0.42534938244E+03  0.12507850620E+03 0.  0.
          5    1    3    3  502    0  0.65761767193E+02  0.93823161130E+02  0.28216920070E+03  0.30457236548E+03  0.41800000000E+01 0.  1.
         -5    1    3    3    0  502  0.16605589228E+01 -0.37396185863E+02  0.11475357621E+03  0.12077701696E+03  0.41800000000E+01 0.  1.
        -11    1    1    2    0    0  0.13721821815E+02 -0.26114878860E+02 -0.54659221770E+01  0.30002526510E+02  0.00000000000E+00 0.  1.
         11    1    1    2    0    0 -0.81144147931E+02 -0.30312096408E+02  0.72010806666E+02  0.11264436164E+03  0.00000000000E+00 0. -1.
</event>
<event>
 7    1  0.2844572E-009  0.9945696E+02  0.7561462E-02  0.1281442E+00
         -1   -1    0    0    0  501 -0.00000000000E+00  0.00000000000E+00  0.16454597563E+03  0.16454597563E+03  0.00000000000E+00 0.  1.
          1   -1    0    0  501    0  0.00000000000E+00 -0.00000000000E+00 -0.78214137190E+02  0.78214137190E+02  0.00000000000E+00 0. -1.
         25    2    1    2    0    0  0.13102050439E+02 -0.87887962329E+01  0.14403476387E+02  0.12690413387E+03  0.12509313488E+03 0.  0.
          5    1    3    3  502    0  0.57562492768E+02  0.11830546716E+02  0.40239235273E+02  0.71344732564E+02  0.41800000000E+01 0. -1.
         -5    1    3    3    0  502 -0.44460442329E+02 -0.20619342949E+02 -0.25835758886E+02  0.55559401302E+02  0.41800000000E+01 0. -1.
        -11    1    1    2    0    0 -0.29248110540E+02 -0.34135631446E+02  0.36495964632E+02  0.57902061611E+02  0.00000000000E+00 0.  1.
         11    1    1    2    0    0  0.16146060101E+02  0.42924427679E+02  0.35432397422E+02  0.57953917343E+02  0.00000000000E+00 0. -1.
</event>
<event>
 7    1  0.2844572E-009  0.1017533E+03  0.7561462E-02  0.1276652E+00
         -1   -1    0    0    0  501 -0.00000000000E+00  0.00000000000E+00  0.17972844898E+03  0.17972844898E+03  0.00000000000E+00 0.  1.
          1   -1    0    0  501    0  0.00000000000E+00 -0.00000000000E+00 -0.11309991198E+03  0.11309991198E+03  0.00000000000E+00 0. -1.
         25    2    1    2    0    0  0.91020563752E+02 -0.50730050428E+01  0.50961344056E+02  0.16295305261E+03  0.12508461281E+03 0.  0.
          5    1    3    3  502    0  0.33810031251E+02  0.84847940410E+01 -0.40840887703E+02  0.53856851481E+02  0.41800000000E+01 0.  1.
         -5    1    3    3    0  502  0.57210532501E+02 -0.13557799084E+02  0.91802231760E+02  0.10909620113E+03  0.41800000000E+01 0.  1.
        -11    1    1    2    0    0 -0.41560396812E+02 -0.27859324241E+02  0.41574067408E+02  0.65052375907E+02  0.00000000000E+00 0.  1.
         11    1    1    2    0    0 -0.49460166939E+02  0.32932329284E+02 -0.25906874462E+02  0.64822932440E+02  0.00000000000E+00 0. -1.
</event>
<event>
 7    1  0.2844572E-009  0.1217576E+03  0.7561462E-02  0.1240225E+00
          2   -1    0    0  501    0  0.00000000000E+00  0.00000000000E+00  0.36979858726E+03  0.36979858726E+03  0.00000000000E+00 0. -1.
         -2   -1    0    0    0  501 -0.00000000000E+00 -0.00000000000E+00 -0.47491286860E+02  0.47491286860E+02  0.00000000000E+00 0.  1.
         25    2    1    2    0    0  0.51277219401E+02 -0.54918336331E+02  0.16564865236E+03  0.22074533132E+03  0.12507457125E+03 0.  0.
          5    1    3    3  502    0  0.88111994796E+02 -0.11743848655E+02  0.10241813138E+03  0.13567825044E+03  0.41800000000E+01 0.  1.
         -5    1    3    3    0  502 -0.36834775394E+02 -0.43174487675E+02  0.63230520987E+02  0.85067080876E+02  0.41800000000E+01 0.  1.
        -11    1    1    2    0    0 -0.47841197044E+02  0.55840867563E+01  0.21734366329E+02  0.52842642243E+02  0.00000000000E+00 0. -1.
         11    1    1    2    0    0 -0.34360223577E+01  0.49334249574E+02  0.13492428170E+03  0.14370190056E+03  0.00000000000E+00 0.  1.
</event>
<event>
 7    1  0.2844572E-009  0.2656235E+03  0.7561462E-02  0.1103811E+00
          2   -1    0    0  501    0  0.00000000000E+00  0.00000000000E+00  0.40745871465E+03  0.40745871465E+03  0.00000000000E+00 0. -1.
         -2   -1    0    0    0  501 -0.00000000000E+00 -0.00000000000E+00 -0.18687379430E+03  0.18687379430E+03  0.00000000000E+00 0.  1.
         25    2    1    2    0    0 -0.23735546621E+03 -0.70922500940E+02  0.55169465042E+02  0.28294613703E+03  0.12508888083E+03 0.  0.
          5    1    3    3  502    0 -0.18293196627E+03 -0.10704165559E+03  0.39372628908E+02  0.21561469482E+03  0.41800000000E+01 0. -1.
         -5    1    3    3    0  502 -0.54423499942E+02  0.36119154649E+02  0.15796836134E+02  0.67331442212E+02  0.41800000000E+01 0. -1.
        -11    1    1    2    0    0  0.18117476366E+03  0.77863010554E+02  0.16105870228E+03  0.25461117214E+03  0.00000000000E+00 0. -1.
         11    1    1    2    0    0  0.56180702550E+02 -0.69405096139E+01  0.43567530285E+01  0.56775199777E+02  0.00000000000E+00 0.  1.
</event>
<event>
 7    1  0.2844572E-009  0.1064084E+03  0.7561462E-02  0.1267369E+00
         -1   -1    0    0    0  501 -0.00000000000E+00  0.00000000000E+00  0.21490053260E+02  0.21490053260E+02  0.00000000000E+00 0.  1.
          1   -1    0    0  501    0  0.00000000000E+00 -0.00000000000E+00 -0.13028231889E+04  0.13028231889E+04  0.00000000000E+00 0. -1.
         25    2    1    2    0    0  0.10854385206E+02 -0.57169412491E+02 -0.11326503875E+04  0.11410213128E+04  0.12508627648E+03 0.  0.
          5    1    3    3  502    0  0.22478295233E+02 -0.94150238065E+02 -0.89005730434E+03  0.89531503869E+03  0.41800000000E+01 0.  1.
         -5    1    3    3    0  502 -0.11623910027E+02  0.36980825575E+02 -0.24259308316E+03  0.24570627412E+03  0.41800000000E+01 0.  1.
        -11    1    1    2    0    0  0.18326995440E+02  0.85200465926E+01  0.38296273991E+01  0.20570269853E+02  0.00000000000E+00 0.  1.
         11    1    1    2    0    0 -0.29181380647E+02  0.48649365898E+02 -0.15251237551E+03  0.16272165948E+03  0.00000000000E+00 0. -1.
</event>
<event>
 7    1  0.4110387E-009  0.1330480E+03  0.7561462E-02  0.1223002E+00
          1   -1    0    0  501    0  0.00000000000E+00  0.00000000000E+00  0.49280771752E+03  0.49280771752E+03  0.00000000000E+00 0. -1.
         -1   -1    0    0    0  501 -0.00000000000E+00 -0.00000000000E+00 -0.53089181142E+02  0.53089181142E+02  0.00000000000E+00 0.  1.
         25    2    1    2    0    0 -0.46321126300E+02 -0.10659134979E+03  0.28568514826E+03  0.33281962523E+03  0.12508211865E+03 0.  0.
          5    1    3    3  502    0 -0.31581131008E+02 -0.35684457885E+02  0.11497487532E+02  0.49197692932E+02  0.41800000000E+01 0. -1.
         -5    1    3    3    0  502 -0.14739995292E+02 -0.70906891908E+02  0.27418766073E+03  0.28362193230E+03  0.41800000000E+01 0. -1.
        -11    1    1    2    0    0  0.14652704679E+01  0.10042951551E+03  0.11968470012E+03  0.15624551849E+03  0.00000000000E+00 0. -1.
         11    1    1    2    0    0  0.44855855832E+02  0.61618342847E+01  0.34348687992E+02  0.56831754953E+02  0.00000000000E+00 0.  1.
</event>
<event>
 7    1  0.2844572E-009  0.1204354E+03  0.7561462E-02  0.1242380E+00
          2   -1    0    0  501    0  0.00000000000E+00  0.00000000000E+00  0.56355893309E+02  0.56355893309E+02  0.00000000000E+00 0. -1.
         -2   -1    0    0    0  501 -0.00000000000E+00 -0.00000000000E+00 -0.42848079794E+03  0.42848079794E+03  0.00000000000E+00 0.  1.
         25    2    1    2    0    0  0.74284476647E+02  0.55106931541E+01 -0.71814283617E+02  0.16233640156E+03  0.12508902721E+03 0.  0.
          5    1    3    3  502    0  0.31612470557E+02 -0.49021774421E+02 -0.72267335329E+02  0.92965169917E+02  0.41800000000E+01 0.  1.
         -5    1    3    3    0  502  0.42672006089E+02  0.54532467575E+02  0.45305171258E+00  0.69371231641E+02  0.41800000000E+01 0.  1.
        -11    1    1    2    0    0 -0.12369303397E+02  0.36274021878E+02 -0.63301332020E+02  0.73999074084E+02  0.00000000000E+00 0. -1.
         11    1    1    2    0    0 -0.61915173250E+02 -0.41784715033E+02 -0.23700928900E+03  0.24850121561E+03  0.00000000000E+00 0.  1.
</event>
<event>
 7    1  0.2844572E-009  0.1242340E+03  0.7561462E-02  0.1236271E+00
          1   -1    0    0  501    0  0.00000000000E+00  0.00000000000E+00  0.86582845767E+02  0.86582845767E+02  0.00000000000E+00 0. -1.
         -1   -1    0    0    0  501 -0.00000000000E+00 -0.00000000000E+00 -0.21687850295E+03  0.21687850295E+03  0.00000000000E+00 0.  1.
         25    2    1    2    0    0  0.56236913959E+02 -0.59093293399E+02 -0.89826959927E+02  0.17427297015E+03  0.12509027772E+03 0.  0.
          5    1    3    3  502    0  0.56051623291E+02 -0.92865794811E+02 -0.43853182023E+02  0.11707439640E+03  0.41800000000E+01 0.  1.
         -5    1    3    3    0  502  0.18529066834E+00  0.33772501412E+02 -0.45973777904E+02  0.57198573749E+02  0.41800000000E+01 0.  1.
        -11    1    1    2    0    0 -0.60283072946E+02  0.15685371519E+02 -0.55140299510E+02  0.83189737309E+02  0.00000000000E+00 0.  1.
         11    1    1    2    0    0  0.40461589864E+01  0.43407921880E+02  0.14671602255E+02  0.45998641255E+02  0.00000000000E+00 0. -1.
</event>
<event>
 7    1  0.2844572E-009  0.3220670E+03  0.7561462E-02  0.1074702E+00
         -1   -1    0    0    0  501 -0.00000000000E+00  0.00000000000E+00  0.88823618338E+02  0.88823618338E+02  0.00000000000E+00 0.  1.
          1   -1    0    0  501    0  0.00000000000E+00 -0.00000000000E+00 -0.13074809354E+04  0.13074809354E+04  0.00000000000E+00 0. -1.
         25    2    1    2    0    0  0.22419535535E+02 -0.32119870619E+03 -0.66498412565E+03  0.74934815389E+03  0.12509006330E+03 0.  0.
          5    1    3    3  502    0  0.44474146475E+01 -0.66720400065E+02 -0.50193714205E+02  0.83715426461E+02  0.41800000000E+01 0. -1.
         -5    1    3    3    0  502  0.17972120888E+02 -0.25447830613E+03 -0.61479041144E+03  0.66563272743E+03  0.41800000000E+01 0. -1.
        -11    1    1    2    0    0 -0.48768407005E+01  0.84531048767E+02 -0.76878443845E+02  0.11436597793E+03  0.00000000000E+00 0.  1.
         11    1    1    2    0    0 -0.17542694835E+02  0.23666765743E+03 -0.47679474760E+03  0.53259042195E+03  0.00000000000E+00 0. -1.
</event>
<event>
 7    1  0.2844572E-009  0.1007986E+03  0.7561462E-02  0.1278625E+00
          1   -1    0    0  501    0  0.00000000000E+00  0.00000000000E+00  0.28287037440E+03  0.28287037440E+03  0.00000000000E+00 0. -1.
         -1   -1    0    0    0  501 -0.00000000000E+00 -0.00000000000E+00 -0.63083591055E+02  0.63083591055E+02  0.00000000000E+00 0.  1.
         25    2    1    2    0    0 -0.10920547212E+02 -0.48824830373E+02  0.43852646495E+02  0.14168194652E+03  0.12509035515E+03 0.  0.
          5    1    3    3  502    0 -0.20538980635E+02 -0.89879828228E+02  0.28085708222E+02  0.96470268239E+02  0.41800000000E+01 0.  1.
         -5    1    3    3    0  502  0.96184334222E+01  0.41054997854E+02  0.15766938273E+02  0.45211678279E+02  0.41800000000E+01 0.  1.
        -11    1    1    2    0    0  0.13980386329E+02 -0.35855432357E+01 -0.54617101366E+01  0.15431707612E+02  0.00000000000E+00 0.  1.
         11    1    1    2    0    0 -0.30598391168E+01  0.52410373609E+02  0.18139584699E+03  0.18884031133E+03  0.00000000000E+00 0. -1.
</event>
<event>
 7    1  0.2844572E-009  0.9029564E+02  0.7561462E-02  0.1302137E+00
          1   -1    0    0  501    0  0.00000000000E+00  0.00000000000E+00  0.14761411277E+03  0.14761411277E+03  0.00000000000E+00 0. -1.
         -1   -1    0    0    0  501 -0.00000000000E+00 -0.00000000000E+00 -0.90074140123E+02  0.90074140123E+02  0.00000000000E+00 0.  1.
         25    2    1    2    0    0  0.13293903249E+02  0.39251352929E+02  0.17857294476E+02  0.13297914291E+03  0.12508866021E+03 0.  0.
          5    1    3    3  502    0  0.49982153192E+02  0.27470637813E+02 -0.35290596015E+02  0.67199331445E+02  0.41800000000E+01 0.  1.
         -5    1    3    3    0  502 -0.36688249943E+02  0.11780715116E+02  0.53147890491E+02  0.65779811464E+02  0.41800000000E+01 0.  1.
        -11    1    1    2    0    0  0.86109495061E+01  0.19838061368E+02 -0.10603606437E+02  0.24085962711E+02  0.00000000000E+00 0.  1.
         11    1    1    2    0    0 -0.21904852755E+02 -0.59089414298E+02  0.50286284605E+02  0.80623147269E+02  0.00000000000E+00 0. -1.
</event>
<event>
 7    1  0.2844572E-009  0.9796042E+02  0.7561462E-02  0.1284644E+00
          2   -1    0    0  501    0  0.00000000000E+00  0.00000000000E+00  0.18758542764E+03  0.18758542764E+03  0.00000000000E+00 0.  1.
         -2   -1    0    0    0  501 -0.00000000000E+00 -0.00000000000E+00 -0.73028005910E+02  0.73028005910E+02  0.00000000000E+00 0. -1.
         25    2    1    2    0    0 -0.18950399005E+02 -0.55799488645E+01  0.42222943032E+02  0.13349622248E+03  0.12509280974E+03 0.  0.
          5    1    3    3  502    0 -0.15270648614E+02  0.55612238527E+02 -0.18949733235E+01  0.57853064802E+02  0.41800000000E+01 0.  1.
         -5    1    3    3    0  502 -0.36797503909E+01 -0.61192187392E+02  0.44117916355E+02  0.75643157683E+02  0.41800000000E+01 0.  1.
        -11    1    1    2    0    0  0.45769093778E+02  0.15099731125E+02  0.83610381449E+02  0.96506516419E+02  0.00000000000E+00 0.  1.
         11    1    1    2    0    0 -0.26818694773E+02 -0.95197822606E+01 -0.11275902753E+02  0.30610694643E+02  0.00000000000E+00 0. -1.
</event>
<event>
 7    1  0.2844572E-009  0.9720701E+02  0.7561462E-02  0.1286281E+00
         -1   -1    0    0    0  501 -0.00000000000E+00  0.00000000000E+00  0.83087406275E+02  0.83087406275E+02  0.00000000000E+00 0.  1.
          1   -1    0    0  501    0  0.00000000000E+00 -0.00000000000E+00 -0.12677135026E+03  0.12677135026E+03  0.00000000000E+00 0. -1.
         25    2    1    2    0    0  0.88353626444E+00  0.10411891633E+02 -0.52753145878E+02  0.13616085806E+03  0.12509075403E+03 0.  0.
          5    1    3    3  502    0  0.39853792972E+02 -0.43125631413E+02 -0.29552319713E+02  0.65870759063E+02  0.41800000000E+01 0.  1.
         -5    1    3    3    0  502 -0.38970256708E+02  0.53537523047E+02 -0.23200826165E+02  0.70290098994E+02  0.41800000000E+01 0.  1.
        -11    1    1    2    0    0 -0.10767923388E+02  0.27753500424E+02 -0.78644233728E+01  0.30790487408E+02  0.00000000000E+00 0. -1.
         11    1    1    2    0    0  0.98843871231E+01 -0.38165392057E+02  0.16933625270E+02  0.42907411067E+02  0.00000000000E+00 0.  1.
</event>
<event>
 7    1  0.3616885E-009  0.1119855E+03  0.7561462E-02  0.1256937E+00
         -2   -1    0    0    0  501 -0.00000000000E+00  0.00000000000E+00  0.19354729610E+02  0.19354729610E+02  0.00000000000E+00 0. -1.
          2   -1    0    0  501    0  0.00000000000E+00 -0.00000000000E+00 -0.89762860549E+03  0.89762860549E+03  0.00000000000E+00 0.  1.
         25    2    1    2    0    0 -0.23570687762E+02  0.65785583986E+02 -0.57803258510E+03  0.59552674744E+03  0.12508843710E+03 0.  0.
          5    1    3    3  502    0  0.31347907338E+02 -0.74098982354E+00 -0.35419307984E+03  0.35560293948E+03  0.41800000000E+01 0.  1.
         -5    1    3    3    0  502 -0.54918595100E+02  0.66526573809E+02 -0.22383950526E+03  0.23992380796E+03  0.41800000000E+01 0.  1.
        -11    1    1    2    0    0 -0.27293673292E+02 -0.68894794834E+01 -0.34348301762E+02  0.44409631425E+02  0.00000000000E+00 0. -1.
         11    1    1    2    0    0  0.50864361054E+02 -0.58896104502E+02 -0.26589298902E+03  0.27704695624E+03  0.00000000000E+00 0.  1.
</event>
<event>
 7    1  0.2844572E-009  0.1535733E+03  0.7561462E-02  0.1196150E+00
          2   -1    0    0  501    0  0.00000000000E+00  0.00000000000E+00  0.51770521707E+03  0.51770521707E+03  0.00000000000E+00 0. -1.
         -2   -1    0    0    0  501 -0.00000000000E+00 -0.00000000000E+00 -0.53649895974E+02  0.53649895974E+02  0.00000000000E+00 0.  1.
         25    2    1    2    0    0  0.47603120907E+02  0.11278792497E+03  0.21522639614E+03  0.27741003253E+03  0.12508697540E+03 0.  0.
          5    1    3    3  502    0 -0.32862927176E+02  0.43256117471E+02  0.26142323824E+02  0.60431425402E+02  0.41800000000E+01 0.  1.
         -5    1    3    3    0  502  0.80466048083E+02  0.69531807498E+02  0.18908407232E+03  0.21697860713E+03  0.41800000000E+01 0.  1.
        -11    1    1    2    0    0  0.62832088584E+01 -0.85686626594E+02  0.19505029173E+03  0.21313444816E+03  0.00000000000E+00 0. -1.
         11    1    1    2    0    0 -0.53886329765E+02 -0.27101298374E+02  0.53778633235E+02  0.80810632356E+02  0.00000000000E+00 0.  1.
</event>
<event>
 7    1  0.2844572E-009  0.2407757E+03  0.7561462E-02  0.1119277E+00
          1   -1    0    0  501    0  0.00000000000E+00  0.00000000000E+00  0.50815546419E+03  0.50815546419E+03  0.00000000000E+00 0. -1.
         -1   -1    0    0    0  501 -0.00000000000E+00 -0.00000000000E+00 -0.12585134926E+03  0.12585134926E+03  0.00000000000E+00 0.  1.
         25    2    1    2    0    0  0.11604863259E+03 -0.19356979467E+03  0.24172992755E+03  0.35357098239E+03  0.12507010507E+03 0.  0.
          5    1    3    3  502    0  0.19655139102E+02  0.36119037862E+01 -0.72225866708E+01  0.21656604080E+02  0.41800000000E+01 0. -1.
         -5    1    3    3    0  502  0.96393493488E+02 -0.19718169846E+03  0.24895251422E+03  0.33191437831E+03  0.41800000000E+01 0. -1.
        -11    1    1    2    0    0 -0.31055018404E+01  0.84647962668E+02  0.37049381670E+02  0.92453114645E+02  0.00000000000E+00 0. -1.
         11    1    1    2    0    0 -0.11294313075E+03  0.10892183201E+03  0.10352480571E+03  0.18798271641E+03  0.00000000000E+00 0.  1.
</event>
<event>
 7    1  0.2844572E-009  0.7855426E+02  0.7561462E-02  0.1333205E+00
         -2   -1    0    0    0  501 -0.00000000000E+00  0.00000000000E+00  0.67169612268E+02  0.67169612268E+02  0.00000000000E+00 0.  1.
          2   -1    0    0  501    0  0.00000000000E+00 -0.00000000000E+00 -0.20049491469E+03  0.20049491469E+03  0.00000000000E+00 0. -1.
         25    2    1    2    0    0  0.20602880125E+01 -0.61825418071E+02 -0.87864271307E+02  0.16490614353E+03  0.12508908384E+03 0.  0.
          5    1    3    3  502    0  0.91857848478E+01 -0.20133688093E+02  0.31202258598E+02  0.38481130195E+02  0.41800000000E+01 0.  1.
         -5    1    3    3    0  502 -0.71254968353E+01 -0.41691729979E+02 -0.11906652991E+03  0.12642501334E+03  0.41800000000E+01 0.  1.
        -11    1    1    2    0    0 -0.28007698233E+02  0.34714900094E+01 -0.12094089135E+02  0.30704224387E+02  0.00000000000E+00 0.  1.
         11    1    1    2    0    0  0.25947410221E+02  0.58353928062E+02 -0.33366941977E+02  0.72054159036E+02  0.00000000000E+00 0. -1.
</event>
<event>
 7    1  0.2844572E-009  0.9166121E+02  0.7561462E-02  0.1298878E+00
         -2   -1    0    0    0  501 -0.00000000000E+00  0.00000000000E+00  0.25040175092E+02  0.25040175092E+02  0.00000000000E+00 0.  1.
          2   -1    0    0  501    0  0.00000000000E+00 -0.00000000000E+00 -0.60830353851E+03  0.60830353851E+03  0.00000000000E+00 0. -1.
         25    2    1    2    0    0 -0.26828902484E+01  0.53686808091E+02 -0.39710519488E+03  0.41979997594E+03  0.12510001092E+03 0.  0.
          5    1    3    3  502    0  0.25980465964E+02  0.38327955026E+02 -0.37997390815E+03  0.38280760183E+03  0.41800000000E+01 0.  1.
         -5    1    3    3    0  502 -0.28663356212E+02  0.15358853064E+02 -0.17131286735E+02  0.36992374106E+02  0.41800000000E+01 0.  1.
        -11    1    1    2    0    0  0.36371779630E+02 -0.59618026749E+02 -0.13515222632E+03  0.15212935202E+03  0.00000000000E+00 0. -1.
         11    1    1    2    0    0 -0.33688889382E+02  0.59312186580E+01 -0.51005942214E+02  0.61414385641E+02  0.00000000000E+00 0.  1.
</event>
<event>
 7    1  0.2844572E-009  0.1580999E+03  0.7561462E-02  0.1190859E+00
          2   -1    0    0  501    0  0.00000000000E+00  0.00000000000E+00  0.15146937650E+03  0.15146937650E+03  0.00000000000E+00 0. -1.
         -2   -1    0    0    0  501 -0.00000000000E+00 -0.00000000000E+00 -0.16978777416E+03  0.16978777416E+03  0.00000000000E+00 0.  1.
         25    2    1    2    0    0  0.98047104884E+02  0.62224446566E+02  0.38957421950E+01  0.17073887833E+03  0.12510584014E+03 0.  0.
          5    1    3    3  502    0 -0.12316923392E+02  0.58441208053E+02  0.63244510345E+01  0.60204256340E+02  0.41800000000E+01 0.  1.
         -5    1    3    3    0  502  0.11036402828E+03  0.37832385131E+01 -0.24287088395E+01  0.11053462199E+03  0.41800000000E+01 0.  1.
        -11    1    1    2    0    0 -0.57627069326E+02  0.14213206696E+02 -0.24026528281E+02  0.64032557538E+02  0.00000000000E+00 0.  1.
         11    1    1    2    0    0 -0.40420035558E+02 -0.76437653262E+02  0.18123884250E+01  0.86485714789E+02  0.00000000000E+00 0. -1.
</event>
<event>
 7    1  0.2844572E-009  0.7185503E+02  0.7561462E-02  0.1353896E+00
          2   -1    0    0  501    0  0.00000000000E+00  0.00000000000E+00  0.22725187912E+02  0.22725187912E+02  0.00000000000E+00 0. -1.
         -2   -1    0    0    0  501 -0.00000000000E+00 -0.00000000000E+00 -0.61296461975E+03  0.61296461975E+03  0.00000000000E+00 0.  1.
         25    2    1    2    0    0  0.36595097372E+02  0.29246902178E+02 -0.34487100074E+03  0.36983568523E+03  0.12509134454E+03 0.  0.
          5    1    3    3  502    0  0.14544946733E+02 -0.87689742622E+01  0.41970390016E+01  0.17987159905E+02  0.41800000000E+01 0. -1.
         -5    1    3    3    0  502  0.22050150640E+02  0.38015876440E+02 -0.34906803974E+03  0.35184852532E+03  0.41800000000E+01 0. -1.
        -11    1    1    2    0    0 -0.29289446100E+01  0.21212533606E+02 -0.11620501653E+02  0.24363627751E+02  0.00000000000E+00 0. -1.
         11    1    1    2    0    0 -0.33666152762E+02 -0.50459435785E+02 -0.23374792945E+03  0.24149049469E+03  0.00000000000E+00 0.  1.
</event>
<event>
 7    1  0.2844572E-009  0.1391820E+03  0.7561462E-02  0.1214434E+00
          1   -1    0    0  501    0  0.00000000000E+00  0.00000000000E+00  0.20092410101E+03  0.20092410101E+03  0.00000000000E+00 0. -1.
         -1   -1    0    0    0  501 -0.00000000000E+00 -0.00000000000E+00 -0.14435172447E+03  0.14435172447E+03  0.00000000000E+00 0.  1.
         25    2    1    2    0    0 -0.89314598063E+02 -0.66734787696E+02 -0.40262974344E+02  0.17232912959E+03  0.12508234283E+03 0.  0.
          5    1    3    3  502    0 -0.11204426257E+03 -0.19383193191E+02 -0.36535186692E+02  0.11950697561E+03  0.41800000000E+01 0. -1.
         -5    1    3    3    0  502  0.22729664506E+02 -0.47351594505E+02 -0.37277876518E+01  0.52822153984E+02  0.41800000000E+01 0. -1.
        -11    1    1    2    0    0  0.25128139140E+02  0.24208391230E+02  0.88948913098E+02  0.95547782412E+02  0.00000000000E+00 0. -1.
         11    1    1    2    0    0  0.64186458923E+02  0.42526396467E+02  0.78864377923E+01  0.77398913472E+02  0.00000000000E+00 0.  1.
</event>
<event>
 7    1  0.2844572E-009  0.1545350E+03  0.7561462E-02  0.1195009E+00
         -1   -1    0    0    0  501 -0.00000000000E+00  0.00000000000E+00  0.27185014595E+02  0.27185014595E+02  0.00000000000E+00 0.  1.
          1   -1    0    0  501    0  0.00000000000E+00 -0.00000000000E+00 -0.10420075485E+04  0.10420075485E+04  0.00000000000E+00 0. -1.
         25    2    1    2    0    0  0.11433513694E+03 -0.57760072416E+02 -0.66676169493E+03  0.69038136728E+03  0.12508607018E+03 0.  0.
          5    1    3    3  502    0  0.89637177717E+02 -0.94759913072E+02 -0.42724356103E+03  0.44673123642E+03  0.41800000000E+01 0. -1.
         -5    1    3    3    0  502  0.24697959228E+02  0.36999840656E+02 -0.23951813390E+03  0.24365013085E+03  0.41800000000E+01 0. -1.
        -11    1    1    2    0    0 -0.24699007792E+02  0.32375995480E+02 -0.19830467407E+03  0.20244255933E+03  0.00000000000E+00 0. -1.
         11    1    1    2    0    0 -0.89636129153E+02  0.25384076936E+02 -0.14975616493E+03  0.17636863652E+03  0.00000000000E+00 0.  1.
</event>
<event>
 7    1  0.2844572E-009  0.1127144E+03  0.7561462E-02  0.1255624E+00
          1   -1    0    0  501    0  0.00000000000E+00  0.00000000000E+00  0.24138244318E+03  0.24138244318E+03  0.00000000000E+00 0. -1.
         -1   -1    0    0    0  501 -0.00000000000E+00 -0.00000000000E+00 -0.70613411882E+02  0.70613411882E+02  0.00000000000E+00 0.  1.
         25    2    1    2    0    0 -0.33137517045E+02 -0.54913366932E+02  0.55081433898E+02  0.15097961028E+03  0.12508919000E+03 0.  0.
          5    1    3    3  502    0  0.27920823016E+02 -0.52660042115E+02 -0.11139981198E+02  0.60780128122E+02  0.41800000000E+01 0. -1.
         -5    1    3    3    0  502 -0.61058340061E+02 -0.22533248170E+01  0.66221415095E+02  0.90199482155E+02  0.41800000000E+01 0. -1.
        -11    1    1    2    0    0  0.20667892118E+02  0.76643744906E+02  0.10943456737E+03  0.13519374961E+03  0.00000000000E+00 0. -1.
         11    1    1    2    0    0  0.12469624927E+02 -0.21730377974E+02  0.62530300361E+01  0.25822495181E+02  0.00000000000E+00 0.  1.
</event>
<event>
 7    1  0.3431481E-009  0.1907932E+03  0.7561462E-02  0.1157748E+00
          2   -1    0    0  501    0  0.00000000000E+00  0.00000000000E+00  0.70853197298E+03  0.70853197298E+03  0.00000000000E+00 0. -1.
         -2   -1    0    0    0  501 -0.00000000000E+00 -0.00000000000E+00 -0.63756071819E+02  0.63756071819E+02  0.00000000000E+00 0.  1.
         25    2    1    2    0    0 -0.12619297294E+03 -0.11918523397E+03  0.23496633759E+03  0.31778392841E+03  0.12509060293E+03 0.  0.
          5    1    3    3  502    0  0.91084623451E+01 -0.13230620077E+02  0.94055860282E+02  0.95509112902E+02  0.41800000000E+01 0.  1.
         -5    1    3    3    0  502 -0.13530143528E+03 -0.10595461389E+03  0.14091047731E+03  0.22227481551E+03  0.41800000000E+01 0.  1.
        -11    1    1    2    0    0  0.97202290273E+01  0.63044932161E+02  0.17783322582E+03  0.18892803531E+03  0.00000000000E+00 0.  1.
         11    1    1    2    0    0  0.11647274391E+03  0.56140301809E+02  0.23197633775E+03  0.26557608107E+03  0.00000000000E+00 0. -1.
</event>
<event>
 7    1  0.2844572E-009  0.6425919E+02  0.7561462E-02  0.1380780E+00
          2   -1    0    0  501    0  0.00000000000E+00  0.00000000000E+00  0.12230732493E+03  0.12230732493E+03  0.00000000000E+00 0. -1.
         -2   -1    0    0    0  501 -0.00000000000E+00 -0.00000000000E+00 -0.10667978977E+03  0.10667978977E+03  0.00000000000E+00 0.  1.
         25    2    1    2    0    0 -0.31555985049E+02 -0.18200866043E+02  0.78323523907E+01  0.13052229444E+03  0.12509065467E+03 0.  0.
          5    1    3    3  502    0 -0.40949080538E+01  0.19929570071E+02 -0.51025903667E+02  0.55091481013E+02  0.41800000000E+01 0. -1.
         -5    1    3    3    0  502 -0.27461076995E+02 -0.38130436113E+02  0.58858256058E+02  0.75430813426E+02  0.41800000000E+01 0. -1.
        -11    1    1    2    0    0  0.28899414513E+02  0.33959182758E+02 -0.32459199307E+02  0.55154345907E+02  0.00000000000E+00 0.  1.
         11    1    1    2    0    0  0.26565705356E+01 -0.15758316715E+02  0.40254382078E+02  0.43310474359E+02  0.00000000000E+00 0. -1.
</event>
<event>
 7    1  0.2844572E-009  0.1433885E+03  0.7561462E-02  0.1208841E+00
         -2   -1    0    0    0  501 -0.00000000000E+00  0.00000000000E+00  0.19754193960E+02  0.19754193960E+02  0.00000000000E+00 0.  1.
          2   -1    0    0  501    0  0.00000000000E+00 -0.00000000000E+00 -0.16753836714E+04  0.16753836714E+04  0.00000000000E+00 0. -1.
         25    2    1    2    0    0  0.10660139820E+03 -0.44525517347E+02 -0.12861772585E+04  0.12974004673E+04  0.12509857172E+03 0.  0.
          5    1    3    3  502    0 -0.16087518526E+02 -0.44317408520E+02 -0.38600882593E+03  0.38889989335E+03  0.41800000000E+01 0.  1.
         -5    1    3    3    0  502  0.12268891672E+03 -0.20810882706E+00 -0.90016843255E+03  0.90850057399E+03  0.41800000000E+01 0.  1.
        -11    1    1    2    0    0 -0.59029903147E+02  0.15779383307E+02 -0.68908514419E+02  0.92097240798E+02  0.00000000000E+00 0.  1.
         11    1    1    2    0    0 -0.47571495051E+02  0.28746134040E+02 -0.30054370451E+03  0.30564015718E+03  0.00000000000E+00 0. -1.
</event>
<event>
 7    1  0.2844572E-009  0.9575494E+02  0.7561462E-02  0.1289485E+00
         -1   -1    0    0    0  501 -0.00000000000E+00  0.00000000000E+00  0.28434308283E+02  0.28434308283E+02  0.00000000000E+00 0.  1.
          1   -1    0    0  501    0  0.00000000000E+00 -0.00000000000E+00 -0.48173995385E+03  0.48173995385E+03  0.00000000000E+00 0. -1.
         25    2    1    2    0    0 -0.65831220899E+01 -0.95784046823E+01 -0.35177113382E+03  0.37353152230E+03  0.12509110372E+03 0.  0.
          5    1    3    3  502    0 -0.77679587981E+01  0.54803404916E+02 -0.21878342428E+03  0.22571533735E+03  0.41800000000E+01 0.  1.
         -5    1    3    3    0  502  0.11848367082E+01 -0.64381809598E+02 -0.13298770955E+03  0.14781618496E+03  0.41800000000E+01 0.  1.
        -11    1    1    2    0    0 -0.91456494486E+01 -0.28682392071E+02 -0.35874422528E+01  0.30318183664E+02  0.00000000000E+00 0.  1.
         11    1    1    2    0    0  0.15728771538E+02  0.38260796753E+02 -0.97947069491E+02  0.10632455617E+03  0.00000000000E+00 0. -1.
</event>
<event>
 7    1  0.2844572E-009  0.1426966E+03  0.7561462E-02  0.1209746E+00
          1   -1    0    0  501    0  0.00000000000E+00  0.00000000000E+00  0.62259656425E+03  0.62259656425E+03  0.00000000000E+00 0. -1.
         -1   -1    0    0    0  501 -0.00000000000E+00 -0.00000000000E+00 -0.33987153506E+02  0.33987153506E+02  0.00000000000E+00 0.  1.
         25    2    1    2    0    0  0.78090966791E+02  0.42148315049E+02  0.29953187840E+03  0.33651389028E+03  0.12509025788E+03 0.  0.
          5    1    3    3  502    0  0.32865794682E+02  0.82888707006E+02  0.20983882059E+03  0.22803618405E+03  0.41800000000E+01 0. -1.
         -5    1    3    3    0  502  0.45225172109E+02 -0.40740391957E+02  0.89693057806E+02  0.10847770622E+03  0.41800000000E+01 0. -1.
        -11    1    1    2    0    0 -0.62343686955E+02 -0.75691067529E+02  0.18160593663E+03  0.20638941161E+03  0.00000000000E+00 0.  1.
         11    1    1    2    0    0 -0.15747279836E+02  0.33542752480E+02  0.10747159572E+03  0.11368041587E+03  0.00000000000E+00 0. -1.
</event>
<event>
 7    1  0.2844572E-009  0.1116906E+03  0.7561462E-02  0.1257471E+00
          1   -1    0    0  501    0  0.00000000000E+00  0.00000000000E+00  0.26083224290E+03  0.26083224290E+03  0.00000000000E+00 0. -1.
         -1   -1    0    0    0  501 -0.00000000000E+00 -0.00000000000E+00 -0.76068150029E+02  0.76068150029E+02  0.00000000000E+00 0.  1.
         25    2    1    2    0    0  0.73846759022E+02 -0.27898965923E+02  0.15308744089E+03  0.21287460809E+03  0.12509251813E+03 0.  0.
          5    1    3    3  502    0  0.79646695901E+02  0.30535089205E+02  0.11304265081E+03  0.14167604294E+03  0.41800000000E+01 0.  1.
         -5    1    3    3    0  502 -0.57999368790E+01 -0.58434055129E+02  0.40044790083E+02  0.71198565150E+02  0.41800000000E+01 0.  1.
        -11    1    1    2    0    0 -0.56718790705E+02  0.19061957030E+02 -0.24482728476E+02  0.64651244524E+02  0.00000000000E+00 0.  1.
         11    1    1    2    0    0 -0.17127968317E+02  0.88370088929E+01  0.56159380455E+02  0.59374540317E+02  0.00000000000E+00 0. -1.
</event>
<event>
 7    1  0.2844572E-009  0.6859155E+02  0.7561462E-02  0.1364949E+00
          2   -1    0    0  501    0  0.00000000000E+00  0.00000000000E+00  0.87398951657E+02  0.87398951657E+02  0.00000000000E+00 0. -1.
         -2   -1    0    0    0  501 -0.00000000000E+00 -0.00000000000E+00 -0.16531061230E+03  0.16531061230E+03  0.00000000000E+00 0.  1.
         25    2    1    2    0    0 -0.13742966951E+02 -0.49944214853E+02 -0.42832562125E+02  0.14198610723E+03  0.12506851135E+03 0.  0.
          5    1    3    3  502    0 -0.13903042940E+02 -0.36892329129E+01  0.42374156621E+02  0.44943815946E+02  0.41800000000E+01 0.  1.
         -5    1    3    3    0  502  0.16007598923E+00 -0.46254981940E+02 -0.85206718746E+02  0.97042291286E+02  0.41800000000E+01 0.  1.
        -11    1    1    2    0    0  0.52307177115E+01 -0.12075115029E+02 -0.45407935379E+02  0.47276309142E+02  0.00000000000E+00 0.  1.
         11    1    1    2    0    0  0.85122492397E+01  0.62019329882E+02  0.10328836856E+02  0.63447147587E+02  0.00000000000E+00 0. -1.
</event>
<event>
 7    1  0.2844572E-009  0.1077221E+03  0.7561462E-02  0.1264847E+00
         -1   -1    0    0    0  501 -0.00000000000E+00  0.00000000000E+00  0.80375245691E+01  0.80375245691E+01  0.00000000000E+00 0.  1.
          1   -1    0    0  501    0  0.00000000000E+00 -0.00000000000E+00 -0.18346277790E+04  0.18346277790E+04  0.00000000000E+00 0. -1.
         25    2    1    2    0    0 -0.15695267219E+01 -0.18325858792E+02 -0.14040651763E+04  0.14097485063E+04  0.12511407282E+03 0.  0.
          5    1    3    3  502    0 -0.67473460791E+01  0.53555455230E+02 -0.63353129006E+03  0.63584045274E+03  0.41800000000E+01 0. -1.
         -5    1    3    3    0  502  0.51778193573E+01 -0.71881314022E+02 -0.77053388628E+03  0.77390805360E+03  0.41800000000E+01 0. -1.
        -11    1    1    2    0    0 -0.50494022014E+01 -0.35008897770E+02 -0.10301922833E+03  0.10892236130E+03  0.00000000000E+00 0.  1.
         11    1    1    2    0    0  0.66189289232E+01  0.53334756562E+02 -0.31950584977E+03  0.32399443593E+03  0.00000000000E+00 0. -1.
</event>
<event>
 7    1  0.2844572E-009  0.9504904E+02  0.7561462E-02  0.1291066E+00
          3   -1    0    0  501    0  0.00000000000E+00  0.00000000000E+00  0.17680899722E+03  0.17680899722E+03  0.00000000000E+00 0. -1.
         -3   -1    0    0    0  501 -0.00000000000E+00 -0.00000000000E+00 -0.74453384965E+02  0.74453384965E+02  0.00000000000E+00 0.  1.
         25    2    1    2    0    0 -0.10408614634E+02  0.64034772746E+01  0.19863117580E+02  0.12724642987E+03  0.12509103363E+03 0.  0.
          5    1    3    3  502    0 -0.37405524257E+02  0.40453741488E+02  0.49741372034E+02  0.74346183071E+02  0.41800000000E+01 0.  1.
         -5    1    3    3    0  502  0.26996909623E+02 -0.34050264214E+02 -0.29878254454E+02  0.52900246799E+02  0.41800000000E+01 0.  1.
        -11    1    1    2    0    0 -0.40220578486E+02 -0.57639146920E+00  0.25818273129E+02  0.47797598143E+02  0.00000000000E+00 0.  1.
         11    1    1    2    0    0  0.50629193121E+02 -0.58270858054E+01  0.56674221548E+02  0.76218354175E+02  0.00000000000E+00 0. -1.
</event>
<event>
 7    1  0.2981182E-009  0.8785793E+02  0.7561462E-02  0.1308124E+00
         -1   -1    0    0    0  501 -0.00000000000E+00  0.00000000000E+00  0.94591186295E+02  0.94591186295E+02  0.00000000000E+00 0.  1.
          1   -1    0    0  501    0  0.00000000000E+00 -0.00000000000E+00 -0.13543598646E+03  0.13543598646E+03  0.00000000000E+00 0. -1.
         25    2    1    2    0    0  0.22075817614E+02 -0.35847346211E+01 -0.47173822390E+02  0.13554605859E+03  0.12508865830E+03 0.  0.
          5    1    3    3  502    0  0.53321785629E+02  0.28873977907E+02 -0.63066330532E+02  0.87588548735E+02  0.41800000000E+01 0.  1.
         -5    1    3    3    0  502 -0.31245968015E+02 -0.32458712528E+02  0.15892508141E+02  0.47957509852E+02  0.41800000000E+01 0.  1.
        -11    1    1    2    0    0 -0.35865832644E+02 -0.20954244009E+02  0.34988356610E+02  0.54310435383E+02  0.00000000000E+00 0.  1.
         11    1    1    2    0    0  0.13790015030E+02  0.24538978630E+02 -0.28659334387E+02  0.40170678787E+02  0.00000000000E+00 0. -1.
</event>
<event>
 7    1  0.2844572E-009  0.1443658E+03  0.7561462E-02  0.1207572E+00
          2   -1    0    0  501    0  0.00000000000E+00  0.00000000000E+00  0.61121695335E+02  0.61121695335E+02  0.00000000000E+00 0. -1.
         -2   -1    0    0    0  501 -0.00000000000E+00 -0.00000000000E+00 -0.40946345126E+03  0.40946345126E+03  0.00000000000E+00 0.  1.
         25    2    1    2    0    0  0.53854310864E+02 -0.80942450662E+02 -0.27384627933E+03  0.31636901063E+03  0.12508236914E+03 0.  0.
          5    1    3    3  502    0 -0.24094748674E+02  0.17724919183E+02 -0.77446586441E+02  0.83127467333E+02  0.41800000000E+01 0.  1.
         -5    1    3    3    0  502  0.77949059538E+02 -0.98667369845E+02 -0.19639969289E+03  0.23324154330E+03  0.41800000000E+01 0.  1.
        -11    1    1    2    0    0  0.24482935995E+02  0.32208724395E+02 -0.36327670922E+02  0.54373851774E+02  0.00000000000E+00 0.  1.
         11    1    1    2    0    0 -0.78337246859E+02  0.48733726267E+02 -0.38167805670E+02  0.99842284184E+02  0.00000000000E+00 0. -1.
</event>
<event>
 7    1  0.2844572E-009  0.1283071E+03  0.7561462E-02  0.1229989E+00
          2   -1    0    0  501    0  0.00000000000E+00  0.00000000000E+00  0.33119241813E+03  0.33119241813E+03  0.00000000000E+00 0. -1.
         -2   -1    0    0    0  501 -0.00000000000E+00 -0.00000000000E+00 -0.10534932559E+03  0.10534932559E+03  0.00000000000E+00 0.  1.
         25    2    1    2    0    0  0.59037885549E+01  0.74839225113E+02  0.27368555391E+03  0.31013917920E+03  0.12508702459E+03 0.  0.
          5    1    3    3  502    0  0.56028135251E+02  0.88010440374E+01  0.70011425510E+02  0.90198017815E+02  0.41800000000E+01 0. -1.
         -5    1    3    3    0  502 -0.50124346696E+02  0.66038181075E+02  0.20367412840E+03  0.21994116138E+03  0.41800000000E+01 0. -1.
        -11    1    1    2    0    0  0.28159115824E+02 -0.77607506205E+02 -0.29917954913E+02  0.87811985796E+02  0.00000000000E+00 0.  1.
         11    1    1    2    0    0 -0.34062904379E+02  0.27682810922E+01 -0.17924506452E+02  0.38590578727E+02  0.00000000000E+00 0. -1.
</event>
<event>
 7    1  0.2844572E-009  0.6222036E+02  0.7561462E-02  0.1388743E+00
         -3   -1    0    0    0  501 -0.00000000000E+00  0.00000000000E+00  0.12244954280E+03  0.12244954280E+03  0.00000000000E+00 0.  1.
          3   -1    0    0  501    0  0.00000000000E+00 -0.00000000000E+00 -0.97208006542E+02  0.97208006542E+02  0.00000000000E+00 0. -1.
         25    2    1    2    0    0 -0.58325657698E+01 -0.92935207830E+01  0.10033814722E+01  0.12559083409E+03  0.12510660447E+03 0.  0.
          5    1    3    3  502    0 -0.15685113647E+02  0.33026359334E+02 -0.47662510847E+02  0.60215866192E+02  0.41800000000E+01 0.  1.
         -5    1    3    3    0  502  0.98525478775E+01 -0.42319880117E+02  0.48665892319E+02  0.65374967901E+02  0.41800000000E+01 0.  1.
        -11    1    1    2    0    0 -0.71165175835E+01 -0.14919808558E+02 -0.29445626971E+02  0.33768187064E+02  0.00000000000E+00 0. -1.
         11    1    1    2    0    0  0.12949083353E+02  0.24213329341E+02  0.53683781756E+02  0.60298528183E+02  0.00000000000E+00 0.  1.
</event>
<event>
 7    1  0.2844572E-009  0.1046305E+03  0.7561462E-02  0.1270849E+00
          1   -1    0    0  501    0  0.00000000000E+00  0.00000000000E+00  0.42433881180E+03  0.42433881180E+03  0.00000000000E+00 0. -1.
         -1   -1    0    0    0  501 -0.00000000000E+00 -0.00000000000E+00 -0.48805277051E+02  0.48805277051E+02  0.00000000000E+00 0.  1.
         25    2    1    2    0    0  0.41552873089E+02  0.66210589478E+02  0.28853826193E+03  0.32405834316E+03  0.12509595420E+03 0.  0.
          5    1    3    3  502    0  0.60100403552E+02  0.69178519080E+02  0.10464481675E+03  0.13916082812E+03  0.41800000000E+01 0. -1.
         -5    1    3    3    0  502 -0.18547530462E+02 -0.29679296023E+01  0.18389344517E+03  0.18489751505E+03  0.41800000000E+01 0. -1.
        -11    1    1    2    0    0  0.15468930550E+02 -0.16741545659E+02 -0.11061968502E+02  0.25336422607E+02  0.00000000000E+00 0. -1.
         11    1    1    2    0    0 -0.57021803640E+02 -0.49469043819E+02  0.98057241327E+02  0.12374932308E+03  0.00000000000E+00 0.  1.
</event>
<event>
 7    1  0.2844572E-009  0.1045824E+03  0.7561462E-02  0.1270945E+00
          2   -1    0    0  501    0  0.00000000000E+00  0.00000000000E+00  0.14632788051E+03  0.14632788051E+03  0.00000000000E+00 0. -1.
         -2   -1    0    0    0  501 -0.00000000000E+00 -0.00000000000E+00 -0.98255569287E+02  0.98255569287E+02  0.00000000000E+00 0.  1.
         25    2    1    2    0    0 -0.24335787174E+02  0.27720213103E+02  0.64488801388E+02  0.14548693037E+03  0.12508797165E+03 0.  0.
          5    1    3    3  502    0 -0.53125762779E+02  0.61171528310E+02  0.21945766733E+02  0.84043986246E+02  0.41800000000E+01 0. -1.
         -5    1    3    3    0  502  0.28789975605E+02 -0.33451315207E+02  0.42543034656E+02  0.61442944120E+02  0.41800000000E+01 0. -1.
        -11    1    1    2    0    0 -0.24811637992E+02  0.41106481690E+01 -0.29837804987E+02  0.39023190729E+02  0.00000000000E+00 0.  1.
         11    1    1    2    0    0  0.49147425165E+02 -0.31830861272E+02  0.13421314819E+02  0.60073328701E+02  0.00000000000E+00 0. -1.
</event>
<event>
 7    1  0.2844572E-009  0.2236015E+03  0.7561462E-02  0.1131226E+00
          2   -1    0    0  501    0  0.00000000000E+00  0.00000000000E+00  0.84066736472E+03  0.84066736472E+03  0.00000000000E+00 0. -1.
         -2   -1    0    0    0  501 -0.00000000000E+00 -0.00000000000E+00 -0.63607737578E+02  0.63607737578E+02  0.00000000000E+00 0.  1.
         25    2    1    2    0    0 -0.15612504700E+03  0.12413638947E+03  0.48226053137E+03  0.53666332443E+03  0.12508968854E+03 0.  0.
          5    1    3    3  502    0 -0.61976083926E+02  0.11819773573E+03  0.21370552207E+03  0.25199059957E+03  0.41800000000E+01 0.  1.
         -5    1    3    3    0  502 -0.94148963076E+02  0.59386537388E+01  0.26855500930E+03  0.28467272485E+03  0.41800000000E+01 0.  1.
        -11    1    1    2    0    0  0.10668607331E+03 -0.13142348784E+03  0.23628347054E+03  0.29066119425E+03  0.00000000000E+00 0.  1.
         11    1    1    2    0    0  0.49438973693E+02  0.72870983752E+01  0.58515625239E+02  0.76950583622E+02  0.00000000000E+00 0. -1.
</event>
<event>
 7    1  0.2844572E-009  0.1608399E+03  0.7561462E-02  0.1187752E+00
         -2   -1    0    0    0  501 -0.00000000000E+00  0.00000000000E+00  0.36615891512E+03  0.36615891512E+03  0.00000000000E+00 0. -1.
          2   -1    0    0  501    0  0.00000000000E+00 -0.00000000000E+00 -0.72789379096E+02  0.72789379096E+02  0.00000000000E+00 0.  1.
         25    2    1    2    0    0  0.61424743865E+02 -0.10933484425E+03  0.19005562960E+03  0.25980443683E+03  0.12510034263E+03 0.  0.
          5    1    3    3  502    0 -0.37614168383E+02 -0.33240892181E+02  0.72166332939E+02  0.88007014413E+02  0.41800000000E+01 0.  1.
         -5    1    3    3    0  502  0.99038912248E+02 -0.76093952067E+02  0.11788929666E+03  0.17179742241E+03  0.41800000000E+01 0.  1.
        -11    1    1    2    0    0  0.11299801001E+01  0.74953919897E+02  0.53902807400E+02  0.92330274605E+02  0.00000000000E+00 0. -1.
         11    1    1    2    0    0 -0.62554723965E+02  0.34380924350E+02  0.49411099024E+02  0.86813582787E+02  0.00000000000E+00 0.  1.
</event>
<event>
 7    1  0.2844572E-009  0.9940616E+02  0.7561462E-02  0.1281550E+00
          1   -1    0    0  501    0  0.00000000000E+00  0.00000000000E+00  0.48770595064E+03  0.48770595064E+03  0.00000000000E+00 0. -1.
         -1   -1    0    0    0  501 -0.00000000000E+00 -0.00000000000E+00 -0.33339010202E+02  0.33339010202E+02  0.00000000000E+00 0.  1.
         25    2    1    2    0    0 -0.31981872465E+02 -0.52077202999E+02  0.29241151205E+03  0.32386448203E+03  0.12509530408E+03 0.  0.
          5    1    3    3  502    0 -0.68530247671E+02 -0.58083697437E+02  0.13579626869E+03  0.16287482845E+03  0.41800000000E+01 0. -1.
         -5    1    3    3    0  502  0.36548375206E+02  0.60064944378E+01  0.15661524336E+03  0.16098965357E+03  0.41800000000E+01 0. -1.
        -11    1    1    2    0    0 -0.46444074768E+01  0.26574166912E+02  0.14797135087E+03  0.15041036383E+03  0.00000000000E+00 0. -1.
         11    1    1    2    0    0  0.36626279942E+02  0.25503036086E+02  0.13984077522E+02  0.46770114989E+02  0.00000000000E+00 0.  1.
</event>
<event>
 6    1  0.4420958E-009  0.1467583E+03  0.7561462E-02  0.1204514E+00
          2   -1    0    0  501    0  0.00000000000E+00  0.00000000000E+00  0.12415463443E+04  0.12415463443E+04  0.00000000000E+00 0.  1.
         -2   -1    0    0    0  501 -0.00000000000E+00 -0.00000000000E+00 -0.20670949433E+02  0.20670949433E+02  0.00000000000E+00 0. -1.
          5    1    1    2  502    0 -0.95483579390E+02 -0.82518753240E+02  0.67110077736E+03  0.68287640488E+03  0.41800000000E+01 0.  1.
         -5    1    1    2    0  502 -0.77356502230E+01  0.35720079493E+02  0.10232254585E+03  0.10873426393E+03  0.41800000000E+01 0.  1.
        -11    1    1    2    0    0  0.83458483642E+02  0.42723084166E+01  0.37575840141E+03  0.38493888780E+03  0.00000000000E+00 0.  1.
         11    1    1    2    0    0  0.19760745971E+02  0.42526365331E+02  0.71693670236E+02  0.85667737109E+02  0.00000000000E+00 0. -1.
</event>
<event>
 6    1  0.2844572E-009  0.1172557E+03  0.7561462E-02  0.1247694E+00
          1   -1    0    0  501    0  0.00000000000E+00  0.00000000000E+00  0.70772267895E+03  0.70772267895E+03  0.00000000000E+00 0. -1.
         -1   -1    0    0    0  501 -0.00000000000E+00 -0.00000000000E+00 -0.30540775184E+02  0.30540775184E+02  0.00000000000E+00 0.  1.
          5    1    1    2  502    0  0.48075715298E+02  0.91628449681E+02  0.12299079719E+03  0.16078325717E+03  0.41800000000E+01 0. -1.
         -5    1    1    2    0  502 -0.44539033236E+01 -0.43903800646E+01  0.18991804246E+03  0.19006695647E+03  0.41800000000E+01 0. -1.
        -11    1    1    2    0    0  0.14136362372E+02 -0.56017479615E+02  0.24007520520E+03  0.24692893495E+03  0.00000000000E+00 0. -1.
         11    1    1    2    0    0 -0.57758174347E+02 -0.31220590001E+02  0.12419785893E+03  0.14048430555E+03  0.00000000000E+00 0.  1.
</event>
<event>
 7    1  0.2844572E-009  0.8783398E+02  0.7561462E-02  0.1308183E+00
          2   -1    0    0  501    0  0.00000000000E+00  0.00000000000E+00  0.64955229338E+03  0.64955229338E+03  0.00000000000E+00 0. -1.
         -2   -1    0    0    0  501 -0.00000000000E+00 -0.00000000000E+00 -0.24018380444E+02  0.24018380444E+02  0.00000000000E+00 0.  1.
         25    2    1    2    0    0 -0.45856214444E+02 -0.35622560021E+02  0.32403712018E+03  0.35215757825E+03  0.12507256085E+03 0.  0.
          5    1    3    3  502    0 -0.44172309186E+02 -0.26535507466E+01  0.24453175364E+02  0.50731296216E+02  0.41800000000E+01 0. -1.
         -5    1    3    3    0  502 -0.16839052582E+01 -0.32969009275E+02  0.29958394481E+03  0.30142628203E+03  0.41800000000E+01 0. -1.
        -11    1    1    2    0    0  0.58384314936E+02 -0.18688840367E+01  0.24864252052E+03  0.25541206700E+03  0.00000000000E+00 0.  1.
         11    1    1    2    0    0 -0.12528100492E+02  0.37491444058E+02  0.52854272239E+02  0.66001028579E+02  0.00000000000E+00 0. -1.
</event>
<event>
 7    1  0.2844572E-009  0.1104560E+03  0.7561462E-02  0.1259728E+00
         -1   -1    0    0    0  501 -0.00000000000E+00  0.00000000000E+00  0.15616593882E+02  0.15616593882E+02  0.00000000000E+00 0.  1.
          1   -1    0    0  501    0  0.00000000000E+00 -0.00000000000E+00 -0.10155254013E+04  0.10155254013E+04  0.00000000000E+00 0. -1.
         25    2    1    2    0    0 -0.72825007445E+01 -0.36843643002E+02 -0.77237738541E+03  0.78334018833E+03  0.12507812085E+03 0.  0.
          5    1    3    3  502    0 -0.38353409711E+02  0.34311450225E+02 -0.25755982742E+03  0.26268383421E+03  0.41800000000E+01 0. -1.
         -5    1    3    3    0  502  0.31070908967E+02 -0.71155093226E+02 -0.51481755798E+03  0.52065635412E+03  0.41800000000E+01 0. -1.
        -11    1    1    2    0    0  0.14682833566E+02  0.62821432058E+02 -0.11291750861E+03  0.13004799759E+03  0.00000000000E+00 0.  1.
         11    1    1    2    0    0 -0.74003328213E+01 -0.25977789056E+02 -0.11461391341E+03  0.11775380927E+03  0.00000000000E+00 0. -1.
</event>
<event>
 7    1  0.2844572E-009  0.2798614E+03  0.7561462E-02  0.1095765E+00
         -1   -1    0    0    0  501 -0.00000000000E+00  0.00000000000E+00  0.55465231217E+02  0.55465231217E+02  0.00000000000E+00 0.  1.
          1   -1    0    0  501    0  0.00000000000E+00 -0.00000000000E+00 -0.15986246664E+04  0.15986246664E+04  0.00000000000E+00 0. -1.
         25    2    1    2    0    0 -0.23569049080E+03  0.12360640313E+03 -0.99913010561E+03  0.10415083660E+04  0.12510059213E+03 0.  0.
          5    1    3    3  502    0 -0.39191129876E+01 -0.19869720390E+02 -0.53219545316E+02  0.57096038730E+02  0.41800000000E+01 0. -1.
         -5    1    3    3    0  502 -0.23177137781E+03  0.14347612352E+03 -0.94591056030E+03  0.98441232727E+03  0.41800000000E+01 0. -1.
        -11    1    1    2    0    0  0.98573973843E+02 -0.58628036843E+02 -0.33642974560E+03  0.35544204696E+03  0.00000000000E+00 0. -1.
         11    1    1    2    0    0  0.13711651696E+03 -0.64978366288E+02 -0.20759958398E+03  0.25713948467E+03  0.00000000000E+00 0.  1.
</event>
<event>
 7    1  0.2844572E-009  0.8377107E+02  0.7561462E-02  0.1318678E+00
         -3   -1    0    0    0  501 -0.00000000000E+00  0.00000000000E+00  0.67010131083E+02  0.67010131083E+02  0.00000000000E+00 0.  1.
          3   -1    0    0  501    0  0.00000000000E+00 -0.00000000000E+00 -0.17094480901E+03  0.17094480901E+03  0.00000000000E+00 0. -1.
         25    2    1    2    0    0 -0.63826878727E+01 -0.12141227259E+02 -0.69785113631E+02  0.14389415301E+03  0.12508963618E+03 0.  0.
          5    1    3    3  502    0 -0.58680796707E+02  0.10513622589E+02 -0.89512844550E+01  0.60428222342E+02  0.41800000000E+01 0. -1.
         -5    1    3    3    0  502  0.52298108834E+02 -0.22654849848E+02 -0.60833829176E+02  0.83465930663E+02  0.41800000000E+01 0. -1.
        -11    1    1    2    0    0  0.27315787622E+02  0.20437480777E+01  0.20802631297E+02  0.34395910055E+02  0.00000000000E+00 0.  1.
         11    1    1    2    0    0 -0.20933099749E+02  0.10097479182E+02 -0.54952195593E+02  0.59664877033E+02  0.00000000000E+00 0. -1.
</event>
<event>
 7    1  0.2844572E-009  0.1168622E+03  0.7561462E-02  0.1248365E+00
         -2   -1    0    0    0  501 -0.00000000000E+00  0.00000000000E+00  0.76278380959E+02  0.76278380959E+02  0.00000000000E+00 0. -1.
          2   -1    0    0  501    0  0.00000000000E+00 -0.00000000000E+00 -0.33283731332E+03  0.33283731332E+03  0.00000000000E+00 0.  1.
         25    2    1    2    0    0  0.98827178246E+02 -0.61756052232E+02 -0.11729231846E+03  0.20733033251E+03  0.12509099752E+03 0.  0.
          5    1    3    3  502    0  0.84333904054E+02 -0.50952522687E+02 -0.10771997555E+02  0.99206225976E+02  0.41800000000E+01 0. -1.
         -5    1    3    3    0  502  0.14493274192E+02 -0.10803529545E+02 -0.10652032091E+03  0.10812410653E+03  0.41800000000E+01 0. -1.
        -11    1    1    2    0    0 -0.63900129666E+02  0.38871486126E+02 -0.14141217147E+03  0.15997381425E+03  0.00000000000E+00 0.  1.
         11    1    1    2    0    0 -0.34927048580E+02  0.22884566106E+02  0.21455575769E+01  0.41811547516E+02  0.00000000000E+00 0. -1.
</event>
<event>
 7    1  0.2844572E-009  0.8970536E+02  0.7561462E-02  0.1303567E+00
          2   -1    0    0  501    0  0.00000000000E+00  0.00000000000E+00  0.26199570494E+03  0.26199570494E+03  0.00000000000E+00 0. -1.
         -2   -1    0    0    0  501 -0.00000000000E+00 -0.00000000000E+00 -0.71463437653E+02  0.71463437653E+02  0.00000000000E+00 0.  1.
         25    2    1    2    0    0 -0.21923924785E+02 -0.43187991893E+02  0.18681252213E+03  0.22998306961E+03  0.12508969885E+03 0.  0.
          5    1    3    3  502    0  0.20041423678E+02 -0.59553416693E+01 -0.11235133377E+02  0.24100319073E+02  0.41800000000E+01 0.  1.
         -5    1    3    3    0  502 -0.41965348463E+02 -0.37232650224E+02  0.19804765551E+03  0.20588275053E+03  0.41800000000E+01 0.  1.
        -11    1    1    2    0    0  0.39577478303E+02 -0.14000888529E+02 -0.73212928631E+01  0.42614586677E+02  0.00000000000E+00 0.  1.
         11    1    1    2    0    0 -0.17653553518E+02  0.57188880423E+02  0.11041038022E+02  0.60861486315E+02  0.00000000000E+00 0. -1.
</event>
<event>
 7    1  0.2844572E-009  0.2071368E+03  0.7561462E-02  0.1143854E+00
         -2   -1    0    0    0  501 -0.00000000000E+00  0.00000000000E+00  0.57469857853E+02  0.57469857853E+02  0.00000000000E+00 0. -1.
          2   -1    0    0  501    0  0.00000000000E+00 -0.00000000000E+00 -0.92324324514E+03  0.92324324514E+03  0.00000000000E+00 0.  1.
         25    2    1    2    0    0  0.20212487601E+03 -0.54790692882E+01 -0.48242233910E+03  0.53783228205E+03  0.12509102544E+03 0.  0.
          5    1    3    3  502    0  0.13058811381E+02  0.10891774818E+02 -0.17948743984E+03  0.18033961509E+03  0.41800000000E+01 0. -1.
         -5    1    3    3    0  502  0.18906606463E+03 -0.16370844106E+02 -0.30293489926E+03  0.35749266695E+03  0.41800000000E+01 0. -1.
        -11    1    1    2    0    0 -0.19376407227E+03  0.14913376538E+02 -0.38387523025E+03  0.43026400838E+03  0.00000000000E+00 0.  1.
         11    1    1    2    0    0 -0.83608037492E+01 -0.94343072501E+01  0.52418206710E+00  0.12616812571E+02  0.00000000000E+00 0. -1.
</event>
<event>
 7    1  0.2844572E-009  0.1430823E+03  0.7561462E-02  0.1209241E+00
         -2   -1    0    0    0  501 -0.00000000000E+00  0.00000000000E+00  0.11529561966E+03  0.11529561966E+03  0.00000000000E+00 0.  1.
          2   -1    0    0  501    0  0.00000000000E+00 -0.00000000000E+00 -0.31163752177E+03  0.31163752177E+03  0.00000000000E+00 0. -1.
         25    2    1    2    0    0  0.12106738157E+03 -0.15452088120E+02 -0.20774033617E+03  0.27147626785E+03  0.12508892367E+03 0.  0.
          5    1    3    3  502    0 -0.77217010434E+01  0.11492690531E+02  0.96119887473E+01  0.17365751649E+02  0.41800000000E+01 0. -1.
         -5    1    3    3    0  502  0.12878908261E+03 -0.26944778651E+02 -0.21735232491E+03  0.25411051620E+03  0.41800000000E+01 0. -1.
        -11    1    1    2    0    0  0.53691631759E+01  0.12480231901E+02 -0.20898674471E+02  0.24926666367E+02  0.00000000000E+00 0. -1.
         11    1    1    2    0    0 -0.12643654475E+03  0.29718562196E+01  0.32297108526E+02  0.13053020722E+03  0.00000000000E+00 0.  1.
</event>
<event>
 7    1  0.2844572E-009  0.8952006E+02  0.7561462E-02  0.1304018E+00
         -1   -1    0    0    0  501 -0.00000000000E+00  0.00000000000E+00  0.29220171210E+02  0.29220171210E+02  0.00000000000E+00 0.  1.
          1   -1    0    0  501    0  0.00000000000E+00 -0.00000000000E+00 -0.47661912007E+03  0.47661912007E+03  0.00000000000E+00 0. -1.
         25    2    1    2    0    0 -0.22961041805E+02  0.26144447620E+02 -0.18169481026E+03  0.22333845882E+03  0.12512522340E+03 0.  0.
          5    1    3    3  502    0  0.12736565979E+02 -0.25375974717E+02 -0.15047975904E+03  0.15319200530E+03  0.41800000000E+01 0. -1.
         -5    1    3    3    0  502 -0.35697607784E+02  0.51520422337E+02 -0.31215051214E+02  0.70146453520E+02  0.41800000000E+01 0. -1.
        -11    1    1    2    0    0 -0.24914883872E+02 -0.30576607933E+02 -0.64267457114E+02  0.75405480138E+02  0.00000000000E+00 0.  1.
         11    1    1    2    0    0  0.47875925676E+02  0.44321603133E+01 -0.20143668149E+03  0.20709535232E+03  0.00000000000E+00 0. -1.
</event>
<event>
 7    1  0.2844572E-009  0.8670632E+02  0.7561462E-02  0.1311030E+00
          1   -1    0    0  501    0  0.00000000000E+00  0.00000000000E+00  0.80809020086E+02  0.80809020086E+02  0.00000000000E+00 0. -1.
         -1   -1    0    0    0  501 -0.00000000000E+00 -0.00000000000E+00 -0.15803137326E+03  0.15803137326E+03  0.00000000000E+00 0.  1.
         25    2    1    2    0    0  0.11233179768E+02 -0.35312468169E+02 -0.60018017463E+02  0.14360548034E+03  0.12508883574E+03 0.  0.
          5    1    3    3  502    0  0.41990591878E+02 -0.37673877934E+01 -0.83406436977E+02  0.93549501048E+02  0.41800000000E+01 0.  1.
         -5    1    3    3    0  502 -0.30757412111E+02 -0.31545080375E+02  0.23388419514E+02  0.50055979293E+02  0.41800000000E+01 0.  1.
        -11    1    1    2    0    0  0.15509758896E+02 -0.20025695873E+02  0.10995359602E+02  0.27613023177E+02  0.00000000000E+00 0. -1.
         11    1    1    2    0    0 -0.26742938664E+02  0.55338164041E+02 -0.28199695309E+02  0.67621889824E+02  0.00000000000E+00 0.  1.
</event>
<event>
 7    1  0.2844572E-009  0.1097845E+03  0.7561462E-02  0.1260970E+00
         -1   -1    0    0    0  501 -0.00000000000E+00  0.00000000000E+00  0.19447124454E+02  0.19447124454E+02  0.00000000000E+00 0.  1.
          1   -1    0    0  501    0  0.00000000000E+00 -0.00000000000E+00 -0.72568999154E+03  0.72568999154E+03  0.00000000000E+00 0. -1.
         25    2    1    2    0    0 -0.21569811607E+02 -0.38373423184E+02 -0.33824264032E+03  0.36331046013E+03  0.12509448561E+03 0.  0.
          5    1    3    3  502    0 -0.63744780783E+02 -0.42984287488E+02 -0.28437347897E+03  0.29461295625E+03  0.41800000000E+01 0.  1.
         -5    1    3    3    0  502  0.42174969177E+02  0.46108643037E+01 -0.53869161343E+02  0.68697503874E+02  0.41800000000E+01 0.  1.
        -11    1    1    2    0    0  0.48544346201E+02 -0.50651443806E+01 -0.14336745442E+03  0.15144780032E+03  0.00000000000E+00 0.  1.
         11    1    1    2    0    0 -0.26974534595E+02  0.43438567565E+02 -0.22463277236E+03  0.23037885555E+03  0.00000000000E+00 0. -1.
</event>
<event>
 7    1  0.2895300E-009  0.1523686E+03  0.7561462E-02  0.1197592E+00
          2   -1    0    0  501    0  0.00000000000E+00  0.00000000000E+00  0.71677173381E+03  0.71677173381E+03  0.00000000000E+00 0. -1.
         -2   -1    0    0    0  501 -0.00000000000E+00 -0.00000000000E+00 -0.40241441998E+02  0.40241441998E+02  0.00000000000E+00 0.  1.
         25    2    1    2    0    0  0.18963378262E+02  0.12567891300E+03  0.29879795590E+03  0.34796880861E+03  0.12508906597E+03 0.  0.
          5    1    3    3  502    0 -0.44277347583E+02  0.10937873081E+02  0.59086140134E+02  0.74758042594E+02  0.41800000000E+01 0. -1.
         -5    1    3    3    0  502  0.63240725845E+02  0.11474103992E+03  0.23971181577E+03  0.27321076601E+03  0.41800000000E+01 0. -1.
        -11    1    1    2    0    0 -0.57637639159E+01 -0.10985109096E+02 -0.16221404053E+01  0.12510992600E+02  0.00000000000E+00 0.  1.
         11    1    1    2    0    0 -0.13199614346E+02 -0.11469380390E+03  0.37935447631E+03  0.39653337460E+03  0.00000000000E+00 0. -1.
</event>
<event>
 7    1  0.2844572E-009  0.9110789E+02  0.7561462E-02  0.1300191E+00
          1   -1    0    0  501    0  0.00000000000E+00  0.00000000000E+00  0.43918240547E+03  0.43918240547E+03  0.00000000000E+00 0. -1.
         -1   -1    0    0    0  501 -0.00000000000E+00 -0.00000000000E+00 -0.30139038489E+02  0.30139038489E+02  0.00000000000E+00 0.  1.
         25    2    1    2    0    0  0.20548756944E+02 -0.19668368145E+02  0.27061357355E+03  0.29948123126E+03  0.12509278784E+03 0.  0.
          5    1    3    3  502    0  0.30095261363E+02 -0.53310894080E+02  0.59576589772E+02  0.85525543746E+02  0.41800000000E+01 0. -1.
         -5    1    3    3    0  502 -0.95465044182E+01  0.33642525935E+02  0.21103698378E+03  0.21395568752E+03  0.41800000000E+01 0. -1.
        -11    1    1    2    0    0  0.28642944212E+02  0.22407733874E+02  0.19846754655E+02  0.41429680916E+02  0.00000000000E+00 0.  1.
         11    1    1    2    0    0 -0.49191701156E+02 -0.27393657295E+01  0.11858303878E+03  0.12841053178E+03  0.00000000000E+00 0. -1.
</event>
<event>
 7    1  0.2844572E-009  0.1445316E+03  0.7561462E-02  0.1207358E+00
         -1   -1    0    0    0  501 -0.00000000000E+00  0.00000000000E+00  0.44544278651E+02  0.44544278651E+02  0.00000000000E+00 0.  1.
          1   -1    0    0  501    0  0.00000000000E+00 -0.00000000000E+00 -0.64640806862E+03  0.64640806862E+03  0.00000000000E+00 0. -1.
         25    2    1    2    0    0  0.15825676231E+02 -0.10103471348E+03 -0.48449208889E+03  0.51072399792E+03  0.12509177631E+03 0.  0.
          5    1    3    3  502    0 -0.66962779891E+01 -0.12364196734E+03 -0.42944099089E+03  0.44695549363E+03  0.41800000000E+01 0. -1.
         -5    1    3    3    0  502  0.22521954220E+02  0.22607253862E+02 -0.55051097996E+02  0.63768504292E+02  0.41800000000E+01 0. -1.
        -11    1    1    2    0    0 -0.44512238957E+02  0.23543326224E+02 -0.65677902102E+02  0.82759980976E+02  0.00000000000E+00 0.  1.
         11    1    1    2    0    0  0.28686562725E+02  0.77491387256E+02 -0.51693798971E+02  0.97468368366E+02  0.00000000000E+00 0. -1.
</event>
<event>
 7    1  0.2844572E-009  0.1034981E+03  0.7561462E-02  0.1273107E+00
          1   -1    0    0  501    0  0.00000000000E+00  0.00000000000E+00  0.47018437066E+02  0.47018437066E+02  0.00000000000E+00 0. -1.
         -1   -1    0    0    0  501 -0.00000000000E+00 -0.00000000000E+00 -0.41347642230E+03  0.41347642230E+03  0.00000000000E+00 0.  1.
         25    2    1    2    0    0 -0.15627954567E+02 -0.31817874301E+02 -0.32798592082E+03  0.35281525836E+03  0.12508889714E+03 0.  0.
          5    1    3    3  502    0  0.44681323525E+02 -0.14749190407E+02 -0.54113580333E+02  0.71831130202E+02  0.41800000000E+01 0.  1.
         -5    1    3    3    0  502 -0.60309278091E+02 -0.17068683894E+02 -0.27387234049E+03  0.28098412816E+03  0.41800000000E+01 0.  1.
        -11    1    1    2    0    0  0.34777328370E+02 -0.21091059829E+02 -0.21969413482E+01  0.40732320392E+02  0.00000000000E+00 0.  1.
         11    1    1    2    0    0 -0.19149373803E+02  0.52908934130E+02 -0.36275123065E+02  0.66947280611E+02  0.00000000000E+00 0. -1.
</event>
<event>
 7    1  0.2844572E-009  0.9619792E+02  0.7561462E-02  0.1288501E+00
         -1   -1    0    0    0  501 -0.00000000000E+00  0.00000000000E+00  0.54074165621E+03  0.54074165621E+03  0.00000000000E+00 0.  1.
          1   -1    0    0  501    0  0.00000000000E+00 -0.00000000000E+00 -0.22206211505E+02  0.22206211505E+02  0.00000000000E+00 0. -1.
         25    2    1    2    0    0 -0.41383723439E+01  0.21558234721E+02  0.31342637312E+03  0.33817861322E+03  0.12508716746E+03 0.  0.
          5    1    3    3  502    0 -0.20996644870E+02  0.68809459731E+02  0.13814573251E+03  0.15581179883E+03  0.41800000000E+01 0.  1.
         -5    1    3    3    0  502  0.16858272526E+02 -0.47251225010E+02  0.17528064061E+03  0.18236681439E+03  0.41800000000E+01 0.  1.
        -11    1    1    2    0    0 -0.20634318121E+02 -0.35869489326E+02  0.41241829144E+02  0.58423315722E+02  0.00000000000E+00 0.  1.
         11    1    1    2    0    0  0.24772690464E+02  0.14311254605E+02  0.16386724244E+03  0.16634593877E+03  0.00000000000E+00 0. -1.
</event>
<event>
 7    1  0.2844572E-009  0.8268774E+02  0.7561462E-02  0.1321593E+00
          1   -1    0    0  501    0  0.00000000000E+00  0.00000000000E+00  0.76997516802E+03  0.76997516802E+03  0.00000000000E+00 0. -1.
         -1   -1    0    0    0  501 -0.00000000000E+00 -0.00000000000E+00 -0.22492934090E+02  0.22492934090E+02  0.00000000000E+00 0.  1.
         25    2    1    2    0    0  0.42032948434E+02 -0.57188121681E+02  0.59079640652E+03  0.60805000644E+03  0.12508863402E+03 0.  0.
          5    1    3    3  502    0  0.35738209613E+02 -0.67811653487E+02  0.16424648967E+03  0.18130091490E+03  0.41800000000E+01 0.  1.
         -5    1    3    3    0  502  0.62947388206E+01  0.10623531806E+02  0.42654991686E+03  0.42674909155E+03  0.41800000000E+01 0.  1.
        -11    1    1    2    0    0 -0.38836979774E+02  0.32395772406E+02  0.15035273296E+03  0.15863083362E+03  0.00000000000E+00 0. -1.
         11    1    1    2    0    0 -0.31959686603E+01  0.24792349275E+02  0.63330944434E+01  0.25787262040E+02  0.00000000000E+00 0.  1.
</event>
<event>
 7    1  0.2844572E-009  0.8748102E+02  0.7561462E-02  0.1309069E+00
          1   -1    0    0  501    0  0.00000000000E+00  0.00000000000E+00  0.96972675060E+02  0.96972675060E+02  0.00000000000E+00 0. -1.
         -1   -1    0    0    0  501 -0.00000000000E+00 -0.00000000000E+00 -0.15243476219E+03  0.15243476219E+03  0.00000000000E+00 0.  1.
         25    2    1    2    0    0 -0.35704641984E+02 -0.19045534466E+02 -0.70515060263E+02  0.14918959360E+03  0.12509039640E+03 0.  0.
          5    1    3    3  502    0 -0.29069206941E+02 -0.46720960485E+02 -0.96018322858E+02  0.11074681786E+03  0.41800000000E+01 0. -1.
         -5    1    3    3    0  502 -0.66354350433E+01  0.27675426019E+02  0.25503262594E+02  0.38442775739E+02  0.41800000000E+01 0. -1.
        -11    1    1    2    0    0  0.62332387667E+02  0.12137436364E+02  0.28491306308E+02  0.69601712974E+02  0.00000000000E+00 0.  1.
         11    1    1    2    0    0 -0.26627745683E+02  0.69080981023E+01 -0.13438333177E+02  0.30616130685E+02  0.00000000000E+00 0. -1.
</event>
<event>
 6    1  0.2844572E-009  0.1680556E+03  0.7561462E-02  0.1179891E+00
         -1   -1    0    0    0  501 -0.00000000000E+00  0.00000000000E+00  0.29394097132E+03  0.29394097132E+03  0.00000000000E+00 0.  1.
          1   -1    0    0  501    0  0.00000000000E+00 -0.00000000000E+00 -0.13387145166E+03  0.13387145166E+03  0.00000000000E+00 0. -1.
          5    1    1    2  502    0  0.16040913566E+02  0.44561819553E+02  0.11473135761E+02  0.48909834533E+02  0.41800000000E+01 0. -1.
         -5    1    1    2    0  502  0.11889288667E+03 -0.61143248393E+02 -0.28660733417E+02  0.13679519496E+03  0.41800000000E+01 0. -1.
        -11    1    1    2    0    0 -0.29207900980E+02 -0.27633117586E+02  0.88335321469E+02  0.97055755554E+02  0.00000000000E+00 0.  1.
         11    1    1    2    0    0 -0.10572589926E+03  0.44214546426E+02  0.88921795846E+02  0.14505163793E+03  0.00000000000E+00 0. -1.
</event>
<event>
 7    1  0.2844572E-009  0.1391974E+03  0.7561462E-02  0.1214413E+00
          2   -1    0    0  501    0  0.00000000000E+00  0.00000000000E+00  0.12001463516E+04  0.12001463516E+04  0.00000000000E+00 0. -1.
         -2   -1    0    0    0  501 -0.00000000000E+00 -0.00000000000E+00 -0.20500210732E+02  0.20500210732E+02  0.00000000000E+00 0.  1.
         25    2    1    2    0    0  0.46527851287E+02  0.10257791729E+03  0.67582587438E+03  0.69647386290E+03  0.12509260236E+03 0.  0.
          5    1    3    3  502    0 -0.10291557679E+02  0.66900788393E+02  0.13096555144E+03  0.14748247256E+03  0.41800000000E+01 0. -1.
         -5    1    3    3    0  502  0.56819408966E+02  0.35677128893E+02  0.54486032293E+03  0.54899139034E+03  0.41800000000E+01 0. -1.
        -11    1    1    2    0    0 -0.33571597201E+01 -0.10005565373E+03  0.38216285830E+03  0.39505803956E+03  0.00000000000E+00 0. -1.
         11    1    1    2    0    0 -0.43170691567E+02 -0.25222635590E+01  0.12165740820E+03  0.12911465988E+03  0.00000000000E+00 0.  1.
</event>
<event>
 7    1  0.2844572E-009  0.5866300E+02  0.7561462E-02  0.1403530E+00
         -1   -1    0    0    0  501 -0.00000000000E+00  0.00000000000E+00  0.33921579580E+02  0.33921579580E+02  0.00000000000E+00 0.  1.
          1   -1    0    0  501    0  0.00000000000E+00 -0.00000000000E+00 -0.44919426693E+03  0.44919426693E+03  0.00000000000E+00 0. -1.
         25    2    1    2    0    0 -0.12178258907E+02  0.15981766165E+02 -0.41805822946E+03  0.43683442550E+03  0.12509158742E+03 0.  0.
          5    1    3    3  502    0 -0.44735907376E+02  0.21323201854E+02 -0.63203518423E+02  0.80424731812E+02  0.41800000000E+01 0.  1.
         -5    1    3    3    0  502  0.32557648469E+02 -0.53414356894E+01 -0.35485471104E+03  0.35640969369E+03  0.41800000000E+01 0.  1.
        -11    1    1    2    0    0  0.19067059387E+02 -0.25454592245E+01 -0.13934207653E+02  0.23752773717E+02  0.00000000000E+00 0.  1.
         11    1    1    2    0    0 -0.68888004808E+01 -0.13436306940E+02  0.16719749769E+02  0.22528647287E+02  0.00000000000E+00 0. -1.
</event>
<event>
 7    1  0.2844572E-009  0.1406057E+03  0.7561462E-02  0.1212516E+00
          1   -1    0    0  501    0  0.00000000000E+00  0.00000000000E+00  0.35387101013E+03  0.35387101013E+03  0.00000000000E+00 0. -1.
         -1   -1    0    0    0  501 -0.00000000000E+00 -0.00000000000E+00 -0.67983977004E+02  0.67983977004E+02  0.00000000000E+00 0.  1.
         25    2    1    2    0    0 -0.58515421534E+02  0.78437500714E+02  0.22993261977E+03  0.27945261165E+03  0.12509299122E+03 0.  0.
          5    1    3    3  502    0 -0.95554993060E+02  0.66858609875E+02  0.14615110785E+03  0.18702526337E+03  0.41800000000E+01 0. -1.
         -5    1    3    3    0  502  0.37039571526E+02  0.11578890839E+02  0.83781511915E+02  0.92427348283E+02  0.41800000000E+01 0. -1.
        -11    1    1    2    0    0  0.76466335017E+02 -0.75187830521E+02  0.31264375911E+02  0.11170394555E+03  0.00000000000E+00 0.  1.
         11    1    1    2    0    0 -0.17950913483E+02 -0.32496701934E+01  0.24690037450E+02  0.30698429936E+02  0.00000000000E+00 0. -1.
</event>
<event>
 7    1  0.2844572E-009  0.1338240E+03  0.7561462E-02  0.1221889E+00
         -4   -1    0    0    0  501 -0.00000000000E+00  0.00000000000E+00  0.10454721612E+04  0.10454721612E+04  0.00000000000E+00 0.  1.
          4   -1    0    0  501    0  0.00000000000E+00 -0.00000000000E+00 -0.35680437166E+02  0.35680437166E+02  0.00000000000E+00 0. -1.
         25    2    1    2    0    0 -0.70323118198E+02 -0.50624769192E+02  0.90322027852E+03  0.91594887578E+03  0.12508902148E+03 0.  0.
          5    1    3    3  502    0 -0.90996789671E+02  0.35657148510E+01  0.46153187191E+03  0.47044901025E+03  0.41800000000E+01 0.  1.
         -5    1    3    3    0  502  0.20673671473E+02 -0.54190484043E+02  0.44168840661E+03  0.44549986553E+03  0.41800000000E+01 0.  1.
        -11    1    1    2    0    0 -0.14771504614E+02  0.25738285194E+02  0.45186551410E+01  0.30017909947E+02  0.00000000000E+00 0. -1.
         11    1    1    2    0    0  0.85094622812E+02  0.24886483998E+02  0.10205279037E+03  0.13518581265E+03  0.00000000000E+00 0.  1.
</event>
<event>
 7    1  0.2844572E-009  0.3058918E+03  0.7561462E-02  0.1082332E+00
          3   -1    0    0  501    0  0.00000000000E+00  0.00000000000E+00  0.47771267190E+03  0.47771267190E+03  0.00000000000E+00 0. -1.
         -3   -1    0    0    0  501 -0.00000000000E+00 -0.00000000000E+00 -0.23038327303E+03  0.23038327303E+03  0.00000000000E+00 0.  1.
         25    2    1    2    0    0  0.29805793462E+03 -0.44583779611E+02  0.40452695081E+02  0.32880117170E+03  0.12509014420E+03 0.  0.
          5    1    3    3  502    0  0.94583325450E+02 -0.15964808326E+02 -0.45233827054E+02  0.10613412301E+03  0.41800000000E+01 0. -1.
         -5    1    3    3    0  502  0.20347460917E+03 -0.28618971285E+02  0.85686522135E+02  0.22266704868E+03  0.41800000000E+01 0. -1.
        -11    1    1    2    0    0 -0.70144727114E+02  0.43110385129E+02  0.93992734871E+02  0.12495368044E+03  0.00000000000E+00 0.  1.
         11    1    1    2    0    0 -0.22791320750E+03  0.14733944824E+01  0.11288396892E+03  0.25434109280E+03  0.00000000000E+00 0. -1.
</event>
<event>
 7    1  0.2844572E-009  0.1125304E+03  0.7561462E-02  0.1255954E+00
          2   -1    0    0  501    0  0.00000000000E+00  0.00000000000E+00  0.31240691857E+03  0.31240691857E+03  0.00000000000E+00 0. -1.
         -2   -1    0    0    0  501 -0.00000000000E+00 -0.00000000000E+00 -0.55139703877E+02  0.55139703877E+02  0.00000000000E+00 0.  1.
         25    2    1    2    0    0  0.13059290165E+02 -0.36691010977E+02  0.22401206949E+03  0.25951123084E+03  0.12509155171E+03 0.  0.
          5    1    3    3  502    0 -0.11955801127E+02  0.40679712188E+02  0.12052178244E+03  0.12783095324E+03  0.41800000000E+01 0.  1.
         -5    1    3    3    0  502  0.25015091292E+02 -0.77370723165E+02  0.10349028705E+03  0.13168027760E+03  0.41800000000E+01 0.  1.
        -11    1    1    2    0    0  0.36076233687E+02 -0.52195462276E+01  0.21718112263E+02  0.42431293878E+02  0.00000000000E+00 0. -1.
         11    1    1    2    0    0 -0.49135523852E+02  0.41910557205E+02  0.11537032940E+02  0.65604097727E+02  0.00000000000E+00 0.  1.
</event>
<event>
 7    1  0.2844572E-009  0.2070540E+03  0.7561462E-02  0.1143920E+00
         -1   -1    0    0    0  501 -0.00000000000E+00  0.00000000000E+00  0.12853738766E+03  0.12853738766E+03  0.00000000000E+00 0.  1.
          1   -1    0    0  501    0  0.00000000000E+00 -0.00000000000E+00 -0.40077424005E+03  0.40077424005E+03  0.00000000000E+00 0. -1.
         25    2    1    2    0    0 -0.34543536451E+02 -0.19323033634E+03 -0.11390049870E+03  0.25913529553E+03  0.12508620625E+03 0.  0.
          5    1    3    3  502    0 -0.19299004397E+01 -0.10182623402E+03  0.91772365425E+01  0.10234256456E+03  0.41800000000E+01 0. -1.
         -5    1    3    3    0  502 -0.32613636011E+02 -0.91404102325E+02 -0.12307773524E+03  0.15679273098E+03  0.41800000000E+01 0. -1.
        -11    1    1    2    0    0  0.64423809563E+02  0.12848884519E+03 -0.81009175625E+02  0.16499180923E+03  0.00000000000E+00 0.  1.
         11    1    1    2    0    0 -0.29880273112E+02  0.64741491152E+02 -0.77327178069E+02  0.10518452294E+03  0.00000000000E+00 0. -1.
</event>
<event>
 7    1  0.2844572E-009  0.1156198E+03  0.7561462E-02  0.1250503E+00
         -1   -1    0    0    0  501 -0.00000000000E+00  0.00000000000E+00  0.16619992766E+02  0.16619992766E+02  0.00000000000E+00 0.  1.
          1   -1    0    0  501    0  0.00000000000E+00 -0.00000000000E+00 -0.90910771283E+03  0.90910771283E+03  0.00000000000E+00 0. -1.
         25    2    1    2    0    0 -0.37582143188E+02 -0.22480265641E+02 -0.65461796304E+03  0.66789972717E+03  0.12509032009E+03 0.  0.
          5    1    3    3  502    0  0.36460218339E+02  0.24465757971E+02 -0.18864882337E+03  0.19373634608E+03  0.41800000000E+01 0.  1.
         -5    1    3    3    0  502 -0.74042361527E+02 -0.46946023612E+02 -0.46596913967E+03  0.47416338108E+03  0.41800000000E+01 0.  1.
        -11    1    1    2    0    0  0.61834708069E+02  0.36045563062E+02 -0.16598620095E+03  0.18076015226E+03  0.00000000000E+00 0. -1.
         11    1    1    2    0    0 -0.24252564882E+02 -0.13565297421E+02 -0.71883556068E+02  0.77067826169E+02  0.00000000000E+00 0.  1.
</event>
<event>
 7    1  0.2844572E-009  0.1583759E+03  0.7561462E-02  0.1190543E+00
         -2   -1    0    0    0  501 -0.00000000000E+00  0.00000000000E+00  0.50595418190E+03  0.50595418190E+03  0.00000000000E+00 0.  1.
          2   -1    0    0  501    0  0.00000000000E+00 -0.00000000000E+00 -0.60811014989E+02  0.60811014989E+02  0.00000000000E+00 0. -1.
         25    2    1    2    0    0  0.79698718918E+02  0.10824311099E+03  0.28762387303E+03  0.34123718469E+03  0.12508743743E+03 0.  0.
          5    1    3    3  502    0 -0.24387951829E+02  0.64740481860E+02  0.13051696865E+03  0.14777771717E+03  0.41800000000E+01 0.  1.
         -5    1    3    3    0  502  0.10408667075E+03  0.43502629133E+02  0.15710690438E+03  0.19345946752E+03  0.41800000000E+01 0.  1.
        -11    1    1    2    0    0 -0.22611899424E+02 -0.35432738148E+02 -0.93059538196E+00  0.42043345918E+02  0.00000000000E+00 0. -1.
         11    1    1    2    0    0 -0.57086819494E+02 -0.72810372844E+02  0.15844988926E+03  0.18348466628E+03  0.00000000000E+00 0.  1.
</event>
<event>
 7    1  0.2844572E-009  0.1469679E+03  0.7561462E-02  0.1204249E+00
         -2   -1    0    0    0  501 -0.00000000000E+00  0.00000000000E+00  0.51377510061E+02  0.51377510061E+02  0.00000000000E+00 0.  1.
          2   -1    0    0  501    0  0.00000000000E+00 -0.00000000000E+00 -0.61806175939E+03  0.61806175939E+03  0.00000000000E+00 0. -1.
         25    2    1    2    0    0 -0.29289117730E+02  0.11553972815E+03 -0.15776478802E+03  0.23397371620E+03  0.12508673124E+03 0.  0.
          5    1    3    3  502    0 -0.66413223277E+02  0.87839118799E+02 -0.15106131449E+03  0.18698508003E+03  0.41800000000E+01 0.  1.
         -5    1    3    3    0  502  0.37124105547E+02  0.27700609356E+02 -0.67034735288E+01  0.46988636166E+02  0.41800000000E+01 0.  1.
        -11    1    1    2    0    0  0.50722543391E+02 -0.94173036341E+02 -0.37523270130E+03  0.39018062139E+03  0.00000000000E+00 0. -1.
         11    1    1    2    0    0 -0.21433425660E+02 -0.21366691813E+02 -0.33686760012E+02  0.45284931872E+02  0.00000000000E+00 0.  1.
</event>
<event>
 7    1  0.2844572E-009  0.1665011E+03  0.7561462E-02  0.1181547E+00
          1   -1    0    0  501    0  0.00000000000E+00  0.00000000000E+00  0.62638468764E+03  0.62638468764E+03  0.00000000000E+00 0. -1.
         -1   -1    0    0    0  501 -0.00000000000E+00 -0.00000000000E+00 -0.74661658557E+02  0.74661658557E+02  0.00000000000E+00 0.  1.
         25    2    1    2    0    0  0.18940175683E+02  0.15960467739E+03  0.44091052475E+03  0.48567639052E+03  0.12508829750E+03 0.  0.
          5    1    3    3  502    0  0.20990661616E+02  0.15057083380E+03  0.44811452787E+03  0.47321906804E+03  0.41800000000E+01 0.  1.
         -5    1    3    3    0  502 -0.20504859326E+01  0.90338435844E+01 -0.72040031168E+01  0.12457322480E+02  0.41800000000E+01 0.  1.
        -11    1    1    2    0    0 -0.39237977807E+02 -0.11999105308E+03  0.41299792617E+02  0.13282749938E+03  0.00000000000E+00 0.  1.
         11    1    1    2    0    0  0.20297802123E+02 -0.39613624312E+02  0.69512711715E+02  0.82542456301E+02  0.00000000000E+00 0. -1.
</event>
<event>
 7    1  0.2844572E-009  0.1748987E+03  0.7561462E-02  0.1172833E+00
          2   -1    0    0  501    0  0.00000000000E+00  0.00000000000E+00  0.15048631362E+03  0.15048631362E+03  0.00000000000E+00 0. -1.
         -2   -1    0    0    0  501 -0.00000000000E+00 -0.00000000000E+00 -0.22857539095E+03  0.22857539095E+03  0.00000000000E+00 0.  1.
         25    2    1    2    0    0  0.10381436552E+03  0.90905474646E+02  0.21605115887E+02  0.18750273431E+03  0.12509702848E+03 0.  0.
          5    1    3    3  502    0  0.49252886152E+02 -0.26960598951E+02  0.65090448925E+01  0.56679456204E+02  0.41800000000E+01 0.  1.
         -5    1    3    3    0  502  0.54561479371E+02  0.11786607360E+03  0.15096070994E+02  0.13082327811E+03  0.41800000000E+01 0.  1.
        -11    1    1    2    0    0 -0.10314936445E+03 -0.10630866768E+03 -0.91331345772E+02  0.17401936366E+03  0.00000000000E+00 0.  1.
         11    1    1    2    0    0 -0.66500107695E+00  0.15403193034E+02 -0.83628474434E+01  0.17539606593E+02  0.00000000000E+00 0. -1.
</event>
<event>
 7    1  0.2844572E-009  0.1107402E+03  0.7561462E-02  0.1259205E+00
          2   -1    0    0  501    0  0.00000000000E+00  0.00000000000E+00  0.80071798692E+02  0.80071798692E+02  0.00000000000E+00 0. -1.
         -2   -1    0    0    0  501 -0.00000000000E+00 -0.00000000000E+00 -0.16887604822E+03  0.16887604822E+03  0.00000000000E+00 0.  1.
         25    2    1    2    0    0 -0.27819889946E+02  0.77007411058E+01 -0.88217976071E+02  0.15576376735E+03  0.12508673881E+03 0.  0.
          5    1    3    3  502    0  0.49998410536E+02  0.38332295328E+01 -0.32980989781E+02  0.60164381420E+02  0.41800000000E+01 0.  1.
         -5    1    3    3    0  502 -0.77818300482E+02  0.38675115730E+01 -0.55236986290E+02  0.95599385929E+02  0.41800000000E+01 0.  1.
        -11    1    1    2    0    0  0.41440247814E+01  0.39824149461E+02 -0.17214309206E+01  0.40076166809E+02  0.00000000000E+00 0. -1.
         11    1    1    2    0    0  0.23675865164E+02 -0.47524890567E+02  0.11351574616E+01  0.53107912755E+02  0.00000000000E+00 0.  1.
</event>
<event>
 7    1  0.2844572E-009  0.9472396E+02  0.7561462E-02  0.1291799E+00
          2   -1    0    0  501    0  0.00000000000E+00  0.00000000000E+00  0.10756819087E+03  0.10756819087E+03  0.00000000000E+00 0. -1.
         -2   -1    0    0    0  501 -0.00000000000E+00 -0.00000000000E+00 -0.16862303061E+03  0.16862303061E+03  0.00000000000E+00 0.  1.
         25    2    1    2    0    0 -0.23034314595E+02  0.58892270257E+02  0.24791176311E+02  0.14234066695E+03  0.12508950355E+03 0.  0.
          5    1    3    3  502    0  0.43964140395E+02  0.18606996800E+02  0.40198899897E+02  0.62549899469E+02  0.41800000000E+01 0. -1.
         -5    1    3    3    0  502 -0.66998454990E+02  0.40285273456E+02 -0.15407723586E+02  0.79790767477E+02  0.41800000000E+01 0. -1.
        -11    1    1    2    0    0  0.10565925684E+02 -0.27010860343E+02 -0.94241179231E+02  0.98603373293E+02  0.00000000000E+00 0.  1.
         11    1    1    2    0    0  0.12468388911E+02 -0.31881409913E+02  0.83951631796E+01  0.35247181234E+02  0.00000000000E+00 0. -1.
</event>
<event>
 7    1  0.2844572E-009  0.1728315E+03  0.7561462E-02  0.1174927E+00
          2   -1    0    0  501    0  0.00000000000E+00  0.00000000000E+00  0.14521137632E+03  0.14521137632E+03  0.00000000000E+00 0. -1.
         -2   -1    0    0    0  501 -0.00000000000E+00 -0.00000000000E+00 -0.26591812213E+03  0.26591812213E+03  0.00000000000E+00 0.  1.
         25    2    1    2    0    0  0.15233460992E+03  0.53845924497E+02 -0.60394873820E+02  0.21307341713E+03  0.12509006090E+03 0.  0.
          5    1    3    3  502    0  0.51102878416E+02  0.32020042854E+02 -0.87122379047E+02  0.10604041049E+03  0.41800000000E+01 0. -1.
         -5    1    3    3    0  502  0.10123173151E+03  0.21825881643E+02  0.26727505227E+02  0.10703300663E+03  0.41800000000E+01 0. -1.
        -11    1    1    2    0    0 -0.44784613789E+02 -0.58792324198E+02 -0.51402221535E+02  0.90024371120E+02  0.00000000000E+00 0.  1.
         11    1    1    2    0    0 -0.10754999613E+03  0.49463997007E+01 -0.89096504538E+01  0.10803171020E+03  0.00000000000E+00 0. -1.
</event>
<event>
 7    1  0.2844572E-009  0.8459275E+02  0.7561462E-02  0.1316501E+00
         -1   -1    0    0    0  501 -0.00000000000E+00  0.00000000000E+00  0.38702781668E+03  0.38702781668E+03  0.00000000000E+00 0.  1.
          1   -1    0    0  501    0  0.00000000000E+00 -0.00000000000E+00 -0.39766516121E+02  0.39766516121E+02  0.00000000000E+00 0. -1.
         25    2    1    2    0    0  0.59610304193E+02  0.19337581879E+02  0.21199218052E+03  0.25399874712E+03  0.12508936205E+03 0.  0.
          5    1    3    3  502    0 -0.12830943612E+02 -0.19877802324E+02  0.14710483819E+03  0.14905390286E+03  0.41800000000E+01 0.  1.
         -5    1    3    3    0  502  0.72441247805E+02  0.39215384203E+02  0.64887342332E+02  0.10494484426E+03  0.41800000000E+01 0.  1.
        -11    1    1    2    0    0 -0.41414131954E+02 -0.13996516497E+02  0.14502431226E+03  0.15146974598E+03  0.00000000000E+00 0.  1.
         11    1    1    2    0    0 -0.18196172239E+02 -0.53410653815E+01 -0.97551922263E+01  0.21325839700E+02  0.00000000000E+00 0. -1.
</event>
<event>
 7    1  0.2844572E-009  0.1311488E+03  0.7561462E-02  0.1225761E+00
          1   -1    0    0  501    0  0.00000000000E+00  0.00000000000E+00  0.62190725940E+02  0.62190725940E+02  0.00000000000E+00 0. -1.
         -1   -1    0    0    0  501 -0.00000000000E+00 -0.00000000000E+00 -0.81884682842E+03  0.81884682842E+03  0.00000000000E+00 0.  1.
         25    2    1    2    0    0 -0.71569869330E+02 -0.87927885176E+02 -0.71022206110E+03  0.73001210951E+03  0.12509494305E+03 0.  0.
          5    1    3    3  502    0 -0.79047560075E+02 -0.22782449615E+02 -0.56031511907E+03  0.56633740987E+03  0.41800000000E+01 0.  1.
         -5    1    3    3    0  502  0.74776907453E+01 -0.65145435561E+02 -0.14990694203E+03  0.16367469964E+03  0.41800000000E+01 0.  1.
        -11    1    1    2    0    0  0.28862443593E+02  0.46442836538E+02 -0.68393938666E+02  0.87565453017E+02  0.00000000000E+00 0.  1.
         11    1    1    2    0    0  0.42707425737E+02  0.41485048638E+02  0.21959897290E+02  0.63459991826E+02  0.00000000000E+00 0. -1.
</event>
<event>
 7    1  0.2844572E-009  0.8229543E+02  0.7561462E-02  0.1322661E+00
         -1   -1    0    0    0  501 -0.00000000000E+00  0.00000000000E+00  0.93169564627E+02  0.93169564627E+02  0.00000000000E+00 0.  1.
          1   -1    0    0  501    0  0.00000000000E+00 -0.00000000000E+00 -0.23347288702E+03  0.23347288702E+03  0.00000000000E+00 0. -1.
         25    2    1    2    0    0  0.69421871856E+02 -0.13737066318E+02 -0.15310803852E+03  0.20999446929E+03  0.12508997718E+03 0.  0.
          5    1    3    3  502    0  0.43666752274E+02  0.20599085975E+02 -0.15922594864E+03  0.16643762410E+03  0.41800000000E+01 0.  1.
         -5    1    3    3    0  502  0.25755119583E+02 -0.34336152293E+02  0.61179101162E+01  0.43556845193E+02  0.41800000000E+01 0.  1.
        -11    1    1    2    0    0 -0.11397354516E+02 -0.43899540243E+01  0.45855479235E+02  0.47454150105E+02  0.00000000000E+00 0.  1.
         11    1    1    2    0    0 -0.58024517340E+02  0.18127020342E+02 -0.33050763106E+02  0.69193832246E+02  0.00000000000E+00 0. -1.
</event>
<event>
 7    1  0.2844572E-009  0.1078431E+03  0.7561462E-02  0.1264617E+00
          2   -1    0    0  501    0  0.00000000000E+00  0.00000000000E+00  0.17403033866E+03  0.17403033866E+03  0.00000000000E+00 0. -1.
         -2   -1    0    0    0  501 -0.00000000000E+00 -0.00000000000E+00 -0.94832784601E+02  0.94832784601E+02  0.00000000000E+00 0.  1.
         25    2    1    2    0    0 -0.30481991352E+02  0.85269428517E+01 -0.21199804972E+02  0.13076149232E+03  0.12508907063E+03 0.  0.
          5    1    3    3  502    0  0.14067627496E+02 -0.48472546521E+02  0.10407787878E+02  0.51703775086E+02  0.41800000000E+01 0.  1.
         -5    1    3    3    0  502 -0.44549618848E+02  0.56999489373E+02 -0.31607592850E+02  0.79057717233E+02  0.41800000000E+01 0.  1.
        -11    1    1    2    0    0  0.88419944794E+00 -0.45335399730E+02  0.34266417519E+02  0.56835443579E+02  0.00000000000E+00 0. -1.
         11    1    1    2    0    0  0.29597791904E+02  0.36808456878E+02  0.66130941516E+02  0.81266187367E+02  0.00000000000E+00 0.  1.
</event>
<event>
 7    1  0.2844572E-009  0.1308592E+03  0.7561462E-02  0.1226186E+00
         -1   -1    0    0    0  501 -0.00000000000E+00  0.00000000000E+00  0.22492170245E+02  0.22492170245E+02  0.00000000000E+00 0.  1.
          1   -1    0    0  501    0  0.00000000000E+00 -0.00000000000E+00 -0.19422159200E+04  0.19422159200E+04  0.00000000000E+00 0. -1.
         25    2    1    2    0    0 -0.70574907435E+02  0.83946561364E+02 -0.16642655478E+04  0.16725603025E+04  0.12510119564E+03 0.  0.
          5    1    3    3  502    0  0.25652682085E+01 -0.63547240587E+01 -0.84960076558E+03  0.84963868579E+03  0.41800000000E+01 0. -1.
         -5    1    3    3    0  502 -0.73140175644E+02  0.90301285423E+02 -0.81466478227E+03  0.82292161674E+03  0.41800000000E+01 0. -1.
        -11    1    1    2    0    0  0.53571222025E+02 -0.18837400589E+01 -0.66323507602E+02  0.85277382503E+02  0.00000000000E+00 0.  1.
         11    1    1    2    0    0  0.17003685411E+02 -0.82062821306E+02 -0.18913469428E+03  0.20687040518E+03  0.00000000000E+00 0. -1.
</event>
<event>
 7    1  0.2844572E-009  0.1116549E+03  0.7561462E-02  0.1257536E+00
          2   -1    0    0  501    0  0.00000000000E+00  0.00000000000E+00  0.56968726226E+03  0.56968726226E+03  0.00000000000E+00 0. -1.
         -2   -1    0    0    0  501 -0.00000000000E+00 -0.00000000000E+00 -0.30116831938E+02  0.30116831938E+02  0.00000000000E+00 0.  1.
         25    2    1    2    0    0 -0.13991766301E+02  0.90928606500E+01  0.16226052221E+03  0.20555879695E+03  0.12508993682E+03 0.  0.
          5    1    3    3  502    0  0.22880025158E+02 -0.42549673867E+02  0.11940000995E+03  0.12887127327E+03  0.41800000000E+01 0. -1.
         -5    1    3    3    0  502 -0.36871791459E+02  0.51642534517E+02  0.42860512262E+02  0.76687523679E+02  0.41800000000E+01 0. -1.
        -11    1    1    2    0    0  0.39314123971E+02 -0.49700596663E+02  0.16851572282E+03  0.18003693646E+03  0.00000000000E+00 0.  1.
         11    1    1    2    0    0 -0.25322357670E+02  0.40607736013E+02  0.20879418529E+03  0.21420836079E+03  0.00000000000E+00 0. -1.
</event>
<event>
 7    1  0.2844572E-009  0.1092494E+03  0.7561462E-02  0.1261966E+00
          3   -1    0    0  501    0  0.00000000000E+00  0.00000000000E+00  0.36148709937E+03  0.36148709937E+03  0.00000000000E+00 0. -1.
         -3   -1    0    0    0  501 -0.00000000000E+00 -0.00000000000E+00 -0.52331373782E+02  0.52331373782E+02  0.00000000000E+00 0.  1.
         25    2    1    2    0    0 -0.82883934006E+02  0.46225727081E+01  0.18321642900E+03  0.23686817066E+03  0.12508859149E+03 0.  0.
          5    1    3    3  502    0 -0.83516648943E+02  0.44132635244E+02  0.17082209381E+03  0.19524441165E+03  0.41800000000E+01 0.  1.
         -5    1    3    3    0  502  0.63271493690E+00 -0.39510062536E+02  0.12394335187E+02  0.41623759015E+02  0.41800000000E+01 0.  1.
        -11    1    1    2    0    0  0.21533567172E+02 -0.74749141867E+01 -0.12142049467E+02  0.25826308728E+02  0.00000000000E+00 0.  1.
         11    1    1    2    0    0  0.61350366835E+02  0.28523414785E+01  0.13808134605E+03  0.15112399376E+03  0.00000000000E+00 0. -1.
</event>
<event>
 7    1  0.2844572E-009  0.1018908E+03  0.7561462E-02  0.1276369E+00
          2   -1    0    0  501    0  0.00000000000E+00  0.00000000000E+00  0.53998466624E+03  0.53998466624E+03  0.00000000000E+00 0. -1.
         -2   -1    0    0    0  501 -0.00000000000E+00 -0.00000000000E+00 -0.31554594161E+02  0.31554594161E+02  0.00000000000E+00 0.  1.
         25    2    1    2    0    0 -0.28665723622E+02  0.33381665096E+02  0.41313099149E+03  0.43389104118E+03  0.12509260654E+03 0.  0.
          5    1    3    3  502    0  0.45224544648E+02  0.32283857847E+02  0.22312004639E+03  0.22997289931E+03  0.41800000000E+01 0.  1.
         -5    1    3    3    0  502 -0.73890268270E+02  0.10978072487E+01  0.19001094510E+03  0.20391814187E+03  0.41800000000E+01 0.  1.
        -11    1    1    2    0    0  0.24086305149E+02 -0.50699276299E+02  0.10365925921E+03  0.11788048495E+03  0.00000000000E+00 0. -1.
         11    1    1    2    0    0  0.45794184727E+01  0.17317611203E+02 -0.83601786236E+01  0.19767734265E+02  0.00000000000E+00 0.  1.
</event>
<event>
 7    1  0.2844572E-009  0.1128782E+03  0.7561462E-02  0.1255331E+00
         -1   -1    0    0    0  501 -0.00000000000E+00  0.00000000000E+00  0.88519241253E+02  0.88519241253E+02  0.00000000000E+00 0.  1.
          1   -1    0    0  501    0  0.00000000000E+00 -0.00000000000E+00 -0.20640012193E+03  0.20640012193E+03  0.00000000000E+00 0. -1.
         25    2    1    2    0    0  0.45735744950E+02 -0.66639961734E+02 -0.71413224123E+02  0.16516720721E+03  0.12509082657E+03 0.  0.
          5    1    3    3  502    0  0.28717615776E+02 -0.95879912237E+02 -0.17965371643E+02  0.10177369997E+03  0.41800000000E+01 0. -1.
         -5    1    3    3    0  502  0.17018129174E+02  0.29239950503E+02 -0.53447852481E+02  0.63393507245E+02  0.41800000000E+01 0. -1.
        -11    1    1    2    0    0 -0.47634392580E+02  0.33352075761E+02 -0.68450344038E+02  0.89815621765E+02  0.00000000000E+00 0. -1.
         11    1    1    2    0    0  0.18986476298E+01  0.33287885973E+02  0.21982687486E+02  0.39936534207E+02  0.00000000000E+00 0.  1.
</event>
<event>
 7    1  0.2844572E-009  0.8359820E+02  0.7561462E-02  0.1319140E+00
         -2   -1    0    0    0  501 -0.00000000000E+00  0.00000000000E+00  0.61127892559E+03  0.61127892559E+03  0.00000000000E+00 0.  1.
          2   -1    0    0  501    0  0.00000000000E+00 -0.00000000000E+00 -0.26585477872E+02  0.26585477872E+02  0.00000000000E+00 0. -1.
         25    2    1    2    0    0 -0.33323379432E+02 -0.32104469867E+02  0.44463680445E+03  0.46420846925E+03  0.12508585232E+03 0.  0.
          5    1    3    3  502    0  0.12576249316E+02 -0.30183959339E+02  0.39527487586E+03  0.39664711436E+03  0.41800000000E+01 0. -1.
         -5    1    3    3    0  502 -0.45899628748E+02 -0.19205105285E+01  0.49361928593E+02  0.67561354888E+02  0.41800000000E+01 0. -1.
        -11    1    1    2    0    0 -0.23430995283E+02  0.18199385378E+02  0.10396984279E+02  0.31437659744E+02  0.00000000000E+00 0. -1.
         11    1    1    2    0    0  0.56754374714E+02  0.13905084489E+02  0.12965965899E+03  0.14221827447E+03  0.00000000000E+00 0.  1.
</event>
<event>
 7    1  0.2844572E-009  0.3416843E+03  0.7561462E-02  0.1066081E+00
         -2   -1    0    0    0  501 -0.00000000000E+00  0.00000000000E+00  0.66271680319E+02  0.66271680319E+02  0.00000000000E+00 0.  1.
          2   -1    0    0  501    0  0.00000000000E+00 -0.00000000000E+00 -0.28776905982E+04  0.28776905982E+04  0.00000000000E+00 0. -1.
         25    2    1    2    0    0 -0.92244466322E+02 -0.32582764336E+03 -0.22786604296E+04  0.23070791668E+04  0.12509289957E+03 0.  0.
          5    1    3    3  502    0 -0.28242595035E+02 -0.57004097100E+02 -0.81954479346E+03  0.82202083438E+03  0.41800000000E+01 0.  1.
         -5    1    3    3    0  502 -0.64001871287E+02 -0.26882354626E+03 -0.14591156361E+04  0.14850583324E+04  0.41800000000E+01 0.  1.
        -11    1    1    2    0    0  0.58539852329E+02  0.10817765746E+03 -0.13814975195E+03  0.18497208937E+03  0.00000000000E+00 0. -1.
         11    1    1    2    0    0  0.33704613993E+02  0.21764998590E+03 -0.39460873633E+03  0.45191102239E+03  0.00000000000E+00 0.  1.
</event>
<event>
 7    1  0.2844572E-009  0.1661224E+03  0.7561462E-02  0.1181953E+00
          1   -1    0    0  501    0  0.00000000000E+00  0.00000000000E+00  0.25267897294E+03  0.25267897294E+03  0.00000000000E+00 0. -1.
         -1   -1    0    0    0  501 -0.00000000000E+00 -0.00000000000E+00 -0.16205255486E+03  0.16205255486E+03  0.00000000000E+00 0.  1.
         25    2    1    2    0    0 -0.10412523952E+03  0.90296478033E+02 -0.55664045061E+02  0.19427142251E+03  0.12508948894E+03 0.  0.
          5    1    3    3  502    0 -0.10860509894E+03  0.18444811353E+02 -0.14368581479E+02  0.11117197090E+03  0.41800000000E+01 0.  1.
         -5    1    3    3    0  502  0.44798594190E+01  0.71851666680E+02 -0.41295463582E+02  0.83099451608E+02  0.41800000000E+01 0.  1.
        -11    1    1    2    0    0  0.69569193641E+02 -0.91943693365E+02  0.65569620647E+02  0.13263819437E+03  0.00000000000E+00 0.  1.
         11    1    1    2    0    0  0.34556045876E+02  0.16472153315E+01  0.80720842491E+02  0.87821910919E+02  0.00000000000E+00 0. -1.
</event>
<event>
 7    1  0.2844572E-009  0.3160789E+03  0.7561462E-02  0.1077468E+00
          1   -1    0    0  501    0  0.00000000000E+00  0.00000000000E+00  0.74505264242E+02  0.74505264242E+02  0.00000000000E+00 0. -1.
         -1   -1    0    0    0  501 -0.00000000000E+00 -0.00000000000E+00 -0.14704747533E+04  0.14704747533E+04  0.00000000000E+00 0.  1.
         25    2    1    2    0    0 -0.26173493109E+03  0.16155239106E+03 -0.87097726560E+03  0.93212275680E+03  0.12508831820E+03 0.  0.
          5    1    3    3  502    0 -0.41063579278E+02 -0.22058301082E+01 -0.42649091025E+02  0.59392765510E+02  0.41800000000E+01 0. -1.
         -5    1    3    3    0  502 -0.22067135182E+03  0.16375822117E+03 -0.82832817457E+03  0.87272999129E+03  0.41800000000E+01 0. -1.
        -11    1    1    2    0    0  0.25905182227E+03 -0.14035825430E+03 -0.49464419299E+03  0.57574400894E+03  0.00000000000E+00 0.  1.
         11    1    1    2    0    0  0.26831088266E+01 -0.21194136764E+02 -0.30348030507E+02  0.37113251836E+02  0.00000000000E+00 0. -1.
</event>
<event>
 7    1  0.2844572E-009  0.8900963E+02  0.7561462E-02  0.1305268E+00
          2   -1    0    0  501    0  0.00000000000E+00  0.00000000000E+00  0.84040700536E+02  0.84040700536E+02  0.00000000000E+00 0.  1.
         -2   -1    0    0    0  501 -0.00000000000E+00 -0.00000000000E+00 -0.14928914170E+03  0.14928914170E+03  0.00000000000E+00 0. -1.
         25    2    1    2    0    0 -0.23049359353E+01  0.21987742374E+02 -0.22797567813E+02  0.12905222742E+03  0.12508387090E+03 0.  0.
          5    1    3    3  502    0  0.28577631357E+02 -0.35916255832E+02 -0.40061559131E+02  0.61066024653E+02  0.41800000000E+01 0. -1.
         -5    1    3    3    0  502 -0.30882567292E+02  0.57903998206E+02  0.17263991318E+02  0.67986202769E+02  0.41800000000E+01 0. -1.
        -11    1    1    2    0    0  0.22911428371E+02  0.12424200214E+02 -0.56140791830E+02  0.61895741439E+02  0.00000000000E+00 0. -1.
         11    1    1    2    0    0 -0.20606492436E+02 -0.34411942588E+02  0.13689918475E+02  0.42381873378E+02  0.00000000000E+00 0.  1.
</event>
<event>
 7    1  0.2844572E-009  0.1074153E+03  0.7561462E-02  0.1265433E+00
         -1   -1    0    0    0  501 -0.00000000000E+00  0.00000000000E+00  0.59562901928E+02  0.59562901928E+02  0.00000000000E+00 0.  1.
          1   -1    0    0  501    0  0.00000000000E+00 -0.00000000000E+00 -0.21928729806E+03  0.21928729806E+03  0.00000000000E+00 0. -1.
         25    2    1    2    0    0  0.32088321724E+02  0.24394953266E+02 -0.93774953195E+02  0.16145313759E+03  0.12509436301E+03 0.  0.
          5    1    3    3  502    0 -0.40627631728E+02 -0.18134529971E+02 -0.47631525838E+02  0.65312328781E+02  0.41800000000E+01 0.  1.
         -5    1    3    3    0  502  0.72715953452E+02  0.42529483237E+02 -0.46143427357E+02  0.96140808813E+02  0.41800000000E+01 0.  1.
        -11    1    1    2    0    0 -0.56558728345E+02 -0.10079838176E+02 -0.67944144198E+02  0.88976961178E+02  0.00000000000E+00 0.  1.
         11    1    1    2    0    0  0.24470406621E+02 -0.14315115090E+02  0.19947012584E+01  0.28420101220E+02  0.00000000000E+00 0. -1.
</event>
<event>
 7    1  0.2844572E-009  0.1159638E+03  0.7561462E-02  0.1249908E+00
          1   -1    0    0  501    0  0.00000000000E+00  0.00000000000E+00  0.20001521241E+03  0.20001521241E+03  0.00000000000E+00 0. -1.
         -1   -1    0    0    0  501 -0.00000000000E+00 -0.00000000000E+00 -0.85544132944E+02  0.85544132944E+02  0.00000000000E+00 0.  1.
         25    2    1    2    0    0 -0.42975652569E+02 -0.31740785140E+02  0.11817072240E+03  0.18019104891E+03  0.12510040095E+03 0.  0.
          5    1    3    3  502    0 -0.83894019298E+02 -0.12341907466E+02  0.50893540010E+02  0.98985625060E+02  0.41800000000E+01 0. -1.
         -5    1    3    3    0  502  0.40918366729E+02 -0.19398877674E+02  0.67277182395E+02  0.81205423845E+02  0.41800000000E+01 0. -1.
        -11    1    1    2    0    0  0.42693684352E+02 -0.21849791511E+02  0.12163647207E+02  0.49478463861E+02  0.00000000000E+00 0. -1.
         11    1    1    2    0    0  0.28196821620E+00  0.53590576651E+02 -0.15863290150E+02  0.55889832584E+02  0.00000000000E+00 0.  1.
</event>
<event>
 7    1  0.2844572E-009  0.1240441E+03  0.7561462E-02  0.1236571E+00
         -2   -1    0    0    0  501 -0.00000000000E+00  0.00000000000E+00  0.16289210626E+03  0.16289210626E+03  0.00000000000E+00 0.  1.
          2   -1    0    0  501    0  0.00000000000E+00 -0.00000000000E+00 -0.12521775206E+03  0.12521775206E+03  0.00000000000E+00 0. -1.
         25    2    1    2    0    0 -0.86460584716E+02 -0.31104393262E+02 -0.59530939206E+01  0.15532602950E+03  0.12509124719E+03 0.  0.
          5    1    3    3  502    0 -0.66366646193E+02  0.38905046097E+02  0.16899783728E+02  0.78874643763E+02  0.41800000000E+01 0. -1.
         -5    1    3    3    0  502 -0.20093938523E+02 -0.70009439359E+02 -0.22852877649E+02  0.76451385740E+02  0.41800000000E+01 0. -1.
        -11    1    1    2    0    0  0.75400523077E+02  0.12476786304E+02  0.66480571032E+02  0.10129449838E+03  0.00000000000E+00 0.  1.
         11    1    1    2    0    0  0.11060061639E+02  0.18627606957E+02 -0.22853122911E+02  0.31489330434E+02  0.00000000000E+00 0. -1.
</event>
<event>
 7    1  0.2844572E-009  0.1437454E+03  0.7561462E-02  0.1208376E+00
          1   -1    0    0  501    0  0.00000000000E+00  0.00000000000E+00  0.33586061174E+03  0.33586061174E+03  0.00000000000E+00 0. -1.
         -1   -1    0    0    0  501 -0.00000000000E+00 -0.00000000000E+00 -0.70870887620E+02  0.70870887620E+02  0.00000000000E+00 0.  1.
         25    2    1    2    0    0 -0.10653221316E+03  0.35004576791E+01  0.12769154432E+03  0.20812138858E+03  0.12509203112E+03 0.  0.
          5    1    3    3  502    0 -0.47595185643E+02  0.61307550332E+02  0.39283098664E+02  0.87089331521E+02  0.41800000000E+01 0.  1.
         -5    1    3    3    0  502 -0.58937027512E+02 -0.57807092653E+02  0.88408445653E+02  0.12103205706E+03  0.41800000000E+01 0.  1.
        -11    1    1    2    0    0  0.69371454339E+02  0.31379236351E+02  0.12470600813E+03  0.14611175043E+03  0.00000000000E+00 0. -1.
         11    1    1    2    0    0  0.37160758816E+02 -0.34879694030E+02  0.12592171669E+02  0.52498360344E+02  0.00000000000E+00 0.  1.
</event>
<event>
 7    1  0.2844572E-009  0.1568414E+03  0.7561462E-02  0.1192310E+00
         -1   -1    0    0    0  501 -0.00000000000E+00  0.00000000000E+00  0.73560721648E+02  0.73560721648E+02  0.00000000000E+00 0.  1.
          1   -1    0    0  501    0  0.00000000000E+00 -0.00000000000E+00 -0.35221302513E+03  0.35221302513E+03  0.00000000000E+00 0. -1.
         25    2    1    2    0    0  0.10267973973E+03  0.49316119203E+02 -0.10673641155E+03  0.20003997769E+03  0.12509245605E+03 0.  0.
          5    1    3    3  502    0  0.10368483446E+03 -0.14889867834E+02 -0.65593135852E+02  0.12366157419E+03  0.41800000000E+01 0.  1.
         -5    1    3    3    0  502 -0.10050947250E+01  0.64205987037E+02 -0.41143275693E+02  0.76378403502E+02  0.41800000000E+01 0.  1.
        -11    1    1    2    0    0 -0.10291093833E+03 -0.80402428806E+01 -0.13785263034E+03  0.17221688194E+03  0.00000000000E+00 0. -1.
         11    1    1    2    0    0  0.23119859634E+00 -0.41275876322E+02 -0.34063261599E+02  0.53516887146E+02  0.00000000000E+00 0.  1.
</event>
<event>
 7    1  0.2844572E-009  0.1815288E+03  0.7561462E-02  0.1166332E+00
         -3   -1    0    0    0  501 -0.00000000000E+00  0.00000000000E+00  0.26620711263E+03  0.26620711263E+03  0.00000000000E+00 0.  1.
          3   -1    0    0  501    0  0.00000000000E+00 -0.00000000000E+00 -0.16069813277E+03  0.16069813277E+03  0.00000000000E+00 0. -1.
         25    2    1    2    0    0 -0.38537469128E+02  0.16108361636E+03 -0.35430059709E+01  0.20758646136E+03  0.12508604264E+03 0.  0.
          5    1    3    3  502    0 -0.67179808816E+02  0.59422341202E+02  0.33129718018E+02  0.95703667445E+02  0.41800000000E+01 0. -1.
         -5    1    3    3    0  502  0.28642339688E+02  0.10166127516E+03 -0.36672723989E+02  0.11188279392E+03  0.41800000000E+01 0. -1.
        -11    1    1    2    0    0  0.18733734582E+02 -0.32856357138E+02  0.76822575280E+02  0.85628272717E+02  0.00000000000E+00 0.  1.
         11    1    1    2    0    0  0.19803734546E+02 -0.12822725922E+03  0.32229410552E+02  0.13369051131E+03  0.00000000000E+00 0. -1.
</event>
<event>
 7    1  0.2844572E-009  0.1466371E+03  0.7561462E-02  0.1204667E+00
          2   -1    0    0  501    0  0.00000000000E+00  0.00000000000E+00  0.64188809998E+03  0.64188809998E+03  0.00000000000E+00 0.  1.
         -2   -1    0    0    0  501 -0.00000000000E+00 -0.00000000000E+00 -0.82868731858E+02  0.82868731858E+02  0.00000000000E+00 0. -1.
         25    2    1    2    0    0 -0.12053005016E+03 -0.51674052969E+02  0.45571117914E+02  0.18687577206E+03  0.12509247240E+03 0.  0.
          5    1    3    3  502    0 -0.94905738761E+02 -0.59959632494E+02  0.83641699628E+02  0.14005592845E+03  0.41800000000E+01 0. -1.
         -5    1    3    3    0  502 -0.25624311402E+02  0.82855795250E+01 -0.38070581714E+02  0.46819843602E+02  0.41800000000E+01 0. -1.
        -11    1    1    2    0    0  0.10881503301E+03  0.71819622939E+02  0.47797237117E+03  0.49543552280E+03  0.00000000000E+00 0.  1.
         11    1    1    2    0    0  0.11715017152E+02 -0.20145569970E+02  0.35475879036E+02  0.42445536981E+02  0.00000000000E+00 0. -1.
</event>
<event>
 7    1  0.2844572E-009  0.1053470E+03  0.7561462E-02  0.1269437E+00
          2   -1    0    0  501    0  0.00000000000E+00  0.00000000000E+00  0.42062535098E+02  0.42062535098E+02  0.00000000000E+00 0. -1.
         -2   -1    0    0    0  501 -0.00000000000E+00 -0.00000000000E+00 -0.40415396020E+03  0.40415396020E+03  0.00000000000E+00 0.  1.
         25    2    1    2    0    0 -0.57213279988E+01 -0.27746070776E+01 -0.89525059901E+02  0.15396077656E+03  0.12509497325E+03 0.  0.
          5    1    3    3  502    0 -0.21472801292E+02  0.47570334266E+02 -0.28847233258E+01  0.52438649164E+02  0.41800000000E+01 0. -1.
         -5    1    3    3    0  502  0.15751473293E+02 -0.50344941344E+02 -0.86640336576E+02  0.10152212740E+03  0.41800000000E+01 0. -1.
        -11    1    1    2    0    0 -0.43452817274E+02  0.26419847462E+02 -0.12756400042E+03  0.13732709082E+03  0.00000000000E+00 0. -1.
         11    1    1    2    0    0  0.49174145273E+02 -0.23645240385E+02 -0.14500236478E+03  0.15492862791E+03  0.00000000000E+00 0.  1.
</event>
<event>
 7    1  0.2844572E-009  0.1285237E+03  0.7561462E-02  0.1229663E+00
         -1   -1    0    0    0  501 -0.00000000000E+00  0.00000000000E+00  0.26564011839E+02  0.26564011839E+02  0.00000000000E+00 0.  1.
          1   -1    0    0  501    0  0.00000000000E+00 -0.00000000000E+00 -0.86730491103E+03  0.86730491103E+03  0.00000000000E+00 0. -1.
         25    2    1    2    0    0  0.69306459036E+02  0.59089364025E+02 -0.29627725751E+03  0.33425185331E+03  0.12509656239E+03 0.  0.
          5    1    3    3  502    0  0.75172542759E+02  0.10466818173E+01 -0.78567231147E+02  0.10882228144E+03  0.41800000000E+01 0. -1.
         -5    1    3    3    0  502 -0.58660837230E+01  0.58042682208E+02 -0.21771002636E+03  0.22542957187E+03  0.41800000000E+01 0. -1.
        -11    1    1    2    0    0 -0.14559012430E+02 -0.66447599818E+02 -0.38225810481E+03  0.38826345058E+03  0.00000000000E+00 0. -1.
         11    1    1    2    0    0 -0.54747446606E+02  0.73582357934E+01 -0.16220553687E+03  0.17135361898E+03  0.00000000000E+00 0.  1.
</event>
<event>
 7    1  0.2844572E-009  0.4231322E+02  0.7561462E-02  0.1491847E+00
          1   -1    0    0  501    0  0.00000000000E+00  0.00000000000E+00  0.12875261427E+03  0.12875261427E+03  0.00000000000E+00 0. -1.
         -1   -1    0    0    0  501 -0.00000000000E+00 -0.00000000000E+00 -0.93663019531E+02  0.93663019531E+02  0.00000000000E+00 0.  1.
         25    2    1    2    0    0 -0.49358349103E+01 -0.99180635422E+01  0.30409904993E+02  0.12920871961E+03  0.12508956971E+03 0.  0.
          5    1    3    3  502    0 -0.66226938369E+01  0.12576202104E+02  0.76395183364E+02  0.77818489925E+02  0.41800000000E+01 0.  1.
         -5    1    3    3    0  502  0.16868589266E+01 -0.22494265646E+02 -0.45985278371E+02  0.51390229683E+02  0.41800000000E+01 0.  1.
        -11    1    1    2    0    0 -0.18479331236E+02  0.13893325832E+02 -0.37932611700E+02  0.44422890676E+02  0.00000000000E+00 0.  1.
         11    1    1    2    0    0  0.23415166146E+02 -0.39752622896E+01  0.42612301444E+02  0.48784023514E+02  0.00000000000E+00 0. -1.
</event>
<event>
 7    1  0.2844572E-009  0.1205375E+03  0.7561462E-02  0.1242213E+00
         -3   -1    0    0    0  501 -0.00000000000E+00  0.00000000000E+00  0.44357674604E+03  0.44357674604E+03  0.00000000000E+00 0.  1.
          3   -1    0    0  501    0  0.00000000000E+00 -0.00000000000E+00 -0.43941766044E+02  0.43941766044E+02  0.00000000000E+00 0. -1.
         25    2    1    2    0    0 -0.21529800997E+02 -0.84459907267E+02  0.19125308688E+03  0.24458000228E+03  0.12507847939E+03 0.  0.
          5    1    3    3  502    0 -0.50704908508E+02 -0.49369139600E+02  0.30065184375E+02  0.77004463527E+02  0.41800000000E+01 0.  1.
         -5    1    3    3    0  502  0.29175107511E+02 -0.35090767667E+02  0.16118790250E+03  0.16757553875E+03  0.41800000000E+01 0.  1.
        -11    1    1    2    0    0  0.65760753547E+01 -0.18852920402E+02  0.42277574360E+02  0.46755434642E+02  0.00000000000E+00 0. -1.
         11    1    1    2    0    0  0.14953725642E+02  0.10331282767E+03  0.16610431876E+03  0.19618307517E+03  0.00000000000E+00 0.  1.
</event>
<event>
 7    1  0.2844572E-009  0.9004212E+02  0.7561462E-02  0.1302750E+00
          1   -1    0    0  501    0  0.00000000000E+00  0.00000000000E+00  0.70411460881E+03  0.70411460881E+03  0.00000000000E+00 0. -1.
         -1   -1    0    0    0  501 -0.00000000000E+00 -0.00000000000E+00 -0.18738258084E+02  0.18738258084E+02  0.00000000000E+00 0.  1.
         25    2    1    2    0    0 -0.22956086992E+02 -0.31362805809E+01  0.31750363604E+03  0.34203331205E+03  0.12506562065E+03 0.  0.
          5    1    3    3  502    0  0.10110919166E+02 -0.34300273382E+02  0.28181189626E+03  0.28410237013E+03  0.41800000000E+01 0. -1.
         -5    1    3    3    0  502 -0.33067006157E+02  0.31163992801E+02  0.35691739783E+02  0.57930941924E+02  0.41800000000E+01 0. -1.
        -11    1    1    2    0    0  0.11771477537E+02  0.49436856629E+02  0.19130401996E+03  0.19793887574E+03  0.00000000000E+00 0. -1.
         11    1    1    2    0    0  0.11184609454E+02 -0.46300576048E+02  0.17656869473E+03  0.18288067910E+03  0.00000000000E+00 0.  1.
</event>
<event>
 7    1  0.2844572E-009  0.1111549E+03  0.7561462E-02  0.1258446E+00
          2   -1    0    0  501    0  0.00000000000E+00  0.00000000000E+00  0.11520617625E+04  0.11520617625E+04  0.00000000000E+00 0.  1.
         -2   -1    0    0    0  501 -0.00000000000E+00 -0.00000000000E+00 -0.13609302659E+02  0.13609302659E+02  0.00000000000E+00 0. -1.
         25    2    1    2    0    0 -0.33232806013E+02 -0.25047060068E+02  0.84899275113E+03  0.85916864347E+03  0.12510112645E+03 0.  0.
          5    1    3    3  502    0 -0.63876652477E+02  0.26095802142E+02  0.36388726067E+03  0.37039523283E+03  0.41800000000E+01 0.  1.
         -5    1    3    3    0  502  0.30643846464E+02 -0.51142862210E+02  0.48510549046E+03  0.48877341064E+03  0.41800000000E+01 0.  1.
        -11    1    1    2    0    0 -0.15203183997E+02 -0.21437691862E+02  0.37774582962E+02  0.46017720000E+02  0.00000000000E+00 0.  1.
         11    1    1    2    0    0  0.48435990010E+02  0.46484751929E+02  0.25168512575E+03  0.26048470169E+03  0.00000000000E+00 0. -1.
</event>
<event>
 7    1  0.2844572E-009  0.1479923E+03  0.7561462E-02  0.1202962E+00
          2   -1    0    0  501    0  0.00000000000E+00  0.00000000000E+00  0.19246528504E+03  0.19246528504E+03  0.00000000000E+00 0. -1.
         -2   -1    0    0    0  501 -0.00000000000E+00 -0.00000000000E+00 -0.13309627521E+03  0.13309627521E+03  0.00000000000E+00 0.  1.
         25    2    1    2    0    0  0.90747401468E+02 -0.68717524395E+02  0.22455782521E+01  0.16914387671E+03  0.12508964536E+03 0.  0.
          5    1    3    3  502    0  0.10677203795E+03 -0.84138382178E+02 -0.19935360058E+02  0.13745699846E+03  0.41800000000E+01 0.  1.
         -5    1    3    3    0  502 -0.16024636485E+02  0.15420857783E+02  0.22180938310E+02  0.31686878255E+02  0.41800000000E+01 0.  1.
        -11    1    1    2    0    0 -0.75804924471E+02  0.96415762096E+01  0.57247742801E+02  0.95481153228E+02  0.00000000000E+00 0. -1.
         11    1    1    2    0    0 -0.14942476997E+02  0.59075948186E+02 -0.12431123105E+00  0.60936530309E+02  0.00000000000E+00 0.  1.
</event>
<event>
 7    1  0.2844572E-009  0.1595493E+03  0.7561462E-02  0.1189207E+00
          2   -1    0    0  501    0  0.00000000000E+00  0.00000000000E+00  0.18856957931E+03  0.18856957931E+03  0.00000000000E+00 0. -1.
         -2   -1    0    0    0  501 -0.00000000000E+00 -0.00000000000E+00 -0.16147029581E+03  0.16147029581E+03  0.00000000000E+00 0.  1.
         25    2    1    2    0    0  0.12440545148E+02  0.12736077866E+03 -0.34149709444E+02  0.18217722712E+03  0.12508718688E+03 0.  0.
          5    1    3    3  502    0  0.18475731258E+02  0.15194978041E+03 -0.31932349196E+02  0.15642006181E+03  0.41800000000E+01 0.  1.
         -5    1    3    3    0  502 -0.60351861096E+01 -0.24589001747E+02 -0.22173602479E+01  0.25757165309E+02  0.41800000000E+01 0.  1.
        -11    1    1    2    0    0 -0.18311820405E+02 -0.66870894089E+01  0.40949027902E+02  0.45352649508E+02  0.00000000000E+00 0. -1.
         11    1    1    2    0    0  0.58712752566E+01 -0.12067368925E+03  0.20299965040E+02  0.12250999850E+03  0.00000000000E+00 0.  1.
</event>
<event>
 7    1  0.2844572E-009  0.9255758E+02  0.7561462E-02  0.1296774E+00
          2   -1    0    0  501    0  0.00000000000E+00  0.00000000000E+00  0.57011055360E+03  0.57011055360E+03  0.00000000000E+00 0. -1.
         -2   -1    0    0    0  501 -0.00000000000E+00 -0.00000000000E+00 -0.30312438370E+02  0.30312438370E+02  0.00000000000E+00 0.  1.
         25    2    1    2    0    0 -0.34801963641E+02 -0.36361831255E+02  0.42386353868E+03  0.44479349400E+03  0.12509034110E+03 0.  0.
          5    1    3    3  502    0  0.79247933033E+01 -0.75823574020E+02  0.22906267673E+03  0.24145227064E+03  0.41800000000E+01 0. -1.
         -5    1    3    3    0  502 -0.42726756944E+02  0.39461742765E+02  0.19480086195E+03  0.20334122336E+03  0.41800000000E+01 0. -1.
        -11    1    1    2    0    0  0.16482410261E+02  0.14729051655E+02 -0.11613170454E+02  0.24969592281E+02  0.00000000000E+00 0.  1.
         11    1    1    2    0    0  0.18319553380E+02  0.21632779600E+02  0.12754774700E+03  0.13065990569E+03  0.00000000000E+00 0. -1.
</event>
<event>
 7    1  0.2844572E-009  0.1894409E+03  0.7561462E-02  0.1158967E+00
          3   -1    0    0  501    0  0.00000000000E+00  0.00000000000E+00  0.15134162875E+03  0.15134162875E+03  0.00000000000E+00 0. -1.
         -3   -1    0    0    0  501 -0.00000000000E+00 -0.00000000000E+00 -0.24237806747E+03  0.24237806747E+03  0.00000000000E+00 0.  1.
         25    2    1    2    0    0 -0.13903237690E+03  0.69494825161E+02 -0.75610379739E+02  0.21336175046E+03  0.12508706761E+03 0.  0.
          5    1    3    3  502    0 -0.15315699541E+02 -0.34269137019E+02 -0.10430612524E+02  0.39181813155E+02  0.41800000000E+01 0. -1.
         -5    1    3    3    0  502 -0.12371667736E+03  0.10376396218E+03 -0.65179767214E+02  0.17417993730E+03  0.41800000000E+01 0. -1.
        -11    1    1    2    0    0  0.12880915611E+03 -0.21590546189E+02 -0.13998698411E+02  0.13135415463E+03  0.00000000000E+00 0.  1.
         11    1    1    2    0    0  0.10223220797E+02 -0.47904278972E+02 -0.14273605687E+01  0.49003791134E+02  0.00000000000E+00 0. -1.
</event>
<event>
 7    1  0.2844572E-009  0.2043251E+03  0.7561462E-02  0.1146140E+00
         -2   -1    0    0    0  501 -0.00000000000E+00  0.00000000000E+00  0.41677309358E+02  0.41677309358E+02  0.00000000000E+00 0.  1.
          2   -1    0    0  501    0  0.00000000000E+00 -0.00000000000E+00 -0.13251277188E+04  0.13251277188E+04  0.00000000000E+00 0. -1.
         25    2    1    2    0    0  0.39415592469E+02 -0.18314160053E+03 -0.92335977752E+03  0.95043946537E+03  0.12508982304E+03 0.  0.
          5    1    3    3  502    0 -0.28813617407E+02 -0.13300193776E+03 -0.65527853116E+03  0.66927361056E+03  0.41800000000E+01 0.  1.
         -5    1    3    3    0  502  0.68229209875E+02 -0.50139662763E+02 -0.26808124636E+03  0.28116585481E+03  0.41800000000E+01 0.  1.
        -11    1    1    2    0    0 -0.31104828168E+02  0.11705168295E+03 -0.31061164343E+03  0.33338896180E+03  0.00000000000E+00 0.  1.
         11    1    1    2    0    0 -0.83107643006E+01  0.66089917574E+02 -0.49478988491E+02  0.82976600981E+02  0.00000000000E+00 0. -1.
</event>
<event>
 7    1  0.2844572E-009  0.1430862E+03  0.7561462E-02  0.1209236E+00
         -1   -1    0    0    0  501 -0.00000000000E+00  0.00000000000E+00  0.35779113681E+03  0.35779113681E+03  0.00000000000E+00 0.  1.
          1   -1    0    0  501    0  0.00000000000E+00 -0.00000000000E+00 -0.86523126717E+02  0.86523126717E+02  0.00000000000E+00 0. -1.
         25    2    1    2    0    0  0.11596539214E+03 -0.32441680371E+02  0.23301147102E+03  0.29058951851E+03  0.12508991902E+03 0.  0.
          5    1    3    3  502    0  0.34925350026E+02 -0.59267956038E+02  0.17281609649E+03  0.18605199890E+03  0.41800000000E+01 0.  1.
         -5    1    3    3    0  502  0.81040042113E+02  0.26826275667E+02  0.60195374529E+02  0.10453751961E+03  0.41800000000E+01 0.  1.
        -11    1    1    2    0    0 -0.48051425496E+02 -0.13355447766E+02 -0.19444577466E+02  0.53529422471E+02  0.00000000000E+00 0. -1.
         11    1    1    2    0    0 -0.67913966643E+02  0.45797128138E+02  0.57701116543E+02  0.10019532255E+03  0.00000000000E+00 0.  1.
</event>
<event>
 7    1  0.2844572E-009  0.9950335E+02  0.7561462E-02  0.1281344E+00
         -2   -1    0    0    0  501 -0.00000000000E+00  0.00000000000E+00  0.33906158598E+02  0.33906158598E+02  0.00000000000E+00 0. -1.
          2   -1    0    0  501    0  0.00000000000E+00 -0.00000000000E+00 -0.46755713258E+03  0.46755713258E+03  0.00000000000E+00 0.  1.
         25    2    1    2    0    0  0.25430650212E+02  0.46550025867E+02 -0.16656896124E+03  0.21495548257E+03  0.12508804004E+03 0.  0.
          5    1    3    3  502    0 -0.34816901011E+02  0.42711651482E+00 -0.12182123431E+03  0.12676862606E+03  0.41800000000E+01 0.  1.
         -5    1    3    3    0  502  0.60247551223E+02  0.46122909352E+02 -0.44747726928E+02  0.88186856508E+02  0.41800000000E+01 0.  1.
        -11    1    1    2    0    0  0.45670149144E+01 -0.56238175007E+02 -0.87049046624E+02  0.10373584950E+03  0.00000000000E+00 0. -1.
         11    1    1    2    0    0 -0.29997665127E+02  0.96881491408E+01 -0.18003296611E+03  0.18277195910E+03  0.00000000000E+00 0.  1.
</event>
<event>
 7    1  0.2844572E-009  0.1099798E+03  0.7561462E-02  0.1260607E+00
          1   -1    0    0  501    0  0.00000000000E+00  0.00000000000E+00  0.27086193913E+02  0.27086193913E+02  0.00000000000E+00 0. -1.
         -1   -1    0    0    0  501 -0.00000000000E+00 -0.00000000000E+00 -0.66894801614E+03  0.66894801614E+03  0.00000000000E+00 0.  1.
         25    2    1    2    0    0 -0.73201214802E+02  0.24992457135E+02 -0.40840686752E+03  0.43408149412E+03  0.12509010088E+03 0.  0.
          5    1    3    3  502    0  0.24077706617E+02  0.19966526377E+02 -0.21690648215E+03  0.21919008310E+03  0.41800000000E+01 0.  1.
         -5    1    3    3    0  502 -0.97278921419E+02  0.50259307583E+01 -0.19150038537E+03  0.21489141102E+03  0.41800000000E+01 0.  1.
        -11    1    1    2    0    0  0.53160875924E+02 -0.39444384439E+02 -0.22694441998E+03  0.23640158196E+03  0.00000000000E+00 0.  1.
         11    1    1    2    0    0  0.20040338878E+02  0.14451927304E+02 -0.65105347350E+01  0.25551133981E+02  0.00000000000E+00 0. -1.
</event>
<event>
 7    1  0.2844572E-009  0.1026992E+03  0.7561462E-02  0.1274720E+00
          3   -1    0    0  501    0  0.00000000000E+00  0.00000000000E+00  0.81746904767E+03  0.81746904767E+03  0.00000000000E+00 0. -1.
         -3   -1    0    0    0  501 -0.00000000000E+00 -0.00000000000E+00 -0.14552632448E+02  0.14552632448E+02  0.00000000000E+00 0.  1.
         25    2    1    2    0    0  0.44381670383E+01 -0.17089889341E+02  0.46655626667E+03  0.48334833218E+03  0.12505638172E+03 0.  0.
          5    1    3    3  502    0  0.37716560193E+02  0.42670856136E+02  0.23692969521E+03  0.24371395887E+03  0.41800000000E+01 0. -1.
         -5    1    3    3    0  502 -0.33278393154E+02 -0.59760745477E+02  0.22962657146E+03  0.23963437331E+03  0.41800000000E+01 0. -1.
        -11    1    1    2    0    0 -0.68998796842E+01 -0.30926149243E+02  0.57082805767E+02  0.65287684604E+02  0.00000000000E+00 0.  1.
         11    1    1    2    0    0  0.24617126460E+01  0.48016038584E+02  0.27927734278E+03  0.28338566333E+03  0.00000000000E+00 0. -1.
</event>
<event>
 7    1  0.2844572E-009  0.2219538E+03  0.7561462E-02  0.1132435E+00
         -2   -1    0    0    0  501 -0.00000000000E+00  0.00000000000E+00  0.46002981649E+02  0.46002981649E+02  0.00000000000E+00 0.  1.
          2   -1    0    0  501    0  0.00000000000E+00 -0.00000000000E+00 -0.13427412016E+04  0.13427412016E+04  0.00000000000E+00 0. -1.
         25    2    1    2    0    0  0.20059935030E+03  0.37464024839E+02 -0.40761673182E+03  0.47269729956E+03  0.12509070492E+03 0.  0.
          5    1    3    3  502    0  0.21295237083E+03  0.40367318744E+02 -0.33613730821E+03  0.39997999330E+03  0.41800000000E+01 0.  1.
         -5    1    3    3    0  502 -0.12353020531E+02 -0.29032939049E+01 -0.71479423603E+02  0.72717306265E+02  0.41800000000E+01 0.  1.
        -11    1    1    2    0    0 -0.14526704870E+03  0.28606988296E+01 -0.48971620114E+03  0.51081567781E+03  0.00000000000E+00 0.  1.
         11    1    1    2    0    0 -0.55332301602E+02 -0.40324723668E+02 -0.39940528703E+03  0.40523120591E+03  0.00000000000E+00 0. -1.
</event>
<event>
 7    1  0.2844572E-009  0.1496665E+03  0.7561462E-02  0.1200883E+00
         -1   -1    0    0    0  501 -0.00000000000E+00  0.00000000000E+00  0.22286943715E+03  0.22286943715E+03  0.00000000000E+00 0.  1.
          1   -1    0    0  501    0  0.00000000000E+00 -0.00000000000E+00 -0.14203849889E+03  0.14203849889E+03  0.00000000000E+00 0. -1.
         25    2    1    2    0    0  0.81484441459E+02 -0.96825750095E+02  0.10683471964E+03  0.20754730498E+03  0.12508911385E+03 0.  0.
          5    1    3    3  502    0  0.11435377075E+02 -0.80062262364E+02  0.10848775405E+03  0.13538020122E+03  0.41800000000E+01 0. -1.
         -5    1    3    3    0  502  0.70049064384E+02 -0.16763487731E+02 -0.16530344137E+01  0.72167103758E+02  0.41800000000E+01 0. -1.
        -11    1    1    2    0    0 -0.13484612987E+02  0.72868210763E+02  0.13234415208E+02  0.75277889669E+02  0.00000000000E+00 0.  1.
         11    1    1    2    0    0 -0.67999828473E+02  0.23957539332E+02 -0.39238196591E+02  0.82082741394E+02  0.00000000000E+00 0. -1.
</event>
<event>
 7    1  0.2844572E-009  0.1146926E+03  0.7561462E-02  0.1252119E+00
         -1   -1    0    0    0  501 -0.00000000000E+00  0.00000000000E+00  0.14400155190E+02  0.14400155190E+02  0.00000000000E+00 0.  1.
          1   -1    0    0  501    0  0.00000000000E+00 -0.00000000000E+00 -0.12673800840E+04  0.12673800840E+04  0.00000000000E+00 0. -1.
         25    2    1    2    0    0  0.20472542859E+02  0.69155196382E+02 -0.84073047902E+03  0.85303988801E+03  0.12509095085E+03 0.  0.
          5    1    3    3  502    0  0.64800977621E+02  0.49855492185E+02 -0.68626416620E+03  0.69113002757E+03  0.41800000000E+01 0. -1.
         -5    1    3    3    0  502 -0.44328434762E+02  0.19299704197E+02 -0.15446631281E+03  0.16190986043E+03  0.41800000000E+01 0. -1.
        -11    1    1    2    0    0 -0.44930304352E+02 -0.34863013833E+02 -0.34303468528E+03  0.34771677741E+03  0.00000000000E+00 0. -1.
         11    1    1    2    0    0  0.24457761494E+02 -0.34292182548E+02 -0.69214764501E+02  0.81023573768E+02  0.00000000000E+00 0.  1.
</event>
<event>
 7    1  0.2844572E-009  0.8231991E+02  0.7561462E-02  0.1322594E+00
          2   -1    0    0  501    0  0.00000000000E+00  0.00000000000E+00  0.15841417160E+04  0.15841417160E+04  0.00000000000E+00 0. -1.
         -2   -1    0    0    0  501 -0.00000000000E+00 -0.00000000000E+00 -0.10801987226E+02  0.10801987226E+02  0.00000000000E+00 0.  1.
         25    2    1    2    0    0 -0.31959045547E+02 -0.33657833947E+01  0.12654038777E+04  0.12719812016E+04  0.12512591456E+03 0.  0.
          5    1    3    3  502    0  0.75559750299E+01 -0.25652808156E+02  0.11023456220E+04  0.11026778778E+04  0.41800000000E+01 0. -1.
         -5    1    3    3    0  502 -0.39515020577E+02  0.22287024761E+02  0.16305825564E+03  0.16930332382E+03  0.41800000000E+01 0. -1.
        -11    1    1    2    0    0 -0.29986645268E+02  0.20379248992E+00  0.15595455644E+03  0.15881141048E+03  0.00000000000E+00 0. -1.
         11    1    1    2    0    0  0.61945690815E+02  0.31619909047E+01  0.15198129467E+03  0.16415109115E+03  0.00000000000E+00 0.  1.
</event>
<event>
 7    1  0.2844572E-009  0.1098452E+03  0.7561462E-02  0.1260857E+00
          4   -1    0    0  501    0  0.00000000000E+00  0.00000000000E+00  0.17003314370E+02  0.17003314370E+02  0.00000000000E+00 0. -1.
         -4   -1    0    0    0  501 -0.00000000000E+00 -0.00000000000E+00 -0.82282254410E+03  0.82282254410E+03  0.00000000000E+00 0.  1.
         25    2    1    2    0    0 -0.46017330076E+01  0.28244894038E+02 -0.31957453686E+03  0.34437526390E+03  0.12508991883E+03 0.  0.
          5    1    3    3  502    0 -0.46898648325E+02  0.57213380818E+02 -0.22253275675E+03  0.23454456801E+03  0.41800000000E+01 0. -1.
         -5    1    3    3    0  502  0.42296915317E+02 -0.28968486780E+02 -0.97041780114E+02  0.10983069589E+03  0.41800000000E+01 0. -1.
        -11    1    1    2    0    0 -0.22158870788E+02  0.25703529514E+02 -0.14372319061E+03  0.14767546344E+03  0.00000000000E+00 0. -1.
         11    1    1    2    0    0  0.26760603795E+02 -0.53948423553E+02 -0.34252150226E+03  0.34777513112E+03  0.00000000000E+00 0.  1.
</event>
<event>
 7    1  0.2844572E-009  0.1048102E+03  0.7561462E-02  0.1270494E+00
         -1   -1    0    0    0  501 -0.00000000000E+00  0.00000000000E+00  0.21880017111E+03  0.21880017111E+03  0.00000000000E+00 0.  1.
          1   -1    0    0  501    0  0.00000000000E+00 -0.00000000000E+00 -0.57194926524E+02  0.57194926524E+02  0.00000000000E+00 0. -1.
         25    2    1    2    0    0  0.19415023995E+02 -0.14455966062E+02  0.11097971891E+03  0.16896627017E+03  0.12508870586E+03 0.  0.
          5    1    3    3  502    0 -0.14707803266E+02  0.50661420463E+02  0.56172536745E+02  0.77173345688E+02  0.41800000000E+01 0. -1.
         -5    1    3    3    0  502  0.34122827262E+02 -0.65117386526E+02  0.54807182162E+02  0.91792924481E+02  0.41800000000E+01 0. -1.
        -11    1    1    2    0    0  0.13979575538E+02  0.39125743288E+02  0.50649105701E+02  0.65510184158E+02  0.00000000000E+00 0.  1.
         11    1    1    2    0    0 -0.33394599534E+02 -0.24669777226E+02 -0.23580018945E-01  0.41518643311E+02  0.00000000000E+00 0. -1.
</event>
<event>
 7    1  0.2844572E-009  0.1176941E+03  0.7561462E-02  0.1246950E+00
         -4   -1    0    0    0  501 -0.00000000000E+00  0.00000000000E+00  0.32630966289E+03  0.32630966289E+03  0.00000000000E+00 0.  1.
          4   -1    0    0  501    0  0.00000000000E+00 -0.00000000000E+00 -0.74746058704E+02  0.74746058704E+02  0.00000000000E+00 0. -1.
         25    2    1    2    0    0 -0.58169299187E+02 -0.65028699209E+02  0.21550026292E+03  0.26400832034E+03  0.12509049045E+03 0.  0.
          5    1    3    3  502    0 -0.61064042699E+02 -0.17936585189E+01  0.18250119817E+03  0.19249985521E+03  0.41800000000E+01 0. -1.
         -5    1    3    3    0  502  0.28947435128E+01 -0.63235040690E+02  0.32999064748E+02  0.71508465131E+02  0.41800000000E+01 0. -1.
        -11    1    1    2    0    0  0.67540341300E+02  0.29025661400E+02  0.58194964249E+02  0.93759482649E+02  0.00000000000E+00 0.  1.
         11    1    1    2    0    0 -0.93710421136E+01  0.36003037809E+02 -0.22131622979E+02  0.43287918609E+02  0.00000000000E+00 0. -1.
</event>
<event>
 7    1  0.2844572E-009  0.9980008E+02  0.7561462E-02  0.1280717E+00
          3   -1    0    0  501    0  0.00000000000E+00  0.00000000000E+00  0.68226005408E+02  0.68226005408E+02  0.00000000000E+00 0. -1.
         -3   -1    0    0    0  501 -0.00000000000E+00 -0.00000000000E+00 -0.24219637546E+03  0.24219637546E+03  0.00000000000E+00 0.  1.
         25    2    1    2    0    0 -0.43641892690E+02 -0.46751003183E+02 -0.88666699502E+02  0.16613823493E+03  0.12509939411E+03 0.  0.
          5    1    3    3  502    0 -0.57487326041E+02 -0.43818711114E+02 -0.11503338453E+03  0.13592286068E+03  0.41800000000E+01 0.  1.
         -5    1    3    3    0  502  0.13845433351E+02 -0.29322920691E+01  0.26366685029E+02  0.30215374246E+02  0.41800000000E+01 0.  1.
        -11    1    1    2    0    0  0.64888754545E+01  0.68886825673E+02 -0.33723623815E+02  0.76972612396E+02  0.00000000000E+00 0. -1.
         11    1    1    2    0    0  0.37153017236E+02 -0.22135822490E+02 -0.51580046735E+02  0.67311533546E+02  0.00000000000E+00 0.  1.
</event>
<event>
 7    1  0.2844572E-009  0.1201568E+03  0.7561462E-02  0.1242839E+00
         -3   -1    0    0    0  501 -0.00000000000E+00  0.00000000000E+00  0.16890538067E+03  0.16890538067E+03  0.00000000000E+00 0.  1.
          3   -1    0    0  501    0  0.00000000000E+00 -0.00000000000E+00 -0.10458893472E+03  0.10458893472E+03  0.00000000000E+00 0. -1.
         25    2    1    2    0    0  0.21976221028E+02 -0.65586091576E+02  0.52318889332E+01  0.14303344192E+03  0.12508678246E+03 0.  0.
          5    1    3    3  502    0  0.14999882883E+02  0.27068968382E+02  0.33522945660E+02  0.45814690019E+02  0.41800000000E+01 0. -1.
         -5    1    3    3    0  502  0.69763381445E+01 -0.92655059958E+02 -0.28291056727E+02  0.97218751897E+02  0.41800000000E+01 0. -1.
        -11    1    1    2    0    0  0.36896234101E+02  0.25209260576E+02  0.26854147206E+02  0.52134289406E+02  0.00000000000E+00 0.  1.
         11    1    1    2    0    0 -0.58872455129E+02  0.40376830999E+02  0.32230409818E+02  0.78326584066E+02  0.00000000000E+00 0. -1.
</event>
<event>
 7    1  0.2844572E-009  0.1327004E+03  0.7561462E-02  0.1223503E+00
         -1   -1    0    0    0  501 -0.00000000000E+00  0.00000000000E+00  0.31570834137E+03  0.31570834137E+03  0.00000000000E+00 0.  1.
          1   -1    0    0  501    0  0.00000000000E+00 -0.00000000000E+00 -0.58473348122E+02  0.58473348122E+02  0.00000000000E+00 0. -1.
         25    2    1    2    0    0 -0.60920984307E+02  0.48667295113E+02  0.11156389553E+03  0.18486212870E+03  0.12509049483E+03 0.  0.
          5    1    3    3  502    0 -0.86628145326E+02 -0.54627287921E+01  0.72857899405E+02  0.11340204087E+03  0.41800000000E+01 0. -1.
         -5    1    3    3    0  502  0.25707161019E+02  0.54130023905E+02  0.38705996129E+02  0.71460087825E+02  0.41800000000E+01 0. -1.
        -11    1    1    2    0    0 -0.13962633848E+02  0.14743043209E+02  0.12297790706E+02  0.23739168547E+02  0.00000000000E+00 0. -1.
         11    1    1    2    0    0  0.74883618155E+02 -0.63410338322E+02  0.13337330700E+03  0.16558039224E+03  0.00000000000E+00 0.  1.
</event>
<event>
 7    1  0.2844572E-009  0.1302521E+03  0.7561462E-02  0.1227082E+00
         -2   -1    0    0    0  501 -0.00000000000E+00  0.00000000000E+00  0.34127740822E+03  0.34127740822E+03  0.00000000000E+00 0.  1.
          2   -1    0    0  501    0  0.00000000000E+00 -0.00000000000E+00 -0.52638614379E+02  0.52638614379E+02  0.00000000000E+00 0. -1.
         25    2    1    2    0    0 -0.66639182346E+02 -0.36024116160E+02  0.12199148050E+03  0.19044934638E+03  0.12510201698E+03 0.  0.
          5    1    3    3  502    0 -0.94047642495E+02 -0.57496409069E+02  0.10109375075E+03  0.14962691922E+03  0.41800000000E+01 0.  1.
         -5    1    3    3    0  502  0.27408460149E+02  0.21472292909E+02  0.20897729751E+02  0.40822427160E+02  0.41800000000E+01 0.  1.
        -11    1    1    2    0    0  0.36553701330E+02 -0.26896746963E+02  0.49709371093E+02  0.67309952106E+02  0.00000000000E+00 0. -1.
         11    1    1    2    0    0  0.30085481016E+02  0.62920863123E+02  0.11693794225E+03  0.13615672411E+03  0.00000000000E+00 0.  1.
</event>
<event>
 7    1  0.2844572E-009  0.1214802E+03  0.7561462E-02  0.1240675E+00
          1   -1    0    0  501    0  0.00000000000E+00  0.00000000000E+00  0.24856609152E+03  0.24856609152E+03  0.00000000000E+00 0. -1.
         -1   -1    0    0    0  501 -0.00000000000E+00 -0.00000000000E+00 -0.76294094313E+02  0.76294094313E+02  0.00000000000E+00 0.  1.
         25    2    1    2    0    0  0.10702577676E+02  0.79842112218E+02  0.12233600565E+03  0.19262477681E+03  0.12509555672E+03 0.  0.
          5    1    3    3  502    0  0.38369679406E+02  0.87239090411E+02  0.13132706578E+03  0.16231808833E+03  0.41800000000E+01 0.  1.
         -5    1    3    3    0  502 -0.27667101730E+02 -0.73969781926E+01 -0.89910601250E+01  0.30306688481E+02  0.41800000000E+01 0.  1.
        -11    1    1    2    0    0 -0.36169481907E+02 -0.85234059915E+02  0.51873966342E+02  0.10613192156E+03  0.00000000000E+00 0. -1.
         11    1    1    2    0    0  0.25466904231E+02  0.53919476969E+01 -0.19379747888E+01  0.26103487456E+02  0.00000000000E+00 0.  1.
</event>
<event>
 7    1  0.2844572E-009  0.5962107E+02  0.7561462E-02  0.1399429E+00
          1   -1    0    0  501    0  0.00000000000E+00  0.00000000000E+00  0.53218038108E+03  0.53218038108E+03  0.00000000000E+00 0. -1.
         -1   -1    0    0    0  501 -0.00000000000E+00 -0.00000000000E+00 -0.22858303518E+02  0.22858303518E+02  0.00000000000E+00 0.  1.
         25    2    1    2    0    0  0.14708076021E+01 -0.10909654959E+02  0.22448871519E+03  0.25722430481E+03  0.12509186980E+03 0.  0.
          5    1    3    3  502    0 -0.17294741684E+02  0.16521349272E+01  0.23228513912E+03  0.23297144867E+03  0.41800000000E+01 0. -1.
         -5    1    3    3    0  502  0.18765549286E+02 -0.12561789886E+02 -0.77964239236E+01  0.24252856144E+02  0.41800000000E+01 0. -1.
        -11    1    1    2    0    0 -0.92069821802E+01 -0.32774658042E+02  0.63212169434E+02  0.71796414223E+02  0.00000000000E+00 0.  1.
         11    1    1    2    0    0  0.77361745782E+01  0.43684313001E+02  0.22162119293E+03  0.22601796556E+03  0.00000000000E+00 0. -1.
</event>
<event>
 7    1  0.2844572E-009  0.9648390E+02  0.7561462E-02  0.1287869E+00
          1   -1    0    0  501    0  0.00000000000E+00  0.00000000000E+00  0.55434898965E+03  0.55434898965E+03  0.00000000000E+00 0. -1.
         -1   -1    0    0    0  501 -0.00000000000E+00 -0.00000000000E+00 -0.23502897346E+02  0.23502897346E+02  0.00000000000E+00 0.  1.
         25    2    1    2    0    0  0.13334328497E+02 -0.85431119743E+01  0.39060078806E+03  0.41045069157E+03  0.12509998199E+03 0.  0.
          5    1    3    3  502    0 -0.67335809874E+01 -0.63724032551E+02  0.15879662696E+03  0.17128903810E+03  0.41800000000E+01 0.  1.
         -5    1    3    3    0  502  0.20067909484E+02  0.55180920576E+02  0.23180416110E+03  0.23916165347E+03  0.41800000000E+01 0.  1.
        -11    1    1    2    0    0 -0.92362461021E+01  0.38530136126E+02  0.21949945351E+02  0.45295471439E+02  0.00000000000E+00 0.  1.
         11    1    1    2    0    0 -0.40980823945E+01 -0.29987024151E+02  0.11829535889E+03  0.12210572400E+03  0.00000000000E+00 0. -1.
</event>
<event>
 7    1  0.2844572E-009  0.1877811E+03  0.7561462E-02  0.1160478E+00
          1   -1    0    0  501    0  0.00000000000E+00  0.00000000000E+00  0.19099135716E+03  0.19099135716E+03  0.00000000000E+00 0. -1.
         -1   -1    0    0    0  501 -0.00000000000E+00 -0.00000000000E+00 -0.20288992451E+03  0.20288992451E+03  0.00000000000E+00 0.  1.
         25    2    1    2    0    0  0.12952278675E+03 -0.98317471417E+02  0.14767198926E+02  0.20568656667E+03  0.12508563495E+03 0.  0.
          5    1    3    3  502    0  0.92154927784E+02  0.57879547368E+00 -0.19852610531E+02  0.94363468906E+02  0.41800000000E+01 0. -1.
         -5    1    3    3    0  502  0.37367858966E+02 -0.98896266890E+02  0.34619809457E+02  0.11132309776E+03  0.41800000000E+01 0. -1.
        -11    1    1    2    0    0 -0.62208186307E+02  0.49504611829E+01  0.17654380359E+02  0.64854010327E+02  0.00000000000E+00 0. -1.
         11    1    1    2    0    0 -0.67314600443E+02  0.93367010234E+02 -0.44320146633E+02  0.12334070468E+03  0.00000000000E+00 0.  1.
</event>
<event>
 7    1  0.2844572E-009  0.9471248E+02  0.7561462E-02  0.1291825E+00
         -1   -1    0    0    0  501 -0.00000000000E+00  0.00000000000E+00  0.26160766457E+03  0.26160766457E+03  0.00000000000E+00 0.  1.
          1   -1    0    0  501    0  0.00000000000E+00 -0.00000000000E+00 -0.94586367249E+02  0.94586367249E+02  0.00000000000E+00 0. -1.
         25    2    1    2    0    0 -0.36666749782E+02  0.56628112243E+02  0.19347247014E+03  0.24006561937E+03  0.12509480911E+03 0.  0.
          5    1    3    3  502    0 -0.23141463835E+02 -0.91728463316E+01 -0.89228246382E+01  0.26772330077E+02  0.41800000000E+01 0.  1.
         -5    1    3    3    0  502 -0.13525285947E+02  0.65800958574E+02  0.20239529478E+03  0.21329328929E+03  0.41800000000E+01 0.  1.
        -11    1    1    2    0    0  0.22952562897E+02 -0.72414687545E+02  0.74150436520E+01  0.76326207741E+02  0.00000000000E+00 0.  1.
         11    1    1    2    0    0  0.13714186885E+02  0.15786575302E+02 -0.33866216470E+02  0.39802204709E+02  0.00000000000E+00 0. -1.
</event>
<event>
 7    1  0.2844572E-009  0.1517095E+03  0.7561462E-02  0.1198388E+00
          2   -1    0    0  501    0  0.00000000000E+00  0.00000000000E+00  0.19757198602E+03  0.19757198602E+03  0.00000000000E+00 0.  1.
         -2   -1    0    0    0  501 -0.00000000000E+00 -0.00000000000E+00 -0.15087380723E+03  0.15087380723E+03  0.00000000000E+00 0. -1.
         25    2    1    2    0    0  0.85687271409E+02 -0.91853430166E+02  0.31864199039E+02  0.18011686768E+03  0.12508955882E+03 0.  0.
          5    1    3    3  502    0  0.76035538062E+02 -0.99689861004E+02  0.67280132312E+02  0.14235013186E+03  0.41800000000E+01 0. -1.
         -5    1    3    3    0  502  0.96517333468E+01  0.78364308379E+01 -0.35415933272E+02  0.37766735819E+02  0.41800000000E+01 0. -1.
        -11    1    1    2    0    0  0.37747868511E+01  0.73416597071E+02 -0.86378527777E+01  0.74019309926E+02  0.00000000000E+00 0. -1.
         11    1    1    2    0    0 -0.89462058260E+02  0.18436833096E+02  0.23471832530E+02  0.94309615655E+02  0.00000000000E+00 0.  1.
</event>
<event>
 7    1  0.2844572E-009  0.1114074E+03  0.7561462E-02  0.1257986E+00
          1   -1    0    0  501    0  0.00000000000E+00  0.00000000000E+00  0.11836608232E+03  0.11836608232E+03  0.00000000000E+00 0.  1.
         -1   -1    0    0    0  501 -0.00000000000E+00 -0.00000000000E+00 -0.12915413992E+03  0.12915413992E+03  0.00000000000E+00 0. -1.
         25    2    1    2    0    0  0.46972458630E+02 -0.25302533212E+01 -0.42403156287E+02  0.14020678588E+03  0.12508837312E+03 0.  0.
          5    1    3    3  502    0  0.57296189438E+02 -0.54721282837E+02 -0.17171626771E+02  0.81176408429E+02  0.41800000000E+01 0.  1.
         -5    1    3    3    0  502 -0.10323730808E+02  0.52191029516E+02 -0.25231529516E+02  0.59030377446E+02  0.41800000000E+01 0.  1.
        -11    1    1    2    0    0 -0.91447948282E+01 -0.35386845838E+02  0.38765345987E+02  0.53278590262E+02  0.00000000000E+00 0.  1.
         11    1    1    2    0    0 -0.37827663802E+02  0.37917099160E+02 -0.71502472997E+01  0.54034846107E+02  0.00000000000E+00 0. -1.
</event>
<event>
 7    1  0.2844572E-009  0.8823120E+02  0.7561462E-02  0.1307193E+00
         -4   -1    0    0    0  501 -0.00000000000E+00  0.00000000000E+00  0.11349034312E+03  0.11349034312E+03  0.00000000000E+00 0.  1.
          4   -1    0    0  501    0  0.00000000000E+00 -0.00000000000E+00 -0.10626841798E+03  0.10626841798E+03  0.00000000000E+00 0. -1.
         25    2    1    2    0    0  0.56098972966E+00 -0.22627797568E+02 -0.56308219553E+01  0.12728821268E+03  0.12513293331E+03 0.  0.
          5    1    3    3  502    0  0.67692575151E+01 -0.57539446329E+02  0.39125335205E+02  0.70034812673E+02  0.41800000000E+01 0. -1.
         -5    1    3    3    0  502 -0.62082677855E+01  0.34911648761E+02 -0.44756157161E+02  0.57253400003E+02  0.41800000000E+01 0. -1.
        -11    1    1    2    0    0 -0.40000675291E+02  0.13168075535E+02  0.26407435221E+02  0.49707191351E+02  0.00000000000E+00 0.  1.
         11    1    1    2    0    0  0.39439685561E+02  0.94597220329E+01 -0.13554688121E+02  0.42763357073E+02  0.00000000000E+00 0. -1.
</event>
<event>
 7    1  0.2844572E-009  0.2193539E+03  0.7561462E-02  0.1134366E+00
         -1   -1    0    0    0  501 -0.00000000000E+00  0.00000000000E+00  0.95246066027E+02  0.95246066027E+02  0.00000000000E+00 0.  1.
          1   -1    0    0  501    0  0.00000000000E+00 -0.00000000000E+00 -0.92845379032E+03  0.92845379032E+03  0.00000000000E+00 0. -1.
         25    2    1    2    0    0  0.19012900575E+03  0.10508227413E+03 -0.71979469765E+03  0.76219622552E+03  0.12508939312E+03 0.  0.
          5    1    3    3  502    0  0.97944044523E+01  0.16616745771E+02 -0.59436868824E+01  0.20611802744E+02  0.41800000000E+01 0.  1.
         -5    1    3    3    0  502  0.18033460130E+03  0.88465528356E+02 -0.71385101076E+03  0.74158442277E+03  0.41800000000E+01 0.  1.
        -11    1    1    2    0    0 -0.13500198400E+03 -0.84234705585E+02 -0.34182162384E+02  0.16275577266E+03  0.00000000000E+00 0.  1.
         11    1    1    2    0    0 -0.55127021753E+02 -0.20847568542E+02 -0.79230864263E+02  0.98747858171E+02  0.00000000000E+00 0. -1.
</event>
<event>
 7    1  0.2844572E-009  0.3355620E+03  0.7561462E-02  0.1068702E+00
          2   -1    0    0  501    0  0.00000000000E+00  0.00000000000E+00  0.15770724282E+04  0.15770724282E+04  0.00000000000E+00 0. -1.
         -2   -1    0    0    0  501 -0.00000000000E+00 -0.00000000000E+00 -0.10880105268E+03  0.10880105268E+03  0.00000000000E+00 0.  1.
         25    2    1    2    0    0  0.28561997434E+03  0.14484711513E+03  0.25561478597E+03  0.42842265245E+03  0.12509034266E+03 0.  0.
          5    1    3    3  502    0  0.13507041331E+03  0.13722255120E+03  0.15383618704E+03  0.24648953315E+03  0.41800000000E+01 0.  1.
         -5    1    3    3    0  502  0.15054956102E+03  0.76245639342E+01  0.10177859893E+03  0.18193311930E+03  0.41800000000E+01 0.  1.
        -11    1    1    2    0    0 -0.98087685932E+02 -0.87989182195E+02  0.38550551779E+03  0.40740372429E+03  0.00000000000E+00 0. -1.
         11    1    1    2    0    0 -0.18753228841E+03 -0.56857932936E+02  0.82715107177E+03  0.85004710415E+03  0.00000000000E+00 0.  1.
</event>
<event>
 6    1  0.2844572E-009  0.9635281E+02  0.7561462E-02  0.1288158E+00
          1   -1    0    0  501    0  0.00000000000E+00  0.00000000000E+00  0.69627657927E+03  0.69627657927E+03  0.00000000000E+00 0. -1.
         -1   -1    0    0    0  501 -0.00000000000E+00 -0.00000000000E+00 -0.20524594044E+02  0.20524594044E+02  0.00000000000E+00 0.  1.
          5    1    1    2  502    0 -0.30204021305E+02  0.43651461803E+02  0.33157422514E+03  0.33582238192E+03  0.41800000000E+01 0.  1.
         -5    1    1    2    0  502 -0.17725956595E+02 -0.30887300422E+02  0.20897424967E+02  0.41501923267E+02  0.41800000000E+01 0.  1.
        -11    1    1    2    0    0 -0.13972884650E+02  0.26738320847E+02  0.95597228612E+02  0.10024474762E+03  0.00000000000E+00 0. -1.
         11    1    1    2    0    0  0.61902862550E+02 -0.39502482229E+02  0.22768310651E+03  0.23923212051E+03  0.00000000000E+00 0.  1.
</event>
<event>
 7    1  0.2844572E-009  0.9678048E+02  0.7561462E-02  0.1287216E+00
          4   -1    0    0  501    0  0.00000000000E+00  0.00000000000E+00  0.99516729267E+02  0.99516729267E+02  0.00000000000E+00 0. -1.
         -4   -1    0    0    0  501 -0.00000000000E+00 -0.00000000000E+00 -0.15233616598E+03  0.15233616598E+03  0.00000000000E+00 0.  1.
         25    2    1    2    0    0  0.30108554232E+02  0.77711944265E+01 -0.84068665379E+02  0.15389175003E+03  0.12509282045E+03 0.  0.
          5    1    3    3  502    0  0.51280161921E+02 -0.41156843725E+02 -0.16869603535E+02  0.68011739542E+02  0.41800000000E+01 0.  1.
         -5    1    3    3    0  502 -0.21171607690E+02  0.48928038152E+02 -0.67199061844E+02  0.85880010493E+02  0.41800000000E+01 0.  1.
        -11    1    1    2    0    0  0.21135376133E+02  0.42624023418E+01 -0.16298363724E+02  0.27027927373E+02  0.00000000000E+00 0.  1.
         11    1    1    2    0    0 -0.51243930364E+02 -0.12033596768E+02  0.47547592393E+02  0.70933217837E+02  0.00000000000E+00 0. -1.
</event>
<event>
 7    1  0.2844572E-009  0.1343032E+03  0.7561462E-02  0.1221207E+00
          2   -1    0    0  501    0  0.00000000000E+00  0.00000000000E+00  0.18437891444E+02  0.18437891444E+02  0.00000000000E+00 0. -1.
         -2   -1    0    0    0  501 -0.00000000000E+00 -0.00000000000E+00 -0.13739171123E+04  0.13739171123E+04  0.00000000000E+00 0.  1.
         25    2    1    2    0    0  0.99696407974E+02  0.53028816250E+02 -0.62780849671E+03  0.65003218606E+03  0.12508759032E+03 0.  0.
          5    1    3    3  502    0  0.76184299302E+02  0.16071369107E+02 -0.57936410373E+03  0.58458752421E+03  0.41800000000E+01 0.  1.
         -5    1    3    3    0  502  0.23512108672E+02  0.36957447143E+02 -0.48444392974E+02  0.65444661846E+02  0.41800000000E+01 0.  1.
        -11    1    1    2    0    0 -0.68632177705E+02 -0.80061219024E+02 -0.50908241515E+03  0.51988948828E+03  0.00000000000E+00 0. -1.
         11    1    1    2    0    0 -0.31064230269E+02  0.27032402774E+02 -0.21858830899E+03  0.22243332941E+03  0.00000000000E+00 0.  1.
</event>
<event>
 7    1  0.2844572E-009  0.9320373E+02  0.7561462E-02  0.1295274E+00
          2   -1    0    0  501    0  0.00000000000E+00  0.00000000000E+00  0.26705397004E+03  0.26705397004E+03  0.00000000000E+00 0. -1.
         -2   -1    0    0    0  501 -0.00000000000E+00 -0.00000000000E+00 -0.47996504966E+02  0.47996504966E+02  0.00000000000E+00 0.  1.
         25    2    1    2    0    0  0.56530410643E+02 -0.25595230295E+02  0.12422608818E+03  0.18688542441E+03  0.12507292964E+03 0.  0.
          5    1    3    3  502    0 -0.20650539691E+02 -0.78458133550E+01  0.10210677398E+03  0.10455270092E+03  0.41800000000E+01 0. -1.
         -5    1    3    3    0  502  0.77180950333E+02 -0.17749416940E+02  0.22119314200E+02  0.82332723487E+02  0.41800000000E+01 0. -1.
        -11    1    1    2    0    0 -0.28504475099E+02  0.43028300224E+02  0.45469652081E+02  0.68785383485E+02  0.00000000000E+00 0.  1.
         11    1    1    2    0    0 -0.28025935544E+02 -0.17433069929E+02  0.49361724810E+02  0.59379667113E+02  0.00000000000E+00 0. -1.
</event>
<event>
 7    1  0.2844572E-009  0.1927327E+03  0.7561462E-02  0.1156019E+00
          4   -1    0    0  501    0  0.00000000000E+00  0.00000000000E+00  0.32464607783E+03  0.32464607783E+03  0.00000000000E+00 0.  1.
         -4   -1    0    0    0  501 -0.00000000000E+00 -0.00000000000E+00 -0.14726915126E+03  0.14726915126E+03  0.00000000000E+00 0. -1.
         25    2    1    2    0    0  0.15401674381E+03 -0.96681239217E+02  0.35208081261E+02  0.22350702052E+03  0.12508940740E+03 0.  0.
          5    1    3    3  502    0  0.46785786003E+02 -0.42487173170E+02  0.73792584823E+02  0.97246530173E+02  0.41800000000E+01 0. -1.
         -5    1    3    3    0  502  0.10723095781E+03 -0.54194066047E+02 -0.38584503562E+02  0.12626049034E+03  0.41800000000E+01 0. -1.
        -11    1    1    2    0    0  0.91758329894E+01  0.19149845849E+02  0.56990476344E+01  0.21986169540E+02  0.00000000000E+00 0.  1.
         11    1    1    2    0    0 -0.16319257680E+03  0.77531393368E+02  0.13646979768E+03  0.22642203903E+03  0.00000000000E+00 0. -1.
</event>
<event>
 7    1  0.2844572E-009  0.1000873E+03  0.7561462E-02  0.1280112E+00
         -2   -1    0    0    0  501 -0.00000000000E+00  0.00000000000E+00  0.27376702234E+02  0.27376702234E+02  0.00000000000E+00 0.  1.
          2   -1    0    0  501    0  0.00000000000E+00 -0.00000000000E+00 -0.47798197343E+03  0.47798197343E+03  0.00000000000E+00 0. -1.
         25    2    1    2    0    0 -0.12753302955E+02  0.32383966740E+02 -0.23254183754E+03  0.26633558721E+03  0.12509025052E+03 0.  0.
          5    1    3    3  502    0  0.30580662627E+02 -0.29735006965E+02 -0.14142370226E+03  0.14777511132E+03  0.41800000000E+01 0. -1.
         -5    1    3    3    0  502 -0.43333965583E+02  0.62118973705E+02 -0.91118135280E+02  0.11856047589E+03  0.41800000000E+01 0. -1.
        -11    1    1    2    0    0  0.26387716527E+01  0.24016348478E+02 -0.14065154502E+03  0.14271161560E+03  0.00000000000E+00 0. -1.
         11    1    1    2    0    0  0.10114531303E+02 -0.56400315218E+02 -0.77411888638E+02  0.96311472850E+02  0.00000000000E+00 0.  1.
</event>
<event>
 7    1  0.2844572E-009  0.1377078E+03  0.7561462E-02  0.1216447E+00
         -1   -1    0    0    0  501 -0.00000000000E+00  0.00000000000E+00  0.33110160340E+02  0.33110160340E+02  0.00000000000E+00 0.  1.
          1   -1    0    0  501    0  0.00000000000E+00 -0.00000000000E+00 -0.90593593094E+03  0.90593593094E+03  0.00000000000E+00 0. -1.
         25    2    1    2    0    0 -0.64525842098E+02  0.10383042665E+03 -0.31077597468E+03  0.35661423640E+03  0.12509062863E+03 0.  0.
          5    1    3    3  502    0 -0.27543605392E+01  0.39177289876E+02 -0.23797832284E+03  0.24123349909E+03  0.41800000000E+01 0. -1.
         -5    1    3    3    0  502 -0.61771481559E+02  0.64653136771E+02 -0.72797651837E+02  0.11538073731E+03  0.41800000000E+01 0. -1.
        -11    1    1    2    0    0  0.67039839916E+02 -0.31574036239E+02 -0.36715798363E+03  0.37456140330E+03  0.00000000000E+00 0. -1.
         11    1    1    2    0    0 -0.25139978184E+01 -0.72256390409E+02 -0.19489181229E+03  0.20787045158E+03  0.00000000000E+00 0.  1.
</event>
<event>
 7    1  0.2844572E-009  0.5802439E+02  0.7561462E-02  0.1406315E+00
          3   -1    0    0  501    0  0.00000000000E+00  0.00000000000E+00  0.16495628812E+03  0.16495628812E+03  0.00000000000E+00 0. -1.
         -3   -1    0    0    0  501 -0.00000000000E+00 -0.00000000000E+00 -0.70767377181E+02  0.70767377181E+02  0.00000000000E+00 0.  1.
         25    2    1    2    0    0  0.97750493136E+01  0.19921895992E+02  0.68041547313E+02  0.14411679138E+03  0.12509022291E+03 0.  0.
          5    1    3    3  502    0 -0.53645496411E+01  0.21755830227E+02  0.10313578332E+03  0.10562460292E+03  0.41800000000E+01 0. -1.
         -5    1    3    3    0  502  0.15139598955E+02 -0.18339342349E+01 -0.35094236005E+02  0.38492188455E+02  0.41800000000E+01 0. -1.
        -11    1    1    2    0    0 -0.15289064853E+02  0.26553555818E+02 -0.10259310956E+02  0.32312540785E+02  0.00000000000E+00 0.  1.
         11    1    1    2    0    0  0.55140155392E+01 -0.46475451811E+02  0.36406674581E+02  0.59294333139E+02  0.00000000000E+00 0. -1.
</event>
<event>
 7    1  0.2844572E-009  0.1023601E+03  0.7561462E-02  0.1275410E+00
          1   -1    0    0  501    0  0.00000000000E+00  0.00000000000E+00  0.60893545286E+02  0.60893545286E+02  0.00000000000E+00 0. -1.
         -1   -1    0    0    0  501 -0.00000000000E+00 -0.00000000000E+00 -0.23460607236E+03  0.23460607236E+03  0.00000000000E+00 0.  1.
         25    2    1    2    0    0 -0.34980863180E+01  0.10095366235E+02 -0.15084821924E+03  0.19625779440E+03  0.12509110116E+03 0.  0.
          5    1    3    3  502    0  0.24768935755E+02  0.60584404881E+02 -0.62718508117E+02  0.90747198048E+02  0.41800000000E+01 0.  1.
         -5    1    3    3    0  502 -0.28267022073E+02 -0.50489038646E+02 -0.88129711123E+02  0.10551059635E+03  0.41800000000E+01 0.  1.
        -11    1    1    2    0    0  0.26810329147E+02 -0.36890643665E+02 -0.39211395046E+02  0.60143551944E+02  0.00000000000E+00 0.  1.
         11    1    1    2    0    0 -0.23312242829E+02  0.26795277431E+02  0.16347087212E+02  0.39098271300E+02  0.00000000000E+00 0. -1.
</event>
<event>
 7    1  0.2844572E-009  0.8126685E+02  0.7561462E-02  0.1325494E+00
         -1   -1    0    0    0  501 -0.00000000000E+00  0.00000000000E+00  0.25903786560E+03  0.25903786560E+03  0.00000000000E+00 0.  1.
          1   -1    0    0  501    0  0.00000000000E+00 -0.00000000000E+00 -0.77889783217E+02  0.77889783217E+02  0.00000000000E+00 0. -1.
         25    2    1    2    0    0 -0.21900224942E+02  0.45325046157E+02  0.19155054728E+03  0.23424985649E+03  0.12508958166E+03 0.  0.
          5    1    3    3  502    0  0.14609687405E+02  0.65960286729E+01  0.17852889911E+03  0.17929581919E+03  0.41800000000E+01 0.  1.
         -5    1    3    3    0  502 -0.36509912347E+02  0.38729017484E+02  0.13021648170E+02  0.54954037303E+02  0.41800000000E+01 0.  1.
        -11    1    1    2    0    0 -0.26374303807E+02 -0.33935076445E+02  0.16755304405E+02  0.46129530025E+02  0.00000000000E+00 0.  1.
         11    1    1    2    0    0  0.48274528749E+02 -0.11389969713E+02 -0.27157769301E+02  0.56548262302E+02  0.00000000000E+00 0. -1.
</event>
<event>
 7    1  0.2844572E-009  0.1342783E+03  0.7561462E-02  0.1221242E+00
         -2   -1    0    0    0  501 -0.00000000000E+00  0.00000000000E+00  0.55316905054E+03  0.55316905054E+03  0.00000000000E+00 0.  1.
          2   -1    0    0  501    0  0.00000000000E+00 -0.00000000000E+00 -0.40852345508E+02  0.40852345508E+02  0.00000000000E+00 0. -1.
         25    2    1    2    0    0  0.80965535455E+02 -0.55401990544E+02  0.21058826027E+03  0.26385554673E+03  0.12509011028E+03 0.  0.
          5    1    3    3  502    0  0.38847540343E+02  0.36536136262E+02  0.10349698038E+03  0.11650372523E+03  0.41800000000E+01 0.  1.
         -5    1    3    3    0  502  0.42117995112E+02 -0.91938126807E+02  0.10709127989E+03  0.14735182150E+03  0.41800000000E+01 0.  1.
        -11    1    1    2    0    0 -0.42339028558E+02 -0.44973924443E+01  0.20855923404E+03  0.21286092638E+03  0.00000000000E+00 0.  1.
         11    1    1    2    0    0 -0.38626506897E+02  0.59899382989E+02  0.93169210727E+02  0.11730492294E+03  0.00000000000E+00 0. -1.
</event>
<event>
 7    1  0.2844572E-009  0.7850364E+02  0.7561462E-02  0.1333352E+00
          3   -1    0    0  501    0  0.00000000000E+00  0.00000000000E+00  0.15826660404E+03  0.15826660404E+03  0.00000000000E+00 0.  1.
         -3   -1    0    0    0  501 -0.00000000000E+00 -0.00000000000E+00 -0.77331718896E+02  0.77331718896E+02  0.00000000000E+00 0. -1.
         25    2    1    2    0    0 -0.17517088434E+02 -0.18950252578E+02  0.37615354257E+02  0.13315299998E+03  0.12509534790E+03 0.  0.
          5    1    3    3  502    0 -0.29736441749E+02  0.21087769319E+02  0.70685220051E+02  0.79641840237E+02  0.41800000000E+01 0. -1.
         -5    1    3    3    0  502  0.12219353315E+02 -0.40038021898E+02 -0.33069865794E+02  0.53511159738E+02  0.41800000000E+01 0. -1.
        -11    1    1    2    0    0  0.16490882633E+02 -0.27347689113E+02  0.46068033358E+02  0.56054518170E+02  0.00000000000E+00 0.  1.
         11    1    1    2    0    0  0.10262058014E+01  0.46297941691E+02 -0.27485024717E+01  0.46390804790E+02  0.00000000000E+00 0. -1.
</event>
<event>
 7    1  0.2844572E-009  0.1765735E+03  0.7561462E-02  0.1171161E+00
         -2   -1    0    0    0  501 -0.00000000000E+00  0.00000000000E+00  0.15875622298E+03  0.15875622298E+03  0.00000000000E+00 0. -1.
          2   -1    0    0  501    0  0.00000000000E+00 -0.00000000000E+00 -0.28496231224E+03  0.28496231224E+03  0.00000000000E+00 0.  1.
         25    2    1    2    0    0  0.15170244944E+03 -0.32871662106E+02 -0.16668623459E+03  0.25985686158E+03  0.12508840223E+03 0.  0.
          5    1    3    3  502    0  0.31643824566E+02 -0.63780759161E+02 -0.86675198652E+02  0.11224695690E+03  0.41800000000E+01 0.  1.
         -5    1    3    3    0  502  0.12005862488E+03  0.30909097055E+02 -0.80011035935E+02  0.14760990468E+03  0.41800000000E+01 0.  1.
        -11    1    1    2    0    0 -0.11056304774E+03  0.36624325165E+02  0.67387881737E+02  0.13456097252E+03  0.00000000000E+00 0. -1.
         11    1    1    2    0    0 -0.41139401699E+02 -0.37526630592E+01 -0.26907736413E+02  0.49300701121E+02  0.00000000000E+00 0.  1.
</event>
<event>
 7    1  0.2844572E-009  0.1082616E+03  0.7561462E-02  0.1263823E+00
          3   -1    0    0  501    0  0.00000000000E+00  0.00000000000E+00  0.81440653661E+02  0.81440653661E+02  0.00000000000E+00 0. -1.
         -3   -1    0    0    0  501 -0.00000000000E+00 -0.00000000000E+00 -0.24680997774E+03  0.24680997774E+03  0.00000000000E+00 0.  1.
         25    2    1    2    0    0 -0.80356607684E+02  0.44170620322E+02 -0.70734400033E+02  0.17046675398E+03  0.12508929117E+03 0.  0.
          5    1    3    3  502    0 -0.24338888747E+02 -0.73844220368E+01  0.32907415519E+02  0.41800497490E+02  0.41800000000E+01 0. -1.
         -5    1    3    3    0  502 -0.56017718937E+02  0.51555042358E+02 -0.10364181555E+03  0.12866625649E+03  0.41800000000E+01 0. -1.
        -11    1    1    2    0    0  0.92169443020E+02 -0.45178247866E+02 -0.55080627917E+02  0.11649101201E+03  0.00000000000E+00 0. -1.
         11    1    1    2    0    0 -0.11812835336E+02  0.10076275443E+01 -0.39554296125E+02  0.41292865412E+02  0.00000000000E+00 0.  1.
</event>
<event>
 7    1  0.2844572E-009  0.1102739E+03  0.7561462E-02  0.1260064E+00
         -2   -1    0    0    0  501 -0.00000000000E+00  0.00000000000E+00  0.37828317388E+02  0.37828317388E+02  0.00000000000E+00 0.  1.
          2   -1    0    0  501    0  0.00000000000E+00 -0.00000000000E+00 -0.45594594806E+03  0.45594594806E+03  0.00000000000E+00 0. -1.
         25    2    1    2    0    0  0.25961369797E+02 -0.49319186179E+02 -0.14164208252E+03  0.19701871890E+03  0.12509005239E+03 0.  0.
          5    1    3    3  502    0 -0.40712582362E+02 -0.45480603450E+02 -0.10284878032E+03  0.11967181651E+03  0.41800000000E+01 0. -1.
         -5    1    3    3    0  502  0.66673952159E+02 -0.38385827293E+01 -0.38793302203E+02  0.77346902392E+02  0.41800000000E+01 0. -1.
        -11    1    1    2    0    0 -0.50834825931E+02  0.21678783785E+02 -0.82841317938E+02  0.99583297553E+02  0.00000000000E+00 0.  1.
         11    1    1    2    0    0  0.24873456134E+02  0.27640402394E+02 -0.19363423021E+03  0.19717224900E+03  0.00000000000E+00 0. -1.
</event>
<event>
 7    1  0.2844572E-009  0.1103954E+03  0.7561462E-02  0.1259839E+00
         -2   -1    0    0    0  501 -0.00000000000E+00  0.00000000000E+00  0.23224421603E+02  0.23224421603E+02  0.00000000000E+00 0.  1.
          2   -1    0    0  501    0  0.00000000000E+00 -0.00000000000E+00 -0.70021462737E+03  0.70021462737E+03  0.00000000000E+00 0. -1.
         25    2    1    2    0    0  0.48550408679E+02 -0.22363468621E+02 -0.55808867461E+03  0.57442828013E+03  0.12509042080E+03 0.  0.
          5    1    3    3  502    0 -0.22672456578E+02 -0.52893262498E+02 -0.26783542413E+03  0.27397997066E+03  0.41800000000E+01 0.  1.
         -5    1    3    3    0  502  0.71222865257E+02  0.30529793877E+02 -0.29025325049E+03  0.30044830948E+03  0.41800000000E+01 0.  1.
        -11    1    1    2    0    0 -0.68907351301E+01  0.39752458246E+02 -0.33616056086E+02  0.52514563638E+02  0.00000000000E+00 0.  1.
         11    1    1    2    0    0 -0.41659673549E+02 -0.17388989626E+02 -0.85285475070E+02  0.96496205202E+02  0.00000000000E+00 0. -1.
</event>
<event>
 7    1  0.2844572E-009  0.1124167E+03  0.7561462E-02  0.1256159E+00
          1   -1    0    0  501    0  0.00000000000E+00  0.00000000000E+00  0.72545359473E+03  0.72545359473E+03  0.00000000000E+00 0. -1.
         -1   -1    0    0    0  501 -0.00000000000E+00 -0.00000000000E+00 -0.29355599618E+02  0.29355599618E+02  0.00000000000E+00 0.  1.
         25    2    1    2    0    0 -0.36584692758E+02  0.57664704717E+02  0.55545865969E+03  0.57345604503E+03  0.12511536694E+03 0.  0.
          5    1    3    3  502    0  0.25945512805E+02  0.72598288849E+02  0.33463622191E+03  0.34342765554E+03  0.41800000000E+01 0. -1.
         -5    1    3    3    0  502 -0.62530205563E+02 -0.14933584132E+02  0.22082243778E+03  0.23002838949E+03  0.41800000000E+01 0. -1.
        -11    1    1    2    0    0  0.47921192653E+02 -0.41123546686E+02  0.14726579440E+03  0.16023358262E+03  0.00000000000E+00 0. -1.
         11    1    1    2    0    0 -0.11336499894E+02 -0.16541158031E+02 -0.66264589824E+01  0.21119566698E+02  0.00000000000E+00 0.  1.
</event>
<event>
 7    1  0.2844572E-009  0.9974699E+02  0.7561462E-02  0.1280829E+00
         -1   -1    0    0    0  501 -0.00000000000E+00  0.00000000000E+00  0.37325949605E+02  0.37325949605E+02  0.00000000000E+00 0.  1.
          1   -1    0    0  501    0  0.00000000000E+00 -0.00000000000E+00 -0.38232414351E+03  0.38232414351E+03  0.00000000000E+00 0. -1.
         25    2    1    2    0    0 -0.17014642341E+02 -0.27460118626E+02 -0.11423264562E+03  0.17245436339E+03  0.12509138243E+03 0.  0.
          5    1    3    3  502    0 -0.60631905121E+02  0.21040276894E+01 -0.19305761889E+02  0.63803132315E+02  0.41800000000E+01 0.  1.
         -5    1    3    3    0  502  0.43617262780E+02 -0.29564146316E+02 -0.94926883728E+02  0.10865123108E+03  0.41800000000E+01 0.  1.
        -11    1    1    2    0    0 -0.15702604703E+02 -0.21691605448E+02 -0.46020200386E+02  0.53244308475E+02  0.00000000000E+00 0. -1.
         11    1    1    2    0    0  0.32717247044E+02  0.49151724075E+02 -0.18474534790E+03  0.19395142125E+03  0.00000000000E+00 0.  1.
</event>
<event>
 7    1  0.2844572E-009  0.6034414E+02  0.7561462E-02  0.1396393E+00
          1   -1    0    0  501    0  0.00000000000E+00  0.00000000000E+00  0.82717205580E+02  0.82717205580E+02  0.00000000000E+00 0. -1.
         -1   -1    0    0    0  501 -0.00000000000E+00 -0.00000000000E+00 -0.16226599335E+03  0.16226599335E+03  0.00000000000E+00 0.  1.
         25    2    1    2    0    0  0.29484063584E+01 -0.34351381051E+02 -0.75176740465E+02  0.14995940421E+03  0.12509024792E+03 0.  0.
          5    1    3    3  502    0  0.21815859151E+02 -0.46373949961E+02 -0.10233414515E+03  0.11452608702E+03  0.41800000000E+01 0.  1.
         -5    1    3    3    0  502 -0.18867452793E+02  0.12022568910E+02  0.27157404682E+02  0.35433317191E+02  0.41800000000E+01 0.  1.
        -11    1    1    2    0    0 -0.16329877319E+02  0.26102736961E+02 -0.43248758394E+02  0.53089291507E+02  0.00000000000E+00 0.  1.
         11    1    1    2    0    0  0.13381470960E+02  0.82486440896E+01  0.38876711089E+02  0.41934503210E+02  0.00000000000E+00 0. -1.
</event>
<event>
 6    1  0.2844572E-009  0.1083561E+03  0.7561462E-02  0.1263645E+00
          2   -1    0    0  501    0  0.00000000000E+00  0.00000000000E+00  0.10568461115E+04  0.10568461115E+04  0.00000000000E+00 0. -1.
         -2   -1    0    0    0  501 -0.00000000000E+00 -0.00000000000E+00 -0.13372420446E+02  0.13372420446E+02  0.00000000000E+00 0.  1.
          5    1    1    2  502    0 -0.59461183676E+02  0.42079025730E+02  0.30936235657E+03  0.31785030570E+03  0.41800000000E+01 0.  1.
         -5    1    1    2    0  502  0.52741741513E+02 -0.36180782258E+01  0.40659107597E+03  0.41003482443E+03  0.41800000000E+01 0.  1.
        -11    1    1    2    0    0 -0.19564607867E+02 -0.55866239121E+02  0.27310432096E+03  0.27944548785E+03  0.00000000000E+00 0. -1.
         11    1    1    2    0    0  0.26284050030E+02  0.17405291617E+02  0.54415937533E+02  0.62887913941E+02  0.00000000000E+00 0.  1.
</event>
<event>
 7    1  0.2844572E-009  0.7818836E+02  0.7561462E-02  0.1334273E+00
          2   -1    0    0  501    0  0.00000000000E+00  0.00000000000E+00  0.68459853496E+03  0.68459853496E+03  0.00000000000E+00 0. -1.
         -2   -1    0    0    0  501 -0.00000000000E+00 -0.00000000000E+00 -0.18029645275E+02  0.18029645275E+02  0.00000000000E+00 0.  1.
         25    2    1    2    0    0  0.20593085760E+02  0.11072987948E+02  0.33911767088E+03  0.36220921106E+03  0.12509209258E+03 0.  0.
          5    1    3    3  502    0 -0.20019718156E+02 -0.76214381459E+01  0.30508791423E+03  0.30586759104E+03  0.41800000000E+01 0.  1.
         -5    1    3    3    0  502  0.40612803916E+02  0.18694426094E+02  0.34029756650E+02  0.56341620021E+02  0.41800000000E+01 0.  1.
        -11    1    1    2    0    0 -0.26253250376E+02 -0.46700075950E+02  0.14850661928E+03  0.15787446348E+03  0.00000000000E+00 0.  1.
         11    1    1    2    0    0  0.56601646162E+01  0.35627088002E+02  0.17894459952E+03  0.18254450570E+03  0.00000000000E+00 0. -1.
</event>
<event>
 7    1  0.2844572E-009  0.1423272E+03  0.7561462E-02  0.1210231E+00
         -2   -1    0    0    0  501 -0.00000000000E+00  0.00000000000E+00  0.14648695348E+03  0.14648695348E+03  0.00000000000E+00 0.  1.
          2   -1    0    0  501    0  0.00000000000E+00 -0.00000000000E+00 -0.16916881390E+03  0.16916881390E+03  0.00000000000E+00 0. -1.
         25    2    1    2    0    0 -0.17396023023E+01 -0.93480983881E+02 -0.78594579151E+02  0.17482341227E+03  0.12507756410E+03 0.  0.
          5    1    3    3  502    0  0.37085183760E+02  0.15118423191E+02 -0.26500859548E+02  0.48204206570E+02  0.41800000000E+01 0.  1.
         -5    1    3    3    0  502 -0.38824786063E+02 -0.10859940707E+03 -0.52093719603E+02  0.12661920570E+03  0.41800000000E+01 0.  1.
        -11    1    1    2    0    0 -0.40960836109E+02  0.67626325070E+02  0.38725644421E+02  0.88038545382E+02  0.00000000000E+00 0.  1.
         11    1    1    2    0    0  0.42700438411E+02  0.25854658811E+02  0.17187074305E+02  0.52793809731E+02  0.00000000000E+00 0. -1.
</event>
<event>
 7    1  0.2844572E-009  0.1029330E+03  0.7561462E-02  0.1274246E+00
         -1   -1    0    0    0  501 -0.00000000000E+00  0.00000000000E+00  0.13761948999E+02  0.13761948999E+02  0.00000000000E+00 0.  1.
          1   -1    0    0  501    0  0.00000000000E+00 -0.00000000000E+00 -0.11511635136E+04  0.11511635136E+04  0.00000000000E+00 0. -1.
         25    2    1    2    0    0  0.29738288153E+02  0.41043674877E+02 -0.77200854529E+03  0.78371756170E+03  0.12508826280E+03 0.  0.
          5    1    3    3  502    0 -0.12642060212E+02 -0.27488618779E+02 -0.47388354548E+03  0.47486685810E+03  0.41800000000E+01 0. -1.
         -5    1    3    3    0  502  0.42380348365E+02  0.68532293657E+02 -0.29812499981E+03  0.30885070360E+03  0.41800000000E+01 0. -1.
        -11    1    1    2    0    0  0.27389893003E+02 -0.19314780608E+02 -0.51679783424E+02  0.61595998274E+02  0.00000000000E+00 0.  1.
         11    1    1    2    0    0 -0.57128181156E+02 -0.21728894269E+02 -0.31371323593E+03  0.31961190267E+03  0.00000000000E+00 0. -1.
</event>
<event>
 7    1  0.2844572E-009  0.9140946E+02  0.7561462E-02  0.1299474E+00
          1   -1    0    0  501    0  0.00000000000E+00  0.00000000000E+00  0.49580601417E+02  0.49580601417E+02  0.00000000000E+00 0. -1.
         -1   -1    0    0    0  501 -0.00000000000E+00 -0.00000000000E+00 -0.27216586832E+03  0.27216586832E+03  0.00000000000E+00 0.  1.
         25    2    1    2    0    0 -0.20937993066E+02  0.22362326719E+02 -0.84143157401E+02  0.15383612996E+03  0.12508801195E+03 0.  0.
          5    1    3    3  502    0 -0.25032155474E+02  0.70180727983E+02 -0.27637552407E+02  0.79581719577E+02  0.41800000000E+01 0.  1.
         -5    1    3    3    0  502  0.40941624080E+01 -0.47818401264E+02 -0.56505604994E+02  0.74254410381E+02  0.41800000000E+01 0.  1.
        -11    1    1    2    0    0  0.12821217815E+02  0.16170692902E+02  0.32114741175E+01  0.20885126315E+02  0.00000000000E+00 0. -1.
         11    1    1    2    0    0  0.81167752517E+01 -0.38533019621E+02 -0.14165358362E+03  0.14702521346E+03  0.00000000000E+00 0.  1.
</event>
<event>
 7    1  0.2844572E-009  0.1720438E+03  0.7561462E-02  0.1175733E+00
          1   -1    0    0  501    0  0.00000000000E+00  0.00000000000E+00  0.28114451486E+03  0.28114451486E+03  0.00000000000E+00 0. -1.
         -1   -1    0    0    0  501 -0.00000000000E+00 -0.00000000000E+00 -0.14337298864E+03  0.14337298864E+03  0.00000000000E+00 0.  1.
         25    2    1    2    0    0 -0.12899311065E+03 -0.69492194688E+02  0.15960565883E+03  0.25017936482E+03  0.12508941016E+03 0.  0.
          5    1    3    3  502    0 -0.15277046195E+03 -0.70877100089E+02  0.14039348049E+03  0.21929473119E+03  0.41800000000E+01 0. -1.
         -5    1    3    3    0  502  0.23777351305E+02  0.13849054011E+01  0.19212178340E+02  0.30884633633E+02  0.41800000000E+01 0. -1.
        -11    1    1    2    0    0  0.67941751777E+02  0.14929759111E+02 -0.52240681447E+02  0.86994644316E+02  0.00000000000E+00 0.  1.
         11    1    1    2    0    0  0.61051358871E+02  0.54562435576E+02  0.30406548827E+02  0.87343494363E+02  0.00000000000E+00 0. -1.
</event>
<event>
 7    1  0.2844572E-009  0.1223215E+03  0.7561462E-02  0.1239316E+00
          1   -1    0    0  501    0  0.00000000000E+00  0.00000000000E+00  0.13202116561E+03  0.13202116561E+03  0.00000000000E+00 0. -1.
         -1   -1    0    0    0  501 -0.00000000000E+00 -0.00000000000E+00 -0.14049471105E+03  0.14049471105E+03  0.00000000000E+00 0.  1.
         25    2    1    2    0    0  0.49295792826E+02 -0.58439005589E+02 -0.33097154182E+02  0.15029695448E+03  0.12509420588E+03 0.  0.
          5    1    3    3  502    0  0.61204030945E+02 -0.89904885852E+02 -0.39516104426E+02  0.11579212760E+03  0.41800000000E+01 0.  1.
         -5    1    3    3    0  502 -0.11908238119E+02  0.31465880263E+02  0.64189502443E+01  0.34504826880E+02  0.41800000000E+01 0.  1.
        -11    1    1    2    0    0 -0.10314838712E+02  0.61911117248E+02  0.45821904639E+02  0.77711191481E+02  0.00000000000E+00 0. -1.
         11    1    1    2    0    0 -0.38980954114E+02 -0.34721116588E+01 -0.21198295895E+02  0.44507730698E+02  0.00000000000E+00 0.  1.
</event>
<event>
 7    1  0.2844572E-009  0.1538971E+03  0.7561462E-02  0.1195764E+00
         -2   -1    0    0    0  501 -0.00000000000E+00  0.00000000000E+00  0.23052458260E+03  0.23052458260E+03  0.00000000000E+00 0.  1.
          2   -1    0    0  501    0  0.00000000000E+00 -0.00000000000E+00 -0.14130815319E+03  0.14130815319E+03  0.00000000000E+00 0. -1.
         25    2    1    2    0    0  0.11846837913E+03  0.65698282484E+02  0.97150036168E+02  0.20841458372E+03  0.12508991969E+03 0.  0.
          5    1    3    3  502    0  0.24215099445E+02 -0.15823560005E+02  0.76675775134E+02  0.82057315242E+02  0.41800000000E+01 0. -1.
         -5    1    3    3    0  502  0.94253279682E+02  0.81521842489E+02  0.20474261035E+02  0.12635726848E+03  0.41800000000E+01 0. -1.
        -11    1    1    2    0    0 -0.12190211496E+03 -0.40507984149E+02  0.14808911914E+02  0.12930710067E+03  0.00000000000E+00 0.  1.
         11    1    1    2    0    0  0.34337358305E+01 -0.25190298335E+02 -0.22742518676E+02  0.34111051402E+02  0.00000000000E+00 0. -1.
</event>
<event>
 7    1  0.2844572E-009  0.1446787E+03  0.7561462E-02  0.1207169E+00
          1   -1    0    0  501    0  0.00000000000E+00  0.00000000000E+00  0.16676115639E+03  0.16676115639E+03  0.00000000000E+00 0. -1.
         -1   -1    0    0    0  501 -0.00000000000E+00 -0.00000000000E+00 -0.15936347511E+03  0.15936347511E+03  0.00000000000E+00 0.  1.
         25    2    1    2    0    0  0.74588354249E+02 -0.93898302247E+02  0.79423258887E+01  0.17347053826E+03  0.12509449768E+03 0.  0.
          5    1    3    3  502    0 -0.20486119553E+02 -0.65166101356E+02  0.24501307387E+02  0.72691734909E+02  0.41800000000E+01 0.  1.
         -5    1    3    3    0  502  0.95074473802E+02 -0.28732200891E+02 -0.16558981499E+02  0.10077880335E+03  0.41800000000E+01 0.  1.
        -11    1    1    2    0    0 -0.72504427329E+02  0.82112386379E+02  0.35120817833E+02  0.11503394205E+03  0.00000000000E+00 0. -1.
         11    1    1    2    0    0 -0.20839269197E+01  0.11785915868E+02 -0.35665462439E+02  0.37620151186E+02  0.00000000000E+00 0.  1.
</event>
<event>
 7    1  0.2844572E-009  0.1218798E+03  0.7561462E-02  0.1240028E+00
          1   -1    0    0  501    0  0.00000000000E+00  0.00000000000E+00  0.10757040827E+03  0.10757040827E+03  0.00000000000E+00 0. -1.
         -1   -1    0    0    0  501 -0.00000000000E+00 -0.00000000000E+00 -0.17906286371E+03  0.17906286371E+03  0.00000000000E+00 0.  1.
         25    2    1    2    0    0  0.70506928818E+02 -0.44535709741E+02 -0.16249397869E+02  0.15121534123E+03  0.12508948812E+03 0.  0.
          5    1    3    3  502    0  0.16014403670E+02  0.40218057807E+02  0.14402063956E+02  0.45813154714E+02  0.41800000000E+01 0.  1.
         -5    1    3    3    0  502  0.54492525148E+02 -0.84753767548E+02 -0.30651461825E+02  0.10540218652E+03  0.41800000000E+01 0.  1.
        -11    1    1    2    0    0 -0.66662794192E+02  0.13332532127E+02  0.42637524491E+01  0.68116548117E+02  0.00000000000E+00 0. -1.
         11    1    1    2    0    0 -0.38441346255E+01  0.31203177614E+02 -0.59506810023E+02  0.67301382626E+02  0.00000000000E+00 0.  1.
</event>
<event>
 7    1  0.3140014E-009  0.1111231E+03  0.7561462E-02  0.1258504E+00
          2   -1    0    0  501    0  0.00000000000E+00  0.00000000000E+00  0.49739327562E+03  0.49739327562E+03  0.00000000000E+00 0. -1.
         -2   -1    0    0    0  501 -0.00000000000E+00 -0.00000000000E+00 -0.31115553307E+02  0.31115553307E+02  0.00000000000E+00 0.  1.
         25    2    1    2    0    0  0.14759179614E+02 -0.48665158660E+02  0.32918632108E+03  0.35580533415E+03  0.12509065021E+03 0.  0.
          5    1    3    3  502    0  0.64629280088E+02 -0.54161254075E+02  0.21673381251E+03  0.23259708333E+03  0.41800000000E+01 0.  1.
         -5    1    3    3    0  502 -0.49870100474E+02  0.54960954151E+01  0.11245250857E+03  0.12320825082E+03  0.41800000000E+01 0.  1.
        -11    1    1    2    0    0  0.23555149332E+01 -0.18251580566E+02 -0.86381687069E+00  0.18423214251E+02  0.00000000000E+00 0.  1.
         11    1    1    2    0    0 -0.17114694548E+02  0.66916739225E+02  0.13795521810E+03  0.15428028052E+03  0.00000000000E+00 0. -1.
</event>
<event>
 7    1  0.2844572E-009  0.9862219E+02  0.7561462E-02  0.1283220E+00
          2   -1    0    0  501    0  0.00000000000E+00  0.00000000000E+00  0.57445810440E+03  0.57445810440E+03  0.00000000000E+00 0. -1.
         -2   -1    0    0    0  501 -0.00000000000E+00 -0.00000000000E+00 -0.20831956116E+02  0.20831956116E+02  0.00000000000E+00 0.  1.
         25    2    1    2    0    0 -0.48659128630E+01  0.19538733534E+01  0.35444415177E+03  0.37591173006E+03  0.12510586453E+03 0.  0.
          5    1    3    3  502    0  0.26708888325E+02  0.50995475166E+02  0.24627348119E+03  0.25294664089E+03  0.41800000000E+01 0. -1.
         -5    1    3    3    0  502 -0.31574801188E+02 -0.49041601813E+02  0.10817067058E+03  0.12296508916E+03  0.41800000000E+01 0. -1.
        -11    1    1    2    0    0  0.39895792427E+02  0.14367619723E+02  0.51435231048E+02  0.66660976162E+02  0.00000000000E+00 0. -1.
         11    1    1    2    0    0 -0.35029879564E+02 -0.16321493076E+02  0.14774676546E+03  0.15271735430E+03  0.00000000000E+00 0.  1.
</event>
<event>
 7    1  0.2844572E-009  0.9372019E+02  0.7561462E-02  0.1294085E+00
         -3   -1    0    0    0  501 -0.00000000000E+00  0.00000000000E+00  0.18498868782E+03  0.18498868782E+03  0.00000000000E+00 0.  1.
          3   -1    0    0  501    0  0.00000000000E+00 -0.00000000000E+00 -0.97404000008E+02  0.97404000008E+02  0.00000000000E+00 0. -1.
         25    2    1    2    0    0  0.51073026451E+02 -0.12852711002E+02  0.11185023192E+03  0.17587021964E+03  0.12508482548E+03 0.  0.
          5    1    3    3  502    0  0.23130696861E+02  0.47075936645E+02  0.87850362615E+01  0.53346248325E+02  0.41800000000E+01 0.  1.
         -5    1    3    3    0  502  0.27942329590E+02 -0.59928647647E+02  0.10306519566E+03  0.12252397132E+03  0.41800000000E+01 0.  1.
        -11    1    1    2    0    0 -0.54574173006E+02 -0.69126562007E+00 -0.52047506729E+02  0.75417247126E+02  0.00000000000E+00 0. -1.
         11    1    1    2    0    0  0.35011465552E+01  0.13543976622E+02  0.27781962626E+02  0.31105221062E+02  0.00000000000E+00 0.  1.
</event>
<event>
 7    1  0.2844572E-009  0.1296908E+03  0.7561462E-02  0.1227915E+00
         -1   -1    0    0    0  501 -0.00000000000E+00  0.00000000000E+00  0.37334384503E+03  0.37334384503E+03  0.00000000000E+00 0.  1.
          1   -1    0    0  501    0  0.00000000000E+00 -0.00000000000E+00 -0.19393828387E+03  0.19393828387E+03  0.00000000000E+00 0. -1.
         25    2    1    2    0    0 -0.10444761861E+03 -0.29722425237E+02 -0.13966474214E+03  0.21667141141E+03  0.12509009844E+03 0.  0.
          5    1    3    3  502    0 -0.48442207339E+02 -0.31417879739E+02 -0.14887564658E+03  0.15973465862E+03  0.41800000000E+01 0.  1.
         -5    1    3    3    0  502 -0.56005411270E+02  0.16954545020E+01  0.92109044361E+01  0.56936752788E+02  0.41800000000E+01 0.  1.
        -11    1    1    2    0    0  0.11509292028E+03  0.14575410358E+01  0.25554998124E+03  0.28027539606E+03  0.00000000000E+00 0. -1.
         11    1    1    2    0    0 -0.10645301667E+02  0.28264884202E+02  0.63520322065E+02  0.70335321438E+02  0.00000000000E+00 0.  1.
</event>
<event>
 7    1  0.2844572E-009  0.1029698E+03  0.7561462E-02  0.1274172E+00
         -2   -1    0    0    0  501 -0.00000000000E+00  0.00000000000E+00  0.48412967770E+03  0.48412967770E+03  0.00000000000E+00 0.  1.
          2   -1    0    0  501    0  0.00000000000E+00 -0.00000000000E+00 -0.32163085182E+02  0.32163085182E+02  0.00000000000E+00 0. -1.
         25    2    1    2    0    0  0.31893289378E+02  0.50010111580E+02  0.24276659650E+03  0.27946304566E+03  0.12508309375E+03 0.  0.
          5    1    3    3  502    0 -0.32015904606E+02  0.62869624887E+02  0.15206205397E+03  0.16768407360E+03  0.41800000000E+01 0. -1.
         -5    1    3    3    0  502  0.63909193984E+02 -0.12859513307E+02  0.90704542530E+02  0.11177897206E+03  0.41800000000E+01 0. -1.
        -11    1    1    2    0    0 -0.40361468824E+02 -0.42647324341E+02  0.21591209715E+03  0.22375405278E+03  0.00000000000E+00 0.  1.
         11    1    1    2    0    0  0.84681794461E+01 -0.73627872384E+01 -0.67121011353E+01  0.13075664446E+02  0.00000000000E+00 0. -1.
</event>
<event>
 7    1  0.2844572E-009  0.1101226E+03  0.7561462E-02  0.1260343E+00
         -3   -1    0    0    0  501 -0.00000000000E+00  0.00000000000E+00  0.39989636069E+03  0.39989636069E+03  0.00000000000E+00 0.  1.
          3   -1    0    0  501    0  0.00000000000E+00 -0.00000000000E+00 -0.34208239675E+02  0.34208239675E+02  0.00000000000E+00 0. -1.
         25    2    1    2    0    0 -0.45449980077E+02 -0.10853543986E+02  0.21529615708E+03  0.25334383567E+03  0.12508862343E+03 0.  0.
          5    1    3    3  502    0 -0.80587209905E+02  0.11732895476E+02  0.91197681312E+02  0.12233743791E+03  0.41800000000E+01 0.  1.
         -5    1    3    3    0  502  0.35137229828E+02 -0.22586439462E+02  0.12409847577E+03  0.13100639776E+03  0.41800000000E+01 0.  1.
        -11    1    1    2    0    0  0.42805721353E+02  0.45212496920E+02  0.11823752479E+03  0.13362863438E+03  0.00000000000E+00 0.  1.
         11    1    1    2    0    0  0.26442587239E+01 -0.34358952934E+02  0.32154439141E+02  0.47132130308E+02  0.00000000000E+00 0. -1.
</event>
<event>
 7    1  0.2844572E-009  0.1243166E+03  0.7561462E-02  0.1236141E+00
          1   -1    0    0  501    0  0.00000000000E+00  0.00000000000E+00  0.23150300987E+03  0.23150300987E+03  0.00000000000E+00 0. -1.
         -1   -1    0    0    0  501 -0.00000000000E+00 -0.00000000000E+00 -0.75562784895E+02  0.75562784895E+02  0.00000000000E+00 0.  1.
         25    2    1    2    0    0 -0.48276777783E+02 -0.58404451241E+02  0.78918893173E+02  0.16618609227E+03  0.12509155993E+03 0.  0.
          5    1    3    3  502    0 -0.68607807614E+02 -0.84723255881E+02  0.75105034110E+02  0.13245112269E+03  0.41800000000E+01 0.  1.
         -5    1    3    3    0  502  0.20331029831E+02  0.26318804641E+02  0.38138590630E+01  0.33734969581E+02  0.41800000000E+01 0.  1.
        -11    1    1    2    0    0  0.88939548304E+01 -0.17989385125E+02  0.44802297350E+02  0.49091407166E+02  0.00000000000E+00 0.  1.
         11    1    1    2    0    0  0.39382822953E+02  0.76393836366E+02  0.32219034451E+02  0.91788295329E+02  0.00000000000E+00 0. -1.
</event>
<event>
 7    1  0.2844572E-009  0.2819997E+03  0.7561462E-02  0.1094602E+00
         -2   -1    0    0    0  501 -0.00000000000E+00  0.00000000000E+00  0.71198731405E+02  0.71198731405E+02  0.00000000000E+00 0.  1.
          2   -1    0    0  501    0  0.00000000000E+00 -0.00000000000E+00 -0.15332184497E+04  0.15332184497E+04  0.00000000000E+00 0. -1.
         25    2    1    2    0    0 -0.12460672054E+03  0.23705879439E+03 -0.35575559785E+03  0.46252955827E+03  0.12509132690E+03 0.  0.
          5    1    3    3  502    0 -0.81692046836E+02  0.23879182658E+03 -0.30572874708E+03  0.39646269200E+03  0.41800000000E+01 0.  1.
         -5    1    3    3    0  502 -0.42914673707E+02 -0.17330321919E+01 -0.50026850768E+02  0.66066866262E+02  0.41800000000E+01 0.  1.
        -11    1    1    2    0    0  0.58180163138E+02 -0.91450660821E+02 -0.63512170775E+03  0.64430407294E+03  0.00000000000E+00 0. -1.
         11    1    1    2    0    0  0.66426557405E+02 -0.14560813357E+03 -0.47114241266E+03  0.49758354987E+03  0.00000000000E+00 0.  1.
</event>
<event>
 7    1  0.2844572E-009  0.1226839E+03  0.7561462E-02  0.1238734E+00
          4   -1    0    0  501    0  0.00000000000E+00  0.00000000000E+00  0.23274672228E+03  0.23274672228E+03  0.00000000000E+00 0.  1.
         -4   -1    0    0    0  501 -0.00000000000E+00 -0.00000000000E+00 -0.75874069422E+02  0.75874069422E+02  0.00000000000E+00 0. -1.
         25    2    1    2    0    0 -0.44974399689E+02 -0.59520523038E+02  0.11084617729E+03  0.18302617192E+03  0.12508523213E+03 0.  0.
          5    1    3    3  502    0  0.43689817634E+02 -0.18960116812E+02  0.41466276997E+02  0.63286734174E+02  0.41800000000E+01 0. -1.
         -5    1    3    3    0  502 -0.88664217324E+02 -0.40560406226E+02  0.69379900297E+02  0.11973943775E+03  0.41800000000E+01 0. -1.
        -11    1    1    2    0    0 -0.15863469759E+02  0.26130726985E+02  0.47143930001E+02  0.56187317978E+02  0.00000000000E+00 0.  1.
         11    1    1    2    0    0  0.60837869449E+02  0.33389796053E+02 -0.11174544336E+01  0.69407301805E+02  0.00000000000E+00 0. -1.
</event>
<event>
 6    1  0.2844572E-009  0.8271214E+02  0.7561462E-02  0.1321526E+00
         -2   -1    0    0    0  501 -0.00000000000E+00  0.00000000000E+00  0.13870086856E+03  0.13870086856E+03  0.00000000000E+00 0.  1.
          2   -1    0    0  501    0  0.00000000000E+00 -0.00000000000E+00 -0.87492799148E+02  0.87492799148E+02  0.00000000000E+00 0. -1.
          5    1    1    2  502    0  0.67455316727E+02  0.13492140516E+02  0.17122724059E+01  0.68939552415E+02  0.41800000000E+01 0. -1.
         -5    1    1    2    0  502 -0.49406889626E+02 -0.26956267912E+02  0.18233233329E+02  0.59309394870E+02  0.41800000000E+01 0. -1.
        -11    1    1    2    0    0 -0.68209070628E+01 -0.11118283472E+02 -0.29055559861E+02  0.31849121799E+02  0.00000000000E+00 0. -1.
         11    1    1    2    0    0 -0.11227520038E+02  0.24582410867E+02  0.60318123540E+02  0.66095598625E+02  0.00000000000E+00 0.  1.
</event>
<event>
 7    1  0.2844572E-009  0.1365412E+03  0.7561462E-02  0.1218060E+00
         -1   -1    0    0    0  501 -0.00000000000E+00  0.00000000000E+00  0.37928129798E+02  0.37928129798E+02  0.00000000000E+00 0.  1.
          1   -1    0    0  501    0  0.00000000000E+00 -0.00000000000E+00 -0.63547934409E+03  0.63547934409E+03  0.00000000000E+00 0. -1.
         25    2    1    2    0    0 -0.97456531452E+01 -0.10542733751E+03 -0.25279767906E+03  0.30126924436E+03  0.12508632941E+03 0.  0.
          5    1    3    3  502    0 -0.17229943564E+02 -0.12636995183E+03 -0.15442178550E+03  0.20032422699E+03  0.41800000000E+01 0. -1.
         -5    1    3    3    0  502  0.74842904192E+01  0.20942614317E+02 -0.98375893561E+02  0.10094501737E+03  0.41800000000E+01 0. -1.
        -11    1    1    2    0    0 -0.26112217581E+02  0.55922083888E+02 -0.26250054278E+03  0.26965841788E+03  0.00000000000E+00 0. -1.
         11    1    1    2    0    0  0.35857870726E+02  0.49505253625E+02 -0.82252992448E+02  0.10247981165E+03  0.00000000000E+00 0.  1.
</event>
<event>
 7    1  0.2844572E-009  0.1086218E+03  0.7561462E-02  0.1263144E+00
         -2   -1    0    0    0  501 -0.00000000000E+00  0.00000000000E+00  0.27264208458E+02  0.27264208458E+02  0.00000000000E+00 0.  1.
          2   -1    0    0  501    0  0.00000000000E+00 -0.00000000000E+00 -0.51638907179E+03  0.51638907179E+03  0.00000000000E+00 0. -1.
         25    2    1    2    0    0  0.35290781049E+02 -0.20469331882E+02 -0.21547145817E+03  0.25246913924E+03  0.12509310216E+03 0.  0.
          5    1    3    3  502    0 -0.19757101136E+02  0.34603189781E+02 -0.13328295833E+03  0.13917450617E+03  0.41800000000E+01 0.  1.
         -5    1    3    3    0  502  0.55047882185E+02 -0.55072521662E+02 -0.82188499844E+02  0.11329463307E+03  0.41800000000E+01 0.  1.
        -11    1    1    2    0    0 -0.24822846593E+02 -0.34912374208E+02 -0.12964784060E+03  0.13654160596E+03  0.00000000000E+00 0. -1.
         11    1    1    2    0    0 -0.10467934456E+02  0.55381706090E+02 -0.14400556456E+03  0.15464253505E+03  0.00000000000E+00 0.  1.
</event>
<event>
 7    1  0.2844572E-009  0.8443172E+02  0.7561462E-02  0.1316925E+00
         -2   -1    0    0    0  501 -0.00000000000E+00  0.00000000000E+00  0.37147528348E+03  0.37147528348E+03  0.00000000000E+00 0.  1.
          2   -1    0    0  501    0  0.00000000000E+00 -0.00000000000E+00 -0.37830334114E+02  0.37830334114E+02  0.00000000000E+00 0. -1.
         25    2    1    2    0    0  0.26842709247E+02  0.41827691932E+02  0.17353533127E+03  0.21961790497E+03  0.12508967237E+03 0.  0.
          5    1    3    3  502    0 -0.15319874013E+02  0.37177456341E+02 -0.50916556747E+00  0.40430105730E+02  0.41800000000E+01 0.  1.
         -5    1    3    3    0  502  0.42162583260E+02  0.46502355912E+01  0.17404449684E+03  0.17918779924E+03  0.41800000000E+01 0.  1.
        -11    1    1    2    0    0  0.20770726740E+02 -0.30448868980E+02  0.12258430901E+03  0.12800574021E+03  0.00000000000E+00 0.  1.
         11    1    1    2    0    0 -0.47613435987E+02 -0.11378822952E+02  0.37525309084E+02  0.61681972408E+02  0.00000000000E+00 0. -1.
</event>
<event>
 7    1  0.2844572E-009  0.7651437E+03  0.7561462E-02  0.9611887E-01
         -2   -1    0    0    0  501 -0.00000000000E+00  0.00000000000E+00  0.42955015623E+03  0.42955015623E+03  0.00000000000E+00 0.  1.
          2   -1    0    0  501    0  0.00000000000E+00 -0.00000000000E+00 -0.14049307779E+04  0.14049307779E+04  0.00000000000E+00 0. -1.
         25    2    1    2    0    0  0.18943907572E+03 -0.73738435306E+03 -0.61768655638E+03  0.98833518455E+03  0.12508759948E+03 0.  0.
          5    1    3    3  502    0  0.19861454191E+03 -0.62264380004E+03 -0.49351901389E+03  0.81896979643E+03  0.41800000000E+01 0.  1.
         -5    1    3    3    0  502 -0.91754661886E+01 -0.11474055302E+03 -0.12416754249E+03  0.16936538813E+03  0.41800000000E+01 0.  1.
        -11    1    1    2    0    0 -0.60477087827E+01  0.39440677145E+02 -0.43645519159E+02  0.59136056158E+02  0.00000000000E+00 0.  1.
         11    1    1    2    0    0 -0.18339136694E+03  0.69794367592E+03 -0.31404854615E+03  0.78700969343E+03  0.00000000000E+00 0. -1.
</event>
<event>
 7    1  0.2844572E-009  0.8951580E+02  0.7561462E-02  0.1304029E+00
         -3   -1    0    0    0  501 -0.00000000000E+00  0.00000000000E+00  0.66665131712E+02  0.66665131712E+02  0.00000000000E+00 0.  1.
          3   -1    0    0  501    0  0.00000000000E+00 -0.00000000000E+00 -0.25744279024E+03  0.25744279024E+03  0.00000000000E+00 0. -1.
         25    2    1    2    0    0 -0.82549285804E+01 -0.46359074383E+02 -0.17166578061E+03  0.21756446495E+03  0.12509136082E+03 0.  0.
          5    1    3    3  502    0  0.27575943920E+02  0.43822989786E+01 -0.14846294930E+03  0.15112364786E+03  0.41800000000E+01 0. -1.
         -5    1    3    3    0  502 -0.35830872501E+02 -0.50741373361E+02 -0.23202831309E+02  0.66440817090E+02  0.41800000000E+01 0. -1.
        -11    1    1    2    0    0  0.12233133065E+02 -0.19251694915E+02 -0.32260778816E+02  0.39509937377E+02  0.00000000000E+00 0. -1.
         11    1    1    2    0    0 -0.39782044844E+01  0.65610769297E+02  0.13148900897E+02  0.67033519627E+02  0.00000000000E+00 0.  1.
</event>
<event>
 7    1  0.2844572E-009  0.1987093E+03  0.7561462E-02  0.1150833E+00
         -1   -1    0    0    0  501 -0.00000000000E+00  0.00000000000E+00  0.18936239667E+03  0.18936239667E+03  0.00000000000E+00 0. -1.
          1   -1    0    0  501    0  0.00000000000E+00 -0.00000000000E+00 -0.21973179997E+03  0.21973179997E+03  0.00000000000E+00 0.  1.
         25    2    1    2    0    0 -0.15323069984E+03  0.78833531226E+02 -0.21649478373E+02  0.21402878970E+03  0.12508097333E+03 0.  0.
          5    1    3    3  502    0 -0.93092946939E+02 -0.11723676060E+02  0.22574697259E+02  0.96596225115E+02  0.41800000000E+01 0.  1.
         -5    1    3    3    0  502 -0.60137752904E+02  0.90557207286E+02 -0.44224175632E+02  0.11743256459E+03  0.41800000000E+01 0.  1.
        -11    1    1    2    0    0  0.24246629457E+02 -0.59544402345E+02 -0.66011237034E+01  0.64629789763E+02  0.00000000000E+00 0. -1.
         11    1    1    2    0    0  0.12898407039E+03 -0.19289128881E+02 -0.21188012230E+01  0.13043561716E+03  0.00000000000E+00 0.  1.
</event>
<event>
 7    1  0.2844572E-009  0.2264533E+03  0.7561462E-02  0.1129161E+00
         -1   -1    0    0    0  501 -0.00000000000E+00  0.00000000000E+00  0.60078756837E+02  0.60078756837E+02  0.00000000000E+00 0.  1.
          1   -1    0    0  501    0  0.00000000000E+00 -0.00000000000E+00 -0.91170487918E+03  0.91170487918E+03  0.00000000000E+00 0. -1.
         25    2    1    2    0    0 -0.11155398501E+03 -0.17376145340E+03 -0.47011378901E+03  0.52848067729E+03  0.12509003713E+03 0.  0.
          5    1    3    3  502    0 -0.98671957629E+02 -0.19045121015E+03 -0.38545264248E+03  0.44113380131E+03  0.41800000000E+01 0. -1.
         -5    1    3    3    0  502 -0.12882027379E+02  0.16689756749E+02 -0.84661146535E+02  0.87346875974E+02  0.41800000000E+01 0. -1.
        -11    1    1    2    0    0  0.81350119635E+01  0.69677118327E+02 -0.70696834203E+02  0.99594787034E+02  0.00000000000E+00 0. -1.
         11    1    1    2    0    0  0.10341897304E+03  0.10408433507E+03 -0.31081549913E+03  0.34370817170E+03  0.00000000000E+00 0.  1.
</event>
<event>
 7    1  0.2844572E-009  0.1029328E+03  0.7561462E-02  0.1274247E+00
          1   -1    0    0  501    0  0.00000000000E+00  0.00000000000E+00  0.79879182390E+03  0.79879182390E+03  0.00000000000E+00 0. -1.
         -1   -1    0    0    0  501 -0.00000000000E+00 -0.00000000000E+00 -0.14925160385E+02  0.14925160385E+02  0.00000000000E+00 0.  1.
         25    2    1    2    0    0  0.17370925480E+02  0.32562935447E+01  0.44463988441E+03  0.46223826347E+03  0.12508890004E+03 0.  0.
          5    1    3    3  502    0  0.38535380125E+01 -0.55576681529E+02  0.30465360523E+03  0.30973360952E+03  0.41800000000E+01 0. -1.
         -5    1    3    3    0  502  0.13517387467E+02  0.58832975074E+02  0.13998627918E+03  0.15250465395E+03  0.41800000000E+01 0. -1.
        -11    1    1    2    0    0  0.35941435067E+02  0.14351619860E+01  0.17810916583E+03  0.18170503955E+03  0.00000000000E+00 0. -1.
         11    1    1    2    0    0 -0.53312360546E+02 -0.46914555306E+01  0.16111761328E+03  0.16977368127E+03  0.00000000000E+00 0.  1.
</event>
<event>
 7    1  0.2844572E-009  0.1184546E+03  0.7561462E-02  0.1245669E+00
         -1   -1    0    0    0  501 -0.00000000000E+00  0.00000000000E+00  0.27718328798E+03  0.27718328798E+03  0.00000000000E+00 0. -1.
          1   -1    0    0  501    0  0.00000000000E+00 -0.00000000000E+00 -0.82005285488E+02  0.82005285488E+02  0.00000000000E+00 0.  1.
         25    2    1    2    0    0 -0.61831406032E+02  0.43126062334E+00  0.19907632048E+03  0.24311098950E+03  0.12509301772E+03 0.  0.
          5    1    3    3  502    0  0.31245337423E+02  0.28216425176E+02  0.59176918308E+02  0.72744881750E+02  0.41800000000E+01 0. -1.
         -5    1    3    3    0  502 -0.93076743456E+02 -0.27785164553E+02  0.13989940217E+03  0.17036610775E+03  0.41800000000E+01 0. -1.
        -11    1    1    2    0    0 -0.87289799463E+01  0.21730034530E+02 -0.29633316912E+02  0.37769338925E+02  0.00000000000E+00 0.  1.
         11    1    1    2    0    0  0.70560385979E+02 -0.22161295153E+02  0.25734998925E+02  0.78308245045E+02  0.00000000000E+00 0. -1.
</event>
<event>
 7    1  0.2844572E-009  0.8861004E+02  0.7561462E-02  0.1306253E+00
          2   -1    0    0  501    0  0.00000000000E+00  0.00000000000E+00  0.13120482147E+03  0.13120482147E+03  0.00000000000E+00 0. -1.
         -2   -1    0    0    0  501 -0.00000000000E+00 -0.00000000000E+00 -0.19922268308E+03  0.19922268308E+03  0.00000000000E+00 0.  1.
         25    2    1    2    0    0 -0.82275981598E+02 -0.26634983967E+02  0.47156712034E+02  0.15921387392E+03  0.12508614088E+03 0.  0.
          5    1    3    3  502    0 -0.19223589312E+02 -0.15010068464E+01  0.80918120699E+02  0.83288739125E+02  0.41800000000E+01 0.  1.
         -5    1    3    3    0  502 -0.63052392286E+02 -0.25133977120E+02 -0.33761408665E+02  0.75925134797E+02  0.41800000000E+01 0.  1.
        -11    1    1    2    0    0  0.45213901192E+02  0.25540590962E+01 -0.11853165192E+03  0.12688803169E+03  0.00000000000E+00 0.  1.
         11    1    1    2    0    0  0.37062080406E+02  0.24080924870E+02  0.33570782757E+01  0.44325598937E+02  0.00000000000E+00 0. -1.
</event>
<event>
 7    1  0.2844572E-009  0.1000554E+03  0.7561462E-02  0.1280180E+00
          1   -1    0    0  501    0  0.00000000000E+00  0.00000000000E+00  0.72481980884E+03  0.72481980884E+03  0.00000000000E+00 0. -1.
         -1   -1    0    0    0  501 -0.00000000000E+00 -0.00000000000E+00 -0.17911864723E+02  0.17911864723E+02  0.00000000000E+00 0.  1.
         25    2    1    2    0    0 -0.24615932966E+02 -0.13626141637E+02  0.47958511507E+03  0.49642748299E+03  0.12508695925E+03 0.  0.
          5    1    3    3  502    0 -0.69162709173E+02  0.18381255470E+02  0.30831997072E+03  0.31654387948E+03  0.41800000000E+01 0.  1.
         -5    1    3    3    0  502  0.44546776207E+02 -0.32007397107E+02  0.17126514436E+03  0.17988360351E+03  0.41800000000E+01 0.  1.
        -11    1    1    2    0    0 -0.10742332187E+02  0.31865400643E+02  0.30172196288E+02  0.45179230713E+02  0.00000000000E+00 0.  1.
         11    1    1    2    0    0  0.35358265153E+02 -0.18239259006E+02  0.19715063276E+03  0.20112495986E+03  0.00000000000E+00 0. -1.
</event>
<event>
 7    1  0.2844572E-009  0.1043258E+03  0.7561462E-02  0.1271454E+00
          1   -1    0    0  501    0  0.00000000000E+00  0.00000000000E+00  0.14699320253E+03  0.14699320253E+03  0.00000000000E+00 0. -1.
         -1   -1    0    0    0  501 -0.00000000000E+00 -0.00000000000E+00 -0.11510632703E+03  0.11510632703E+03  0.00000000000E+00 0.  1.
         25    2    1    2    0    0  0.52674485680E+02  0.38248808955E+02  0.30796714135E+02  0.14433904702E+03  0.12509096716E+03 0.  0.
          5    1    3    3  502    0  0.81245570305E+02  0.44779596589E+02  0.53373043994E+02  0.10710839925E+03  0.41800000000E+01 0. -1.
         -5    1    3    3    0  502 -0.28571084625E+02 -0.65307876341E+01 -0.22576329858E+02  0.37230647774E+02  0.41800000000E+01 0. -1.
        -11    1    1    2    0    0 -0.31694575860E+02  0.10275405667E+02 -0.39086823649E+02  0.51360586869E+02  0.00000000000E+00 0.  1.
         11    1    1    2    0    0 -0.20979909821E+02 -0.48524214622E+02  0.40176985014E+02  0.66399895674E+02  0.00000000000E+00 0. -1.
</event>
<event>
 7    1  0.2844572E-009  0.1823432E+03  0.7561462E-02  0.1165554E+00
          2   -1    0    0  501    0  0.00000000000E+00  0.00000000000E+00  0.26327040487E+03  0.26327040487E+03  0.00000000000E+00 0. -1.
         -2   -1    0    0    0  501 -0.00000000000E+00 -0.00000000000E+00 -0.14446754561E+03  0.14446754561E+03  0.00000000000E+00 0.  1.
         25    2    1    2    0    0 -0.68699190600E+02  0.14567194718E+03  0.74914348398E+02  0.21725739378E+03  0.12509484631E+03 0.  0.
          5    1    3    3  502    0 -0.10490855759E+03  0.98066122445E+02  0.58253176310E+02  0.15502798063E+03  0.41800000000E+01 0.  1.
         -5    1    3    3    0  502  0.36209366989E+02  0.47605824730E+02  0.16661172089E+02  0.62229413153E+02  0.41800000000E+01 0.  1.
        -11    1    1    2    0    0  0.27020121598E+02 -0.56170866197E+02  0.64419166987E+02  0.89638620336E+02  0.00000000000E+00 0.  1.
         11    1    1    2    0    0  0.41679069003E+02 -0.89501080979E+02 -0.20530656131E+02  0.10084193637E+03  0.00000000000E+00 0. -1.
</event>
<event>
 7    1  0.2844572E-009  0.1001328E+03  0.7561462E-02  0.1280017E+00
         -3   -1    0    0    0  501 -0.00000000000E+00  0.00000000000E+00  0.10232154351E+03  0.10232154351E+03  0.00000000000E+00 0.  1.
          3   -1    0    0  501    0  0.00000000000E+00 -0.00000000000E+00 -0.17592157480E+03  0.17592157480E+03  0.00000000000E+00 0. -1.
         25    2    1    2    0    0  0.58832991169E+02 -0.45467014785E+02 -0.61403534915E+02  0.15794531984E+03  0.12509100558E+03 0.  0.
          5    1    3    3  502    0  0.77177952534E+02 -0.16941230667E+02  0.90500631871E+01  0.79641808729E+02  0.41800000000E+01 0.  1.
         -5    1    3    3    0  502 -0.18344961366E+02 -0.28525784117E+02 -0.70453598102E+02  0.78303511112E+02  0.41800000000E+01 0.  1.
        -11    1    1    2    0    0  0.55761099600E+01  0.14431387419E+02  0.32489726603E+02  0.35985278655E+02  0.00000000000E+00 0.  1.
         11    1    1    2    0    0 -0.64409101129E+02  0.31035627366E+02 -0.44686222980E+02  0.84312519820E+02  0.00000000000E+00 0. -1.
</event>
<event>
 7    1  0.2844572E-009  0.1400732E+03  0.7561462E-02  0.1213230E+00
          2   -1    0    0  501    0  0.00000000000E+00  0.00000000000E+00  0.62915636459E+02  0.62915636459E+02  0.00000000000E+00 0. -1.
         -2   -1    0    0    0  501 -0.00000000000E+00 -0.00000000000E+00 -0.34391399207E+03  0.34391399207E+03  0.00000000000E+00 0.  1.
         25    2    1    2    0    0 -0.45344326844E+02  0.79405652325E+02 -0.18138927600E+03  0.23856400975E+03  0.12509736888E+03 0.  0.
          5    1    3    3  502    0  0.42643731474E+02  0.33129854197E+02 -0.49696866675E+02  0.73507319571E+02  0.41800000000E+01 0.  1.
         -5    1    3    3    0  502 -0.87988058318E+02  0.46275798128E+02 -0.13169240933E+03  0.16505669018E+03  0.41800000000E+01 0.  1.
        -11    1    1    2    0    0 -0.17033017079E+02 -0.58132084179E+02 -0.17649429086E+02  0.63094890672E+02  0.00000000000E+00 0. -1.
         11    1    1    2    0    0  0.62377343923E+02 -0.21273568146E+02 -0.81959650529E+02  0.10517072811E+03  0.00000000000E+00 0.  1.
</event>
<event>
 7    1  0.2844572E-009  0.1849627E+03  0.7561462E-02  0.1163085E+00
          2   -1    0    0  501    0  0.00000000000E+00  0.00000000000E+00  0.14469968135E+03  0.14469968135E+03  0.00000000000E+00 0. -1.
         -2   -1    0    0    0  501 -0.00000000000E+00 -0.00000000000E+00 -0.27520349922E+03  0.27520349922E+03  0.00000000000E+00 0.  1.
         25    2    1    2    0    0 -0.14387774641E+02  0.16174790638E+03 -0.52304131593E+02  0.21154312813E+03  0.12508149185E+03 0.  0.
          5    1    3    3  502    0 -0.43060227219E+02  0.10066836152E+03  0.21280446326E+02  0.11161824212E+03  0.41800000000E+01 0.  1.
         -5    1    3    3    0  502  0.28672452578E+02  0.61079544860E+02 -0.73584577919E+02  0.99924886012E+02  0.41800000000E+01 0.  1.
        -11    1    1    2    0    0 -0.30428021220E+02 -0.64348038677E+01 -0.17523163475E+02  0.35697793130E+02  0.00000000000E+00 0.  1.
         11    1    1    2    0    0  0.44815795860E+02 -0.15531310251E+03 -0.60676522796E+02  0.17266225930E+03  0.00000000000E+00 0. -1.
</event>
<event>
 7    1  0.2844572E-009  0.1093759E+03  0.7561462E-02  0.1261730E+00
         -1   -1    0    0    0  501 -0.00000000000E+00  0.00000000000E+00  0.45906829493E+02  0.45906829493E+02  0.00000000000E+00 0.  1.
          1   -1    0    0  501    0  0.00000000000E+00 -0.00000000000E+00 -0.40530840472E+03  0.40530840472E+03  0.00000000000E+00 0. -1.
         25    2    1    2    0    0  0.28686756848E+02 -0.31371977031E+01 -0.69390716956E+02  0.14592939211E+03  0.12509014291E+03 0.  0.
          5    1    3    3  502    0  0.32364767933E+02  0.57536849834E+02 -0.25743981702E+02  0.70980224613E+02  0.41800000000E+01 0.  1.
         -5    1    3    3    0  502 -0.36780110854E+01 -0.60674047538E+02 -0.43646735254E+02  0.74949167497E+02  0.41800000000E+01 0.  1.
        -11    1    1    2    0    0 -0.39187482861E+02  0.38410418148E+02 -0.21266886758E+03  0.21963393698E+03  0.00000000000E+00 0. -1.
         11    1    1    2    0    0  0.10500726013E+02 -0.35273220444E+02 -0.77341990687E+02  0.85651905120E+02  0.00000000000E+00 0.  1.
</event>
<event>
 7    1  0.2844572E-009  0.1204209E+03  0.7561462E-02  0.1242404E+00
         -2   -1    0    0    0  501 -0.00000000000E+00  0.00000000000E+00  0.77532879151E+02  0.77532879151E+02  0.00000000000E+00 0.  1.
          2   -1    0    0  501    0  0.00000000000E+00 -0.00000000000E+00 -0.23089219066E+03  0.23089219066E+03  0.00000000000E+00 0. -1.
         25    2    1    2    0    0  0.56715468369E+02 -0.29444913991E+02 -0.13438540446E+03  0.19439822026E+03  0.12509030257E+03 0.  0.
          5    1    3    3  502    0 -0.19515738249E+01 -0.69278267733E+02 -0.66045027764E+02  0.95826432224E+02  0.41800000000E+01 0.  1.
         -5    1    3    3    0  502  0.58667042194E+02  0.39833353742E+02 -0.68340376694E+02  0.98571788037E+02  0.41800000000E+01 0.  1.
        -11    1    1    2    0    0 -0.12941252628E+02 -0.26410167028E+02 -0.30228839947E+02  0.42175297351E+02  0.00000000000E+00 0. -1.
         11    1    1    2    0    0 -0.43774215741E+02  0.55855081019E+02  0.11254932894E+02  0.71851552202E+02  0.00000000000E+00 0.  1.
</event>
<event>
 7    1  0.2844572E-009  0.3083475E+03  0.7561462E-02  0.1081141E+00
         -2   -1    0    0    0  501 -0.00000000000E+00  0.00000000000E+00  0.12968336460E+03  0.12968336460E+03  0.00000000000E+00 0.  1.
          2   -1    0    0  501    0  0.00000000000E+00 -0.00000000000E+00 -0.19805868933E+04  0.19805868933E+04  0.00000000000E+00 0. -1.
         25    2    1    2    0    0  0.17387819187E+03 -0.24243220535E+03 -0.17536486891E+04  0.17832382176E+04  0.12509123117E+03 0.  0.
          5    1    3    3  502    0  0.18179040290E+03 -0.19641200311E+03 -0.16109685605E+04  0.16330531531E+04  0.41800000000E+01 0.  1.
         -5    1    3    3    0  502 -0.79122110331E+01 -0.46020202244E+02 -0.14268012856E+03  0.15018506445E+03  0.41800000000E+01 0.  1.
        -11    1    1    2    0    0 -0.60393656256E+02  0.12510572959E+03 -0.86061802037E+02  0.16341808670E+03  0.00000000000E+00 0. -1.
         11    1    1    2    0    0 -0.11348453561E+03  0.11732647576E+03 -0.11193037617E+02  0.16361395365E+03  0.00000000000E+00 0.  1.
</event>
<event>
 7    1  0.2913504E-009  0.1661749E+03  0.7561462E-02  0.1181897E+00
          3   -1    0    0  501    0  0.00000000000E+00  0.00000000000E+00  0.31231574979E+03  0.31231574979E+03  0.00000000000E+00 0. -1.
         -3   -1    0    0    0  501 -0.00000000000E+00 -0.00000000000E+00 -0.12926759205E+03  0.12926759205E+03  0.00000000000E+00 0.  1.
         25    2    1    2    0    0 -0.98664382558E+02 -0.10383163195E+03 -0.22948563569E+01  0.19018138777E+03  0.12509206894E+03 0.  0.
          5    1    3    3  502    0  0.49742853327E+01 -0.58028267135E+02  0.38205409572E+02  0.69779287914E+02  0.41800000000E+01 0.  1.
         -5    1    3    3    0  502 -0.10363866789E+03 -0.45803364812E+02 -0.40500265929E+02  0.12040209986E+03  0.41800000000E+01 0.  1.
        -11    1    1    2    0    0  0.29152945916E+01  0.51255780542E+02  0.24278868718E+02  0.56790117518E+02  0.00000000000E+00 0. -1.
         11    1    1    2    0    0  0.95749087966E+02  0.52575851405E+02  0.16106414538E+03  0.19461183655E+03  0.00000000000E+00 0.  1.
</event>
<event>
 7    1  0.2844572E-009  0.1108487E+03  0.7561462E-02  0.1259006E+00
         -2   -1    0    0    0  501 -0.00000000000E+00  0.00000000000E+00  0.14304762352E+02  0.14304762352E+02  0.00000000000E+00 0.  1.
          2   -1    0    0  501    0  0.00000000000E+00 -0.00000000000E+00 -0.10089561379E+04  0.10089561379E+04  0.00000000000E+00 0. -1.
         25    2    1    2    0    0 -0.47365466859E+02 -0.28113730454E+01 -0.47583112586E+03  0.49427514419E+03  0.12506504932E+03 0.  0.
          5    1    3    3  502    0  0.19845880109E+02 -0.39164809565E+02 -0.82307094167E+02  0.93379180847E+02  0.41800000000E+01 0.  1.
         -5    1    3    3    0  502 -0.67211346968E+02  0.36353436520E+02 -0.39352403169E+03  0.40089596335E+03  0.41800000000E+01 0.  1.
        -11    1    1    2    0    0  0.34508269557E+00 -0.38484165671E+02 -0.14799828934E+03  0.15292038366E+03  0.00000000000E+00 0.  1.
         11    1    1    2    0    0  0.47020384163E+02  0.41295538717E+02 -0.37082196038E+03  0.37606537243E+03  0.00000000000E+00 0. -1.
</event>
<event>
 7    1  0.2844572E-009  0.1495326E+03  0.7561462E-02  0.1201049E+00
         -1   -1    0    0    0  501 -0.00000000000E+00  0.00000000000E+00  0.24805901548E+03  0.24805901548E+03  0.00000000000E+00 0.  1.
          1   -1    0    0  501    0  0.00000000000E+00 -0.00000000000E+00 -0.15066776069E+03  0.15066776069E+03  0.00000000000E+00 0. -1.
         25    2    1    2    0    0  0.10503203853E+03  0.97420228320E+02  0.12444912816E+03  0.22728202561E+03  0.12508838340E+03 0.  0.
          5    1    3    3  502    0  0.78569052556E+02  0.92918811083E+02  0.25140018516E+02  0.12432415052E+03  0.41800000000E+01 0. -1.
         -5    1    3    3    0  502  0.26462985975E+02  0.45014172378E+01  0.99309109640E+02  0.10295787508E+03  0.41800000000E+01 0. -1.
        -11    1    1    2    0    0 -0.72468671498E+02 -0.92027735403E+02  0.14878537073E+02  0.11807702273E+03  0.00000000000E+00 0.  1.
         11    1    1    2    0    0 -0.32563367033E+02 -0.53924929175E+01 -0.41936410439E+02  0.53367727822E+02  0.00000000000E+00 0. -1.
</event>
<event>
 7    1  0.2844572E-009  0.1400053E+03  0.7561462E-02  0.1213322E+00
         -1   -1    0    0    0  501 -0.00000000000E+00  0.00000000000E+00  0.30855347320E+02  0.30855347320E+02  0.00000000000E+00 0.  1.
          1   -1    0    0  501    0  0.00000000000E+00 -0.00000000000E+00 -0.11507705608E+04  0.11507705608E+04  0.00000000000E+00 0. -1.
         25    2    1    2    0    0  0.10723448291E+03 -0.62200795949E+02 -0.87718876649E+03  0.89469298284E+03  0.12508888097E+03 0.  0.
          5    1    3    3  502    0  0.10624197614E+03 -0.64193971007E+02 -0.43252429678E+03  0.45000329233E+03  0.41800000000E+01 0. -1.
         -5    1    3    3    0  502  0.99250676554E+00  0.19931750587E+01 -0.44466446971E+03  0.44468969051E+03  0.41800000000E+01 0. -1.
        -11    1    1    2    0    0 -0.10306709194E+03  0.15544960017E+02 -0.18743160560E+03  0.21446463112E+03  0.00000000000E+00 0.  1.
         11    1    1    2    0    0 -0.41673909635E+01  0.46655835932E+02 -0.55294841372E+02  0.72468294145E+02  0.00000000000E+00 0. -1.
</event>
<event>
 7    1  0.2844572E-009  0.1197584E+03  0.7561462E-02  0.1243496E+00
          2   -1    0    0  501    0  0.00000000000E+00  0.00000000000E+00  0.11207522747E+03  0.11207522747E+03  0.00000000000E+00 0. -1.
         -2   -1    0    0    0  501 -0.00000000000E+00 -0.00000000000E+00 -0.16569282703E+03  0.16569282703E+03  0.00000000000E+00 0.  1.
         25    2    1    2    0    0 -0.39407370591E+02 -0.58077986432E+02  0.15285238447E+02  0.14424196818E+03  0.12508442551E+03 0.  0.
          5    1    3    3  502    0 -0.52247848972E+02  0.20383837418E+02 -0.16356707284E+02  0.58569213955E+02  0.41800000000E+01 0.  1.
         -5    1    3    3    0  502  0.12840478382E+02 -0.78461823849E+02  0.31641945731E+02  0.85672754225E+02  0.41800000000E+01 0.  1.
        -11    1    1    2    0    0  0.24052682853E+02  0.76202458413E+02 -0.25205191008E+02  0.83789306444E+02  0.00000000000E+00 0. -1.
         11    1    1    2    0    0  0.15354687737E+02 -0.18124471981E+02 -0.43697646993E+02  0.49736779880E+02  0.00000000000E+00 0.  1.
</event>
<event>
 7    1  0.2844572E-009  0.1071889E+03  0.7561462E-02  0.1265866E+00
          1   -1    0    0  501    0  0.00000000000E+00  0.00000000000E+00  0.37670029316E+03  0.37670029316E+03  0.00000000000E+00 0. -1.
         -1   -1    0    0    0  501 -0.00000000000E+00 -0.00000000000E+00 -0.44591059527E+02  0.44591059527E+02  0.00000000000E+00 0.  1.
         25    2    1    2    0    0  0.40331214938E+02  0.47878621009E+02  0.23478870508E+03  0.27329442119E+03  0.12508051555E+03 0.  0.
          5    1    3    3  502    0  0.53096564078E+02  0.70719872191E+02  0.22988883576E+03  0.24634710196E+03  0.41800000000E+01 0. -1.
         -5    1    3    3    0  502 -0.12765349140E+02 -0.22841251182E+02  0.48998693296E+01  0.26947319230E+02  0.41800000000E+01 0. -1.
        -11    1    1    2    0    0 -0.47511390698E+02 -0.65154997079E+02  0.10067638664E+03  0.12898930466E+03  0.00000000000E+00 0. -1.
         11    1    1    2    0    0  0.71801757601E+01  0.17276376070E+02 -0.33558580986E+01  0.19007626828E+02  0.00000000000E+00 0.  1.
</event>
<event>
 7    1  0.2844572E-009  0.1183160E+03  0.7561462E-02  0.1245901E+00
          2   -1    0    0  501    0  0.00000000000E+00  0.00000000000E+00  0.10301204969E+03  0.10301204969E+03  0.00000000000E+00 0. -1.
         -2   -1    0    0    0  501 -0.00000000000E+00 -0.00000000000E+00 -0.25401935324E+03  0.25401935324E+03  0.00000000000E+00 0.  1.
         25    2    1    2    0    0  0.11701759424E+03 -0.66760492271E-01 -0.10988680350E+03  0.20351108103E+03  0.12509407939E+03 0.  0.
          5    1    3    3  502    0  0.97831378499E+02  0.31904820500E+01 -0.13789176976E+03  0.16915309741E+03  0.41800000000E+01 0. -1.
         -5    1    3    3    0  502  0.19186215739E+02 -0.32572425422E+01  0.28004966260E+02  0.34357983622E+02  0.41800000000E+01 0. -1.
        -11    1    1    2    0    0 -0.63908403906E+02  0.10113339910E+02  0.23891796455E+02  0.68973775246E+02  0.00000000000E+00 0.  1.
         11    1    1    2    0    0 -0.53109190332E+02 -0.10046579418E+02 -0.65012296497E+02  0.84546546657E+02  0.00000000000E+00 0. -1.
</event>
<event>
 7    1  0.2844572E-009  0.1435019E+03  0.7561462E-02  0.1208693E+00
         -2   -1    0    0    0  501 -0.00000000000E+00  0.00000000000E+00  0.46502414387E+02  0.46502414387E+02  0.00000000000E+00 0.  1.
          2   -1    0    0  501    0  0.00000000000E+00 -0.00000000000E+00 -0.72299983473E+03  0.72299983473E+03  0.00000000000E+00 0. -1.
         25    2    1    2    0    0 -0.44252258031E+02 -0.89745259097E+02 -0.58714946616E+03  0.60860984316E+03  0.12509585007E+03 0.  0.
          5    1    3    3  502    0 -0.86787476932E+01  0.29005289710E+02 -0.19299394182E+03  0.19539898022E+03  0.41800000000E+01 0.  1.
         -5    1    3    3    0  502 -0.35573510337E+02 -0.11875054881E+03 -0.39415552434E+03  0.41321086293E+03  0.41800000000E+01 0.  1.
        -11    1    1    2    0    0 -0.96419746834E+01  0.76237458727E+02 -0.40258000811E+02  0.86751509602E+02  0.00000000000E+00 0.  1.
         11    1    1    2    0    0  0.53894232714E+02  0.13507800370E+02 -0.49089953371E+02  0.74140896357E+02  0.00000000000E+00 0. -1.
</event>
<event>
 7    1  0.2844572E-009  0.8066241E+02  0.7561462E-02  0.1327182E+00
         -2   -1    0    0    0  501 -0.00000000000E+00  0.00000000000E+00  0.47785469153E+02  0.47785469153E+02  0.00000000000E+00 0.  1.
          2   -1    0    0  501    0  0.00000000000E+00 -0.00000000000E+00 -0.30860007211E+03  0.30860007211E+03  0.00000000000E+00 0. -1.
         25    2    1    2    0    0 -0.11424472806E+02  0.34998798081E+02 -0.91706104920E+02  0.15941232245E+03  0.12508734718E+03 0.  0.
          5    1    3    3  502    0 -0.36220885711E+02  0.20516469932E+02  0.18284465825E+02  0.45658210551E+02  0.41800000000E+01 0. -1.
         -5    1    3    3    0  502  0.24796412906E+02  0.14482328149E+02 -0.10999057075E+03  0.11375411190E+03  0.41800000000E+01 0. -1.
        -11    1    1    2    0    0 -0.31348919283E+02 -0.35932687306E+02 -0.44497715597E+02  0.65222384582E+02  0.00000000000E+00 0.  1.
         11    1    1    2    0    0  0.42773392088E+02  0.93388922552E+00 -0.12461078244E+03  0.13175083423E+03  0.00000000000E+00 0. -1.
</event>
<event>
 7    1  0.2844572E-009  0.9771750E+02  0.7561462E-02  0.1285170E+00
          2   -1    0    0  501    0  0.00000000000E+00  0.00000000000E+00  0.16991062831E+03  0.16991062831E+03  0.00000000000E+00 0. -1.
         -2   -1    0    0    0  501 -0.00000000000E+00 -0.00000000000E+00 -0.13328954929E+03  0.13328954929E+03  0.00000000000E+00 0.  1.
         25    2    1    2    0    0 -0.15302658208E+02 -0.53502941051E+02  0.10749264573E+03  0.17406659069E+03  0.12509105907E+03 0.  0.
          5    1    3    3  502    0  0.85066718242E+00 -0.81192071412E+02  0.11503877783E+03  0.14086968765E+03  0.41800000000E+01 0. -1.
         -5    1    3    3    0  502 -0.16153325391E+02  0.27689130361E+02 -0.75461321070E+01  0.33196903035E+02  0.41800000000E+01 0. -1.
        -11    1    1    2    0    0  0.22719474488E+01 -0.13426289823E+02 -0.58210650832E+02  0.59782161837E+02  0.00000000000E+00 0.  1.
         11    1    1    2    0    0  0.13030710759E+02  0.66929230873E+02 -0.12660915874E+02  0.69351425068E+02  0.00000000000E+00 0. -1.
</event>
<event>
 7    1  0.2844572E-009  0.1033698E+03  0.7561462E-02  0.1273365E+00
         -1   -1    0    0    0  501 -0.00000000000E+00  0.00000000000E+00  0.21430343206E+02  0.21430343206E+02  0.00000000000E+00 0.  1.
          1   -1    0    0  501    0  0.00000000000E+00 -0.00000000000E+00 -0.67902001050E+03  0.67902001050E+03  0.00000000000E+00 0. -1.
         25    2    1    2    0    0  0.48237160677E+02 -0.21185308417E+02 -0.33477783673E+03  0.36124685743E+03  0.12508977209E+03 0.  0.
          5    1    3    3  502    0  0.44266923097E+02  0.28328214541E+02 -0.51794439787E+02  0.73906593836E+02  0.41800000000E+01 0. -1.
         -5    1    3    3    0  502  0.39702375797E+01 -0.49513522958E+02 -0.28298339694E+03  0.28734026360E+03  0.41800000000E+01 0. -1.
        -11    1    1    2    0    0 -0.13631015403E+01  0.49427071241E+02 -0.15363275287E+03  0.16139366831E+03  0.00000000000E+00 0.  1.
         11    1    1    2    0    0 -0.46874059137E+02 -0.28241762824E+02 -0.16917907770E+03  0.17780982796E+03  0.00000000000E+00 0. -1.
</event>
<event>
 7    1  0.2844572E-009  0.1113084E+03  0.7561462E-02  0.1258166E+00
          2   -1    0    0  501    0  0.00000000000E+00  0.00000000000E+00  0.27031369729E+03  0.27031369729E+03  0.00000000000E+00 0. -1.
         -2   -1    0    0    0  501 -0.00000000000E+00 -0.00000000000E+00 -0.60406829247E+02  0.60406829247E+02  0.00000000000E+00 0.  1.
         25    2    1    2    0    0  0.26964133514E+02 -0.40582356027E+02  0.56436950560E+02  0.14562326389E+03  0.12508802293E+03 0.  0.
          5    1    3    3  502    0  0.63623863335E+02  0.65522730959E+01  0.11021804480E+01  0.64106282611E+02  0.41800000000E+01 0. -1.
         -5    1    3    3    0  502 -0.36659729822E+02 -0.47134629123E+02  0.55334770112E+02  0.81516981277E+02  0.41800000000E+01 0. -1.
        -11    1    1    2    0    0 -0.62346049885E+01 -0.27134986091E+02  0.20958699225E+02  0.34848885817E+02  0.00000000000E+00 0.  1.
         11    1    1    2    0    0 -0.20729528525E+02  0.67717342118E+02  0.13251121826E+03  0.15024837684E+03  0.00000000000E+00 0. -1.
</event>
<event>
 7    1  0.2844572E-009  0.9896576E+02  0.7561462E-02  0.1282486E+00
         -2   -1    0    0    0  501 -0.00000000000E+00  0.00000000000E+00  0.15748273322E+02  0.15748273322E+02  0.00000000000E+00 0.  1.
          2   -1    0    0  501    0  0.00000000000E+00 -0.00000000000E+00 -0.88169167698E+03  0.88169167698E+03  0.00000000000E+00 0. -1.
         25    2    1    2    0    0 -0.31614820666E+02 -0.12923874979E+02 -0.57875094202E+03  0.59309941325E+03  0.12509091763E+03 0.  0.
          5    1    3    3  502    0  0.28362540744E+02  0.14128821217E+02 -0.41984207428E+03  0.42105688100E+03  0.41800000000E+01 0.  1.
         -5    1    3    3    0  502 -0.59977361410E+02 -0.27052696196E+02 -0.15890886774E+03  0.17204253224E+03  0.41800000000E+01 0.  1.
        -11    1    1    2    0    0 -0.42322007029E+01 -0.37740895181E+02 -0.92415171874E+02  0.99914216628E+02  0.00000000000E+00 0. -1.
         11    1    1    2    0    0  0.35847021369E+02  0.50664770160E+02 -0.19477728976E+03  0.20442632043E+03  0.00000000000E+00 0.  1.
</event>
<event>
 7    1  0.2844572E-009  0.3567092E+03  0.7561462E-02  0.1059895E+00
          2   -1    0    0  501    0  0.00000000000E+00  0.00000000000E+00  0.30894024885E+04  0.30894024885E+04  0.00000000000E+00 0. -1.
         -2   -1    0    0    0  501 -0.00000000000E+00 -0.00000000000E+00 -0.43414067004E+02  0.43414067004E+02  0.00000000000E+00 0.  1.
         25    2    1    2    0    0  0.25653953780E+03  0.23646542408E+03  0.16312886621E+04  0.16728645162E+04  0.12507821240E+03 0.  0.
          5    1    3    3  502    0  0.11820922385E+03  0.41345787723E+02  0.71315755673E+03  0.72408153400E+03  0.41800000000E+01 0.  1.
         -5    1    3    3    0  502  0.13833031395E+03  0.19511963636E+03  0.91813110534E+03  0.94878298216E+03  0.41800000000E+01 0.  1.
        -11    1    1    2    0    0 -0.77081109491E+02 -0.72218439575E+02  0.61717811533E+03  0.62615160025E+03  0.00000000000E+00 0. -1.
         11    1    1    2    0    0 -0.17945842831E+03 -0.16424698451E+03  0.79752164408E+03  0.83380043907E+03  0.00000000000E+00 0.  1.
</event>
<event>
 7    1  0.2844572E-009  0.1277170E+03  0.7561462E-02  0.1230883E+00
          1   -1    0    0  501    0  0.00000000000E+00  0.00000000000E+00  0.17022962928E+03  0.17022962928E+03  0.00000000000E+00 0. -1.
         -1   -1    0    0    0  501 -0.00000000000E+00 -0.00000000000E+00 -0.19078370164E+03  0.19078370164E+03  0.00000000000E+00 0.  1.
         25    2    1    2    0    0  0.41613878955E+02 -0.88720077865E+02 -0.11509484080E+03  0.19620880728E+03  0.12509239200E+03 0.  0.
          5    1    3    3  502    0 -0.13913901356E+02  0.21051297334E+01  0.19591403018E+02  0.24481088504E+02  0.41800000000E+01 0.  1.
         -5    1    3    3    0  502  0.55527780310E+02 -0.90825207598E+02 -0.13468624382E+03  0.17172771877E+03  0.41800000000E+01 0.  1.
        -11    1    1    2    0    0 -0.63344384674E+02  0.27136003289E+02  0.57331024753E+02  0.89642178373E+02  0.00000000000E+00 0.  1.
         11    1    1    2    0    0  0.21730505719E+02  0.61584074576E+02  0.37209743688E+02  0.75162345264E+02  0.00000000000E+00 0. -1.
</event>
<event>
 6    1  0.2844572E-009  0.1148827E+03  0.7561462E-02  0.1251786E+00
          4   -1    0    0  501    0  0.00000000000E+00  0.00000000000E+00  0.14562771857E+03  0.14562771857E+03  0.00000000000E+00 0.  1.
         -4   -1    0    0    0  501 -0.00000000000E+00 -0.00000000000E+00 -0.99760305114E+02  0.99760305114E+02  0.00000000000E+00 0. -1.
          5    1    1    2  502    0  0.22568305100E+02  0.90299677432E+02 -0.52565219722E+01  0.93319148960E+02  0.41800000000E+01 0. -1.
         -5    1    1    2    0  502 -0.64200852916E+01 -0.34802472524E+02  0.30404449610E+02  0.46843703366E+02  0.41800000000E+01 0. -1.
        -11    1    1    2    0    0  0.31353666474E+02 -0.52104503848E+01 -0.34018220408E+01  0.31965193380E+02  0.00000000000E+00 0.  1.
         11    1    1    2    0    0 -0.47501886283E+02 -0.50286754523E+02  0.24121307864E+02  0.73259977983E+02  0.00000000000E+00 0. -1.
</event>
<event>
 7    1  0.2844572E-009  0.1526691E+03  0.7561462E-02  0.1197231E+00
          1   -1    0    0  501    0  0.00000000000E+00  0.00000000000E+00  0.32141995271E+03  0.32141995271E+03  0.00000000000E+00 0. -1.
         -1   -1    0    0    0  501 -0.00000000000E+00 -0.00000000000E+00 -0.10626372911E+03  0.10626372911E+03  0.00000000000E+00 0.  1.
         25    2    1    2    0    0 -0.36842324225E+02  0.11213205573E+03  0.21811777120E+03  0.27776725889E+03  0.12509329807E+03 0.  0.
          5    1    3    3  502    0 -0.72508713359E+02  0.93460646059E+02  0.10718904114E+03  0.15968521790E+03  0.41800000000E+01 0.  1.
         -5    1    3    3    0  502  0.35666389133E+02  0.18671409676E+02  0.11092873006E+03  0.11808204099E+03  0.41800000000E+01 0.  1.
        -11    1    1    2    0    0  0.22631163422E+02 -0.12517902861E+03  0.84732363660E+01  0.12749021334E+03  0.00000000000E+00 0.  1.
         11    1    1    2    0    0  0.14211160803E+02  0.13046972880E+02 -0.11434783959E+02  0.22426209597E+02  0.00000000000E+00 0. -1.
</event>
<event>
 7    1  0.2844572E-009  0.1134966E+03  0.7561462E-02  0.1254228E+00
          1   -1    0    0  501    0  0.00000000000E+00  0.00000000000E+00  0.26225749983E+02  0.26225749983E+02  0.00000000000E+00 0. -1.
         -1   -1    0    0    0  501 -0.00000000000E+00 -0.00000000000E+00 -0.57984631788E+03  0.57984631788E+03  0.00000000000E+00 0.  1.
         25    2    1    2    0    0  0.51259183344E+02  0.13807362400E+02 -0.25073534895E+03  0.28519173619E+03  0.12509182247E+03 0.  0.
          5    1    3    3  502    0 -0.23670913675E+02  0.47599253269E+02 -0.10733463937E+03  0.11985073331E+03  0.41800000000E+01 0. -1.
         -5    1    3    3    0  502  0.74930097019E+02 -0.33791890869E+02 -0.14340070957E+03  0.16534100288E+03  0.41800000000E+01 0. -1.
        -11    1    1    2    0    0 -0.51458998406E+01  0.28393773086E+02 -0.32938303985E+02  0.43790621195E+02  0.00000000000E+00 0. -1.
         11    1    1    2    0    0 -0.46113283503E+02 -0.42201135486E+02 -0.26994691496E+03  0.27708971047E+03  0.00000000000E+00 0.  1.
</event>
<event>
 7    1  0.2844572E-009  0.2147674E+03  0.7561462E-02  0.1137845E+00
          2   -1    0    0  501    0  0.00000000000E+00  0.00000000000E+00  0.62842779189E+03  0.62842779189E+03  0.00000000000E+00 0. -1.
         -2   -1    0    0    0  501 -0.00000000000E+00 -0.00000000000E+00 -0.80432062828E+02  0.80432062828E+02  0.00000000000E+00 0.  1.
         25    2    1    2    0    0  0.15543693876E+03  0.11796399516E+03  0.32207590175E+03  0.39681075106E+03  0.12509891920E+03 0.  0.
          5    1    3    3  502    0  0.16722056736E+03  0.11530736844E+03  0.32538867199E+03  0.38360626640E+03  0.41800000000E+01 0. -1.
         -5    1    3    3    0  502 -0.11783628597E+02  0.26566267193E+01 -0.33127702417E+01  0.13204484659E+02  0.41800000000E+01 0. -1.
        -11    1    1    2    0    0 -0.16272260591E+03 -0.92658938176E+02  0.18387865016E+03  0.26244177122E+03  0.00000000000E+00 0.  1.
         11    1    1    2    0    0  0.72856671502E+01 -0.25305056981E+02  0.42041177156E+02  0.49607332435E+02  0.00000000000E+00 0. -1.
</event>
<event>
 7    1  0.3069126E-009  0.1144029E+03  0.7561462E-02  0.1252627E+00
          2   -1    0    0  501    0  0.00000000000E+00  0.00000000000E+00  0.45686961454E+03  0.45686961454E+03  0.00000000000E+00 0. -1.
         -2   -1    0    0    0  501 -0.00000000000E+00 -0.00000000000E+00 -0.56057190403E+02  0.56057190403E+02  0.00000000000E+00 0.  1.
         25    2    1    2    0    0 -0.77690433080E+02 -0.78554567801E+02  0.27573101306E+03  0.32230347542E+03  0.12508123436E+03 0.  0.
          5    1    3    3  502    0 -0.74519419987E+02 -0.74996790959E+02  0.97251682023E+02  0.14371160240E+03  0.41800000000E+01 0.  1.
         -5    1    3    3    0  502 -0.31710130930E+01 -0.35577768425E+01  0.17847933103E+03  0.17859187301E+03  0.41800000000E+01 0.  1.
        -11    1    1    2    0    0  0.56119677983E+02  0.30240528028E+02  0.12196564660E+03  0.13762095314E+03  0.00000000000E+00 0. -1.
         11    1    1    2    0    0  0.21570755098E+02  0.48314039773E+02  0.31157644844E+01  0.53002376390E+02  0.00000000000E+00 0.  1.
</event>
<event>
 7    1  0.2844572E-009  0.8971904E+02  0.7561462E-02  0.1303534E+00
          2   -1    0    0  501    0  0.00000000000E+00  0.00000000000E+00  0.14171888293E+03  0.14171888293E+03  0.00000000000E+00 0. -1.
         -2   -1    0    0    0  501 -0.00000000000E+00 -0.00000000000E+00 -0.16299589615E+03  0.16299589615E+03  0.00000000000E+00 0.  1.
         25    2    1    2    0    0  0.37627347942E+01  0.53857273295E+02  0.80720989351E+02  0.15835998443E+03  0.12508893831E+03 0.  0.
          5    1    3    3  502    0 -0.40812148293E+02 -0.13562190565E+02  0.61527883916E+02  0.75184555332E+02  0.41800000000E+01 0.  1.
         -5    1    3    3    0  502  0.44574883087E+02  0.67419463860E+02  0.19193105435E+02  0.83175429098E+02  0.41800000000E+01 0.  1.
        -11    1    1    2    0    0  0.43810872167E+01 -0.20202176059E+02 -0.10907164153E+03  0.11101326420E+03  0.00000000000E+00 0.  1.
         11    1    1    2    0    0 -0.81438220110E+01 -0.33655097236E+02  0.70736389591E+01  0.35341530457E+02  0.00000000000E+00 0. -1.
</event>
<event>
 7    1  0.2844572E-009  0.9143128E+02  0.7561462E-02  0.1299422E+00
          2   -1    0    0  501    0  0.00000000000E+00  0.00000000000E+00  0.93322341534E+02  0.93322341534E+02  0.00000000000E+00 0. -1.
         -2   -1    0    0    0  501 -0.00000000000E+00 -0.00000000000E+00 -0.15422385852E+03  0.15422385852E+03  0.00000000000E+00 0.  1.
         25    2    1    2    0    0 -0.49807326684E+02 -0.13600951139E+02 -0.57024459966E+02  0.14683450745E+03  0.12507129120E+03 0.  0.
          5    1    3    3  502    0 -0.35165216962E+01 -0.56811177777E+02 -0.60634310428E+02  0.83269849564E+02  0.41800000000E+01 0. -1.
         -5    1    3    3    0  502 -0.46290804988E+02  0.43210226637E+02  0.36098504626E+01  0.63564657891E+02  0.41800000000E+01 0. -1.
        -11    1    1    2    0    0  0.36879468721E+02  0.25435784621E+02  0.35792566641E+02  0.57342673282E+02  0.00000000000E+00 0. -1.
         11    1    1    2    0    0  0.12927857963E+02 -0.11834833482E+02 -0.39669623660E+02  0.43369019315E+02  0.00000000000E+00 0.  1.
</event>
<event>
 7    1  0.2844572E-009  0.1077013E+03  0.7561462E-02  0.1264887E+00
          2   -1    0    0  501    0  0.00000000000E+00  0.00000000000E+00  0.30708837258E+03  0.30708837258E+03  0.00000000000E+00 0. -1.
         -2   -1    0    0    0  501 -0.00000000000E+00 -0.00000000000E+00 -0.42409470394E+02  0.42409470394E+02  0.00000000000E+00 0.  1.
         25    2    1    2    0    0  0.32178213278E+02 -0.15674305722E+02  0.15405233555E+03  0.20164536471E+03  0.12509040630E+03 0.  0.
          5    1    3    3  502    0 -0.22797218683E+02 -0.51256047118E+02  0.10704828232E+03  0.12092850241E+03  0.41800000000E+01 0. -1.
         -5    1    3    3    0  502  0.54975431960E+02  0.35581741395E+02  0.47004053229E+02  0.80716862302E+02  0.41800000000E+01 0. -1.
        -11    1    1    2    0    0 -0.51216614798E+02 -0.18463755013E+02  0.85575537835E+02  0.10142595603E+03  0.00000000000E+00 0.  1.
         11    1    1    2    0    0  0.19038401521E+02  0.34138060736E+02  0.25051028803E+02  0.46426522240E+02  0.00000000000E+00 0. -1.
</event>
<event>
 7    1  0.2844572E-009  0.1620023E+03  0.7561462E-02  0.1186455E+00
          1   -1    0    0  501    0  0.00000000000E+00  0.00000000000E+00  0.60094268812E+02  0.60094268812E+02  0.00000000000E+00 0. -1.
         -1   -1    0    0    0  501 -0.00000000000E+00 -0.00000000000E+00 -0.56141259676E+03  0.56141259676E+03  0.00000000000E+00 0.  1.
         25    2    1    2    0    0 -0.14315275264E+02  0.14216718024E+03 -0.33248686616E+03  0.38289836518E+03  0.12508879905E+03 0.  0.
          5    1    3    3  502    0 -0.10475262662E+02  0.16100915692E+03 -0.32293606597E+03  0.36102472886E+03  0.41800000000E+01 0.  1.
         -5    1    3    3    0  502 -0.38400126019E+01 -0.18841976678E+02 -0.95508001816E+01  0.21873636323E+02  0.41800000000E+01 0.  1.
        -11    1    1    2    0    0  0.31707540478E+01 -0.20215211308E+02 -0.91534499223E+02  0.93793779098E+02  0.00000000000E+00 0.  1.
         11    1    1    2    0    0  0.11144521216E+02 -0.12195196894E+03 -0.77296962567E+02  0.14481472129E+03  0.00000000000E+00 0. -1.
</event>
<event>
 7    1  0.3654587E-009  0.8233829E+02  0.7561462E-02  0.1322544E+00
         -1   -1    0    0    0  501 -0.00000000000E+00  0.00000000000E+00  0.62743193969E+02  0.62743193969E+02  0.00000000000E+00 0.  1.
          1   -1    0    0  501    0  0.00000000000E+00 -0.00000000000E+00 -0.23906724011E+03  0.23906724011E+03  0.00000000000E+00 0. -1.
         25    2    1    2    0    0 -0.40307433989E+02  0.13878134432E+02 -0.52154202935E+02  0.14207427011E+03  0.12509094889E+03 0.  0.
          5    1    3    3  502    0 -0.32383403039E+01  0.30748913756E+02  0.34329387028E+02  0.46389241844E+02  0.41800000000E+01 0.  1.
         -5    1    3    3    0  502 -0.37069093685E+02 -0.16870779324E+02 -0.86483589963E+02  0.95685028268E+02  0.41800000000E+01 0.  1.
        -11    1    1    2    0    0 -0.55585583133E+01 -0.39573217276E+02 -0.24017598928E+02  0.46623836761E+02  0.00000000000E+00 0.  1.
         11    1    1    2    0    0  0.45865992302E+02  0.25695082843E+02 -0.10015224428E+03  0.11311232721E+03  0.00000000000E+00 0. -1.
</event>
<event>
 7    1  0.2844572E-009  0.9452833E+02  0.7561462E-02  0.1292242E+00
          1   -1    0    0  501    0  0.00000000000E+00  0.00000000000E+00  0.45948087093E+02  0.45948087093E+02  0.00000000000E+00 0. -1.
         -1   -1    0    0    0  501 -0.00000000000E+00 -0.00000000000E+00 -0.34613995677E+03  0.34613995677E+03  0.00000000000E+00 0.  1.
         25    2    1    2    0    0  0.54164089937E+02  0.95779492724E+01 -0.11232504840E+03  0.17689178094E+03  0.12509316494E+03 0.  0.
          5    1    3    3  502    0  0.94248886500E+00  0.59439449316E+02 -0.71958277738E+02  0.93431271827E+02  0.41800000000E+01 0. -1.
         -5    1    3    3    0  502  0.53221601072E+02 -0.49861500043E+02 -0.40366770664E+02  0.83460509111E+02  0.41800000000E+01 0. -1.
        -11    1    1    2    0    0 -0.40277984720E+02 -0.12599725459E+02 -0.19484587334E+03  0.19936394732E+03  0.00000000000E+00 0.  1.
         11    1    1    2    0    0 -0.13886105216E+02  0.30217761863E+01  0.69790520683E+01  0.15832315597E+02  0.00000000000E+00 0. -1.
</event>
<event>
 7    1  0.2844572E-009  0.1223667E+03  0.7561462E-02  0.1239243E+00
         -4   -1    0    0    0  501 -0.00000000000E+00  0.00000000000E+00  0.12468952220E+03  0.12468952220E+03  0.00000000000E+00 0.  1.
          4   -1    0    0  501    0  0.00000000000E+00 -0.00000000000E+00 -0.16601143576E+03  0.16601143576E+03  0.00000000000E+00 0. -1.
         25    2    1    2    0    0 -0.73441265044E+02 -0.25850334567E+02  0.29897456275E+02  0.15034796151E+03  0.12509513352E+03 0.  0.
          5    1    3    3  502    0 -0.84986061896E+02 -0.63295550533E+02  0.10920931027E+02  0.10661002096E+03  0.41800000000E+01 0. -1.
         -5    1    3    3    0  502  0.11544796853E+02  0.37445215966E+02  0.18976525247E+02  0.43737940550E+02  0.41800000000E+01 0. -1.
        -11    1    1    2    0    0  0.41942463224E+02  0.45712945724E+02 -0.80830660610E+02  0.10189425559E+03  0.00000000000E+00 0. -1.
         11    1    1    2    0    0  0.31498801820E+02 -0.19862611157E+02  0.96112907825E+01  0.38458740861E+02  0.00000000000E+00 0.  1.
</event>
<event>
 7    1  0.2844572E-009  0.1048633E+03  0.7561462E-02  0.1270389E+00
          1   -1    0    0  501    0  0.00000000000E+00  0.00000000000E+00  0.56343042985E+03  0.56343042985E+03  0.00000000000E+00 0. -1.
         -1   -1    0    0    0  501 -0.00000000000E+00 -0.00000000000E+00 -0.21157322191E+02  0.21157322191E+02  0.00000000000E+00 0.  1.
         25    2    1    2    0    0 -0.10618286409E+02 -0.12403757446E+02  0.32704740809E+03  0.35053427426E+03  0.12509064348E+03 0.  0.
          5    1    3    3  502    0 -0.63669247570E+02 -0.46215110293E+01  0.11318620205E+03  0.13001430761E+03  0.41800000000E+01 0.  1.
         -5    1    3    3    0  502  0.53050961161E+02 -0.77822464169E+01  0.21386120604E+03  0.22051996664E+03  0.41800000000E+01 0.  1.
        -11    1    1    2    0    0 -0.28688963683E+02  0.36071451489E+02  0.10741449785E+03  0.11688490321E+03  0.00000000000E+00 0.  1.
         11    1    1    2    0    0  0.39307250092E+02 -0.23667694043E+02  0.10781120172E+03  0.11716857457E+03  0.00000000000E+00 0. -1.
</event>
<event>
 7    1  0.2844572E-009  0.1447862E+03  0.7561462E-02  0.1207030E+00
         -1   -1    0    0    0  501 -0.00000000000E+00  0.00000000000E+00  0.66137834387E+03  0.66137834387E+03  0.00000000000E+00 0.  1.
          1   -1    0    0  501    0  0.00000000000E+00 -0.00000000000E+00 -0.46091470180E+02  0.46091470180E+02  0.00000000000E+00 0. -1.
         25    2    1    2    0    0  0.11031502998E+03  0.18858048317E+02  0.16954221984E+03  0.23857357834E+03  0.12509099147E+03 0.  0.
          5    1    3    3  502    0  0.13053422412E+03  0.70494841570E+01  0.17035768629E+03  0.21477451565E+03  0.41800000000E+01 0. -1.
         -5    1    3    3    0  502 -0.20219194144E+02  0.11808564160E+02 -0.81546644922E+00  0.23799062689E+02  0.41800000000E+01 0. -1.
        -11    1    1    2    0    0 -0.81606407710E+02  0.22499243778E+02  0.35667716394E+03  0.36658480741E+03  0.00000000000E+00 0. -1.
         11    1    1    2    0    0 -0.28708622267E+02 -0.41357292095E+02  0.89067489915E+02  0.10231142830E+03  0.00000000000E+00 0.  1.
</event>
<event>
 7    1  0.2844572E-009  0.1125382E+03  0.7561462E-02  0.1255941E+00
          2   -1    0    0  501    0  0.00000000000E+00  0.00000000000E+00  0.61161666184E+03  0.61161666184E+03  0.00000000000E+00 0. -1.
         -2   -1    0    0    0  501 -0.00000000000E+00 -0.00000000000E+00 -0.26888330535E+02  0.26888330535E+02  0.00000000000E+00 0.  1.
         25    2    1    2    0    0 -0.47071875094E+02  0.46563273872E+02  0.35846914023E+03  0.38539718270E+03  0.12508782529E+03 0.  0.
          5    1    3    3  502    0  0.24312625792E+02  0.32254207606E+02  0.25842433295E+03  0.26159519480E+03  0.41800000000E+01 0.  1.
         -5    1    3    3    0  502 -0.71384500886E+02  0.14309066267E+02  0.10004480728E+03  0.12380198790E+03  0.41800000000E+01 0.  1.
        -11    1    1    2    0    0 -0.22533454929E+02 -0.34039538272E+02  0.61549782114E+02  0.73856769731E+02  0.00000000000E+00 0.  1.
         11    1    1    2    0    0  0.69605330024E+02 -0.12523735600E+02  0.16470940896E+03  0.17925103995E+03  0.00000000000E+00 0. -1.
</event>
<event>
 7    1  0.2844572E-009  0.1909315E+03  0.7561462E-02  0.1157624E+00
         -1   -1    0    0    0  501 -0.00000000000E+00  0.00000000000E+00  0.19876329856E+03  0.19876329856E+03  0.00000000000E+00 0.  1.
          1   -1    0    0  501    0  0.00000000000E+00 -0.00000000000E+00 -0.21584963481E+03  0.21584963481E+03  0.00000000000E+00 0. -1.
         25    2    1    2    0    0 -0.43793404480E+02 -0.16894839932E+03 -0.36103113343E+02  0.21774426869E+03  0.12509079840E+03 0.  0.
          5    1    3    3  502    0 -0.58200454355E+02 -0.26488143375E+02  0.14715887130E+02  0.65749101596E+02  0.41800000000E+01 0. -1.
         -5    1    3    3    0  502  0.14407049875E+02 -0.14246025595E+03 -0.50819000473E+02  0.15199516709E+03  0.41800000000E+01 0. -1.
        -11    1    1    2    0    0  0.28979129608E+02  0.11020445590E+03  0.54867903316E+02  0.12647252218E+03  0.00000000000E+00 0.  1.
         11    1    1    2    0    0  0.14814274872E+02  0.58743943419E+02 -0.35851126221E+02  0.70396142506E+02  0.00000000000E+00 0. -1.
</event>
<event>
 7    1  0.2844572E-009  0.9085447E+02  0.7561462E-02  0.1300796E+00
          2   -1    0    0  501    0  0.00000000000E+00  0.00000000000E+00  0.85833836981E+03  0.85833836981E+03  0.00000000000E+00 0.  1.
         -2   -1    0    0    0  501 -0.00000000000E+00 -0.00000000000E+00 -0.16661470880E+02  0.16661470880E+02  0.00000000000E+00 0. -1.
         25    2    1    2    0    0 -0.89062595666E+01 -0.33026705276E+02  0.59940682371E+03  0.61327513032E+03  0.12509100862E+03 0.  0.
          5    1    3    3  502    0  0.30273318634E+02 -0.41118570458E+02  0.53426024626E+03  0.53671099652E+03  0.41800000000E+01 0.  1.
         -5    1    3    3    0  502 -0.39179578201E+02  0.80918651815E+01  0.65146577450E+02  0.76564133794E+02  0.41800000000E+01 0.  1.
        -11    1    1    2    0    0 -0.36646434639E+02  0.24024423151E+02  0.64403227616E+02  0.77896789452E+02  0.00000000000E+00 0.  1.
         11    1    1    2    0    0  0.45552694206E+02  0.90022821251E+01  0.17786684761E+03  0.18382792093E+03  0.00000000000E+00 0. -1.
</event>
<event>
 7    1  0.2844572E-009  0.1051864E+03  0.7561462E-02  0.1269753E+00
         -2   -1    0    0    0  501 -0.00000000000E+00  0.00000000000E+00  0.29841102231E+03  0.29841102231E+03  0.00000000000E+00 0.  1.
          2   -1    0    0  501    0  0.00000000000E+00 -0.00000000000E+00 -0.69643020972E+02  0.69643020972E+02  0.00000000000E+00 0. -1.
         25    2    1    2    0    0 -0.52134896867E+02 -0.58791924580E+02  0.19389288779E+03  0.24375476550E+03  0.12508955152E+03 0.  0.
          5    1    3    3  502    0  0.18604622650E+02 -0.20738371106E+02  0.14900149985E+03  0.15164145666E+03  0.41800000000E+01 0. -1.
         -5    1    3    3    0  502 -0.70739519517E+02 -0.38053553474E+02  0.44891387939E+02  0.92113308835E+02  0.41800000000E+01 0. -1.
        -11    1    1    2    0    0  0.25887121249E+02 -0.10296768845E+02  0.41621787707E+02  0.50085324269E+02  0.00000000000E+00 0.  1.
         11    1    1    2    0    0  0.26247775618E+02  0.69088693425E+02 -0.67466741626E+01  0.74213953515E+02  0.00000000000E+00 0. -1.
</event>
<event>
 6    1  0.2844572E-009  0.1816710E+03  0.7561462E-02  0.1166196E+00
          1   -1    0    0  501    0  0.00000000000E+00  0.00000000000E+00  0.12280311172E+03  0.12280311172E+03  0.00000000000E+00 0. -1.
         -1   -1    0    0    0  501 -0.00000000000E+00 -0.00000000000E+00 -0.29390683552E+03  0.29390683552E+03  0.00000000000E+00 0.  1.
          5    1    1    2  502    0  0.37263121125E+02 -0.30389391664E+02  0.11332080255E+02  0.49577653884E+02  0.41800000000E+01 0.  1.
         -5    1    1    2    0  502 -0.74488594201E+02 -0.11815865294E+03 -0.71839892307E+02  0.15712561999E+03  0.41800000000E+01 0.  1.
        -11    1    1    2    0    0  0.59282256887E+02  0.61035296730E+02 -0.73478806868E+02  0.11242254439E+03  0.00000000000E+00 0.  1.
         11    1    1    2    0    0 -0.22056783810E+02  0.87512747879E+02 -0.37117104875E+02  0.97584128974E+02  0.00000000000E+00 0. -1.
</event>
<event>
 7    1  0.2844572E-009  0.1149977E+03  0.7561462E-02  0.1251585E+00
          1   -1    0    0  501    0  0.00000000000E+00  0.00000000000E+00  0.10089634859E+03  0.10089634859E+03  0.00000000000E+00 0. -1.
         -1   -1    0    0    0  501 -0.00000000000E+00 -0.00000000000E+00 -0.13475591327E+03  0.13475591327E+03  0.00000000000E+00 0.  1.
         25    2    1    2    0    0  0.36837647890E+02 -0.52787234740E+01 -0.12983885702E+02  0.13115432182E+03  0.12509195666E+03 0.  0.
          5    1    3    3  502    0 -0.46189867698E+02  0.51500401886E+01 -0.65859848255E+01  0.47126153970E+02  0.41800000000E+01 0.  1.
         -5    1    3    3    0  502  0.83027515588E+02 -0.10428763663E+02 -0.63979008760E+01  0.84028167848E+02  0.41800000000E+01 0.  1.
        -11    1    1    2    0    0  0.28691141112E+02 -0.13026705662E+02 -0.18241950283E+02  0.36409413465E+02  0.00000000000E+00 0.  1.
         11    1    1    2    0    0 -0.65528789002E+02  0.18305429136E+02 -0.26337286917E+01  0.68088526572E+02  0.00000000000E+00 0. -1.
</event>
<event>
 7    1  0.2844572E-009  0.1086432E+03  0.7561462E-02  0.1263103E+00
          3   -1    0    0  501    0  0.00000000000E+00  0.00000000000E+00  0.22694256437E+03  0.22694256437E+03  0.00000000000E+00 0. -1.
         -3   -1    0    0    0  501 -0.00000000000E+00 -0.00000000000E+00 -0.63106556305E+02  0.63106556305E+02  0.00000000000E+00 0.  1.
         25    2    1    2    0    0 -0.20008664333E+02 -0.32223739678E+02  0.50097283897E+02  0.13998366871E+03  0.12508786354E+03 0.  0.
          5    1    3    3  502    0 -0.55185384751E+02 -0.55659328831E+02  0.59423871322E+01  0.78715766787E+02  0.41800000000E+01 0.  1.
         -5    1    3    3    0  502  0.35176720418E+02  0.23435589153E+02  0.44154896764E+02  0.61267901927E+02  0.41800000000E+01 0.  1.
        -11    1    1    2    0    0  0.51978934077E+02  0.15303873171E+01  0.74616068041E+02  0.90948937778E+02  0.00000000000E+00 0. -1.
         11    1    1    2    0    0 -0.31970269744E+02  0.30693352361E+02  0.39122656131E+02  0.59116514185E+02  0.00000000000E+00 0.  1.
</event>
<event>
 7    1  0.2844572E-009  0.2086614E+03  0.7561462E-02  0.1142630E+00
         -2   -1    0    0    0  501 -0.00000000000E+00  0.00000000000E+00  0.47445149377E+02  0.47445149377E+02  0.00000000000E+00 0.  1.
          2   -1    0    0  501    0  0.00000000000E+00 -0.00000000000E+00 -0.97075085716E+03  0.97075085716E+03  0.00000000000E+00 0. -1.
         25    2    1    2    0    0 -0.45545233191E+02  0.17349112254E+03 -0.37554178664E+03  0.43457189580E+03  0.12509021244E+03 0.  0.
          5    1    3    3  502    0 -0.63747596033E+02  0.26959776887E+02 -0.96300348038E+02  0.11866682351E+03  0.41800000000E+01 0.  1.
         -5    1    3    3    0  502  0.18202362842E+02  0.14653134565E+03 -0.27924143860E+03  0.31590507229E+03  0.41800000000E+01 0.  1.
        -11    1    1    2    0    0  0.11708857969E+02  0.89348068485E+01 -0.26400805550E+02  0.30231286146E+02  0.00000000000E+00 0.  1.
         11    1    1    2    0    0  0.33836375222E+02 -0.18242592938E+03 -0.52136311560E+03  0.55339282459E+03  0.00000000000E+00 0. -1.
</event>
<event>
 7    1  0.3542852E-009  0.2003306E+03  0.7561462E-02  0.1149460E+00
         -2   -1    0    0    0  501 -0.00000000000E+00  0.00000000000E+00  0.30325956602E+02  0.30325956602E+02  0.00000000000E+00 0.  1.
          2   -1    0    0  501    0  0.00000000000E+00 -0.00000000000E+00 -0.18055356521E+04  0.18055356521E+04  0.00000000000E+00 0. -1.
         25    2    1    2    0    0 -0.52057207147E+02 -0.18985432890E+03 -0.11666487042E+04  0.11897360141E+04  0.12509182724E+03 0.  0.
          5    1    3    3  502    0 -0.89310032301E+01 -0.12140745264E+03 -0.38279812643E+03  0.40171060526E+03  0.41800000000E+01 0. -1.
         -5    1    3    3    0  502 -0.43126203917E+02 -0.68446876263E+02 -0.78385057773E+03  0.78802540882E+03  0.41800000000E+01 0. -1.
        -11    1    1    2    0    0  0.21547350698E+02  0.11519749928E+03 -0.48206688948E+03  0.49610809114E+03  0.00000000000E+00 0.  1.
         11    1    1    2    0    0  0.30509856449E+02  0.74656829619E+02 -0.12649410189E+03  0.15001750352E+03  0.00000000000E+00 0. -1.
</event>
<event>
 7    1  0.2844572E-009  0.1061498E+03  0.7561462E-02  0.1267871E+00
         -2   -1    0    0    0  501 -0.00000000000E+00  0.00000000000E+00  0.64522738256E+02  0.64522738256E+02  0.00000000000E+00 0.  1.
          2   -1    0    0  501    0  0.00000000000E+00 -0.00000000000E+00 -0.33206624343E+03  0.33206624343E+03  0.00000000000E+00 0. -1.
         25    2    1    2    0    0 -0.77099228971E+02 -0.34562726668E+02 -0.21185809157E+03  0.26013493546E+03  0.12508980974E+03 0.  0.
          5    1    3    3  502    0 -0.56537296590E+02 -0.19266711329E+01 -0.13889454254E+02  0.58400062559E+02  0.41800000000E+01 0. -1.
         -5    1    3    3    0  502 -0.20561932381E+02 -0.32636055535E+02 -0.19796863732E+03  0.20173487290E+03  0.41800000000E+01 0. -1.
        -11    1    1    2    0    0  0.84684400898E+02  0.50871576326E+02 -0.62856194881E+02  0.11709084622E+03  0.00000000000E+00 0. -1.
         11    1    1    2    0    0 -0.75851719275E+01 -0.16308849658E+02  0.71707812766E+01  0.19363200006E+02  0.00000000000E+00 0.  1.
</event>
<event>
 7    1  0.2844572E-009  0.1325982E+03  0.7561462E-02  0.1223651E+00
          2   -1    0    0  501    0  0.00000000000E+00  0.00000000000E+00  0.21263137243E+03  0.21263137243E+03  0.00000000000E+00 0. -1.
         -2   -1    0    0    0  501 -0.00000000000E+00 -0.00000000000E+00 -0.11969251071E+03  0.11969251071E+03  0.00000000000E+00 0.  1.
         25    2    1    2    0    0 -0.75204162169E+02 -0.68726263836E+02 -0.10218894837E+02  0.16165073287E+03  0.12509024054E+03 0.  0.
          5    1    3    3  502    0 -0.40599490836E+02  0.33748781114E+02 -0.35445461616E+00  0.52961277561E+02  0.41800000000E+01 0. -1.
         -5    1    3    3    0  502 -0.34604671332E+02 -0.10247504495E+03 -0.98644402209E+01  0.10868945531E+03  0.41800000000E+01 0. -1.
        -11    1    1    2    0    0  0.44923856136E+02  0.54240600136E+02  0.93572824468E+01  0.71047549486E+02  0.00000000000E+00 0. -1.
         11    1    1    2    0    0  0.30280306033E+02  0.14485663700E+02  0.93800474111E+02  0.99625600774E+02  0.00000000000E+00 0.  1.
</event>
<event>
 7    1  0.2844572E-009  0.1267750E+03  0.7561462E-02  0.1232321E+00
          2   -1    0    0  501    0  0.00000000000E+00  0.00000000000E+00  0.38890696110E+02  0.38890696110E+02  0.00000000000E+00 0. -1.
         -2   -1    0    0    0  501 -0.00000000000E+00 -0.00000000000E+00 -0.60086387286E+03  0.60086387286E+03  0.00000000000E+00 0.  1.
         25    2    1    2    0    0  0.78635958687E+02 -0.30546155217E+02 -0.43603766495E+03  0.46140304502E+03  0.12508894077E+03 0.  0.
          5    1    3    3  502    0  0.27736321443E+02  0.38803626162E+02 -0.66388365256E+02  0.81852992443E+02  0.41800000000E+01 0. -1.
         -5    1    3    3    0  502  0.50899637244E+02 -0.69349781379E+02 -0.36964929970E+03  0.37955005258E+03  0.41800000000E+01 0. -1.
        -11    1    1    2    0    0 -0.16652199966E+02  0.51491539207E+02 -0.28987842816E+02  0.61391932734E+02  0.00000000000E+00 0. -1.
         11    1    1    2    0    0 -0.61983758721E+02 -0.20945383990E+02 -0.96947668985E+02  0.11695959122E+03  0.00000000000E+00 0.  1.
</event>
<event>
 7    1  0.2844572E-009  0.1732328E+03  0.7561462E-02  0.1174518E+00
          1   -1    0    0  501    0  0.00000000000E+00  0.00000000000E+00  0.12474101745E+03  0.12474101745E+03  0.00000000000E+00 0. -1.
         -1   -1    0    0    0  501 -0.00000000000E+00 -0.00000000000E+00 -0.31073401917E+03  0.31073401917E+03  0.00000000000E+00 0.  1.
         25    2    1    2    0    0  0.14014311391E+03  0.53952243141E+02 -0.28459020212E+02  0.19748564675E+03  0.12505889782E+03 0.  0.
          5    1    3    3  502    0  0.11642084034E+02  0.38238314155E+02 -0.52121109334E+02  0.65816329496E+02  0.41800000000E+01 0.  1.
         -5    1    3    3    0  502  0.12850102988E+03  0.15713928987E+02  0.23662089122E+02  0.13166931725E+03  0.41800000000E+01 0.  1.
        -11    1    1    2    0    0 -0.11349968760E+03 -0.80491989053E+02 -0.10996728866E+03  0.17735259784E+03  0.00000000000E+00 0. -1.
         11    1    1    2    0    0 -0.26643426317E+02  0.26539745912E+02 -0.47566692851E+02  0.60636792030E+02  0.00000000000E+00 0.  1.
</event>
<event>
 7    1  0.2844572E-009  0.1284097E+03  0.7561462E-02  0.1229835E+00
         -1   -1    0    0    0  501 -0.00000000000E+00  0.00000000000E+00  0.51051397283E+02  0.51051397283E+02  0.00000000000E+00 0.  1.
          1   -1    0    0  501    0  0.00000000000E+00 -0.00000000000E+00 -0.45751154576E+03  0.45751154576E+03  0.00000000000E+00 0. -1.
         25    2    1    2    0    0 -0.37056155342E+02  0.64194147905E+02 -0.90284621523E+02  0.17115133910E+03  0.12508965072E+03 0.  0.
          5    1    3    3  502    0 -0.43303735872E+02  0.99811757312E+02 -0.64639799402E+02  0.12662296989E+03  0.41800000000E+01 0. -1.
         -5    1    3    3    0  502  0.62475805295E+01 -0.35617609407E+02 -0.25644822120E+02  0.44528369203E+02  0.41800000000E+01 0. -1.
        -11    1    1    2    0    0  0.67243176785E+01 -0.77943839095E+02 -0.26538842141E+03  0.27667936807E+03  0.00000000000E+00 0.  1.
         11    1    1    2    0    0  0.30331837664E+02  0.13749691190E+02 -0.50787105549E+02  0.60732235872E+02  0.00000000000E+00 0. -1.
</event>
<event>
 7    1  0.2844572E-009  0.1192543E+03  0.7561462E-02  0.1244332E+00
          2   -1    0    0  501    0  0.00000000000E+00  0.00000000000E+00  0.68044135686E+02  0.68044135686E+02  0.00000000000E+00 0. -1.
         -2   -1    0    0    0  501 -0.00000000000E+00 -0.00000000000E+00 -0.23834534234E+03  0.23834534234E+03  0.00000000000E+00 0.  1.
         25    2    1    2    0    0 -0.17498602073E+01 -0.67178977400E+02 -0.89057882455E+02  0.16759366788E+03  0.12506100140E+03 0.  0.
          5    1    3    3  502    0  0.25758544283E+02 -0.97389764412E+02 -0.60771886951E+02  0.11772409889E+03  0.41800000000E+01 0. -1.
         -5    1    3    3    0  502 -0.27508404490E+02  0.30210787012E+02 -0.28285995504E+02  0.49869568989E+02  0.41800000000E+01 0. -1.
        -11    1    1    2    0    0  0.34311653096E+02  0.47392981055E+02 -0.81942565985E+02  0.10068747843E+03  0.00000000000E+00 0.  1.
         11    1    1    2    0    0 -0.32561792889E+02  0.19785996345E+02  0.69924178616E+00  0.38108331721E+02  0.00000000000E+00 0. -1.
</event>
<event>
 7    1  0.2844572E-009  0.2505878E+03  0.7561462E-02  0.1112934E+00
          2   -1    0    0  501    0  0.00000000000E+00  0.00000000000E+00  0.67100933946E+03  0.67100933946E+03  0.00000000000E+00 0. -1.
         -2   -1    0    0    0  501 -0.00000000000E+00 -0.00000000000E+00 -0.13995067089E+03  0.13995067089E+03  0.00000000000E+00 0.  1.
         25    2    1    2    0    0  0.75588200572E+02 -0.23005234023E+03  0.70412759134E+02  0.28150405157E+03  0.12509563979E+03 0.  0.
          5    1    3    3  502    0  0.75556852096E+01 -0.63184890144E+02 -0.34945788113E+02  0.72719318124E+02  0.41800000000E+01 0. -1.
         -5    1    3    3    0  502  0.68032515363E+02 -0.16686745008E+03  0.10535854725E+03  0.20878473345E+03  0.41800000000E+01 0. -1.
        -11    1    1    2    0    0  0.19655863222E+02  0.38511319344E+02  0.11627747589E+03  0.12405614082E+03  0.00000000000E+00 0.  1.
         11    1    1    2    0    0 -0.95244063794E+02  0.19154102088E+03  0.34436843354E+03  0.40539981795E+03  0.00000000000E+00 0. -1.
</event>
<event>
 7    1  0.2844572E-009  0.9761933E+02  0.7561462E-02  0.1285383E+00
         -2   -1    0    0    0  501 -0.00000000000E+00  0.00000000000E+00  0.35669656659E+02  0.35669656659E+02  0.00000000000E+00 0.  1.
          2   -1    0    0  501    0  0.00000000000E+00 -0.00000000000E+00 -0.10227973007E+04  0.10227973007E+04  0.00000000000E+00 0. -1.
         25    2    1    2    0    0 -0.25441864130E+02  0.65363873636E+01 -0.94924999512E+03  0.95781586953E+03  0.12508266818E+03 0.  0.
          5    1    3    3  502    0 -0.49544949714E+02 -0.41598919729E+02 -0.68781168703E+03  0.69086001576E+03  0.41800000000E+01 0.  1.
         -5    1    3    3    0  502  0.24103085584E+02  0.48135307093E+02 -0.26143830809E+03  0.26695585377E+03  0.41800000000E+01 0.  1.
        -11    1    1    2    0    0 -0.99924189832E+01 -0.31515923019E+02  0.11441353591E+02  0.34985803019E+02  0.00000000000E+00 0.  1.
         11    1    1    2    0    0  0.35434283113E+02  0.24979535656E+02 -0.49319002535E+02  0.65665284835E+02  0.00000000000E+00 0. -1.
</event>
<event>
 7    1  0.2844572E-009  0.1068851E+03  0.7561462E-02  0.1266449E+00
          4   -1    0    0  501    0  0.00000000000E+00  0.00000000000E+00  0.64287453331E+02  0.64287453331E+02  0.00000000000E+00 0.  1.
         -4   -1    0    0    0  501 -0.00000000000E+00 -0.00000000000E+00 -0.22992112027E+03  0.22992112027E+03  0.00000000000E+00 0. -1.
         25    2    1    2    0    0 -0.21479292610E+02 -0.47169045721E+02 -0.68713542693E+02  0.15183713894E+03  0.12508671763E+03 0.  0.
          5    1    3    3  502    0 -0.29786883547E+02 -0.74865165704E+02 -0.39378866969E+01  0.80777662872E+02  0.41800000000E+01 0.  1.
         -5    1    3    3    0  502  0.83075909368E+01  0.27696119984E+02 -0.64775655996E+02  0.71059476068E+02  0.41800000000E+01 0.  1.
        -11    1    1    2    0    0 -0.25518124258E+02 -0.12091809334E+02 -0.20866700479E+02  0.35111333035E+02  0.00000000000E+00 0.  1.
         11    1    1    2    0    0  0.46997416867E+02  0.59260855055E+02 -0.76053423764E+02  0.10726010162E+03  0.00000000000E+00 0. -1.
</event>
<event>
 7    1  0.2844572E-009  0.9724513E+02  0.7561462E-02  0.1286198E+00
          1   -1    0    0  501    0  0.00000000000E+00  0.00000000000E+00  0.36947997082E+03  0.36947997082E+03  0.00000000000E+00 0. -1.
         -1   -1    0    0    0  501 -0.00000000000E+00 -0.00000000000E+00 -0.38874424229E+02  0.38874424229E+02  0.00000000000E+00 0.  1.
         25    2    1    2    0    0 -0.39306662720E+02  0.12969917631E+02  0.13320187852E+03  0.18734653631E+03  0.12507098675E+03 0.  0.
          5    1    3    3  502    0  0.34676260314E+02  0.33712808502E+02  0.80759354884E+02  0.94226017043E+02  0.41800000000E+01 0. -1.
         -5    1    3    3    0  502 -0.73982923034E+02 -0.20742890871E+02  0.52442523636E+02  0.93120519262E+02  0.41800000000E+01 0. -1.
        -11    1    1    2    0    0  0.26807283747E+02  0.20190001890E+02  0.17692292625E+03  0.18007772898E+03  0.00000000000E+00 0. -1.
         11    1    1    2    0    0  0.12499378972E+02 -0.33159919522E+02  0.20480741813E+02  0.40930129765E+02  0.00000000000E+00 0.  1.
</event>
<event>
 7    1  0.2844572E-009  0.1788769E+03  0.7561462E-02  0.1168894E+00
         -1   -1    0    0    0  501 -0.00000000000E+00  0.00000000000E+00  0.11727650018E+03  0.11727650018E+03  0.00000000000E+00 0.  1.
          1   -1    0    0  501    0  0.00000000000E+00 -0.00000000000E+00 -0.44292462972E+03  0.44292462972E+03  0.00000000000E+00 0. -1.
         25    2    1    2    0    0 -0.15969868072E+03 -0.75581141822E+02 -0.53444295605E+02  0.22298073199E+03  0.12509171229E+03 0.  0.
          5    1    3    3  502    0 -0.22425711472E+02 -0.69006663221E+01  0.37562540677E+02  0.44485375045E+02  0.41800000000E+01 0. -1.
         -5    1    3    3    0  502 -0.13727296924E+03 -0.68680475500E+02 -0.91006836282E+02  0.17849535694E+03  0.41800000000E+01 0. -1.
        -11    1    1    2    0    0  0.61971019845E+02  0.10245198493E+02 -0.33611883261E+02  0.71239947285E+02  0.00000000000E+00 0.  1.
         11    1    1    2    0    0  0.97727660871E+02  0.65335943330E+02 -0.23859195067E+03  0.26598045063E+03  0.00000000000E+00 0. -1.
</event>
<event>
 7    1  0.2844572E-009  0.1398365E+03  0.7561462E-02  0.1213549E+00
          1   -1    0    0  501    0  0.00000000000E+00  0.00000000000E+00  0.59366370042E+03  0.59366370042E+03  0.00000000000E+00 0. -1.
         -1   -1    0    0    0  501 -0.00000000000E+00 -0.00000000000E+00 -0.39242477260E+02  0.39242477260E+02  0.00000000000E+00 0.  1.
         25    2    1    2    0    0 -0.83629704172E+02  0.64071424132E+02  0.32662975379E+03  0.36528577118E+03  0.12509046227E+03 0.  0.
          5    1    3    3  502    0 -0.28024944752E+02  0.91353810287E+02  0.24290214402E+03  0.26105524348E+03  0.41800000000E+01 0. -1.
         -5    1    3    3    0  502 -0.55604759420E+02 -0.27282386155E+02  0.83727609776E+02  0.10423052769E+03  0.41800000000E+01 0. -1.
        -11    1    1    2    0    0  0.83929586548E+02 -0.31919382714E+02  0.21503268393E+03  0.23302806194E+03  0.00000000000E+00 0.  1.
         11    1    1    2    0    0 -0.29988237601E+00 -0.32152041418E+02  0.12758785434E+02  0.34592344565E+02  0.00000000000E+00 0. -1.
</event>
<event>
 7    1  0.2844572E-009  0.2769652E+03  0.7561462E-02  0.1097358E+00
          2   -1    0    0  501    0  0.00000000000E+00  0.00000000000E+00  0.10177570745E+04  0.10177570745E+04  0.00000000000E+00 0. -1.
         -2   -1    0    0    0  501 -0.00000000000E+00 -0.00000000000E+00 -0.84449133705E+02  0.84449133705E+02  0.00000000000E+00 0.  1.
         25    2    1    2    0    0  0.10224514986E+03 -0.24969373731E+03  0.41141754926E+03  0.50765522499E+03  0.12509354298E+03 0.  0.
          5    1    3    3  502    0  0.84568666867E+02 -0.13573768570E+03  0.13947890465E+03  0.21224612123E+03  0.41800000000E+01 0. -1.
         -5    1    3    3    0  502  0.17676482991E+02 -0.11395605161E+03  0.27193864461E+03  0.29540910375E+03  0.41800000000E+01 0. -1.
        -11    1    1    2    0    0  0.93408468293E+01  0.39371761599E+02  0.39218997978E+02  0.56351724315E+02  0.00000000000E+00 0.  1.
         11    1    1    2    0    0 -0.11158599669E+03  0.21032197571E+03  0.48267139357E+03  0.53819925891E+03  0.00000000000E+00 0. -1.
</event>
<event>
 7    1  0.2844572E-009  0.5200984E+02  0.7561462E-02  0.1434793E+00
         -1   -1    0    0    0  501 -0.00000000000E+00  0.00000000000E+00  0.12507239855E+03  0.12507239855E+03  0.00000000000E+00 0.  1.
          1   -1    0    0  501    0  0.00000000000E+00 -0.00000000000E+00 -0.12730992195E+03  0.12730992195E+03  0.00000000000E+00 0. -1.
         25    2    1    2    0    0 -0.11225839446E+02  0.77640941072E+01  0.61596886036E+02  0.14009978979E+03  0.12508986410E+03 0.  0.
          5    1    3    3  502    0 -0.26033827398E+01  0.52300856872E+01  0.10009184194E+03  0.10034929308E+03  0.41800000000E+01 0. -1.
         -5    1    3    3    0  502 -0.86224567058E+01  0.25340084200E+01 -0.38494955906E+02  0.39750496708E+02  0.41800000000E+01 0. -1.
        -11    1    1    2    0    0 -0.54012599517E+01 -0.45431019874E+02 -0.14434889178E+02  0.47974130544E+02  0.00000000000E+00 0.  1.
         11    1    1    2    0    0  0.16627099397E+02  0.37666925767E+02 -0.49399520260E+02  0.64308400175E+02  0.00000000000E+00 0. -1.
</event>
<event>
 7    1  0.2844572E-009  0.1072253E+03  0.7561462E-02  0.1265796E+00
         -1   -1    0    0    0  501 -0.00000000000E+00  0.00000000000E+00  0.12587752200E+03  0.12587752200E+03  0.00000000000E+00 0.  1.
          1   -1    0    0  501    0  0.00000000000E+00 -0.00000000000E+00 -0.13812534117E+03  0.13812534117E+03  0.00000000000E+00 0. -1.
         25    2    1    2    0    0 -0.26065628312E+02 -0.64239568793E+02  0.22263961964E+02  0.14474038711E+03  0.12509179221E+03 0.  0.
          5    1    3    3  502    0  0.18594563623E+02  0.11093032218E+02  0.48454557239E+02  0.53236544566E+02  0.41800000000E+01 0. -1.
         -5    1    3    3    0  502 -0.44660191935E+02 -0.75332601012E+02 -0.26190595275E+02  0.91503842541E+02  0.41800000000E+01 0. -1.
        -11    1    1    2    0    0 -0.38853666707E+01 -0.17365696866E+02 -0.26561702302E+02  0.31971667629E+02  0.00000000000E+00 0. -1.
         11    1    1    2    0    0  0.29950994983E+02  0.81605265659E+02 -0.79500788358E+01  0.87290808435E+02  0.00000000000E+00 0.  1.
</event>
<event>
 7    1  0.2844572E-009  0.7680454E+02  0.7561462E-02  0.1338372E+00
          1   -1    0    0  501    0  0.00000000000E+00  0.00000000000E+00  0.25138675512E+03  0.25138675512E+03  0.00000000000E+00 0. -1.
         -1   -1    0    0    0  501 -0.00000000000E+00 -0.00000000000E+00 -0.70032075878E+02  0.70032075878E+02  0.00000000000E+00 0.  1.
         25    2    1    2    0    0 -0.73684632906E+01  0.21496171241E+02  0.19053998367E+03  0.22903863178E+03  0.12504731042E+03 0.  0.
          5    1    3    3  502    0 -0.67588611320E+01  0.57149264557E+02  0.18362429542E+03  0.19247616713E+03  0.41800000000E+01 0. -1.
         -5    1    3    3    0  502 -0.60960215851E+00 -0.35653093316E+02  0.69156882471E+01  0.36562464656E+02  0.41800000000E+01 0. -1.
        -11    1    1    2    0    0  0.29044008945E+02  0.60619272271E+00 -0.39513113040E+02  0.49042920257E+02  0.00000000000E+00 0.  1.
         11    1    1    2    0    0 -0.21675545655E+02 -0.22102363964E+02  0.30327808617E+02  0.43337278960E+02  0.00000000000E+00 0. -1.
</event>
<event>
 7    1  0.2844572E-009  0.8732990E+02  0.7561462E-02  0.1309450E+00
         -2   -1    0    0    0  501 -0.00000000000E+00  0.00000000000E+00  0.36726159493E+02  0.36726159493E+02  0.00000000000E+00 0.  1.
          2   -1    0    0  501    0  0.00000000000E+00 -0.00000000000E+00 -0.34673697299E+03  0.34673697299E+03  0.00000000000E+00 0. -1.
         25    2    1    2    0    0 -0.13251463765E+02  0.12462901109E+02 -0.24195623619E+03  0.27298545178E+03  0.12508921399E+03 0.  0.
          5    1    3    3  502    0 -0.49597450248E+02 -0.36787924993E+02 -0.15180838802E+03  0.16394059159E+03  0.41800000000E+01 0.  1.
         -5    1    3    3    0  502  0.36345986483E+02  0.49250826103E+02 -0.90147848167E+02  0.10904486019E+03  0.41800000000E+01 0.  1.
        -11    1    1    2    0    0  0.15982280203E+02  0.16120729692E+02  0.11823807339E+02  0.25595187561E+02  0.00000000000E+00 0.  1.
         11    1    1    2    0    0 -0.27308164379E+01 -0.28583630802E+02 -0.79878384644E+02  0.84882493139E+02  0.00000000000E+00 0. -1.
</event>
<event>
 7    1  0.2844572E-009  0.1405447E+03  0.7561462E-02  0.1212598E+00
          2   -1    0    0  501    0  0.00000000000E+00  0.00000000000E+00  0.13846491783E+04  0.13846491783E+04  0.00000000000E+00 0. -1.
         -2   -1    0    0    0  501 -0.00000000000E+00 -0.00000000000E+00 -0.14718912761E+02  0.14718912761E+02  0.00000000000E+00 0.  1.
         25    2    1    2    0    0  0.84147231983E+02  0.34703669978E+02  0.62965777747E+03  0.64838325004E+03  0.12508725291E+03 0.  0.
          5    1    3    3  502    0  0.89128773613E+01  0.70566536436E+02  0.29016820558E+03  0.29878777648E+03  0.41800000000E+01 0.  1.
         -5    1    3    3    0  502  0.75234354622E+02 -0.35862866458E+02  0.33948957189E+03  0.34959547355E+03  0.41800000000E+01 0.  1.
        -11    1    1    2    0    0 -0.25048071806E+02 -0.57756333260E+02  0.37068466667E+03  0.37599244944E+03  0.00000000000E+00 0.  1.
         11    1    1    2    0    0 -0.59099160177E+02  0.23052663282E+02  0.36958782140E+03  0.37499239158E+03  0.00000000000E+00 0. -1.
</event>
<event>
 7    1  0.2844572E-009  0.1582317E+03  0.7561462E-02  0.1190708E+00
         -3   -1    0    0    0  501 -0.00000000000E+00  0.00000000000E+00  0.47207553914E+03  0.47207553914E+03  0.00000000000E+00 0.  1.
          3   -1    0    0  501    0  0.00000000000E+00 -0.00000000000E+00 -0.62967171207E+02  0.62967171207E+02  0.00000000000E+00 0. -1.
         25    2    1    2    0    0 -0.12596803854E+03  0.42569318403E+02  0.23717627843E+03  0.29929801601E+03  0.12508645705E+03 0.  0.
          5    1    3    3  502    0 -0.46596405835E+01  0.33340301822E+02  0.13850755112E+03  0.14260119948E+03  0.41800000000E+01 0. -1.
         -5    1    3    3    0  502 -0.12130839796E+03  0.92290165808E+01  0.98668727302E+02  0.15669681652E+03  0.41800000000E+01 0. -1.
        -11    1    1    2    0    0  0.65108609649E+02 -0.68634630272E+02  0.92097098025E+02  0.13202923535E+03  0.00000000000E+00 0.  1.
         11    1    1    2    0    0  0.60859428890E+02  0.26065311870E+02  0.79834991479E+02  0.10371545898E+03  0.00000000000E+00 0. -1.
</event>
<event>
 7    1  0.2844572E-009  0.1171686E+03  0.7561462E-02  0.1247842E+00
          2   -1    0    0  501    0  0.00000000000E+00  0.00000000000E+00  0.19166390819E+03  0.19166390819E+03  0.00000000000E+00 0. -1.
         -2   -1    0    0    0  501 -0.00000000000E+00 -0.00000000000E+00 -0.72683636442E+02  0.72683636442E+02  0.00000000000E+00 0.  1.
         25    2    1    2    0    0 -0.47171158140E+02  0.55336817780E+01  0.61047265119E+02  0.14706946292E+03  0.12508764348E+03 0.  0.
          5    1    3    3  502    0 -0.86569057206E+02  0.22869840141E+02  0.32966532482E+02  0.95506522906E+02  0.41800000000E+01 0.  1.
         -5    1    3    3    0  502  0.39397899066E+02 -0.17336158363E+02  0.28080732637E+02  0.51562940016E+02  0.41800000000E+01 0.  1.
        -11    1    1    2    0    0  0.28801959621E+02  0.41754151485E+02  0.34853448991E+02  0.61544495699E+02  0.00000000000E+00 0. -1.
         11    1    1    2    0    0  0.18369198519E+02 -0.47287833263E+02  0.23079557638E+02  0.55733586012E+02  0.00000000000E+00 0.  1.
</event>
<event>
 7    1  0.2844572E-009  0.1058567E+03  0.7561462E-02  0.1268441E+00
          1   -1    0    0  501    0  0.00000000000E+00  0.00000000000E+00  0.74908175199E+03  0.74908175199E+03  0.00000000000E+00 0. -1.
         -1   -1    0    0    0  501 -0.00000000000E+00 -0.00000000000E+00 -0.19390423032E+02  0.19390423032E+02  0.00000000000E+00 0.  1.
         25    2    1    2    0    0  0.34840774676E+02 -0.23396780620E+02  0.51447993878E+03  0.53112925644E+03  0.12508953083E+03 0.  0.
          5    1    3    3  502    0  0.57574133342E+02  0.29511911711E+02  0.17192884549E+03  0.18374638520E+03  0.41800000000E+01 0.  1.
         -5    1    3    3    0  502 -0.22733358666E+02 -0.52908692331E+02  0.34255109328E+03  0.34738287124E+03  0.41800000000E+01 0.  1.
        -11    1    1    2    0    0 -0.56160449463E+02  0.33667749741E+02  0.19665706978E+03  0.20727160093E+03  0.00000000000E+00 0. -1.
         11    1    1    2    0    0  0.21319674787E+02 -0.10270969122E+02  0.18554320402E+02  0.30071317652E+02  0.00000000000E+00 0.  1.
</event>
<event>
 7    1  0.2844572E-009  0.1089255E+03  0.7561462E-02  0.1262573E+00
          1   -1    0    0  501    0  0.00000000000E+00  0.00000000000E+00  0.12779414962E+04  0.12779414962E+04  0.00000000000E+00 0. -1.
         -1   -1    0    0    0  501 -0.00000000000E+00 -0.00000000000E+00 -0.98968394620E+01  0.98968394620E+01  0.00000000000E+00 0.  1.
         25    2    1    2    0    0  0.21376874855E+00 -0.24625780315E+02  0.86530721308E+03  0.87464881000E+03  0.12508993991E+03 0.  0.
          5    1    3    3  502    0 -0.61356559043E+02 -0.20307086950E+02  0.49322770051E+03  0.49746159859E+03  0.41800000000E+01 0. -1.
         -5    1    3    3    0  502  0.61570327792E+02 -0.43186933656E+01  0.37207951257E+03  0.37718721141E+03  0.41800000000E+01 0. -1.
        -11    1    1    2    0    0  0.37127620558E+02 -0.11899969630E+02  0.20464716375E+03  0.20832794127E+03  0.00000000000E+00 0.  1.
         11    1    1    2    0    0 -0.37341389306E+02  0.36525749945E+02  0.19809027990E+03  0.20486158438E+03  0.00000000000E+00 0. -1.
</event>
<event>
 7    1  0.2844572E-009  0.1076025E+03  0.7561462E-02  0.1265075E+00
          1   -1    0    0  501    0  0.00000000000E+00  0.00000000000E+00  0.76224741661E+03  0.76224741661E+03  0.00000000000E+00 0. -1.
         -1   -1    0    0    0  501 -0.00000000000E+00 -0.00000000000E+00 -0.17147204710E+02  0.17147204710E+02  0.00000000000E+00 0.  1.
         25    2    1    2    0    0  0.36485196809E+01  0.33596030001E+02  0.37366774948E+03  0.39549394392E+03  0.12508344314E+03 0.  0.
          5    1    3    3  502    0  0.59134362321E+02 -0.44172303266E+01  0.21595338512E+03  0.22398598544E+03  0.41800000000E+01 0.  1.
         -5    1    3    3    0  502 -0.55485842640E+02  0.38013260327E+02  0.15771436436E+03  0.17150795848E+03  0.41800000000E+01 0.  1.
        -11    1    1    2    0    0 -0.85833389874E+01 -0.60455405363E+02  0.31890670272E+03  0.32469988418E+03  0.00000000000E+00 0.  1.
         11    1    1    2    0    0  0.49348193065E+01  0.26859375362E+02  0.52525759708E+02  0.59200793233E+02  0.00000000000E+00 0. -1.
</event>
<event>
 7    1  0.2844572E-009  0.1925470E+03  0.7561462E-02  0.1156184E+00
         -1   -1    0    0    0  501 -0.00000000000E+00  0.00000000000E+00  0.23851049211E+03  0.23851049211E+03  0.00000000000E+00 0.  1.
          1   -1    0    0  501    0  0.00000000000E+00 -0.00000000000E+00 -0.25892588888E+03  0.25892588888E+03  0.00000000000E+00 0. -1.
         25    2    1    2    0    0  0.28674496278E+02 -0.17404969226E+03  0.12670813943E+03  0.25063630639E+03  0.12509229940E+03 0.  0.
          5    1    3    3  502    0  0.55000142192E+02 -0.16444689213E+03  0.13643547855E+03  0.22068055687E+03  0.41800000000E+01 0.  1.
         -5    1    3    3    0  502 -0.26325645914E+02 -0.96028001356E+01 -0.97273391190E+01  0.29955749524E+02  0.41800000000E+01 0.  1.
        -11    1    1    2    0    0 -0.39787800011E+02  0.16242901906E+03 -0.95169876871E+02  0.19241507406E+03  0.00000000000E+00 0. -1.
         11    1    1    2    0    0  0.11113303733E+02  0.11620673206E+02 -0.51953659328E+02  0.54385000535E+02  0.00000000000E+00 0.  1.
</event>
<event>
 7    1  0.2844572E-009  0.2942923E+03  0.7561462E-02  0.1088129E+00
         -1   -1    0    0    0  501 -0.00000000000E+00  0.00000000000E+00  0.13305804184E+03  0.13305804184E+03  0.00000000000E+00 0.  1.
          1   -1    0    0  501    0  0.00000000000E+00 -0.00000000000E+00 -0.68290771220E+03  0.68290771220E+03  0.00000000000E+00 0. -1.
         25    2    1    2    0    0  0.19475678581E+03 -0.19236397652E+03 -0.36621216272E+03  0.47401734367E+03  0.12508792465E+03 0.  0.
          5    1    3    3  502    0  0.15756787095E+03 -0.70429244557E+02 -0.19365052114E+03  0.25943382428E+03  0.41800000000E+01 0.  1.
         -5    1    3    3    0  502  0.37188914860E+02 -0.12193473196E+03 -0.17256164158E+03  0.21458351939E+03  0.41800000000E+01 0.  1.
        -11    1    1    2    0    0 -0.19293265327E+03  0.14588471741E+03 -0.15657117960E+03  0.28813172986E+03  0.00000000000E+00 0. -1.
         11    1    1    2    0    0 -0.18241325326E+01  0.46479259113E+02 -0.27066328048E+02  0.53816680511E+02  0.00000000000E+00 0.  1.
</event>
<event>
 7    1  0.2844572E-009  0.2081404E+03  0.7561462E-02  0.1143047E+00
         -2   -1    0    0    0  501 -0.00000000000E+00  0.00000000000E+00  0.58006587280E+02  0.58006587280E+02  0.00000000000E+00 0.  1.
          2   -1    0    0  501    0  0.00000000000E+00 -0.00000000000E+00 -0.82078487454E+03  0.82078487454E+03  0.00000000000E+00 0. -1.
         25    2    1    2    0    0 -0.11594434989E+03 -0.14898726140E+03 -0.41329605011E+03  0.47127495402E+03  0.12508461502E+03 0.  0.
          5    1    3    3  502    0 -0.14101976737E+03 -0.11824022664E+03 -0.36364713394E+03  0.40758316502E+03  0.41800000000E+01 0. -1.
         -5    1    3    3    0  502  0.25075417484E+02 -0.30747034760E+02 -0.49648916175E+02  0.63691788999E+02  0.41800000000E+01 0. -1.
        -11    1    1    2    0    0  0.57606124162E+02  0.45099404096E+02 -0.60497926571E+02  0.94933771178E+02  0.00000000000E+00 0.  1.
         11    1    1    2    0    0  0.58338225727E+02  0.10388785730E+03 -0.28898431058E+03  0.31258273663E+03  0.00000000000E+00 0. -1.
</event>
<event>
 7    1  0.2844572E-009  0.9879249E+02  0.7561462E-02  0.1282856E+00
         -2   -1    0    0    0  501 -0.00000000000E+00  0.00000000000E+00  0.36146042652E+03  0.36146042652E+03  0.00000000000E+00 0.  1.
          2   -1    0    0  501    0  0.00000000000E+00 -0.00000000000E+00 -0.46533366020E+02  0.46533366020E+02  0.00000000000E+00 0. -1.
         25    2    1    2    0    0  0.59765889917E+01 -0.46956147088E+02  0.25415557967E+03  0.28719753913E+03  0.12508704345E+03 0.  0.
          5    1    3    3  502    0 -0.54609943035E+02 -0.55257863357E+01  0.71012923518E+02  0.89850363936E+02  0.41800000000E+01 0. -1.
         -5    1    3    3    0  502  0.60586532026E+02 -0.41430360752E+02  0.18314265615E+03  0.19734717519E+03  0.41800000000E+01 0. -1.
        -11    1    1    2    0    0 -0.26985689801E+02  0.36937742887E+02  0.78961913483E+02  0.91255729051E+02  0.00000000000E+00 0.  1.
         11    1    1    2    0    0  0.21009100809E+02  0.10018404201E+02 -0.18190432650E+02  0.29540524361E+02  0.00000000000E+00 0. -1.
</event>
<event>
 7    1  0.2844572E-009  0.9384394E+02  0.7561462E-02  0.1293801E+00
         -2   -1    0    0    0  501 -0.00000000000E+00  0.00000000000E+00  0.21224761882E+02  0.21224761882E+02  0.00000000000E+00 0.  1.
          2   -1    0    0  501    0  0.00000000000E+00 -0.00000000000E+00 -0.71889100544E+03  0.71889100544E+03  0.00000000000E+00 0. -1.
         25    2    1    2    0    0 -0.51320792486E+02  0.25864891982E+02 -0.42439091399E+03  0.44615905273E+03  0.12508971210E+03 0.  0.
          5    1    3    3  502    0 -0.78528517831E+02  0.34041376876E+02 -0.17224591432E+03  0.19238417516E+03  0.41800000000E+01 0.  1.
         -5    1    3    3    0  502  0.27207725346E+02 -0.81764848940E+01 -0.25214499967E+03  0.25377487757E+03  0.41800000000E+01 0.  1.
        -11    1    1    2    0    0 -0.55761067083E+01 -0.14124444241E+02 -0.63832191880E+00  0.15198695537E+02  0.00000000000E+00 0.  1.
         11    1    1    2    0    0  0.56896899194E+02 -0.11740447741E+02 -0.27263700765E+03  0.27875801906E+03  0.00000000000E+00 0. -1.
</event>
<event>
 7    1  0.2844572E-009  0.9960329E+02  0.7561462E-02  0.1281132E+00
         -4   -1    0    0    0  501 -0.00000000000E+00  0.00000000000E+00  0.16155162901E+03  0.16155162901E+03  0.00000000000E+00 0.  1.
          4   -1    0    0  501    0  0.00000000000E+00 -0.00000000000E+00 -0.12769070232E+03  0.12769070232E+03  0.00000000000E+00 0. -1.
         25    2    1    2    0    0  0.82225215910E+02  0.44903963520E+02  0.90916207020E+01  0.15656834707E+03  0.12511449822E+03 0.  0.
          5    1    3    3  502    0  0.67994680642E+02  0.51092138414E+02 -0.47660796177E+02  0.97584358867E+02  0.41800000000E+01 0. -1.
         -5    1    3    3    0  502  0.14230535268E+02 -0.61881748935E+01  0.56752416879E+02  0.58983988202E+02  0.41800000000E+01 0. -1.
        -11    1    1    2    0    0 -0.28185703450E+02 -0.31570666194E+02  0.54949330084E+02  0.69358270737E+02  0.00000000000E+00 0.  1.
         11    1    1    2    0    0 -0.54039512460E+02 -0.13333297327E+02 -0.30180024103E+02  0.63315713526E+02  0.00000000000E+00 0. -1.
</event>
<event>
 7    1  0.2888828E-009  0.1927126E+03  0.7561462E-02  0.1156037E+00
         -1   -1    0    0    0  501 -0.00000000000E+00  0.00000000000E+00  0.38800922469E+02  0.38800922469E+02  0.00000000000E+00 0.  1.
          1   -1    0    0  501    0  0.00000000000E+00 -0.00000000000E+00 -0.11637013144E+04  0.11637013144E+04  0.00000000000E+00 0. -1.
         25    2    1    2    0    0  0.15484525213E+03  0.74063070384E+02 -0.75776749367E+03  0.78697006118E+03  0.12509161530E+03 0.  0.
          5    1    3    3  502    0  0.15013385187E+03  0.89090556130E+02 -0.51787291985E+03  0.54652276639E+03  0.41800000000E+01 0. -1.
         -5    1    3    3    0  502  0.47114002586E+01 -0.15027485745E+02 -0.23989457382E+03  0.24044729478E+03  0.41800000000E+01 0. -1.
        -11    1    1    2    0    0 -0.55987199832E+02 -0.77474275294E+02 -0.18788012141E+03  0.21079793618E+03  0.00000000000E+00 0.  1.
         11    1    1    2    0    0 -0.98858052294E+02  0.34112049095E+01 -0.17925277689E+03  0.20473423955E+03  0.00000000000E+00 0. -1.
</event>
<event>
 7    1  0.2844572E-009  0.1181720E+03  0.7561462E-02  0.1246143E+00
          1   -1    0    0  501    0  0.00000000000E+00  0.00000000000E+00  0.20766513249E+04  0.20766513249E+04  0.00000000000E+00 0. -1.
         -1   -1    0    0    0  501 -0.00000000000E+00 -0.00000000000E+00 -0.16354201769E+02  0.16354201769E+02  0.00000000000E+00 0.  1.
         25    2    1    2    0    0  0.76019306404E+02  0.87390080410E+02  0.16069788219E+04  0.16159963541E+04  0.12508925343E+03 0.  0.
          5    1    3    3  502    0  0.25394872890E+02  0.44199119765E+02  0.17136133872E+03  0.17883132434E+03  0.41800000000E+01 0. -1.
         -5    1    3    3    0  502  0.50624433514E+02  0.43190960645E+02  0.14356174832E+04  0.14371650298E+04  0.41800000000E+01 0. -1.
        -11    1    1    2    0    0 -0.37334298492E+02 -0.61590095138E+02  0.39925870729E+03  0.40570272986E+03  0.00000000000E+00 0. -1.
         11    1    1    2    0    0 -0.38685007912E+02 -0.25799985272E+02  0.54059593974E+02  0.71306442751E+02  0.00000000000E+00 0.  1.
</event>
<event>
 7    1  0.2844572E-009  0.1181605E+03  0.7561462E-02  0.1246163E+00
         -2   -1    0    0    0  501 -0.00000000000E+00  0.00000000000E+00  0.76607315866E+02  0.76607315866E+02  0.00000000000E+00 0.  1.
          2   -1    0    0  501    0  0.00000000000E+00 -0.00000000000E+00 -0.31096243288E+03  0.31096243288E+03  0.00000000000E+00 0. -1.
         25    2    1    2    0    0 -0.79341840653E+02  0.60496575004E+01 -0.22140263906E+03  0.26645669193E+03  0.12509322146E+03 0.  0.
          5    1    3    3  502    0  0.16689989473E+02 -0.10200079184E+02 -0.13412857608E+03  0.13561174243E+03  0.41800000000E+01 0.  1.
         -5    1    3    3    0  502 -0.96031830126E+02  0.16249736684E+02 -0.87274062983E+02  0.13084494950E+03  0.41800000000E+01 0.  1.
        -11    1    1    2    0    0  0.75543758146E+02  0.30950480407E+02 -0.17938538129E+02  0.83585780982E+02  0.00000000000E+00 0.  1.
         11    1    1    2    0    0  0.37980825069E+01 -0.37000137907E+02  0.49860601718E+01  0.37527275840E+02  0.00000000000E+00 0. -1.
</event>
<event>
 7    1  0.2844572E-009  0.1005573E+03  0.7561462E-02  0.1279128E+00
         -3   -1    0    0    0  501 -0.00000000000E+00  0.00000000000E+00  0.15358833683E+03  0.15358833683E+03  0.00000000000E+00 0.  1.
          3   -1    0    0  501    0  0.00000000000E+00 -0.00000000000E+00 -0.94004553792E+02  0.94004553792E+02  0.00000000000E+00 0. -1.
         25    2    1    2    0    0  0.72765590825E+01  0.50136890304E+02  0.39459870771E+02  0.14060856355E+03  0.12508809160E+03 0.  0.
          5    1    3    3  502    0 -0.26276889966E+02  0.83318046829E+02  0.22746849847E+02  0.90372913263E+02  0.41800000000E+01 0.  1.
         -5    1    3    3    0  502  0.33553449049E+02 -0.33181156525E+02  0.16713020924E+02  0.50235650287E+02  0.41800000000E+01 0.  1.
        -11    1    1    2    0    0 -0.24123880800E+02 -0.18379296868E+02 -0.31726774349E+02  0.43890185564E+02  0.00000000000E+00 0. -1.
         11    1    1    2    0    0  0.16847321718E+02 -0.31757593436E+02  0.51850686615E+02  0.63094141506E+02  0.00000000000E+00 0.  1.
</event>
<event>
 7    1  0.2844572E-009  0.2820377E+03  0.7561462E-02  0.1094581E+00
          2   -1    0    0  501    0  0.00000000000E+00  0.00000000000E+00  0.33410728966E+04  0.33410728966E+04  0.00000000000E+00 0. -1.
         -2   -1    0    0    0  501 -0.00000000000E+00 -0.00000000000E+00 -0.25709333207E+02  0.25709333207E+02  0.00000000000E+00 0.  1.
         25    2    1    2    0    0 -0.55185356959E+02 -0.26169010710E+03  0.19941479577E+04  0.20158869066E+04  0.12508719814E+03 0.  0.
          5    1    3    3  502    0 -0.38044551563E+02 -0.25378233989E+02  0.59893777285E+03  0.60069573897E+03  0.41800000000E+01 0. -1.
         -5    1    3    3    0  502 -0.17140805396E+02 -0.23631187311E+03  0.13952101848E+04  0.14151911676E+04  0.41800000000E+01 0. -1.
        -11    1    1    2    0    0 -0.22613145741E+02  0.36547830222E+02  0.17637038547E+03  0.18153129517E+03  0.00000000000E+00 0.  1.
         11    1    1    2    0    0  0.77798502701E+02  0.22514227687E+03  0.11448452202E+04  0.11693640281E+04  0.00000000000E+00 0. -1.
</event>
<event>
 7    1  0.2844572E-009  0.1091719E+03  0.7561462E-02  0.1262111E+00
          2   -1    0    0  501    0  0.00000000000E+00  0.00000000000E+00  0.86081678460E+02  0.86081678460E+02  0.00000000000E+00 0. -1.
         -2   -1    0    0    0  501 -0.00000000000E+00 -0.00000000000E+00 -0.17806457964E+03  0.17806457964E+03  0.00000000000E+00 0.  1.
         25    2    1    2    0    0 -0.33889413422E+02 -0.44043955927E+02 -0.26462970670E+02  0.13940053633E+03  0.12507541052E+03 0.  0.
          5    1    3    3  502    0 -0.63714751724E+02 -0.60276683231E+02  0.11197983484E+02  0.88519576155E+02  0.41800000000E+01 0.  1.
         -5    1    3    3    0  502  0.29825338302E+02  0.16232727304E+02 -0.37660954154E+02  0.50880960175E+02  0.41800000000E+01 0.  1.
        -11    1    1    2    0    0  0.54352721738E+02  0.80879449958E+01 -0.10562852193E+02  0.55957189539E+02  0.00000000000E+00 0. -1.
         11    1    1    2    0    0 -0.20463308316E+02  0.35956010932E+02 -0.54957078315E+02  0.68788532230E+02  0.00000000000E+00 0.  1.
</event>
<event>
 7    1  0.2844572E-009  0.1089443E+03  0.7561462E-02  0.1262537E+00
         -2   -1    0    0    0  501 -0.00000000000E+00  0.00000000000E+00  0.38070251148E+02  0.38070251148E+02  0.00000000000E+00 0.  1.
          2   -1    0    0  501    0  0.00000000000E+00 -0.00000000000E+00 -0.40038567069E+03  0.40038567069E+03  0.00000000000E+00 0. -1.
         25    2    1    2    0    0  0.44144832152E+02  0.21441319703E+02 -0.14676697436E+03  0.19898546160E+03  0.12508466240E+03 0.  0.
          5    1    3    3  502    0  0.97347816193E+01  0.62417657051E+02 -0.12678892601E+03  0.14171673875E+03  0.41800000000E+01 0. -1.
         -5    1    3    3    0  502  0.34410050532E+02 -0.40976337348E+02 -0.19978048354E+02  0.57268722844E+02  0.41800000000E+01 0. -1.
        -11    1    1    2    0    0 -0.33800804743E+01 -0.50647237621E+02 -0.77964248010E+02  0.93032207275E+02  0.00000000000E+00 0.  1.
         11    1    1    2    0    0 -0.40764751677E+02  0.29205917919E+02 -0.13758419717E+03  0.14643825296E+03  0.00000000000E+00 0. -1.
</event>
<event>
 7    1  0.2844572E-009  0.9574630E+02  0.7561462E-02  0.1289504E+00
         -2   -1    0    0    0  501 -0.00000000000E+00  0.00000000000E+00  0.91068060231E+02  0.91068060231E+02  0.00000000000E+00 0. -1.
          2   -1    0    0  501    0  0.00000000000E+00 -0.00000000000E+00 -0.24378400712E+03  0.24378400712E+03  0.00000000000E+00 0.  1.
         25    2    1    2    0    0 -0.73807627327E+02  0.37573436378E+02 -0.13376912038E+03  0.20100083286E+03  0.12509127975E+03 0.  0.
          5    1    3    3  502    0 -0.58445873284E+02  0.46928722685E+02 -0.98514754142E+01  0.75714919828E+02  0.41800000000E+01 0.  1.
         -5    1    3    3    0  502 -0.15361754043E+02 -0.93552863066E+01 -0.12391764497E+03  0.12528591303E+03  0.41800000000E+01 0.  1.
        -11    1    1    2    0    0  0.12515724464E+02  0.13328203843E+02 -0.46168405995E+02  0.49656883598E+02  0.00000000000E+00 0.  1.
         11    1    1    2    0    0  0.61291902862E+02 -0.50901640221E+02  0.27221579485E+02  0.84194350899E+02  0.00000000000E+00 0. -1.
</event>
<event>
 7    1  0.2844572E-009  0.2374402E+03  0.7561462E-02  0.1121510E+00
         -2   -1    0    0    0  501 -0.00000000000E+00  0.00000000000E+00  0.63849375821E+03  0.63849375821E+03  0.00000000000E+00 0. -1.
          2   -1    0    0  501    0  0.00000000000E+00 -0.00000000000E+00 -0.10386559174E+03  0.10386559174E+03  0.00000000000E+00 0.  1.
         25    2    1    2    0    0  0.11388159294E+02  0.22745750034E+03  0.20140177955E+03  0.32874908601E+03  0.12508669039E+03 0.  0.
          5    1    3    3  502    0 -0.87295093005E+01 -0.24666438621E+01  0.53876896339E+02  0.54794899614E+02  0.41800000000E+01 0.  1.
         -5    1    3    3    0  502  0.20117668595E+02  0.22992414420E+03  0.14752488321E+03  0.27395418639E+03  0.41800000000E+01 0.  1.
        -11    1    1    2    0    0 -0.29280076444E+02 -0.74432037588E+02  0.17680292895E+03  0.19405341218E+03  0.00000000000E+00 0. -1.
         11    1    1    2    0    0  0.17891917150E+02 -0.15302546275E+03  0.15642345797E+03  0.21955685176E+03  0.00000000000E+00 0.  1.
</event>
<event>
 7    1  0.2844572E-009  0.1206417E+03  0.7561462E-02  0.1242042E+00
          2   -1    0    0  501    0  0.00000000000E+00  0.00000000000E+00  0.66216731389E+03  0.66216731389E+03  0.00000000000E+00 0. -1.
         -2   -1    0    0    0  501 -0.00000000000E+00 -0.00000000000E+00 -0.34483331141E+02  0.34483331141E+02  0.00000000000E+00 0.  1.
         25    2    1    2    0    0 -0.61315858380E+02  0.84838946031E+02  0.37684668830E+03  0.41062897846E+03  0.12508177411E+03 0.  0.
          5    1    3    3  502    0 -0.48910065978E+02  0.72685444207E+02  0.38207794991E+03  0.39201581672E+03  0.41800000000E+01 0. -1.
         -5    1    3    3    0  502 -0.12405792402E+02  0.12153501824E+02 -0.52312616115E+01  0.18613161735E+02  0.41800000000E+01 0. -1.
        -11    1    1    2    0    0 -0.52716606970E+00 -0.72683439498E+02  0.15665843906E+03  0.17269923802E+03  0.00000000000E+00 0. -1.
         11    1    1    2    0    0  0.61843024450E+02 -0.12155506533E+02  0.94178855386E+02  0.11332242856E+03  0.00000000000E+00 0.  1.
</event>
<event>
 7    1  0.2844572E-009  0.1581493E+03  0.7561462E-02  0.1190802E+00
         -4   -1    0    0    0  501 -0.00000000000E+00  0.00000000000E+00  0.85748620747E+02  0.85748620747E+02  0.00000000000E+00 0. -1.
          4   -1    0    0  501    0  0.00000000000E+00 -0.00000000000E+00 -0.32352896767E+03  0.32352896767E+03  0.00000000000E+00 0.  1.
         25    2    1    2    0    0  0.12062050185E+03 -0.13510390125E+02 -0.16833565344E+03  0.24231166010E+03  0.12508482039E+03 0.  0.
          5    1    3    3  502    0  0.37721102465E+01  0.39756113789E+02 -0.69285419295E+02  0.80079455082E+02  0.41800000000E+01 0.  1.
         -5    1    3    3    0  502  0.11684839161E+03 -0.53266503914E+02 -0.99050234143E+02  0.16223220501E+03  0.41800000000E+01 0.  1.
        -11    1    1    2    0    0 -0.10579314488E+03  0.43358086390E+02 -0.69186677726E+02  0.13363723109E+03  0.00000000000E+00 0.  1.
         11    1    1    2    0    0 -0.14827356970E+02 -0.29847696265E+02 -0.25801576317E+00  0.33328697231E+02  0.00000000000E+00 0. -1.
</event>
<event>
 7    1  0.2844572E-009  0.1492683E+03  0.7561462E-02  0.1201375E+00
         -1   -1    0    0    0  501 -0.00000000000E+00  0.00000000000E+00  0.75247159703E+02  0.75247159703E+02  0.00000000000E+00 0.  1.
          1   -1    0    0  501    0  0.00000000000E+00 -0.00000000000E+00 -0.36234634501E+03  0.36234634501E+03  0.00000000000E+00 0. -1.
         25    2    1    2    0    0 -0.82751450144E+02 -0.84474396055E+02 -0.10186068489E+03  0.20001525849E+03  0.12508708331E+03 0.  0.
          5    1    3    3  502    0 -0.10297534190E+03 -0.71362971058E+02 -0.37011022084E+02  0.13070532825E+03  0.41800000000E+01 0.  1.
         -5    1    3    3    0  502  0.20223891755E+02 -0.13111424997E+02 -0.64849662808E+02  0.69309930237E+02  0.41800000000E+01 0.  1.
        -11    1    1    2    0    0 -0.14193725651E+02  0.39262656054E+02 -0.49457592073E+02  0.64723036254E+02  0.00000000000E+00 0. -1.
         11    1    1    2    0    0  0.96945175795E+02  0.45211740001E+02 -0.13578090834E+03  0.17285520997E+03  0.00000000000E+00 0.  1.
</event>
<event>
 7    1  0.2844572E-009  0.1023435E+03  0.7561462E-02  0.1275444E+00
         -1   -1    0    0    0  501 -0.00000000000E+00  0.00000000000E+00  0.43267344775E+03  0.43267344775E+03  0.00000000000E+00 0.  1.
          1   -1    0    0  501    0  0.00000000000E+00 -0.00000000000E+00 -0.33257862899E+02  0.33257862899E+02  0.00000000000E+00 0. -1.
         25    2    1    2    0    0 -0.21884670010E+02 -0.19114474007E+02  0.31770758427E+03  0.34267855976E+03  0.12508470858E+03 0.  0.
          5    1    3    3  502    0  0.42849269451E+02 -0.39588208289E+02  0.17655501456E+03  0.18599040753E+03  0.41800000000E+01 0.  1.
         -5    1    3    3    0  502 -0.64733939461E+02  0.20473734281E+02  0.14115256971E+03  0.15668815223E+03  0.41800000000E+01 0.  1.
        -11    1    1    2    0    0  0.19081204328E+01  0.45244904957E+02  0.77946704332E+02  0.90146719654E+02  0.00000000000E+00 0.  1.
         11    1    1    2    0    0  0.19976549577E+02 -0.26130430949E+02  0.37612962503E+01  0.33106031234E+02  0.00000000000E+00 0. -1.
</event>
<event>
 7    1  0.2844572E-009  0.1186110E+03  0.7561462E-02  0.1245406E+00
         -1   -1    0    0    0  501 -0.00000000000E+00  0.00000000000E+00  0.20741691466E+03  0.20741691466E+03  0.00000000000E+00 0.  1.
          1   -1    0    0  501    0  0.00000000000E+00 -0.00000000000E+00 -0.12644900475E+03  0.12644900475E+03  0.00000000000E+00 0. -1.
         25    2    1    2    0    0 -0.66626315272E+02  0.78876166140E+02  0.11026100915E+03  0.19612637629E+03  0.12509016696E+03 0.  0.
          5    1    3    3  502    0 -0.43771281860E+02  0.95121199528E+02  0.12585469815E+03  0.16377070911E+03  0.41800000000E+01 0. -1.
         -5    1    3    3    0  502 -0.22855033412E+02 -0.16245033388E+02 -0.15593689007E+02  0.32355667184E+02  0.41800000000E+01 0. -1.
        -11    1    1    2    0    0  0.11102296176E+02 -0.21727283391E+02  0.29817220574E+02  0.38527943971E+02  0.00000000000E+00 0.  1.
         11    1    1    2    0    0  0.55524019096E+02 -0.57148882749E+02 -0.59110319807E+02  0.99211599139E+02  0.00000000000E+00 0. -1.
</event>
<event>
 7    1  0.2853317E-009  0.2428038E+03  0.7561462E-02  0.1117939E+00
         -2   -1    0    0    0  501 -0.00000000000E+00  0.00000000000E+00  0.27208581893E+03  0.27208581893E+03  0.00000000000E+00 0. -1.
          2   -1    0    0  501    0  0.00000000000E+00 -0.00000000000E+00 -0.24000734393E+03  0.24000734393E+03  0.00000000000E+00 0.  1.
         25    2    1    2    0    0 -0.22741016392E+03  0.40112310231E+02  0.16854098187E+02  0.26316472835E+03  0.12508890252E+03 0.  0.
          5    1    3    3  502    0 -0.19333827536E+03  0.58169700918E+02  0.54442243974E+02  0.20915265514E+03  0.41800000000E+01 0.  1.
         -5    1    3    3    0  502 -0.34071888565E+02 -0.18057390688E+02 -0.37588145787E+02  0.54012073210E+02  0.41800000000E+01 0.  1.
        -11    1    1    2    0    0  0.80463067272E+02 -0.54568313369E+02  0.26716411667E+02  0.10082545646E+03  0.00000000000E+00 0.  1.
         11    1    1    2    0    0  0.14694709665E+03  0.14456003138E+02 -0.11492034853E+02  0.14810297804E+03  0.00000000000E+00 0. -1.
</event>
<event>
 7    1  0.2844572E-009  0.7157783E+02  0.7561462E-02  0.1354808E+00
         -1   -1    0    0    0  501 -0.00000000000E+00  0.00000000000E+00  0.13590606124E+02  0.13590606124E+02  0.00000000000E+00 0.  1.
          1   -1    0    0  501    0  0.00000000000E+00 -0.00000000000E+00 -0.95956160357E+03  0.95956160357E+03  0.00000000000E+00 0. -1.
         25    2    1    2    0    0 -0.11856650803E+01 -0.90787525251E+00 -0.71831170868E+03  0.72911963947E+03  0.12506601378E+03 0.  0.
          5    1    3    3  502    0 -0.17803727100E+02 -0.22747115038E+02 -0.36461404756E+02  0.46704500618E+02  0.41800000000E+01 0. -1.
         -5    1    3    3    0  502  0.16618062020E+02  0.21839239785E+02 -0.68185030392E+03  0.68241513886E+03  0.41800000000E+01 0. -1.
        -11    1    1    2    0    0  0.20171414903E+02 -0.37940753697E+02 -0.13717477339E+03  0.14374736598E+03  0.00000000000E+00 0.  1.
         11    1    1    2    0    0 -0.18985749822E+02  0.38848628950E+02 -0.90484515374E+02  0.10028520424E+03  0.00000000000E+00 0. -1.
</event>
<event>
 7    1  0.2844572E-009  0.1134806E+03  0.7561462E-02  0.1254257E+00
          1   -1    0    0  501    0  0.00000000000E+00  0.00000000000E+00  0.38604971825E+03  0.38604971825E+03  0.00000000000E+00 0. -1.
         -1   -1    0    0    0  501 -0.00000000000E+00 -0.00000000000E+00 -0.54143923715E+02  0.54143923715E+02  0.00000000000E+00 0.  1.
         25    2    1    2    0    0 -0.80973483170E+02 -0.40759563973E+02  0.22142867432E+03  0.26999591530E+03  0.12509632063E+03 0.  0.
          5    1    3    3  502    0 -0.26573122212E+02  0.10863801922E+02  0.18363305490E+03  0.18591052759E+03  0.41800000000E+01 0.  1.
         -5    1    3    3    0  502 -0.54400360958E+02 -0.51623365895E+02  0.37795619414E+02  0.84085387706E+02  0.41800000000E+01 0.  1.
        -11    1    1    2    0    0  0.47895110959E+02 -0.21374170813E+02  0.21351271183E+02  0.56627498733E+02  0.00000000000E+00 0.  1.
         11    1    1    2    0    0  0.33078372212E+02  0.62133734786E+02  0.89125849034E+02  0.11357022793E+03  0.00000000000E+00 0. -1.
</event>
<event>
 7    1  0.2844572E-009  0.1681714E+03  0.7561462E-02  0.1179768E+00
          1   -1    0    0  501    0  0.00000000000E+00  0.00000000000E+00  0.27990794488E+03  0.27990794488E+03  0.00000000000E+00 0. -1.
         -1   -1    0    0    0  501 -0.00000000000E+00 -0.00000000000E+00 -0.17736623687E+03  0.17736623687E+03  0.00000000000E+00 0.  1.
         25    2    1    2    0    0 -0.93235098483E+02  0.12848691915E+03  0.16835263886E+03  0.26304396630E+03  0.12509134748E+03 0.  0.
          5    1    3    3  502    0 -0.33340952180E+02  0.53514121152E+02  0.15331135324E+03  0.16582286841E+03  0.41800000000E+01 0.  1.
         -5    1    3    3    0  502 -0.59894146302E+02  0.74972798002E+02  0.15041285612E+02  0.97221097887E+02  0.41800000000E+01 0.  1.
        -11    1    1    2    0    0  0.63236317079E+02 -0.22767574536E+02 -0.48731396910E+02  0.83017728786E+02  0.00000000000E+00 0.  1.
         11    1    1    2    0    0  0.29998781403E+02 -0.10571934462E+03 -0.17079533939E+02  0.11121248667E+03  0.00000000000E+00 0. -1.
</event>
<event>
 7    1  0.2844572E-009  0.2157963E+03  0.7561462E-02  0.1137056E+00
          1   -1    0    0  501    0  0.00000000000E+00  0.00000000000E+00  0.17671235058E+04  0.17671235058E+04  0.00000000000E+00 0. -1.
         -1   -1    0    0    0  501 -0.00000000000E+00 -0.00000000000E+00 -0.28469591777E+02  0.28469591777E+02  0.00000000000E+00 0.  1.
         25    2    1    2    0    0 -0.17843211892E+03  0.61269222418E+02  0.71219656030E+03  0.74730381210E+03  0.12508840235E+03 0.  0.
          5    1    3    3  502    0 -0.13405447846E+02  0.53068655454E+02  0.26290243234E+03  0.26857242888E+03  0.41800000000E+01 0.  1.
         -5    1    3    3    0  502 -0.16502667107E+03  0.82005669637E+01  0.44929412796E+03  0.47873138322E+03  0.41800000000E+01 0.  1.
        -11    1    1    2    0    0  0.98595109155E+02  0.16493323202E+02  0.54593786482E+03  0.55501457414E+03  0.00000000000E+00 0.  1.
         11    1    1    2    0    0  0.79837009765E+02 -0.77762545620E+02  0.48051948887E+03  0.49327471131E+03  0.00000000000E+00 0. -1.
</event>
<event>
 7    1  0.2844572E-009  0.7142982E+02  0.7561462E-02  0.1355297E+00
         -1   -1    0    0    0  501 -0.00000000000E+00  0.00000000000E+00  0.77365875111E+03  0.77365875111E+03  0.00000000000E+00 0.  1.
          1   -1    0    0  501    0  0.00000000000E+00 -0.00000000000E+00 -0.18044237332E+02  0.18044237332E+02  0.00000000000E+00 0. -1.
         25    2    1    2    0    0 -0.31337459767E+02 -0.30754765070E+02  0.52624842865E+03  0.54269024265E+03  0.12508956333E+03 0.  0.
          5    1    3    3  502    0  0.39105020904E+01 -0.47336474611E+02  0.47875461421E+03  0.48112315147E+03  0.41800000000E+01 0. -1.
         -5    1    3    3    0  502 -0.35247961857E+02  0.16581709541E+02  0.47493814444E+02  0.61567091184E+02  0.41800000000E+01 0. -1.
        -11    1    1    2    0    0  0.35929982929E+02  0.13888366436E+02  0.22827060228E+03  0.23149798760E+03  0.00000000000E+00 0.  1.
         11    1    1    2    0    0 -0.45925231623E+01  0.16866398634E+02  0.10954828458E+01  0.17514758193E+02  0.00000000000E+00 0. -1.
</event>
<event>
 7    1  0.2844572E-009  0.1414371E+03  0.7561462E-02  0.1211408E+00
         -1   -1    0    0    0  501 -0.00000000000E+00  0.00000000000E+00  0.69818470060E+02  0.69818470060E+02  0.00000000000E+00 0.  1.
          1   -1    0    0  501    0  0.00000000000E+00 -0.00000000000E+00 -0.29059196466E+03  0.29059196466E+03  0.00000000000E+00 0. -1.
         25    2    1    2    0    0  0.71939659595E+02 -0.58473870241E+02 -0.11028478792E+03  0.19079923982E+03  0.12508839812E+03 0.  0.
          5    1    3    3  502    0  0.35259216534E+02 -0.95628191545E+02 -0.84289516903E+02  0.13232595523E+03  0.41800000000E+01 0. -1.
         -5    1    3    3    0  502  0.36680443061E+02  0.37154321304E+02 -0.25995271020E+02  0.58473284585E+02  0.41800000000E+01 0. -1.
        -11    1    1    2    0    0 -0.15336982308E+02  0.69200691178E+02 -0.56273344001E+02  0.90502198486E+02  0.00000000000E+00 0.  1.
         11    1    1    2    0    0 -0.56602677287E+02 -0.10726820937E+02 -0.54215362671E+02  0.79108996411E+02  0.00000000000E+00 0. -1.
</event>
<event>
 7    1  0.2844572E-009  0.1253528E+03  0.7561462E-02  0.1234519E+00
         -1   -1    0    0    0  501 -0.00000000000E+00  0.00000000000E+00  0.73840199360E+03  0.73840199360E+03  0.00000000000E+00 0. -1.
          1   -1    0    0  501    0  0.00000000000E+00 -0.00000000000E+00 -0.39574128296E+02  0.39574128296E+02  0.00000000000E+00 0.  1.
         25    2    1    2    0    0  0.58609694374E+02  0.91504123483E+02  0.54228933762E+03  0.56703992076E+03  0.12509374547E+03 0.  0.
          5    1    3    3  502    0  0.36841090295E+02  0.40578178996E+02  0.48177751179E+03  0.48490297773E+03  0.41800000000E+01 0.  1.
         -5    1    3    3    0  502  0.21768604079E+02  0.50925944487E+02  0.60511825824E+02  0.82136943028E+02  0.41800000000E+01 0.  1.
        -11    1    1    2    0    0 -0.99865855707E+01 -0.91026463468E+02  0.88850814034E+02  0.12759316634E+03  0.00000000000E+00 0.  1.
         11    1    1    2    0    0 -0.48623108803E+02 -0.47766001516E+00  0.67687713649E+02  0.83343034788E+02  0.00000000000E+00 0. -1.
</event>
<event>
 7    1  0.2844572E-009  0.1433407E+03  0.7561462E-02  0.1208903E+00
          1   -1    0    0  501    0  0.00000000000E+00  0.00000000000E+00  0.64597744636E+02  0.64597744636E+02  0.00000000000E+00 0. -1.
         -1   -1    0    0    0  501 -0.00000000000E+00 -0.00000000000E+00 -0.32123498661E+03  0.32123498661E+03  0.00000000000E+00 0.  1.
         25    2    1    2    0    0  0.62242568972E+02  0.70733450328E+02 -0.14554572110E+03  0.21379645885E+03  0.12509200812E+03 0.  0.
          5    1    3    3  502    0 -0.37802931934E+02  0.15299629451E+02 -0.27432864552E+02  0.49327221508E+02  0.41800000000E+01 0. -1.
         -5    1    3    3    0  502  0.10004550091E+03  0.55433820877E+02 -0.11811285655E+03  0.16446923734E+03  0.41800000000E+01 0. -1.
        -11    1    1    2    0    0 -0.23585115054E+02 -0.86370494115E+02 -0.79257514722E+02  0.11957371595E+03  0.00000000000E+00 0.  1.
         11    1    1    2    0    0 -0.38657453918E+02  0.15637043787E+02 -0.31834006149E+02  0.52462556450E+02  0.00000000000E+00 0. -1.
</event>
<event>
 7    1  0.2844572E-009  0.1402541E+03  0.7561462E-02  0.1212987E+00
          2   -1    0    0  501    0  0.00000000000E+00  0.00000000000E+00  0.35400913904E+04  0.35400913904E+04  0.00000000000E+00 0. -1.
         -2   -1    0    0    0  501 -0.00000000000E+00 -0.00000000000E+00 -0.12157537879E+02  0.12157537879E+02  0.00000000000E+00 0.  1.
         25    2    1    2    0    0 -0.88578295845E+02  0.12922639047E+02  0.31414474878E+04  0.31452110343E+04  0.12508805866E+03 0.  0.
          5    1    3    3  502    0 -0.18206372255E+02  0.63523325838E+02  0.12002548306E+04  0.12020797876E+04  0.41800000000E+01 0.  1.
         -5    1    3    3    0  502 -0.70371923589E+02 -0.50600686791E+02  0.19411926572E+04  0.19431312467E+04  0.41800000000E+01 0.  1.
        -11    1    1    2    0    0  0.29541161231E+02 -0.49805758779E+02  0.16467485815E+03  0.17455973969E+03  0.00000000000E+00 0. -1.
         11    1    1    2    0    0  0.59037134613E+02  0.36883119732E+02  0.22181150650E+03  0.23247815424E+03  0.00000000000E+00 0.  1.
</event>
<event>
 7    1  0.2844572E-009  0.1469374E+03  0.7561462E-02  0.1204288E+00
         -1   -1    0    0    0  501 -0.00000000000E+00  0.00000000000E+00  0.27546962997E+02  0.27546962997E+02  0.00000000000E+00 0.  1.
          1   -1    0    0  501    0  0.00000000000E+00 -0.00000000000E+00 -0.83823209020E+03  0.83823209020E+03  0.00000000000E+00 0. -1.
         25    2    1    2    0    0 -0.76562306734E+02 -0.71486317930E+02 -0.40470741361E+03  0.43635760965E+03  0.12509113640E+03 0.  0.
          5    1    3    3  502    0 -0.97523321003E+02 -0.86386038772E+02 -0.37412102326E+03  0.39617844248E+03  0.41800000000E+01 0. -1.
         -5    1    3    3    0  502  0.20961014269E+02  0.14899720842E+02 -0.30586390343E+02  0.40179167172E+02  0.41800000000E+01 0. -1.
        -11    1    1    2    0    0  0.23250159241E+02  0.80155217467E+02 -0.20564794434E+03  0.22193806750E+03  0.00000000000E+00 0.  1.
         11    1    1    2    0    0  0.53312147493E+02 -0.86688995372E+01 -0.20032976925E+03  0.20748337605E+03  0.00000000000E+00 0. -1.
</event>
<event>
 7    1  0.2844572E-009  0.1632129E+03  0.7561462E-02  0.1185116E+00
         -2   -1    0    0    0  501 -0.00000000000E+00  0.00000000000E+00  0.34500790997E+02  0.34500790997E+02  0.00000000000E+00 0. -1.
          2   -1    0    0  501    0  0.00000000000E+00 -0.00000000000E+00 -0.81387053809E+03  0.81387053809E+03  0.00000000000E+00 0.  1.
         25    2    1    2    0    0  0.12193346882E+03 -0.28200312005E+02 -0.48804570989E+03  0.51913356125E+03  0.12509201037E+03 0.  0.
          5    1    3    3  502    0 -0.22585415605E+02 -0.22592229688E+02 -0.84516218691E+02  0.90448733889E+02  0.41800000000E+01 0.  1.
         -5    1    3    3    0  502  0.14451888443E+03 -0.56080823169E+01 -0.40352949120E+03  0.42868482736E+03  0.41800000000E+01 0.  1.
        -11    1    1    2    0    0 -0.67498965298E+02 -0.26346450070E+02 -0.17811921999E+03  0.19229327153E+03  0.00000000000E+00 0.  1.
         11    1    1    2    0    0 -0.54434503523E+02  0.54546762075E+02 -0.11320481721E+03  0.13694449630E+03  0.00000000000E+00 0. -1.
</event>
<event>
 7    1  0.2844572E-009  0.1060256E+03  0.7561462E-02  0.1268112E+00
         -2   -1    0    0    0  501 -0.00000000000E+00  0.00000000000E+00  0.21831466559E+02  0.21831466559E+02  0.00000000000E+00 0.  1.
          2   -1    0    0  501    0  0.00000000000E+00 -0.00000000000E+00 -0.87052574124E+03  0.87052574124E+03  0.00000000000E+00 0. -1.
         25    2    1    2    0    0  0.75248268430E+02 -0.17108737105E+02 -0.48945511354E+03  0.51104596510E+03  0.12508660798E+03 0.  0.
          5    1    3    3  502    0  0.93309476166E+02 -0.54700708317E+00 -0.47077258352E+03  0.47994922164E+03  0.41800000000E+01 0. -1.
         -5    1    3    3    0  502 -0.18061207737E+02 -0.16561730022E+02 -0.18682530017E+02  0.31096743464E+02  0.41800000000E+01 0. -1.
        -11    1    1    2    0    0 -0.11211891513E+02  0.26773195748E+02 -0.18383506140E+02  0.34357878570E+02  0.00000000000E+00 0.  1.
         11    1    1    2    0    0 -0.64036376917E+02 -0.96644586431E+01 -0.34085565501E+03  0.34695336413E+03  0.00000000000E+00 0. -1.
</event>
<event>
 7    1  0.2844572E-009  0.1599164E+03  0.7561462E-02  0.1188791E+00
          2   -1    0    0  501    0  0.00000000000E+00  0.00000000000E+00  0.58503635161E+03  0.58503635161E+03  0.00000000000E+00 0. -1.
         -2   -1    0    0    0  501 -0.00000000000E+00 -0.00000000000E+00 -0.59027976074E+02  0.59027976074E+02  0.00000000000E+00 0.  1.
         25    2    1    2    0    0  0.41135168314E+02 -0.12227535611E+03  0.41184382612E+03  0.44933948901E+03  0.12508906623E+03 0.  0.
          5    1    3    3  502    0 -0.39251698721E+02 -0.67783143354E+02  0.13772416639E+03  0.15849501186E+03  0.41800000000E+01 0.  1.
         -5    1    3    3    0  502  0.80386867035E+02 -0.54492212753E+02  0.27411965972E+03  0.29084447715E+03  0.41800000000E+01 0.  1.
        -11    1    1    2    0    0  0.95755245207E+01  0.72502760008E+02  0.18280775535E+02  0.75382541963E+02  0.00000000000E+00 0.  1.
         11    1    1    2    0    0 -0.50710692835E+02  0.49772596099E+02  0.95883773884E+02  0.11934229671E+03  0.00000000000E+00 0. -1.
</event>
<event>
 7    1  0.3292843E-009  0.1258451E+03  0.7561462E-02  0.1233754E+00
          2   -1    0    0  501    0  0.00000000000E+00  0.00000000000E+00  0.46018717246E+03  0.46018717246E+03  0.00000000000E+00 0. -1.
         -2   -1    0    0    0  501 -0.00000000000E+00 -0.00000000000E+00 -0.39519533295E+02  0.39519533295E+02  0.00000000000E+00 0.  1.
         25    2    1    2    0    0  0.75448807665E+02  0.24340439870E+02  0.21465613153E+03  0.26078688501E+03  0.12509022742E+03 0.  0.
          5    1    3    3  502    0 -0.30308438290E+02 -0.14755442367E+02  0.65262940689E+02  0.73573421413E+02  0.41800000000E+01 0.  1.
         -5    1    3    3    0  502  0.10575724595E+03  0.39095882237E+02  0.14939319084E+03  0.18721346359E+03  0.41800000000E+01 0.  1.
        -11    1    1    2    0    0 -0.55183940490E+02 -0.48424101685E+02  0.78090413284E+02  0.10718336419E+03  0.00000000000E+00 0.  1.
         11    1    1    2    0    0 -0.20264867174E+02  0.24083661815E+02  0.12792109435E+03  0.13173645656E+03  0.00000000000E+00 0. -1.
</event>
<event>
 7    1  0.2844572E-009  0.2280644E+03  0.7561462E-02  0.1128010E+00
          1   -1    0    0  501    0  0.00000000000E+00  0.00000000000E+00  0.10174543807E+04  0.10174543807E+04  0.00000000000E+00 0. -1.
         -1   -1    0    0    0  501 -0.00000000000E+00 -0.00000000000E+00 -0.58584666756E+02  0.58584666756E+02  0.00000000000E+00 0.  1.
         25    2    1    2    0    0  0.20820565717E+03  0.69934014763E+02  0.50520443768E+03  0.56490916078E+03  0.12510185442E+03 0.  0.
          5    1    3    3  502    0  0.26995477964E+02  0.22149146752E+01  0.40586946785E+01  0.27705722875E+02  0.41800000000E+01 0.  1.
         -5    1    3    3    0  502  0.18121017921E+03  0.67719100088E+02  0.50114574300E+03  0.53720343790E+03  0.41800000000E+01 0.  1.
        -11    1    1    2    0    0 -0.21147595696E+03 -0.53049524783E+02  0.41416800193E+03  0.46805070908E+03  0.00000000000E+00 0. -1.
         11    1    1    2    0    0  0.32702997921E+01 -0.16884489981E+02  0.39497274375E+02  0.43079177635E+02  0.00000000000E+00 0.  1.
</event>
<event>
 7    1  0.2844572E-009  0.1162857E+03  0.7561462E-02  0.1249353E+00
         -3   -1    0    0    0  501 -0.00000000000E+00  0.00000000000E+00  0.63140266764E+02  0.63140266764E+02  0.00000000000E+00 0.  1.
          3   -1    0    0  501    0  0.00000000000E+00 -0.00000000000E+00 -0.24102590906E+03  0.24102590906E+03  0.00000000000E+00 0. -1.
         25    2    1    2    0    0  0.54225264556E+02 -0.88014509969E+01 -0.73986179144E+02  0.15536644958E+03  0.12508770561E+03 0.  0.
          5    1    3    3  502    0  0.53833967113E+01  0.55353847223E+02 -0.33267035016E+02  0.64939952120E+02  0.41800000000E+01 0. -1.
         -5    1    3    3    0  502  0.48841867845E+02 -0.64155298220E+02 -0.40719144128E+02  0.90426497460E+02  0.41800000000E+01 0. -1.
        -11    1    1    2    0    0 -0.66427823338E+02  0.28983577472E+02 -0.44889185022E+02  0.85251055175E+02  0.00000000000E+00 0.  1.
         11    1    1    2    0    0  0.12202558782E+02 -0.20182126475E+02 -0.59010278133E+02  0.63548671073E+02  0.00000000000E+00 0. -1.
</event>
<event>
 7    1  0.2844572E-009  0.5992337E+02  0.7561462E-02  0.1398154E+00
         -2   -1    0    0    0  501 -0.00000000000E+00  0.00000000000E+00  0.11743312027E+03  0.11743312027E+03  0.00000000000E+00 0.  1.
          2   -1    0    0  501    0  0.00000000000E+00 -0.00000000000E+00 -0.12264162089E+03  0.12264162089E+03  0.00000000000E+00 0. -1.
         25    2    1    2    0    0 -0.15620166828E+02  0.50428838226E+02 -0.80392338299E+01  0.13601518787E+03  0.12509374371E+03 0.  0.
          5    1    3    3  502    0 -0.23736447167E+02  0.39666826475E+02  0.54682506585E+02  0.71725344009E+02  0.41800000000E+01 0.  1.
         -5    1    3    3    0  502  0.81162803389E+01  0.10762011751E+02 -0.62721740415E+02  0.64289843865E+02  0.41800000000E+01 0.  1.
        -11    1    1    2    0    0  0.18273951336E+02 -0.14594604465E+02  0.43746610156E+02  0.49605500472E+02  0.00000000000E+00 0.  1.
         11    1    1    2    0    0 -0.26537845077E+01 -0.35834233761E+02 -0.40915876947E+02  0.54454052814E+02  0.00000000000E+00 0. -1.
</event>
<event>
 7    1  0.2844572E-009  0.1125545E+03  0.7561462E-02  0.1255911E+00
         -1   -1    0    0    0  501 -0.00000000000E+00  0.00000000000E+00  0.25969145491E+02  0.25969145491E+02  0.00000000000E+00 0.  1.
          1   -1    0    0  501    0  0.00000000000E+00 -0.00000000000E+00 -0.64770773104E+03  0.64770773104E+03  0.00000000000E+00 0. -1.
         25    2    1    2    0    0 -0.39272923539E+02  0.23048492799E+02 -0.45994017304E+03  0.47881735961E+03  0.12508998977E+03 0.  0.
          5    1    3    3  502    0 -0.59697579514E+02 -0.34994979148E+02 -0.20047187265E+03  0.21211999832E+03  0.41800000000E+01 0. -1.
         -5    1    3    3    0  502  0.20424655975E+02  0.58043471947E+02 -0.25946830039E+03  0.26669736128E+03  0.41800000000E+01 0. -1.
        -11    1    1    2    0    0 -0.53858755208E+01 -0.44318657193E+02 -0.29227941871E+02  0.53361255762E+02  0.00000000000E+00 0.  1.
         11    1    1    2    0    0  0.44658799059E+02  0.21270164394E+02 -0.13257047064E+03  0.14149826116E+03  0.00000000000E+00 0. -1.
</event>
<event>
 7    1  0.2844572E-009  0.1257731E+03  0.7561462E-02  0.1233866E+00
         -2   -1    0    0    0  501 -0.00000000000E+00  0.00000000000E+00  0.49998491080E+03  0.49998491080E+03  0.00000000000E+00 0.  1.
          2   -1    0    0  501    0  0.00000000000E+00 -0.00000000000E+00 -0.36909117395E+02  0.36909117395E+02  0.00000000000E+00 0. -1.
         25    2    1    2    0    0 -0.71925315996E+02 -0.42423567319E+02  0.27133024473E+03  0.31022599981E+03  0.12508820529E+03 0.  0.
          5    1    3    3  502    0  0.33731090715E+02 -0.19818932336E+02  0.47750041676E+02  0.61871766095E+02  0.41800000000E+01 0.  1.
         -5    1    3    3    0  502 -0.10565640671E+03 -0.22604634984E+02  0.22358020306E+03  0.24835423371E+03  0.41800000000E+01 0.  1.
        -11    1    1    2    0    0 -0.15498786999E+00  0.31109495236E+02  0.12137837344E+03  0.12530177275E+03  0.00000000000E+00 0.  1.
         11    1    1    2    0    0  0.72080303866E+02  0.11314072084E+02  0.70367175227E+02  0.10136625564E+03  0.00000000000E+00 0. -1.
</event>
<event>
 7    1  0.2844572E-009  0.8291416E+02  0.7561462E-02  0.1320979E+00
         -2   -1    0    0    0  501 -0.00000000000E+00  0.00000000000E+00  0.38639590959E+02  0.38639590959E+02  0.00000000000E+00 0. -1.
          2   -1    0    0  501    0  0.00000000000E+00 -0.00000000000E+00 -0.36032749360E+03  0.36032749360E+03  0.00000000000E+00 0.  1.
         25    2    1    2    0    0  0.24384706444E+02 -0.30298889834E+02 -0.14078210610E+03  0.19230318695E+03  0.12509307607E+03 0.  0.
          5    1    3    3  502    0  0.41623963807E+02 -0.59652307026E+00 -0.15063034454E+03  0.15633260472E+03  0.41800000000E+01 0. -1.
         -5    1    3    3    0  502 -0.17239257362E+02 -0.29702366764E+02  0.98482384374E+01  0.35970582232E+02  0.41800000000E+01 0. -1.
        -11    1    1    2    0    0 -0.49414160864E+02  0.38942314624E+02 -0.76988023808E+02  0.99425444289E+02  0.00000000000E+00 0. -1.
         11    1    1    2    0    0  0.25029454420E+02 -0.86434247901E+01 -0.10391777273E+03  0.10723845332E+03  0.00000000000E+00 0.  1.
</event>
<event>
 7    1  0.2844572E-009  0.9964716E+02  0.7561462E-02  0.1281040E+00
         -2   -1    0    0    0  501 -0.00000000000E+00  0.00000000000E+00  0.23814183051E+02  0.23814183051E+02  0.00000000000E+00 0.  1.
          2   -1    0    0  501    0  0.00000000000E+00 -0.00000000000E+00 -0.55973903542E+03  0.55973903542E+03  0.00000000000E+00 0. -1.
         25    2    1    2    0    0  0.30951069047E+02 -0.12778135048E+02 -0.34295871207E+03  0.36659149885E+03  0.12508956564E+03 0.  0.
          5    1    3    3  502    0  0.50231970373E+02  0.39789621926E+02 -0.11394519361E+03  0.13079542961E+03  0.41800000000E+01 0.  1.
         -5    1    3    3    0  502 -0.19280901326E+02 -0.52567756974E+02 -0.22901351846E+03  0.23579606924E+03  0.41800000000E+01 0.  1.
        -11    1    1    2    0    0  0.13253136234E+02 -0.19933341826E+02 -0.13482699460E+03  0.13693539429E+03  0.00000000000E+00 0. -1.
         11    1    1    2    0    0 -0.44204205281E+02  0.32711476875E+02 -0.58139145701E+02  0.80026325335E+02  0.00000000000E+00 0.  1.
</event>
<event>
 7    1  0.2844572E-009  0.1184649E+03  0.7561462E-02  0.1245651E+00
          2   -1    0    0  501    0  0.00000000000E+00  0.00000000000E+00  0.27867877707E+03  0.27867877707E+03  0.00000000000E+00 0. -1.
         -2   -1    0    0    0  501 -0.00000000000E+00 -0.00000000000E+00 -0.79389516784E+02  0.79389516784E+02  0.00000000000E+00 0.  1.
         25    2    1    2    0    0  0.55343131430E+02  0.55471693051E+02  0.30955288121E+02  0.15081737444E+03  0.12509068568E+03 0.  0.
          5    1    3    3  502    0 -0.31204290200E+02  0.47716244259E+02 -0.34399818609E+01  0.57270005834E+02  0.41800000000E+01 0.  1.
         -5    1    3    3    0  502  0.86547421630E+02  0.77554487925E+01  0.34395269982E+02  0.93547368610E+02  0.41800000000E+01 0.  1.
        -11    1    1    2    0    0 -0.22896065976E+00 -0.33397322517E+02  0.53931721804E+01  0.33830753472E+02  0.00000000000E+00 0.  1.
         11    1    1    2    0    0 -0.55114170770E+02 -0.22074370534E+02  0.16294079998E+03  0.17342016594E+03  0.00000000000E+00 0. -1.
</event>
<event>
 7    1  0.2844572E-009  0.2336566E+03  0.7561462E-02  0.1124092E+00
         -2   -1    0    0    0  501 -0.00000000000E+00  0.00000000000E+00  0.18079423701E+03  0.18079423701E+03  0.00000000000E+00 0.  1.
          2   -1    0    0  501    0  0.00000000000E+00 -0.00000000000E+00 -0.42006322055E+03  0.42006322055E+03  0.00000000000E+00 0. -1.
         25    2    1    2    0    0 -0.89206228154E+01 -0.23282074557E+03 -0.15643415286E+02  0.26490372203E+03  0.12507673015E+03 0.  0.
          5    1    3    3  502    0  0.15585047969E+01 -0.99332579029E+02  0.54814742315E+02  0.11354082336E+03  0.41800000000E+01 0.  1.
         -5    1    3    3    0  502 -0.10479127612E+02 -0.13348816654E+03 -0.70458157601E+02  0.15136289867E+03  0.41800000000E+01 0.  1.
        -11    1    1    2    0    0  0.15699460856E+02  0.15033878882E+03 -0.82118195201E+02  0.17202215694E+03  0.00000000000E+00 0.  1.
         11    1    1    2    0    0 -0.67788380406E+01  0.82481956745E+02 -0.14150737305E+03  0.16393157859E+03  0.00000000000E+00 0. -1.
</event>
<event>
 7    1  0.2844572E-009  0.9871392E+02  0.7561462E-02  0.1283024E+00
         -2   -1    0    0    0  501 -0.00000000000E+00  0.00000000000E+00  0.21751171271E+02  0.21751171271E+02  0.00000000000E+00 0. -1.
          2   -1    0    0  501    0  0.00000000000E+00 -0.00000000000E+00 -0.24893480261E+04  0.24893480261E+04  0.00000000000E+00 0.  1.
         25    2    1    2    0    0 -0.37955861114E+02 -0.31786482435E+02 -0.23557478234E+04  0.23595858656E+04  0.12508645847E+03 0.  0.
          5    1    3    3  502    0  0.32856898418E+02  0.26008378624E+02 -0.62061129144E+03  0.62203847067E+03  0.41800000000E+01 0.  1.
         -5    1    3    3    0  502 -0.70812759532E+02 -0.57794861060E+02 -0.17351365319E+04  0.17375473950E+04  0.41800000000E+01 0.  1.
        -11    1    1    2    0    0  0.24630294477E+02  0.40849218151E+02 -0.12299386728E+03  0.13191967791E+03  0.00000000000E+00 0.  1.
         11    1    1    2    0    0  0.13325566637E+02 -0.90627357156E+01  0.11144835830E+02  0.19593653833E+02  0.00000000000E+00 0. -1.
</event>
<event>
 7    1  0.2844572E-009  0.7155308E+02  0.7561462E-02  0.1354890E+00
          1   -1    0    0  501    0  0.00000000000E+00  0.00000000000E+00  0.10134628639E+03  0.10134628639E+03  0.00000000000E+00 0. -1.
         -1   -1    0    0    0  501 -0.00000000000E+00 -0.00000000000E+00 -0.12134436999E+03  0.12134436999E+03  0.00000000000E+00 0.  1.
         25    2    1    2    0    0 -0.36203331585E+02 -0.75557288527E+01 -0.31278594038E+02  0.13413971338E+03  0.12508933609E+03 0.  0.
          5    1    3    3  502    0 -0.41787998671E+02  0.25692320710E+02  0.34492812531E+02  0.60112882917E+02  0.41800000000E+01 0. -1.
         -5    1    3    3    0  502  0.55846670856E+01 -0.33248049562E+02 -0.65771406568E+02  0.74026830461E+02  0.41800000000E+01 0. -1.
        -11    1    1    2    0    0  0.47164693477E+02  0.10930237924E+01 -0.22635420896E+02  0.52326525691E+02  0.00000000000E+00 0.  1.
         11    1    1    2    0    0 -0.10961361892E+02  0.64627050603E+01  0.33915931337E+02  0.36224417313E+02  0.00000000000E+00 0. -1.
</event>
<event>
 7    1  0.2844572E-009  0.1361703E+03  0.7561462E-02  0.1218577E+00
         -1   -1    0    0    0  501 -0.00000000000E+00  0.00000000000E+00  0.92049425605E+03  0.92049425605E+03  0.00000000000E+00 0.  1.
          1   -1    0    0  501    0  0.00000000000E+00 -0.00000000000E+00 -0.22697617709E+02  0.22697617709E+02  0.00000000000E+00 0. -1.
         25    2    1    2    0    0  0.26020809990E+02 -0.87387804253E+02  0.39413864227E+03  0.42344525771E+03  0.12508759356E+03 0.  0.
          5    1    3    3  502    0  0.69359902470E+02 -0.75896674426E+02  0.20966675030E+03  0.23355667372E+03  0.41800000000E+01 0.  1.
         -5    1    3    3    0  502 -0.43339092480E+02 -0.11491129827E+02  0.18447189197E+03  0.18988858399E+03  0.41800000000E+01 0.  1.
        -11    1    1    2    0    0 -0.33571321409E+02 -0.30009675129E+01  0.86350411575E+02  0.92695377481E+02  0.00000000000E+00 0. -1.
         11    1    1    2    0    0  0.75505114194E+01  0.90388771766E+02  0.41730758450E+03  0.42705123857E+03  0.00000000000E+00 0.  1.
</event>
<event>
 7    1  0.2844572E-009  0.1158644E+03  0.7561462E-02  0.1250080E+00
         -1   -1    0    0    0  501 -0.00000000000E+00  0.00000000000E+00  0.66719507325E+02  0.66719507325E+02  0.00000000000E+00 0.  1.
          1   -1    0    0  501    0  0.00000000000E+00 -0.00000000000E+00 -0.20888762864E+03  0.20888762864E+03  0.00000000000E+00 0. -1.
         25    2    1    2    0    0 -0.11386288336E+02  0.46288200365E+02 -0.95152258378E+02  0.16423454969E+03  0.12508712957E+03 0.  0.
          5    1    3    3  502    0 -0.26371912695E+02  0.86462211154E+02 -0.59341646624E+02  0.10821319310E+03  0.41800000000E+01 0. -1.
         -5    1    3    3    0  502  0.14985624359E+02 -0.40174010789E+02 -0.35810611754E+02  0.56021356593E+02  0.41800000000E+01 0. -1.
        -11    1    1    2    0    0  0.33120824401E+02  0.12560279930E+02 -0.47744545548E+01  0.35742762305E+02  0.00000000000E+00 0.  1.
         11    1    1    2    0    0 -0.21734536065E+02 -0.58848480295E+02 -0.42241408377E+02  0.75629823963E+02  0.00000000000E+00 0. -1.
</event>
<event>
 7    1  0.2844572E-009  0.9638355E+02  0.7561462E-02  0.1288090E+00
          2   -1    0    0  501    0  0.00000000000E+00  0.00000000000E+00  0.34778830149E+03  0.34778830149E+03  0.00000000000E+00 0. -1.
         -2   -1    0    0    0  501 -0.00000000000E+00 -0.00000000000E+00 -0.48554489793E+02  0.48554489793E+02  0.00000000000E+00 0.  1.
         25    2    1    2    0    0 -0.44763593009E+02  0.51119679666E+02  0.13423364009E+03  0.19564078796E+03  0.12505857377E+03 0.  0.
          5    1    3    3  502    0 -0.19547660380E+02  0.48926709484E+02 -0.58975497396E+01  0.53180705338E+02  0.41800000000E+01 0.  1.
         -5    1    3    3    0  502 -0.25215932629E+02  0.21929701817E+01  0.14013118983E+03  0.14246008262E+03  0.41800000000E+01 0.  1.
        -11    1    1    2    0    0  0.35470630220E+02 -0.78071505491E+02  0.12315751235E+03  0.15007031161E+03  0.00000000000E+00 0.  1.
         11    1    1    2    0    0  0.92929627885E+01  0.26951825824E+02  0.41842659250E+02  0.50631691714E+02  0.00000000000E+00 0. -1.
</event>
<event>
 7    1  0.2844572E-009  0.1431414E+03  0.7561462E-02  0.1209163E+00
          2   -1    0    0  501    0  0.00000000000E+00  0.00000000000E+00  0.47136882397E+03  0.47136882397E+03  0.00000000000E+00 0.  1.
         -2   -1    0    0    0  501 -0.00000000000E+00 -0.00000000000E+00 -0.61314471340E+02  0.61314471340E+02  0.00000000000E+00 0. -1.
         25    2    1    2    0    0 -0.98160378955E+02  0.83849164002E+02  0.25896661259E+03  0.31524135661E+03  0.12508902502E+03 0.  0.
          5    1    3    3  502    0 -0.10641068096E+02  0.20940490292E+02  0.17996792785E+03  0.18154245762E+03  0.41800000000E+01 0. -1.
         -5    1    3    3    0  502 -0.87519310859E+02  0.62908673710E+02  0.78998684748E+02  0.13369889900E+03  0.41800000000E+01 0. -1.
        -11    1    1    2    0    0 -0.32652788408E+01 -0.46288724524E+02  0.61233070585E+02  0.76829662222E+02  0.00000000000E+00 0. -1.
         11    1    1    2    0    0  0.10142565780E+03 -0.37560439478E+02  0.89854669451E+02  0.14061227647E+03  0.00000000000E+00 0.  1.
</event>
<event>
 7    1  0.2844572E-009  0.1987079E+03  0.7561462E-02  0.1150834E+00
          1   -1    0    0  501    0  0.00000000000E+00  0.00000000000E+00  0.15138943734E+03  0.15138943734E+03  0.00000000000E+00 0. -1.
         -1   -1    0    0    0  501 -0.00000000000E+00 -0.00000000000E+00 -0.33059718791E+03  0.33059718791E+03  0.00000000000E+00 0.  1.
         25    2    1    2    0    0 -0.16380793012E+03 -0.58480246767E+02  0.53363162448E-01  0.21424386720E+03  0.12508978597E+03 0.  0.
          5    1    3    3  502    0 -0.13453868321E+03  0.13970780912E+02  0.81660946282E+01  0.13557284943E+03  0.41800000000E+01 0.  1.
         -5    1    3    3    0  502 -0.29269246906E+02 -0.72451027680E+02 -0.81127314658E+01  0.78671017777E+02  0.41800000000E+01 0.  1.
        -11    1    1    2    0    0  0.14557755971E+03  0.27887150597E+02 -0.94453493248E+02  0.17576114886E+03  0.00000000000E+00 0. -1.
         11    1    1    2    0    0  0.18230370407E+02  0.30593096170E+02 -0.84807620478E+02  0.91981609193E+02  0.00000000000E+00 0.  1.
</event>
<event>
 7    1  0.2844572E-009  0.2533576E+03  0.7561462E-02  0.1111201E+00
          2   -1    0    0  501    0  0.00000000000E+00  0.00000000000E+00  0.43708094606E+03  0.43708094606E+03  0.00000000000E+00 0. -1.
         -2   -1    0    0    0  501 -0.00000000000E+00 -0.00000000000E+00 -0.16194002323E+03  0.16194002323E+03  0.00000000000E+00 0.  1.
         25    2    1    2    0    0  0.23643721002E+03 -0.50139636015E+02  0.13019445653E+03  0.30168660311E+03  0.12509065755E+03 0.  0.
          5    1    3    3  502    0  0.20560272497E+02 -0.22406567854E+02 -0.20512227904E+02  0.36918870266E+02  0.41800000000E+01 0. -1.
         -5    1    3    3    0  502  0.21587693752E+03 -0.27733068162E+02  0.15070668444E+03  0.26476773285E+03  0.41800000000E+01 0. -1.
        -11    1    1    2    0    0 -0.12784151846E+03  0.73193960748E+02  0.97177595950E+02  0.17647746283E+03  0.00000000000E+00 0. -1.
         11    1    1    2    0    0 -0.10859569155E+03 -0.23054324733E+02  0.47768870350E+02  0.12085690335E+03  0.00000000000E+00 0.  1.
</event>
<event>
 7    1  0.2844572E-009  0.1631612E+03  0.7561462E-02  0.1185173E+00
         -2   -1    0    0    0  501 -0.00000000000E+00  0.00000000000E+00  0.14921913395E+03  0.14921913395E+03  0.00000000000E+00 0. -1.
          2   -1    0    0  501    0  0.00000000000E+00 -0.00000000000E+00 -0.18686940179E+03  0.18686940179E+03  0.00000000000E+00 0.  1.
         25    2    1    2    0    0  0.11874624629E+03  0.41024366430E+02 -0.67287480095E+01  0.17741345452E+03  0.12508632278E+03 0.  0.
          5    1    3    3  502    0  0.61212921691E+02 -0.40889905168E+02 -0.19882857828E+02  0.76366265863E+02  0.41800000000E+01 0.  1.
         -5    1    3    3    0  502  0.57533324602E+02  0.81914271598E+02  0.13154109819E+02  0.10104718866E+03  0.41800000000E+01 0.  1.
        -11    1    1    2    0    0 -0.11471213566E+03 -0.36074921891E+01 -0.36931276027E+02  0.12056453548E+03  0.00000000000E+00 0.  1.
         11    1    1    2    0    0 -0.40341106353E+01 -0.37416874241E+02  0.60097562048E+01  0.38110545735E+02  0.00000000000E+00 0. -1.
</event>
<event>
 7    1  0.2844572E-009  0.1078919E+03  0.7561462E-02  0.1264524E+00
         -2   -1    0    0    0  501 -0.00000000000E+00  0.00000000000E+00  0.18945816155E+03  0.18945816155E+03  0.00000000000E+00 0. -1.
          2   -1    0    0  501    0  0.00000000000E+00 -0.00000000000E+00 -0.12034814151E+03  0.12034814151E+03  0.00000000000E+00 0.  1.
         25    2    1    2    0    0  0.44223054359E+02  0.31636813726E+02  0.12935046700E+03  0.18797828039E+03  0.12509086324E+03 0.  0.
          5    1    3    3  502    0 -0.41890979157E+02 -0.55876809380E+01  0.38757705543E+02  0.57495290693E+02  0.41800000000E+01 0. -1.
         -5    1    3    3    0  502  0.86114033516E+02  0.37224494664E+02  0.90592761462E+02  0.13048298970E+03  0.41800000000E+01 0. -1.
        -11    1    1    2    0    0 -0.20816264634E+02  0.16050226247E+02 -0.63378943552E+02  0.68613534537E+02  0.00000000000E+00 0.  1.
         11    1    1    2    0    0 -0.23406789725E+02 -0.47687039973E+02  0.31384965904E+01  0.53214488135E+02  0.00000000000E+00 0. -1.
</event>
<event>
 7    1  0.2844572E-009  0.8028147E+02  0.7561462E-02  0.1328255E+00
         -1   -1    0    0    0  501 -0.00000000000E+00  0.00000000000E+00  0.64358565183E+02  0.64358565183E+02  0.00000000000E+00 0.  1.
          1   -1    0    0  501    0  0.00000000000E+00 -0.00000000000E+00 -0.24405287397E+03  0.24405287397E+03  0.00000000000E+00 0. -1.
         25    2    1    2    0    0  0.57876078380E+02 -0.26528967572E+01 -0.70420129766E+02  0.15480071523E+03  0.12509032117E+03 0.  0.
          5    1    3    3  502    0  0.40467756283E+02  0.24387820748E+01 -0.10659357279E+03  0.11411945109E+03  0.41800000000E+01 0.  1.
         -5    1    3    3    0  502  0.17408322097E+02 -0.50916788320E+01  0.36173443026E+02  0.40681264139E+02  0.41800000000E+01 0.  1.
        -11    1    1    2    0    0  0.11516354394E+02  0.25628131208E+02 -0.89628586010E+01  0.29491699884E+02  0.00000000000E+00 0.  1.
         11    1    1    2    0    0 -0.69392432774E+02 -0.22975234451E+02 -0.10031132042E+03  0.12411902404E+03  0.00000000000E+00 0. -1.
</event>
<event>
 7    1  0.2844572E-009  0.9843312E+02  0.7561462E-02  0.1283626E+00
          2   -1    0    0  501    0  0.00000000000E+00  0.00000000000E+00  0.14817202329E+03  0.14817202329E+03  0.00000000000E+00 0.  1.
         -2   -1    0    0    0  501 -0.00000000000E+00 -0.00000000000E+00 -0.11590906198E+03  0.11590906198E+03  0.00000000000E+00 0. -1.
         25    2    1    2    0    0 -0.70065773655E+02 -0.10440819154E+02  0.37926279242E+02  0.14867714888E+03  0.12509303977E+03 0.  0.
          5    1    3    3  502    0  0.20094908056E+02 -0.53679446037E-01  0.52768306307E+02  0.56619561653E+02  0.41800000000E+01 0.  1.
         -5    1    3    3    0  502 -0.90160681711E+02 -0.10387139708E+02 -0.14842027065E+02  0.92057587223E+02  0.41800000000E+01 0.  1.
        -11    1    1    2    0    0  0.71884204884E+02 -0.29785154378E+01  0.29472665645E+02  0.77748623694E+02  0.00000000000E+00 0.  1.
         11    1    1    2    0    0 -0.18184312295E+01  0.13419334592E+02 -0.35135983576E+02  0.37655312705E+02  0.00000000000E+00 0. -1.
</event>
<event>
 7    1  0.2844572E-009  0.1839011E+03  0.7561462E-02  0.1164080E+00
         -2   -1    0    0    0  501 -0.00000000000E+00  0.00000000000E+00  0.13675153509E+03  0.13675153509E+03  0.00000000000E+00 0.  1.
          2   -1    0    0  501    0  0.00000000000E+00 -0.00000000000E+00 -0.26101919147E+03  0.26101919147E+03  0.00000000000E+00 0. -1.
         25    2    1    2    0    0 -0.98616052530E+02 -0.11644903078E+03 -0.54877386985E+02  0.20480663318E+03  0.12509487121E+03 0.  0.
          5    1    3    3  502    0 -0.12234389208E+03 -0.70920195401E+02 -0.58666813745E+02  0.15315668278E+03  0.41800000000E+01 0. -1.
         -5    1    3    3    0  502  0.23727839550E+02 -0.45528835379E+02  0.37894267603E+01  0.51649950396E+02  0.41800000000E+01 0. -1.
        -11    1    1    2    0    0  0.36092964555E+02  0.10529100743E+03 -0.21359714161E+02  0.11333638306E+03  0.00000000000E+00 0.  1.
         11    1    1    2    0    0  0.62523087974E+02  0.11158023351E+02 -0.48030555233E+02  0.79627710321E+02  0.00000000000E+00 0. -1.
</event>
<event>
 7    1  0.2844572E-009  0.1853665E+03  0.7561462E-02  0.1162708E+00
          2   -1    0    0  501    0  0.00000000000E+00  0.00000000000E+00  0.14749170349E+04  0.14749170349E+04  0.00000000000E+00 0. -1.
         -2   -1    0    0    0  501 -0.00000000000E+00 -0.00000000000E+00 -0.29337356550E+02  0.29337356550E+02  0.00000000000E+00 0.  1.
         25    2    1    2    0    0  0.93325691223E+02 -0.15000998704E+03  0.79603130074E+03  0.82494002139E+03  0.12509007266E+03 0.  0.
          5    1    3    3  502    0  0.84427885612E+02 -0.14646567269E+03  0.79671784834E+03  0.81446734950E+03  0.41800000000E+01 0. -1.
         -5    1    3    3    0  502  0.88978056107E+01 -0.35443143503E+01 -0.68654759593E+00  0.10472671889E+02  0.41800000000E+01 0. -1.
        -11    1    1    2    0    0 -0.89183525843E+02  0.76359183507E+02  0.48464710650E+03  0.49866546304E+03  0.00000000000E+00 0. -1.
         11    1    1    2    0    0 -0.41421653799E+01  0.73650803536E+02  0.16490127114E+03  0.18064890706E+03  0.00000000000E+00 0.  1.
</event>
<event>
 7    1  0.2844572E-009  0.2517315E+03  0.7561462E-02  0.1112215E+00
          1   -1    0    0  501    0  0.00000000000E+00  0.00000000000E+00  0.37486747576E+03  0.37486747576E+03  0.00000000000E+00 0. -1.
         -1   -1    0    0    0  501 -0.00000000000E+00 -0.00000000000E+00 -0.20437580833E+03  0.20437580833E+03  0.00000000000E+00 0.  1.
         25    2    1    2    0    0 -0.14460059688E+03 -0.19554014139E+03  0.95078056342E+01  0.27364730781E+03  0.12508865332E+03 0.  0.
          5    1    3    3  502    0 -0.12112740730E+03 -0.13744553237E+03  0.60261892614E+02  0.19290435783E+03  0.41800000000E+01 0. -1.
         -5    1    3    3    0  502 -0.23473189574E+02 -0.58094609023E+02 -0.50754086980E+02  0.80742949980E+02  0.41800000000E+01 0. -1.
        -11    1    1    2    0    0  0.72509653759E+02  0.33119916920E+02  0.69353302267E+02  0.10566200509E+03  0.00000000000E+00 0. -1.
         11    1    1    2    0    0  0.72090943117E+02  0.16242022447E+03  0.91630559528E+02  0.19993397119E+03  0.00000000000E+00 0.  1.
</event>
<event>
 7    1  0.2844572E-009  0.2000555E+03  0.7561462E-02  0.1149692E+00
          1   -1    0    0  501    0  0.00000000000E+00  0.00000000000E+00  0.19074412400E+04  0.19074412400E+04  0.00000000000E+00 0. -1.
         -1   -1    0    0    0  501 -0.00000000000E+00 -0.00000000000E+00 -0.33146748016E+02  0.33146748016E+02  0.00000000000E+00 0.  1.
         25    2    1    2    0    0 -0.52033346316E+02  0.17771288136E+03  0.14690772819E+04  0.14859760299E+04  0.12508942369E+03 0.  0.
          5    1    3    3  502    0 -0.64393330856E+02  0.55353172149E+02  0.88516717908E+03  0.88924062100E+03  0.41800000000E+01 0.  1.
         -5    1    3    3    0  502  0.12359984540E+02  0.12235970921E+03  0.58391010281E+03  0.59673540889E+03  0.41800000000E+01 0.  1.
        -11    1    1    2    0    0  0.61526656506E+02 -0.16553327381E+03  0.40165564023E+03  0.43876422772E+03  0.00000000000E+00 0. -1.
         11    1    1    2    0    0 -0.94933101903E+01 -0.12179607547E+02  0.35615698369E+01  0.15847730376E+02  0.00000000000E+00 0.  1.
</event>
<event>
 7    1  0.2844572E-009  0.1107898E+03  0.7561462E-02  0.1259114E+00
         -2   -1    0    0    0  501 -0.00000000000E+00  0.00000000000E+00  0.13537295639E+02  0.13537295639E+02  0.00000000000E+00 0.  1.
          2   -1    0    0  501    0  0.00000000000E+00 -0.00000000000E+00 -0.97516480123E+03  0.97516480123E+03  0.00000000000E+00 0. -1.
         25    2    1    2    0    0 -0.41860118355E+01 -0.34094062673E+02 -0.60035883344E+03  0.61421295801E+03  0.12508757370E+03 0.  0.
          5    1    3    3  502    0  0.28303774185E+02  0.37012654078E+02 -0.30890705976E+03  0.31242932667E+03  0.41800000000E+01 0. -1.
         -5    1    3    3    0  502 -0.32489786020E+02 -0.71106716751E+02 -0.29145177368E+03  0.30178363134E+03  0.41800000000E+01 0. -1.
        -11    1    1    2    0    0 -0.40033437561E+01  0.64701165056E+02 -0.20368420443E+03  0.21375107639E+03  0.00000000000E+00 0. -1.
         11    1    1    2    0    0  0.81893555916E+01 -0.30607102383E+02 -0.15758446772E+03  0.16073806247E+03  0.00000000000E+00 0.  1.
</event>
<event>
 7    1  0.2844572E-009  0.1407803E+03  0.7561462E-02  0.1212283E+00
          4   -1    0    0  501    0  0.00000000000E+00  0.00000000000E+00  0.13041959139E+04  0.13041959139E+04  0.00000000000E+00 0. -1.
         -4   -1    0    0    0  501 -0.00000000000E+00 -0.00000000000E+00 -0.20286210739E+02  0.20286210739E+02  0.00000000000E+00 0.  1.
         25    2    1    2    0    0  0.10917998521E+03  0.40648602969E+01  0.90207939396E+03  0.91724164503E+03  0.12509280604E+03 0.  0.
          5    1    3    3  502    0 -0.19985317690E+02 -0.27213278467E+01  0.35423166137E+02  0.40976720800E+02  0.41800000000E+01 0.  1.
         -5    1    3    3    0  502  0.12916530290E+03  0.67861881436E+01  0.86665622782E+03  0.87626492423E+03  0.41800000000E+01 0.  1.
        -11    1    1    2    0    0 -0.75597943603E+01 -0.26437871817E+02  0.31644512334E+02  0.41922389219E+02  0.00000000000E+00 0.  1.
         11    1    1    2    0    0 -0.10162019085E+03  0.22373011520E+02  0.35018579682E+03  0.36531809034E+03  0.00000000000E+00 0. -1.
</event>
<event>
 7    1  0.2844572E-009  0.8789168E+02  0.7561462E-02  0.1308039E+00
         -1   -1    0    0    0  501 -0.00000000000E+00  0.00000000000E+00  0.14133107148E+03  0.14133107148E+03  0.00000000000E+00 0.  1.
          1   -1    0    0  501    0  0.00000000000E+00 -0.00000000000E+00 -0.11902285719E+03  0.11902285719E+03  0.00000000000E+00 0. -1.
         25    2    1    2    0    0 -0.27793221033E+02  0.58822855693E+02  0.34574660992E+02  0.14517447161E+03  0.12509048140E+03 0.  0.
          5    1    3    3  502    0 -0.23397610194E+02  0.99544727194E+01 -0.44848466181E+02  0.51724240050E+02  0.41800000000E+01 0. -1.
         -5    1    3    3    0  502 -0.43956108385E+01  0.48868382973E+02  0.79423127173E+02  0.93450231562E+02  0.41800000000E+01 0. -1.
        -11    1    1    2    0    0  0.54344141853E+02 -0.32177304865E+02 -0.34010524537E+02  0.71731307541E+02  0.00000000000E+00 0.  1.
         11    1    1    2    0    0 -0.26550920821E+02 -0.26645550827E+02  0.21744077842E+02  0.43448149518E+02  0.00000000000E+00 0. -1.
</event>
<event>
 7    1  0.2844572E-009  0.1252355E+03  0.7561462E-02  0.1234702E+00
         -2   -1    0    0    0  501 -0.00000000000E+00  0.00000000000E+00  0.30160410019E+02  0.30160410019E+02  0.00000000000E+00 0.  1.
          2   -1    0    0  501    0  0.00000000000E+00 -0.00000000000E+00 -0.81161549065E+03  0.81161549065E+03  0.00000000000E+00 0. -1.
         25    2    1    2    0    0  0.15003246796E+02  0.10677219335E+03 -0.33465036499E+03  0.37318031829E+03  0.12508910618E+03 0.  0.
          5    1    3    3  502    0 -0.32748837290E+02  0.76710217078E+02 -0.92997719821E+02  0.12499196790E+03  0.41800000000E+01 0. -1.
         -5    1    3    3    0  502  0.47752084085E+02  0.30061976276E+02 -0.24165264517E+03  0.24818835039E+03  0.41800000000E+01 0. -1.
        -11    1    1    2    0    0  0.63483747878E+01 -0.18505090444E+02 -0.91129135456E+01  0.21582062646E+02  0.00000000000E+00 0.  1.
         11    1    1    2    0    0 -0.21351621584E+02 -0.88267102909E+02 -0.43769180209E+03  0.44701351973E+03  0.00000000000E+00 0. -1.
</event>
<event>
 7    1  0.2844572E-009  0.1340920E+03  0.7561462E-02  0.1221507E+00
         -2   -1    0    0    0  501 -0.00000000000E+00  0.00000000000E+00  0.97222612201E+02  0.97222612201E+02  0.00000000000E+00 0.  1.
          2   -1    0    0  501    0  0.00000000000E+00 -0.00000000000E+00 -0.24643137962E+03  0.24643137962E+03  0.00000000000E+00 0. -1.
         25    2    1    2    0    0  0.10273590504E+03 -0.24950354482E+02 -0.42081962805E+02  0.16910044154E+03  0.12508749483E+03 0.  0.
          5    1    3    3  502    0  0.26606696689E+02 -0.45471207250E+02 -0.67887428095E+02  0.86033262700E+02  0.41800000000E+01 0.  1.
         -5    1    3    3    0  502  0.76129208348E+02  0.20520852768E+02  0.25805465289E+02  0.83067178842E+02  0.41800000000E+01 0.  1.
        -11    1    1    2    0    0 -0.76366986818E+02  0.56693684028E+02 -0.62703029372E+02  0.11391997356E+03  0.00000000000E+00 0. -1.
         11    1    1    2    0    0 -0.26368918219E+02 -0.31743329546E+02 -0.44423775239E+02  0.60633576715E+02  0.00000000000E+00 0.  1.
</event>
<event>
 7    1  0.2844572E-009  0.1235278E+03  0.7561462E-02  0.1237388E+00
          1   -1    0    0  501    0  0.00000000000E+00  0.00000000000E+00  0.55724168643E+02  0.55724168643E+02  0.00000000000E+00 0. -1.
         -1   -1    0    0    0  501 -0.00000000000E+00 -0.00000000000E+00 -0.51954049095E+03  0.51954049095E+03  0.00000000000E+00 0.  1.
         25    2    1    2    0    0 -0.53509072411E+02 -0.83245606319E+02 -0.10208316551E+03  0.18938218056E+03  0.12510629814E+03 0.  0.
          5    1    3    3  502    0  0.92789356690E+01  0.22417257451E+02 -0.50185256455E+02  0.55898698055E+02  0.41800000000E+01 0.  1.
         -5    1    3    3    0  502 -0.62788008080E+02 -0.10566286377E+03 -0.51897909054E+02  0.13348348251E+03  0.41800000000E+01 0.  1.
        -11    1    1    2    0    0  0.45359594466E+02  0.62998668679E+02 -0.35448399317E+03  0.36288459113E+03  0.00000000000E+00 0.  1.
         11    1    1    2    0    0  0.81494779450E+01  0.20246937639E+02 -0.72491636287E+01  0.22997887900E+02  0.00000000000E+00 0. -1.
</event>
<event>
 7    1  0.2844572E-009  0.1340618E+03  0.7561462E-02  0.1221550E+00
         -2   -1    0    0    0  501 -0.00000000000E+00  0.00000000000E+00  0.30167138569E+02  0.30167138569E+02  0.00000000000E+00 0.  1.
          2   -1    0    0  501    0  0.00000000000E+00 -0.00000000000E+00 -0.60145129347E+03  0.60145129347E+03  0.00000000000E+00 0. -1.
         25    2    1    2    0    0  0.24166729374E+02 -0.65141787677E+02 -0.29719452874E+03  0.32984769127E+03  0.12508968068E+03 0.  0.
          5    1    3    3  502    0  0.73206914777E+02 -0.22361994496E+02 -0.18179832993E+03  0.19730032016E+03  0.41800000000E+01 0.  1.
         -5    1    3    3    0  502 -0.49040185402E+02 -0.42779793180E+02 -0.11539619880E+03  0.13254737111E+03  0.41800000000E+01 0.  1.
        -11    1    1    2    0    0 -0.23500560020E+01 -0.29263962099E+02 -0.64692896598E+02  0.71042755515E+02  0.00000000000E+00 0.  1.
         11    1    1    2    0    0 -0.21816673372E+02  0.94405749776E+02 -0.20939672957E+03  0.23072798526E+03  0.00000000000E+00 0. -1.
</event>
<event>
 7    1  0.2844572E-009  0.1380986E+03  0.7561462E-02  0.1215911E+00
          2   -1    0    0  501    0  0.00000000000E+00  0.00000000000E+00  0.29754800201E+03  0.29754800201E+03  0.00000000000E+00 0. -1.
         -2   -1    0    0    0  501 -0.00000000000E+00 -0.00000000000E+00 -0.68029185698E+02  0.68029185698E+02  0.00000000000E+00 0.  1.
         25    2    1    2    0    0  0.88388651698E+02 -0.26708156154E+02  0.13318542481E+03  0.20474536026E+03  0.12512564011E+03 0.  0.
          5    1    3    3  502    0  0.11530595586E+03 -0.32687116166E+02  0.12969176621E+03  0.17663900374E+03  0.41800000000E+01 0. -1.
         -5    1    3    3    0  502 -0.26917304163E+02  0.59789600118E+01  0.34936585970E+01  0.28106356516E+02  0.41800000000E+01 0. -1.
        -11    1    1    2    0    0 -0.50123371547E+02 -0.31153687529E+02  0.37968513803E+02  0.70174872015E+02  0.00000000000E+00 0.  1.
         11    1    1    2    0    0 -0.38265280150E+02  0.57861843683E+02  0.58364877699E+02  0.90656955432E+02  0.00000000000E+00 0. -1.
</event>
<event>
 7    1  0.2844572E-009  0.6728487E+02  0.7561462E-02  0.1369577E+00
          2   -1    0    0  501    0  0.00000000000E+00  0.00000000000E+00  0.13198338837E+03  0.13198338837E+03  0.00000000000E+00 0. -1.
         -2   -1    0    0    0  501 -0.00000000000E+00 -0.00000000000E+00 -0.93402853962E+02  0.93402853962E+02  0.00000000000E+00 0.  1.
         25    2    1    2    0    0 -0.86932860261E+01  0.11731780838E+02  0.10104453489E+01  0.12595387136E+03  0.12510055479E+03 0.  0.
          5    1    3    3  502    0  0.10751546732E+02  0.36630059773E+02 -0.51673785082E+02  0.64381748197E+02  0.41800000000E+01 0. -1.
         -5    1    3    3    0  502 -0.19444832758E+02 -0.24898278935E+02  0.52684230431E+02  0.61572123165E+02  0.41800000000E+01 0. -1.
        -11    1    1    2    0    0 -0.24461240698E+02  0.79771159686E+01 -0.18277495241E+02  0.31560315397E+02  0.00000000000E+00 0.  1.
         11    1    1    2    0    0  0.33154526725E+02 -0.19708896807E+02  0.55847584302E+02  0.67872055576E+02  0.00000000000E+00 0. -1.
</event>
<event>
 7    1  0.2844572E-009  0.6140145E+02  0.7561462E-02  0.1392043E+00
          1   -1    0    0  501    0  0.00000000000E+00  0.00000000000E+00  0.83464742447E+02  0.83464742447E+02  0.00000000000E+00 0. -1.
         -1   -1    0    0    0  501 -0.00000000000E+00 -0.00000000000E+00 -0.14855224950E+03  0.14855224950E+03  0.00000000000E+00 0.  1.
         25    2    1    2    0    0  0.23999106515E+02 -0.30596657510E+02 -0.34675409333E+02  0.13550461705E+03  0.12508798770E+03 0.  0.
          5    1    3    3  502    0 -0.14479247107E+02 -0.13401878440E+02  0.42741203747E+02  0.47260362252E+02  0.41800000000E+01 0.  1.
         -5    1    3    3    0  502  0.38478353622E+02 -0.17194779070E+02 -0.77416613080E+02  0.88244254802E+02  0.41800000000E+01 0.  1.
        -11    1    1    2    0    0 -0.28125800956E+02 -0.12659641826E+01 -0.51069293500E+02  0.58315830470E+02  0.00000000000E+00 0.  1.
         11    1    1    2    0    0  0.41266944412E+01  0.31862621693E+02  0.20657195783E+02  0.38196544421E+02  0.00000000000E+00 0. -1.
</event>
<event>
 7    1  0.2844572E-009  0.1352790E+03  0.7561462E-02  0.1219826E+00
          2   -1    0    0  501    0  0.00000000000E+00  0.00000000000E+00  0.25361892041E+03  0.25361892041E+03  0.00000000000E+00 0.  1.
         -2   -1    0    0    0  501 -0.00000000000E+00 -0.00000000000E+00 -0.90413936267E+02  0.90413936267E+02  0.00000000000E+00 0. -1.
         25    2    1    2    0    0 -0.82762809063E+02  0.35788562888E+02  0.14995275399E+03  0.21508993748E+03  0.12508936397E+03 0.  0.
          5    1    3    3  502    0  0.14866633849E+02 -0.30348422609E+02  0.49752398959E+02  0.60289444840E+02  0.41800000000E+01 0. -1.
         -5    1    3    3    0  502 -0.97629442913E+02  0.66136985496E+02  0.10020035504E+03  0.15480049265E+03  0.41800000000E+01 0. -1.
        -11    1    1    2    0    0  0.97680340458E+02 -0.27656374005E+02  0.29204823017E+02  0.10563733063E+03  0.00000000000E+00 0.  1.
         11    1    1    2    0    0 -0.14917531395E+02 -0.81321888832E+01 -0.15952592869E+02  0.23305588562E+02  0.00000000000E+00 0. -1.
</event>
<event>
 6    1  0.2844572E-009  0.1439954E+03  0.7561462E-02  0.1208052E+00
         -2   -1    0    0    0  501 -0.00000000000E+00  0.00000000000E+00  0.48899796554E+03  0.48899796554E+03  0.00000000000E+00 0.  1.
          2   -1    0    0  501    0  0.00000000000E+00 -0.00000000000E+00 -0.51749787808E+02  0.51749787808E+02  0.00000000000E+00 0. -1.
          5    1    1    2  502    0  0.41809769782E+02 -0.31445942465E+02  0.18753809423E+03  0.19474319842E+03  0.41800000000E+01 0.  1.
         -5    1    1    2    0  502 -0.56551032767E+02 -0.77233749688E+02  0.10816578511E+03  0.14450045282E+03  0.41800000000E+01 0.  1.
        -11    1    1    2    0    0 -0.61595058259E+01 -0.13974191577E+02  0.35091590887E+01  0.15669452440E+02  0.00000000000E+00 0. -1.
         11    1    1    2    0    0  0.20900768811E+02  0.12265388373E+03  0.13803513931E+03  0.18583464966E+03  0.00000000000E+00 0.  1.
</event>
<event>
 7    1  0.2844572E-009  0.2136947E+03  0.7561462E-02  0.1138673E+00
          2   -1    0    0  501    0  0.00000000000E+00  0.00000000000E+00  0.19573538951E+04  0.19573538951E+04  0.00000000000E+00 0. -1.
         -2   -1    0    0    0  501 -0.00000000000E+00 -0.00000000000E+00 -0.27464482457E+02  0.27464482457E+02  0.00000000000E+00 0.  1.
         25    2    1    2    0    0 -0.28206121011E+02 -0.20293867926E+03  0.95447074414E+03  0.98419498432E+03  0.12508266435E+03 0.  0.
          5    1    3    3  502    0 -0.17205554751E+02 -0.13660593644E+03  0.35237785029E+03  0.37834486221E+03  0.41800000000E+01 0. -1.
         -5    1    3    3    0  502 -0.11000566260E+02 -0.66332742827E+02  0.60209289385E+03  0.60585012211E+03  0.41800000000E+01 0. -1.
        -11    1    1    2    0    0  0.53206801298E+02  0.75257847959E+02  0.36091307052E+03  0.37249557294E+03  0.00000000000E+00 0. -1.
         11    1    1    2    0    0 -0.25000680286E+02  0.12768083130E+03  0.61450559800E+03  0.62812782033E+03  0.00000000000E+00 0.  1.
</event>
<event>
 7    1  0.2844572E-009  0.9483060E+02  0.7561462E-02  0.1291558E+00
          2   -1    0    0  501    0  0.00000000000E+00  0.00000000000E+00  0.40232850645E+02  0.40232850645E+02  0.00000000000E+00 0.  1.
         -2   -1    0    0    0  501 -0.00000000000E+00 -0.00000000000E+00 -0.32633191270E+03  0.32633191270E+03  0.00000000000E+00 0. -1.
         25    2    1    2    0    0  0.41122853821E+01 -0.28894424487E+02 -0.12723079031E+03  0.18079480379E+03  0.12508912190E+03 0.  0.
          5    1    3    3  502    0  0.19698095314E+02 -0.59281288831E+02 -0.13196646159E+03  0.14606473068E+03  0.41800000000E+01 0. -1.
         -5    1    3    3    0  502 -0.15585809932E+02  0.30386864343E+02  0.47356712755E+01  0.34730073111E+02  0.41800000000E+01 0. -1.
        -11    1    1    2    0    0 -0.44437886627E+02  0.27579251212E+02 -0.63819360964E+02  0.82512130618E+02  0.00000000000E+00 0.  1.
         11    1    1    2    0    0  0.40325601245E+02  0.13151732758E+01 -0.95048910773E+02  0.10325782893E+03  0.00000000000E+00 0. -1.
</event>
<event>
 7    1  0.2994685E-009  0.1076943E+03  0.7561462E-02  0.1264900E+00
          1   -1    0    0  501    0  0.00000000000E+00  0.00000000000E+00  0.16839303434E+03  0.16839303434E+03  0.00000000000E+00 0. -1.
         -1   -1    0    0    0  501 -0.00000000000E+00 -0.00000000000E+00 -0.99500802267E+02  0.99500802267E+02  0.00000000000E+00 0.  1.
         25    2    1    2    0    0 -0.71044412319E+01  0.70251265950E+02  0.33190804768E+02  0.14742738811E+03  0.12508993481E+03 0.  0.
          5    1    3    3  502    0 -0.27107199232E+02 -0.13861073915E+02  0.50537183178E+02  0.59147349086E+02  0.41800000000E+01 0.  1.
         -5    1    3    3    0  502  0.20002758000E+02  0.84112339866E+02 -0.17346378410E+02  0.88280039019E+02  0.41800000000E+01 0.  1.
        -11    1    1    2    0    0  0.34855020580E+02 -0.58211154489E+02 -0.69209668314E+01  0.68200518682E+02  0.00000000000E+00 0.  1.
         11    1    1    2    0    0 -0.27750579348E+02 -0.12040111461E+02  0.42622394139E+02  0.52265929823E+02  0.00000000000E+00 0. -1.
</event>
<event>
 7    1  0.2844572E-009  0.6564325E+02  0.7561462E-02  0.1375568E+00
          2   -1    0    0  501    0  0.00000000000E+00  0.00000000000E+00  0.25592249760E+03  0.25592249760E+03  0.00000000000E+00 0. -1.
         -2   -1    0    0    0  501 -0.00000000000E+00 -0.00000000000E+00 -0.58223562071E+02  0.58223562071E+02  0.00000000000E+00 0.  1.
         25    2    1    2    0    0 -0.66002273736E+01  0.11188836824E+02  0.18886167940E+03  0.22690236382E+03  0.12508875127E+03 0.  0.
          5    1    3    3  502    0 -0.33440223989E+02  0.18993885073E+02  0.28866195602E+01  0.38792025251E+02  0.41800000000E+01 0. -1.
         -5    1    3    3    0  502  0.26839996615E+02 -0.78050482489E+01  0.18597505984E+03  0.18811033857E+03  0.41800000000E+01 0. -1.
        -11    1    1    2    0    0 -0.13605775608E+02 -0.32341411542E+02  0.33851369045E+02  0.48754478940E+02  0.00000000000E+00 0. -1.
         11    1    1    2    0    0  0.20206002981E+02  0.21152574718E+02 -0.25014112911E+02  0.38489216911E+02  0.00000000000E+00 0.  1.
</event>
<event>
 7    1  0.2844572E-009  0.8829774E+02  0.7561462E-02  0.1307027E+00
          4   -1    0    0  501    0  0.00000000000E+00  0.00000000000E+00  0.37887879365E+02  0.37887879365E+02  0.00000000000E+00 0. -1.
         -4   -1    0    0    0  501 -0.00000000000E+00 -0.00000000000E+00 -0.54907263191E+03  0.54907263191E+03  0.00000000000E+00 0.  1.
         25    2    1    2    0    0 -0.22364434770E+02 -0.19685106977E+02 -0.45424309621E+03  0.47209267663E+03  0.12508810293E+03 0.  0.
          5    1    3    3  502    0 -0.45442071636E+02  0.30644688826E+01 -0.55076184065E+02  0.71590720734E+02  0.41800000000E+01 0. -1.
         -5    1    3    3    0  502  0.23077636865E+02 -0.22749575859E+02 -0.39916691215E+03  0.40050195590E+03  0.41800000000E+01 0. -1.
        -11    1    1    2    0    0  0.51259773931E+02  0.38145776307E+02 -0.46498120709E+02  0.79023666727E+02  0.00000000000E+00 0.  1.
         11    1    1    2    0    0 -0.28895339161E+02 -0.18460669330E+02 -0.10443535626E+02  0.35844167918E+02  0.00000000000E+00 0. -1.
</event>
<event>
 7    1  0.2844572E-009  0.1325819E+03  0.7561462E-02  0.1223674E+00
         -2   -1    0    0    0  501 -0.00000000000E+00  0.00000000000E+00  0.30973408727E+02  0.30973408727E+02  0.00000000000E+00 0.  1.
          2   -1    0    0  501    0  0.00000000000E+00 -0.00000000000E+00 -0.12412356755E+04  0.12412356755E+04  0.00000000000E+00 0. -1.
         25    2    1    2    0    0  0.11335622121E+02 -0.10901196272E+03 -0.10241222059E+04  0.10375397669E+04  0.12510144223E+03 0.  0.
          5    1    3    3  502    0  0.32288484455E+02 -0.46840508555E+02 -0.14284552133E+03  0.15381448187E+03  0.41800000000E+01 0. -1.
         -5    1    3    3    0  502 -0.20952862334E+02 -0.62171454167E+02 -0.88127668457E+03  0.88372528499E+03  0.41800000000E+01 0. -1.
        -11    1    1    2    0    0  0.39673031196E+02  0.57736158892E+02 -0.10164047799E+03  0.12344310517E+03  0.00000000000E+00 0.  1.
         11    1    1    2    0    0 -0.51008653317E+02  0.51275803831E+02 -0.84499582865E+02  0.11122621218E+03  0.00000000000E+00 0. -1.
</event>
<event>
 7    1  0.2844572E-009  0.7376984E+02  0.7561462E-02  0.1347723E+00
         -1   -1    0    0    0  501 -0.00000000000E+00  0.00000000000E+00  0.11752425006E+03  0.11752425006E+03  0.00000000000E+00 0.  1.
          1   -1    0    0  501    0  0.00000000000E+00 -0.00000000000E+00 -0.11511573842E+03  0.11511573842E+03  0.00000000000E+00 0. -1.
         25    2    1    2    0    0 -0.42168576102E+02  0.58615192715E+01 -0.68338722653E+01  0.13231355106E+03  0.12509047832E+03 0.  0.
          5    1    3    3  502    0 -0.27225968054E+02  0.21820567303E+02 -0.62866783739E+02  0.72021492568E+02  0.41800000000E+01 0. -1.
         -5    1    3    3    0  502 -0.14942608048E+02 -0.15959048032E+02  0.56032911474E+02  0.60292058495E+02  0.41800000000E+01 0. -1.
        -11    1    1    2    0    0  0.23339456508E+02  0.36760956977E+02 -0.17120992480E+02  0.46789171519E+02  0.00000000000E+00 0. -1.
         11    1    1    2    0    0  0.18829119595E+02 -0.42622476248E+02  0.26363376385E+02  0.53537265906E+02  0.00000000000E+00 0.  1.
</event>
<event>
 7    1  0.2844572E-009  0.3513299E+03  0.7561462E-02  0.1062071E+00
         -2   -1    0    0    0  501 -0.00000000000E+00  0.00000000000E+00  0.18410387287E+03  0.18410387287E+03  0.00000000000E+00 0.  1.
          2   -1    0    0  501    0  0.00000000000E+00 -0.00000000000E+00 -0.88479585395E+03  0.88479585395E+03  0.00000000000E+00 0. -1.
         25    2    1    2    0    0 -0.48273683028E+02 -0.34745240970E+03 -0.13444659183E+03  0.39595096803E+03  0.12509099708E+03 0.  0.
          5    1    3    3  502    0 -0.30563638076E+02 -0.17335884229E+03 -0.14045714649E+01  0.17608767531E+03  0.41800000000E+01 0.  1.
         -5    1    3    3    0  502 -0.17710044952E+02 -0.17409356740E+03 -0.13304202037E+03  0.21986329272E+03  0.41800000000E+01 0.  1.
        -11    1    1    2    0    0  0.30356573677E+02  0.28350978349E+03 -0.51650455134E+03  0.58997988987E+03  0.00000000000E+00 0. -1.
         11    1    1    2    0    0  0.17917109351E+02  0.63942626211E+02 -0.49740837911E+02  0.82968868923E+02  0.00000000000E+00 0.  1.
</event>
<event>
 7    1  0.2844572E-009  0.1232998E+03  0.7561462E-02  0.1237751E+00
         -2   -1    0    0    0  501 -0.00000000000E+00  0.00000000000E+00  0.68226104777E+02  0.68226104777E+02  0.00000000000E+00 0.  1.
          2   -1    0    0  501    0  0.00000000000E+00 -0.00000000000E+00 -0.23827069431E+03  0.23827069431E+03  0.00000000000E+00 0. -1.
         25    2    1    2    0    0 -0.41521447670E+02  0.51892318119E+02 -0.85367688083E+02  0.16538592425E+03  0.12509204001E+03 0.  0.
          5    1    3    3  502    0 -0.68710467501E+02  0.72775256038E+02 -0.38838523115E+02  0.10743960868E+03  0.41800000000E+01 0.  1.
         -5    1    3    3    0  502  0.27189019830E+02 -0.20882937919E+02 -0.46529164968E+02  0.57946315570E+02  0.41800000000E+01 0.  1.
        -11    1    1    2    0    0  0.58902319144E+02 -0.18693311671E+01 -0.53882108098E+02  0.79851481969E+02  0.00000000000E+00 0. -1.
         11    1    1    2    0    0 -0.17380871474E+02 -0.50022986952E+02 -0.30794793348E+02  0.61259392865E+02  0.00000000000E+00 0.  1.
</event>
<event>
 7    1  0.2844572E-009  0.1524652E+03  0.7561462E-02  0.1197476E+00
          2   -1    0    0  501    0  0.00000000000E+00  0.00000000000E+00  0.86623061933E+02  0.86623061933E+02  0.00000000000E+00 0.  1.
         -2   -1    0    0    0  501 -0.00000000000E+00 -0.00000000000E+00 -0.38655849336E+03  0.38655849336E+03  0.00000000000E+00 0. -1.
         25    2    1    2    0    0 -0.11604961322E+03 -0.22501602370E+02 -0.27128316376E+03  0.32126229956E+03  0.12506428482E+03 0.  0.
          5    1    3    3  502    0  0.26101423797E+02 -0.15116190543E+01 -0.61437812633E+02  0.66900273076E+02  0.41800000000E+01 0.  1.
         -5    1    3    3    0  502 -0.14215103701E+03 -0.20989983316E+02 -0.20984535113E+03  0.25436202648E+03  0.41800000000E+01 0.  1.
        -11    1    1    2    0    0  0.75946683927E+02 -0.17629595459E+02  0.16158559854E+02  0.79622864129E+02  0.00000000000E+00 0.  1.
         11    1    1    2    0    0  0.40102929291E+02  0.40131197829E+02 -0.44810827517E+02  0.72296391609E+02  0.00000000000E+00 0. -1.
</event>
<event>
 7    1  0.2844572E-009  0.2104155E+03  0.7561462E-02  0.1141237E+00
          1   -1    0    0  501    0  0.00000000000E+00  0.00000000000E+00  0.38972787803E+03  0.38972787803E+03  0.00000000000E+00 0. -1.
         -1   -1    0    0    0  501 -0.00000000000E+00 -0.00000000000E+00 -0.17350312792E+03  0.17350312792E+03  0.00000000000E+00 0.  1.
         25    2    1    2    0    0 -0.17526739490E+03 -0.58415889803E+02 -0.46733875137E+02  0.22795327135E+03  0.12509021918E+03 0.  0.
          5    1    3    3  502    0  0.10584973030E+01 -0.35668429614E+02  0.16062855664E+02  0.39355368373E+02  0.41800000000E+01 0. -1.
         -5    1    3    3    0  502 -0.17632589220E+03 -0.22747460188E+02 -0.62796730801E+02  0.18859790297E+03  0.41800000000E+01 0. -1.
        -11    1    1    2    0    0  0.18619354847E+03  0.48728533644E+02  0.23517978168E+03  0.30389477981E+03  0.00000000000E+00 0. -1.
         11    1    1    2    0    0 -0.10926153572E+02  0.96873561586E+01  0.27778843568E+02  0.31382954788E+02  0.00000000000E+00 0.  1.
</event>
<event>
 7    1  0.2844572E-009  0.1168930E+03  0.7561462E-02  0.1248312E+00
          1   -1    0    0  501    0  0.00000000000E+00  0.00000000000E+00  0.15857371315E+04  0.15857371315E+04  0.00000000000E+00 0. -1.
         -1   -1    0    0    0  501 -0.00000000000E+00 -0.00000000000E+00 -0.13861005386E+02  0.13861005386E+02  0.00000000000E+00 0.  1.
         25    2    1    2    0    0 -0.37938774781E+02 -0.40590701039E+02  0.12504948524E+04  0.12579643710E+04  0.12510006835E+03 0.  0.
          5    1    3    3  502    0  0.21234320196E+02  0.22765593485E+02  0.69686714101E+03  0.69757469365E+03  0.41800000000E+01 0. -1.
         -5    1    3    3    0  502 -0.59173094978E+02 -0.63356294525E+02  0.55362771137E+03  0.56038967730E+03  0.41800000000E+01 0. -1.
        -11    1    1    2    0    0  0.68082771124E+02  0.49470211830E+02  0.22277708846E+03  0.23814322733E+03  0.00000000000E+00 0.  1.
         11    1    1    2    0    0 -0.30143996343E+02 -0.88795107912E+01  0.98604185320E+02  0.10349053865E+03  0.00000000000E+00 0. -1.
</event>
<event>
 7    1  0.2844572E-009  0.1166244E+03  0.7561462E-02  0.1248772E+00
         -2   -1    0    0    0  501 -0.00000000000E+00  0.00000000000E+00  0.13967045338E+03  0.13967045338E+03  0.00000000000E+00 0.  1.
          2   -1    0    0  501    0  0.00000000000E+00 -0.00000000000E+00 -0.12556583765E+03  0.12556583765E+03  0.00000000000E+00 0. -1.
         25    2    1    2    0    0 -0.59217356595E+02  0.22232809649E+02 -0.40009649604E+02  0.14577191396E+03  0.12509070985E+03 0.  0.
          5    1    3    3  502    0 -0.92120642275E+02 -0.10956775134E+02 -0.31662976454E+02  0.98113608294E+02  0.41800000000E+01 0.  1.
         -5    1    3    3    0  502  0.32903285680E+02  0.33189584783E+02 -0.83466731501E+01  0.47658305669E+02  0.41800000000E+01 0.  1.
        -11    1    1    2    0    0  0.94773989565E+01 -0.39645979961E+02  0.52857029157E+02  0.66749459544E+02  0.00000000000E+00 0.  1.
         11    1    1    2    0    0  0.49739957638E+02  0.17413170312E+02  0.12572361803E+01  0.52714917519E+02  0.00000000000E+00 0. -1.
</event>
<event>
 7    1  0.2844572E-009  0.9931648E+02  0.7561462E-02  0.1281740E+00
         -1   -1    0    0    0  501 -0.00000000000E+00  0.00000000000E+00  0.28812797420E+02  0.28812797420E+02  0.00000000000E+00 0.  1.
          1   -1    0    0  501    0  0.00000000000E+00 -0.00000000000E+00 -0.89318461339E+03  0.89318461339E+03  0.00000000000E+00 0. -1.
         25    2    1    2    0    0 -0.55017342474E+02 -0.13933123222E+02 -0.75123185545E+03  0.76368678995E+03  0.12508865898E+03 0.  0.
          5    1    3    3  502    0 -0.57453686882E+02  0.45842553655E+02 -0.32350607543E+03  0.33177721306E+03  0.41800000000E+01 0.  1.
         -5    1    3    3    0  502  0.24363444076E+01 -0.59775676877E+02 -0.42772578002E+03  0.43190957690E+03  0.41800000000E+01 0.  1.
        -11    1    1    2    0    0  0.50913846591E+02  0.41625166255E+00 -0.12803202469E+03  0.13778458690E+03  0.00000000000E+00 0.  1.
         11    1    1    2    0    0  0.41034958836E+01  0.13516871559E+02  0.14892064167E+02  0.20526033966E+02  0.00000000000E+00 0. -1.
</event>
<event>
 7    1  0.2844572E-009  0.1485168E+03  0.7561462E-02  0.1202308E+00
          1   -1    0    0  501    0  0.00000000000E+00  0.00000000000E+00  0.77280756273E+03  0.77280756273E+03  0.00000000000E+00 0. -1.
         -1   -1    0    0    0  501 -0.00000000000E+00 -0.00000000000E+00 -0.31142513436E+02  0.31142513436E+02  0.00000000000E+00 0.  1.
         25    2    1    2    0    0 -0.25298295897E+02 -0.10171237126E+03  0.49950087975E+03  0.52548404818E+03  0.12508775232E+03 0.  0.
          5    1    3    3  502    0  0.23090744097E+02 -0.10820204711E+03  0.29225557487E+03  0.31252465327E+03  0.41800000000E+01 0. -1.
         -5    1    3    3    0  502 -0.48389039993E+02  0.64896758544E+01  0.20724530488E+03  0.21295939491E+03  0.41800000000E+01 0. -1.
        -11    1    1    2    0    0  0.20822917347E+02  0.11830814417E+03  0.21610905575E+03  0.24725196631E+03  0.00000000000E+00 0.  1.
         11    1    1    2    0    0  0.44753785497E+01 -0.16595772913E+02  0.26055113794E+02  0.31214061680E+02  0.00000000000E+00 0. -1.
</event>
<event>
 7    1  0.2844572E-009  0.1500264E+03  0.7561462E-02  0.1200441E+00
         -1   -1    0    0    0  501 -0.00000000000E+00  0.00000000000E+00  0.61847620738E+03  0.61847620738E+03  0.00000000000E+00 0.  1.
          1   -1    0    0  501    0  0.00000000000E+00 -0.00000000000E+00 -0.40267152978E+02  0.40267152978E+02  0.00000000000E+00 0. -1.
         25    2    1    2    0    0 -0.79792036313E+02 -0.74041690683E+02  0.38873172395E+03  0.42262258257E+03  0.12509417683E+03 0.  0.
          5    1    3    3  502    0  0.20758459055E+02 -0.59154184891E+02  0.17440009162E+03  0.18537258581E+03  0.41800000000E+01 0.  1.
         -5    1    3    3    0  502 -0.10055049537E+03 -0.14887505792E+02  0.21433163233E+03  0.23724999676E+03  0.41800000000E+01 0.  1.
        -11    1    1    2    0    0 -0.14192516664E+02  0.26741492920E+02  0.18856298865E+02  0.35666440525E+02  0.00000000000E+00 0. -1.
         11    1    1    2    0    0  0.93984552977E+02  0.47300197763E+02  0.17062103159E+03  0.20045433726E+03  0.00000000000E+00 0.  1.
</event>
<event>
 7    1  0.2844572E-009  0.1062116E+03  0.7561462E-02  0.1267751E+00
          2   -1    0    0  501    0  0.00000000000E+00  0.00000000000E+00  0.61286918897E+02  0.61286918897E+02  0.00000000000E+00 0. -1.
         -2   -1    0    0    0  501 -0.00000000000E+00 -0.00000000000E+00 -0.48725116243E+03  0.48725116243E+03  0.00000000000E+00 0.  1.
         25    2    1    2    0    0  0.55788792002E+02  0.22905478406E+01 -0.42032068054E+03  0.44207935961E+03  0.12508816804E+03 0.  0.
          5    1    3    3  502    0  0.58140357056E+02 -0.44897157599E+02 -0.34728709562E+03  0.35499557048E+03  0.41800000000E+01 0.  1.
         -5    1    3    3    0  502 -0.23515650546E+01  0.47187705440E+02 -0.73033584920E+02  0.87083789129E+02  0.41800000000E+01 0.  1.
        -11    1    1    2    0    0 -0.25528238144E+02 -0.37262960235E+02  0.24372602492E+02  0.51324876039E+02  0.00000000000E+00 0. -1.
         11    1    1    2    0    0 -0.30260553858E+02  0.34972412394E+02 -0.30016165485E+02  0.55133845675E+02  0.00000000000E+00 0.  1.
</event>
<event>
 7    1  0.2844572E-009  0.1275918E+03  0.7561462E-02  0.1231073E+00
          2   -1    0    0  501    0  0.00000000000E+00  0.00000000000E+00  0.85883766349E+02  0.85883766349E+02  0.00000000000E+00 0. -1.
         -2   -1    0    0    0  501 -0.00000000000E+00 -0.00000000000E+00 -0.25078269493E+03  0.25078269493E+03  0.00000000000E+00 0.  1.
         25    2    1    2    0    0  0.54510628477E+02  0.79779990026E+02 -0.72162437920E+02  0.17375857770E+03  0.12509344688E+03 0.  0.
          5    1    3    3  502    0  0.72980509824E+02  0.74786591816E+02 -0.96651632491E+02  0.14240154351E+03  0.41800000000E+01 0. -1.
         -5    1    3    3    0  502 -0.18469881347E+02  0.49933982105E+01  0.24489194570E+02  0.31357034192E+02  0.41800000000E+01 0. -1.
        -11    1    1    2    0    0  0.98268043754E+01 -0.64035289183E+02 -0.28975322145E+02  0.70969385219E+02  0.00000000000E+00 0. -1.
         11    1    1    2    0    0 -0.64337432853E+02 -0.15744700844E+02 -0.63761168516E+02  0.91938498363E+02  0.00000000000E+00 0.  1.
</event>
<event>
 7    1  0.3026277E-009  0.9534585E+02  0.7561462E-02  0.1290399E+00
         -2   -1    0    0    0  501 -0.00000000000E+00  0.00000000000E+00  0.38952908140E+02  0.38952908140E+02  0.00000000000E+00 0.  1.
          2   -1    0    0  501    0  0.00000000000E+00 -0.00000000000E+00 -0.40368861644E+03  0.40368861644E+03  0.00000000000E+00 0. -1.
         25    2    1    2    0    0 -0.58381973164E+01 -0.31672608391E+02 -0.29953876604E+03  0.32620222459E+03  0.12508868974E+03 0.  0.
          5    1    3    3  502    0 -0.28652437495E+02  0.39428436185E+02 -0.16701453562E+03  0.17403129392E+03  0.41800000000E+01 0.  1.
         -5    1    3    3    0  502  0.22814240178E+02 -0.71101044576E+02 -0.13252423042E+03  0.15217093067E+03  0.41800000000E+01 0.  1.
        -11    1    1    2    0    0  0.25402006929E+02  0.38618797500E+02  0.18405864071E+01  0.46260795872E+02  0.00000000000E+00 0.  1.
         11    1    1    2    0    0 -0.19563809613E+02 -0.69461891089E+01 -0.67037528666E+02  0.70178504112E+02  0.00000000000E+00 0. -1.
</event>
<event>
 7    1  0.2844572E-009  0.1086178E+03  0.7561462E-02  0.1263151E+00
         -1   -1    0    0    0  501 -0.00000000000E+00  0.00000000000E+00  0.13857595672E+03  0.13857595672E+03  0.00000000000E+00 0.  1.
          1   -1    0    0  501    0  0.00000000000E+00 -0.00000000000E+00 -0.14773052491E+03  0.14773052491E+03  0.00000000000E+00 0. -1.
         25    2    1    2    0    0 -0.64229347508E+02 -0.68500873688E+02  0.73531669789E+01  0.15658585256E+03  0.12508909377E+03 0.  0.
          5    1    3    3  502    0 -0.19577511841E+02 -0.30109695108E+02  0.64805106354E+02  0.74209479980E+02  0.41800000000E+01 0.  1.
         -5    1    3    3    0  502 -0.44651835667E+02 -0.38391178580E+02 -0.57451939375E+02  0.82376372578E+02  0.41800000000E+01 0.  1.
        -11    1    1    2    0    0  0.73547976466E+02  0.79046270711E+02  0.76201027479E-01  0.10797047542E+03  0.00000000000E+00 0.  1.
         11    1    1    2    0    0 -0.93186289587E+01 -0.10545397024E+02 -0.16583936203E+02  0.21750153655E+02  0.00000000000E+00 0. -1.
</event>
<event>
 7    1  0.2844572E-009  0.8282472E+02  0.7561462E-02  0.1321221E+00
         -1   -1    0    0    0  501 -0.00000000000E+00  0.00000000000E+00  0.12774476170E+03  0.12774476170E+03  0.00000000000E+00 0.  1.
          1   -1    0    0  501    0  0.00000000000E+00 -0.00000000000E+00 -0.12827681806E+03  0.12827681806E+03  0.00000000000E+00 0. -1.
         25    2    1    2    0    0  0.25920295615E+02 -0.22502891664E+02  0.59984198550E+02  0.14291048886E+03  0.12508821644E+03 0.  0.
          5    1    3    3  502    0  0.69792256412E+02 -0.14452724869E+02  0.66585929707E+02  0.97626834150E+02  0.41800000000E+01 0. -1.
         -5    1    3    3    0  502 -0.43871960797E+02 -0.80501667951E+01 -0.66017311572E+01  0.45283654710E+02  0.41800000000E+01 0. -1.
        -11    1    1    2    0    0 -0.13762028348E+01  0.24767571318E+02  0.18109169289E+02  0.30712677115E+02  0.00000000000E+00 0.  1.
         11    1    1    2    0    0 -0.24544092780E+02 -0.22646796541E+01 -0.78625424199E+02  0.82398413788E+02  0.00000000000E+00 0. -1.
</event>
<event>
 7    1  0.2844572E-009  0.1535842E+03  0.7561462E-02  0.1196137E+00
         -1   -1    0    0    0  501 -0.00000000000E+00  0.00000000000E+00  0.95308338686E+02  0.95308338686E+02  0.00000000000E+00 0.  1.
          1   -1    0    0  501    0  0.00000000000E+00 -0.00000000000E+00 -0.27218881105E+03  0.27218881105E+03  0.00000000000E+00 0. -1.
         25    2    1    2    0    0  0.72167517526E+01  0.11869327845E+03 -0.10512283013E+03  0.20209390500E+03  0.12510380157E+03 0.  0.
          5    1    3    3  502    0  0.44014148209E+02 -0.32227237553E+01 -0.18580611982E+02  0.48066024722E+02  0.41800000000E+01 0.  1.
         -5    1    3    3    0  502 -0.36797396456E+02  0.12191600221E+03 -0.86542218148E+02  0.15402788028E+03  0.41800000000E+01 0.  1.
        -11    1    1    2    0    0  0.28970162383E+02 -0.55232126872E+02 -0.67974641710E+02  0.92251883791E+02  0.00000000000E+00 0.  1.
         11    1    1    2    0    0 -0.36186914136E+02 -0.63461151582E+02 -0.37830005203E+01  0.73151360943E+02  0.00000000000E+00 0. -1.
</event>
<event>
 6    1  0.2844572E-009  0.1268788E+03  0.7561462E-02  0.1232162E+00
         -1   -1    0    0    0  501 -0.00000000000E+00  0.00000000000E+00  0.26171955843E+02  0.26171955843E+02  0.00000000000E+00 0.  1.
          1   -1    0    0  501    0  0.00000000000E+00 -0.00000000000E+00 -0.93945956392E+03  0.93945956392E+03  0.00000000000E+00 0. -1.
          5    1    1    2  502    0 -0.15482529045E+02 -0.59767985627E+02 -0.42344558005E+03  0.42794339868E+03  0.41800000000E+01 0.  1.
         -5    1    1    2    0  502 -0.40008832141E+02 -0.39660912278E+02 -0.52440842012E+02  0.77079237949E+02  0.41800000000E+01 0.  1.
        -11    1    1    2    0    0  0.51770462407E+02  0.11140384568E+03 -0.42699127004E+03  0.44431131237E+03  0.00000000000E+00 0. -1.
         11    1    1    2    0    0  0.37208987788E+01 -0.11974947780E+02 -0.10409915973E+02  0.16297570758E+02  0.00000000000E+00 0.  1.
</event>
<event>
 7    1  0.2844572E-009  0.1864625E+03  0.7561462E-02  0.1161691E+00
          1   -1    0    0  501    0  0.00000000000E+00  0.00000000000E+00  0.88356082995E+03  0.88356082995E+03  0.00000000000E+00 0. -1.
         -1   -1    0    0    0  501 -0.00000000000E+00 -0.00000000000E+00 -0.46498042828E+02  0.46498042828E+02  0.00000000000E+00 0.  1.
         25    2    1    2    0    0  0.50857629635E+02  0.14418906204E+03  0.55558024069E+03  0.58965465170E+03  0.12508485246E+03 0.  0.
          5    1    3    3  502    0  0.74644358073E+02  0.64510653635E+02  0.18359539804E+03  0.20846617761E+03  0.41800000000E+01 0.  1.
         -5    1    3    3    0  502 -0.23786728438E+02  0.79678408406E+02  0.37198484265E+03  0.38118847409E+03  0.41800000000E+01 0.  1.
        -11    1    1    2    0    0 -0.82179002620E+02 -0.61934546944E+02  0.13937440884E+03  0.17324694057E+03  0.00000000000E+00 0. -1.
         11    1    1    2    0    0  0.31321372985E+02 -0.82254515096E+02  0.14210813759E+03  0.16715728051E+03  0.00000000000E+00 0.  1.
</event>
<event>
 7    1  0.2844572E-009  0.7228273E+02  0.7561462E-02  0.1352498E+00
          1   -1    0    0  501    0  0.00000000000E+00  0.00000000000E+00  0.64160856647E+03  0.64160856647E+03  0.00000000000E+00 0. -1.
         -1   -1    0    0    0  501 -0.00000000000E+00 -0.00000000000E+00 -0.18875628505E+02  0.18875628505E+02  0.00000000000E+00 0.  1.
         25    2    1    2    0    0 -0.79212390855E+01 -0.14817135712E+02  0.41195054561E+03  0.43085230520E+03  0.12509261898E+03 0.  0.
          5    1    3    3  502    0  0.21674871708E+02 -0.28995831379E+02  0.38872921763E+03  0.39043365037E+03  0.41800000000E+01 0. -1.
         -5    1    3    3    0  502 -0.29596110793E+02  0.14178695667E+02  0.23221327986E+02  0.40418654831E+02  0.41800000000E+01 0. -1.
        -11    1    1    2    0    0 -0.21106588324E+02  0.34163049657E+02  0.17542558621E+03  0.17996315825E+03  0.00000000000E+00 0. -1.
         11    1    1    2    0    0  0.29027827410E+02 -0.19345913945E+02  0.35356806147E+02  0.49668731527E+02  0.00000000000E+00 0.  1.
</event>
<event>
 7    1  0.2844572E-009  0.7795605E+02  0.7561462E-02  0.1334954E+00
         -1   -1    0    0    0  501 -0.00000000000E+00  0.00000000000E+00  0.81439470031E+02  0.81439470031E+02  0.00000000000E+00 0.  1.
          1   -1    0    0  501    0  0.00000000000E+00 -0.00000000000E+00 -0.16396298270E+03  0.16396298270E+03  0.00000000000E+00 0. -1.
         25    2    1    2    0    0  0.88180222207E+01  0.41054439933E+02 -0.43642223889E+02  0.13898376355E+03  0.12509443741E+03 0.  0.
          5    1    3    3  502    0  0.33632544119E+02  0.18985549482E+02 -0.80386341297E+02  0.89280655128E+02  0.41800000000E+01 0.  1.
         -5    1    3    3    0  502 -0.24814521898E+02  0.22068890452E+02  0.36744117408E+02  0.49703108423E+02  0.41800000000E+01 0.  1.
        -11    1    1    2    0    0  0.27736011243E+02  0.11516138082E+01 -0.42170073289E+02  0.50486905384E+02  0.00000000000E+00 0. -1.
         11    1    1    2    0    0 -0.36554033464E+02 -0.42206053742E+02  0.32887845097E+01  0.55931783795E+02  0.00000000000E+00 0.  1.
</event>
<event>
 7    1  0.2844572E-009  0.1391095E+03  0.7561462E-02  0.1214532E+00
          1   -1    0    0  501    0  0.00000000000E+00  0.00000000000E+00  0.59652491656E+03  0.59652491656E+03  0.00000000000E+00 0. -1.
         -1   -1    0    0    0  501 -0.00000000000E+00 -0.00000000000E+00 -0.50061452579E+02  0.50061452579E+02  0.00000000000E+00 0.  1.
         25    2    1    2    0    0  0.96014690284E+02 -0.45282347786E+01  0.14889558983E+03  0.21694419741E+03  0.12512219010E+03 0.  0.
          5    1    3    3  502    0  0.68215953129E+02  0.26950002085E+02  0.15757343646E+03  0.17385792807E+03  0.41800000000E+01 0.  1.
         -5    1    3    3    0  502  0.27798737155E+02 -0.31478236864E+02 -0.86778466262E+01  0.43086269339E+02  0.41800000000E+01 0.  1.
        -11    1    1    2    0    0 -0.10792530258E+03 -0.41029388455E+02  0.26951565708E+03  0.29320636260E+03  0.00000000000E+00 0.  1.
         11    1    1    2    0    0  0.11910612297E+02  0.45557623234E+02  0.12805221707E+03  0.13643580914E+03  0.00000000000E+00 0. -1.
</event>
<event>
 7    1  0.2844572E-009  0.9033823E+02  0.7561462E-02  0.1302035E+00
         -1   -1    0    0    0  501 -0.00000000000E+00  0.00000000000E+00  0.85076437229E+02  0.85076437229E+02  0.00000000000E+00 0.  1.
          1   -1    0    0  501    0  0.00000000000E+00 -0.00000000000E+00 -0.16565261060E+03  0.16565261060E+03  0.00000000000E+00 0. -1.
         25    2    1    2    0    0 -0.58967970459E+01 -0.39932877888E+02 -0.39839245557E+02  0.13734131657E+03  0.12508423081E+03 0.  0.
          5    1    3    3  502    0  0.27266480520E+02  0.12546472828E+02 -0.63828166088E+02  0.70656791086E+02  0.41800000000E+01 0. -1.
         -5    1    3    3    0  502 -0.33163277566E+02 -0.52479350716E+02  0.23988920531E+02  0.66684525482E+02  0.41800000000E+01 0. -1.
        -11    1    1    2    0    0 -0.12888598861E+02 -0.20861293697E+02 -0.43238827650E+02  0.49708206283E+02  0.00000000000E+00 0.  1.
         11    1    1    2    0    0  0.18785395906E+02  0.60794171586E+02  0.25018998405E+01  0.63679524974E+02  0.00000000000E+00 0. -1.
</event>
<event>
 7    1  0.2844572E-009  0.1203322E+03  0.7561462E-02  0.1242550E+00
         -1   -1    0    0    0  501 -0.00000000000E+00  0.00000000000E+00  0.13311314536E+03  0.13311314536E+03  0.00000000000E+00 0.  1.
          1   -1    0    0  501    0  0.00000000000E+00 -0.00000000000E+00 -0.19858798284E+03  0.19858798284E+03  0.00000000000E+00 0. -1.
         25    2    1    2    0    0 -0.49010909903E+02  0.19828372452E+02 -0.14311994538E+03  0.19729726343E+03  0.12509059817E+03 0.  0.
          5    1    3    3  502    0 -0.28682519633E+02  0.72490041704E+02 -0.70233418398E+02  0.10501284940E+03  0.41800000000E+01 0.  1.
         -5    1    3    3    0  502 -0.20328390270E+02 -0.52661669252E+02 -0.72886526978E+02  0.92284414037E+02  0.41800000000E+01 0.  1.
        -11    1    1    2    0    0 -0.64306938404E+01  0.30464840971E+02  0.39782804345E+02  0.50518629041E+02  0.00000000000E+00 0. -1.
         11    1    1    2    0    0  0.55441603743E+02 -0.50293213423E+02  0.37862303549E+02  0.83885235721E+02  0.00000000000E+00 0.  1.
</event>
<event>
 7    1  0.2844572E-009  0.1220477E+03  0.7561462E-02  0.1239757E+00
         -2   -1    0    0    0  501 -0.00000000000E+00  0.00000000000E+00  0.73186616448E+02  0.73186616448E+02  0.00000000000E+00 0.  1.
          2   -1    0    0  501    0  0.00000000000E+00 -0.00000000000E+00 -0.28910656157E+03  0.28910656157E+03  0.00000000000E+00 0. -1.
         25    2    1    2    0    0 -0.79628206607E+02 -0.61023156738E+00 -0.48714764049E+02  0.15608261724E+03  0.12509049323E+03 0.  0.
          5    1    3    3  502    0 -0.10830095803E+03 -0.20361638794E+02 -0.49794695418E+02  0.12099866915E+03  0.41800000000E+01 0. -1.
         -5    1    3    3    0  502  0.28672751423E+02  0.19751407227E+02  0.10799313698E+01  0.35083948087E+02  0.41800000000E+01 0. -1.
        -11    1    1    2    0    0  0.43059689649E+02  0.29458982288E+02 -0.14598281263E+03  0.15502564334E+03  0.00000000000E+00 0. -1.
         11    1    1    2    0    0  0.36568516958E+02 -0.28848750721E+02 -0.21222368440E+02  0.51184917436E+02  0.00000000000E+00 0.  1.
</event>
<event>
 7    1  0.2844572E-009  0.2104303E+03  0.7561462E-02  0.1141226E+00
         -1   -1    0    0    0  501 -0.00000000000E+00  0.00000000000E+00  0.11658492284E+03  0.11658492284E+03  0.00000000000E+00 0.  1.
          1   -1    0    0  501    0  0.00000000000E+00 -0.00000000000E+00 -0.48288183488E+03  0.48288183488E+03  0.00000000000E+00 0. -1.
         25    2    1    2    0    0 -0.13606123380E+03  0.13803707371E+03 -0.84532754998E+02  0.24568178272E+03  0.12508740396E+03 0.  0.
          5    1    3    3  502    0 -0.14801721601E+03  0.13365658275E+03 -0.10169812312E+03  0.22390435233E+03  0.41800000000E+01 0.  1.
         -5    1    3    3    0  502  0.11955982207E+02  0.43804909608E+01  0.17165368120E+02  0.21777430388E+02  0.41800000000E+01 0.  1.
        -11    1    1    2    0    0  0.10408655080E+03 -0.52320054377E+02 -0.11570457680E+03  0.16419180016E+03  0.00000000000E+00 0.  1.
         11    1    1    2    0    0  0.31974683004E+02 -0.85717019337E+02 -0.16605958025E+03  0.18959317485E+03  0.00000000000E+00 0. -1.
</event>
<event>
 7    1  0.2844572E-009  0.9988676E+02  0.7561462E-02  0.1280534E+00
         -1   -1    0    0    0  501 -0.00000000000E+00  0.00000000000E+00  0.24921297086E+02  0.24921297086E+02  0.00000000000E+00 0.  1.
          1   -1    0    0  501    0  0.00000000000E+00 -0.00000000000E+00 -0.57543295987E+03  0.57543295987E+03  0.00000000000E+00 0. -1.
         25    2    1    2    0    0 -0.24599149605E+02  0.38144644838E+01 -0.41200415851E+03  0.43129518042E+03  0.12509371576E+03 0.  0.
          5    1    3    3  502    0 -0.32926801591E+02  0.60986578717E+02 -0.21294845877E+03  0.22398226613E+03  0.41800000000E+01 0.  1.
         -5    1    3    3    0  502  0.83276519863E+01 -0.57172114233E+02 -0.19905569974E+03  0.20731291429E+03  0.41800000000E+01 0.  1.
        -11    1    1    2    0    0  0.37385647334E+02 -0.26876673190E+02 -0.24728208493E+02  0.52264007535E+02  0.00000000000E+00 0.  1.
         11    1    1    2    0    0 -0.12786497729E+02  0.23062208706E+02 -0.11377929578E+03  0.11679506900E+03  0.00000000000E+00 0. -1.
</event>
<event>
 7    1  0.2844572E-009  0.8826025E+02  0.7561462E-02  0.1307120E+00
          1   -1    0    0  501    0  0.00000000000E+00  0.00000000000E+00  0.10751069662E+03  0.10751069662E+03  0.00000000000E+00 0. -1.
         -1   -1    0    0    0  501 -0.00000000000E+00 -0.00000000000E+00 -0.14132541437E+03  0.14132541437E+03  0.00000000000E+00 0.  1.
         25    2    1    2    0    0  0.50382873845E+02 -0.14800013258E+02  0.11832902701E+02  0.13617977890E+03  0.12508972870E+03 0.  0.
          5    1    3    3  502    0 -0.17411770488E+01 -0.46524982862E+02  0.46451064042E+02  0.65899768425E+02  0.41800000000E+01 0.  1.
         -5    1    3    3    0  502  0.52124050894E+02  0.31724969603E+02 -0.34618161341E+02  0.70280010476E+02  0.41800000000E+01 0.  1.
        -11    1    1    2    0    0 -0.17893484039E+02 -0.15882507307E+02 -0.60905077994E+02  0.65435917773E+02  0.00000000000E+00 0.  1.
         11    1    1    2    0    0 -0.32489389806E+02  0.30682520565E+02  0.15257457544E+02  0.47220414323E+02  0.00000000000E+00 0. -1.
</event>
<event>
 7    1  0.2844572E-009  0.1305302E+03  0.7561462E-02  0.1226671E+00
          1   -1    0    0  501    0  0.00000000000E+00  0.00000000000E+00  0.54594820912E+03  0.54594820912E+03  0.00000000000E+00 0. -1.
         -1   -1    0    0    0  501 -0.00000000000E+00 -0.00000000000E+00 -0.33202793642E+02  0.33202793642E+02  0.00000000000E+00 0.  1.
         25    2    1    2    0    0  0.63304247925E+02  0.52903747570E+02  0.30179780162E+03  0.33695036505E+03  0.12508957245E+03 0.  0.
          5    1    3    3  502    0 -0.21416436252E+02  0.54230546276E+02  0.76980692132E+02  0.96659791290E+02  0.41800000000E+01 0.  1.
         -5    1    3    3    0  502  0.84720684176E+02 -0.13267987056E+01  0.22481710948E+03  0.24029057376E+03  0.41800000000E+01 0.  1.
        -11    1    1    2    0    0 -0.28977527972E+02  0.21331855047E+02  0.49238269106E+02  0.60984853133E+02  0.00000000000E+00 0.  1.
         11    1    1    2    0    0 -0.34326719953E+02 -0.74235602617E+02  0.16170934476E+03  0.18121578458E+03  0.00000000000E+00 0. -1.
</event>
<event>
 7    1  0.2844572E-009  0.1047489E+03  0.7561462E-02  0.1270615E+00
          1   -1    0    0  501    0  0.00000000000E+00  0.00000000000E+00  0.29075228614E+03  0.29075228614E+03  0.00000000000E+00 0. -1.
         -1   -1    0    0    0  501 -0.00000000000E+00 -0.00000000000E+00 -0.44111428987E+02  0.44111428987E+02  0.00000000000E+00 0.  1.
         25    2    1    2    0    0  0.12796366979E+02  0.30807429880E+02  0.13948957560E+03  0.19030894632E+03  0.12508920259E+03 0.  0.
          5    1    3    3  502    0 -0.40925487895E+02  0.43285115208E+02  0.11549293351E+03  0.13001764053E+03  0.41800000000E+01 0.  1.
         -5    1    3    3    0  502  0.53721854874E+02 -0.12477685328E+02  0.23996642096E+02  0.60291305792E+02  0.41800000000E+01 0.  1.
        -11    1    1    2    0    0  0.34861958851E+02  0.45120861283E+01  0.56548273715E+02  0.66583949690E+02  0.00000000000E+00 0.  1.
         11    1    1    2    0    0 -0.47658325829E+02 -0.35319516009E+02  0.50603007834E+02  0.77970819117E+02  0.00000000000E+00 0. -1.
</event>
<event>
 7    1  0.2844572E-009  0.1397081E+03  0.7561462E-02  0.1213722E+00
         -2   -1    0    0    0  501 -0.00000000000E+00  0.00000000000E+00  0.61014100403E+02  0.61014100403E+02  0.00000000000E+00 0.  1.
          2   -1    0    0  501    0  0.00000000000E+00 -0.00000000000E+00 -0.36280382738E+03  0.36280382738E+03  0.00000000000E+00 0. -1.
         25    2    1    2    0    0 -0.10006115831E+03 -0.15208193869E+02 -0.16667992506E+03  0.23167264522E+03  0.12508594070E+03 0.  0.
          5    1    3    3  502    0 -0.64060276801E+02 -0.67137542524E+02 -0.70923929976E+02  0.11687106110E+03  0.41800000000E+01 0. -1.
         -5    1    3    3    0  502 -0.36000881506E+02  0.51929348655E+02 -0.95755995084E+02  0.11480158412E+03  0.41800000000E+01 0. -1.
        -11    1    1    2    0    0  0.82938381044E+02  0.40782197159E+02 -0.57985161386E+02  0.10910656074E+03  0.00000000000E+00 0. -1.
         11    1    1    2    0    0  0.17122777263E+02 -0.25574003290E+02 -0.77124640530E+02  0.83038721825E+02  0.00000000000E+00 0.  1.
</event>
<event>
 7    1  0.2844572E-009  0.5288440E+02  0.7561462E-02  0.1430377E+00
         -2   -1    0    0    0  501 -0.00000000000E+00  0.00000000000E+00  0.33216361754E+02  0.33216361754E+02  0.00000000000E+00 0. -1.
          2   -1    0    0  501    0  0.00000000000E+00 -0.00000000000E+00 -0.47926188368E+03  0.47926188368E+03  0.00000000000E+00 0.  1.
         25    2    1    2    0    0  0.11864318762E+02 -0.19552530563E+00 -0.37253526157E+03  0.39315467085E+03  0.12508906349E+03 0.  0.
          5    1    3    3  502    0  0.13152815962E+02 -0.75426549905E+01 -0.38088140431E+03  0.38120598731E+03  0.41800000000E+01 0.  1.
         -5    1    3    3    0  502 -0.12884972000E+01  0.73471296848E+01  0.83461427392E+01  0.11948683537E+02  0.41800000000E+01 0.  1.
        -11    1    1    2    0    0  0.31672500682E+02  0.15603675285E+02 -0.35377415719E+01  0.35484328897E+02  0.00000000000E+00 0.  1.
         11    1    1    2    0    0 -0.43536819444E+02 -0.15408149979E+02 -0.69972518781E+02  0.83839245688E+02  0.00000000000E+00 0. -1.
</event>
<event>
 7    1  0.2844572E-009  0.1716230E+03  0.7561462E-02  0.1176166E+00
          2   -1    0    0  501    0  0.00000000000E+00  0.00000000000E+00  0.11226506460E+04  0.11226506460E+04  0.00000000000E+00 0. -1.
         -2   -1    0    0    0  501 -0.00000000000E+00 -0.00000000000E+00 -0.45366947383E+02  0.45366947383E+02  0.00000000000E+00 0.  1.
         25    2    1    2    0    0 -0.11107539037E+03 -0.92602268793E+02  0.91082232001E+03  0.93067716336E+03  0.12509900572E+03 0.  0.
          5    1    3    3  502    0 -0.91680585269E+02 -0.69214002148E+01  0.30749346643E+03  0.32097186761E+03  0.41800000000E+01 0.  1.
         -5    1    3    3    0  502 -0.19394805102E+02 -0.85680868578E+02  0.60332885358E+03  0.60970529575E+03  0.41800000000E+01 0.  1.
        -11    1    1    2    0    0  0.20956617585E+02  0.66076384195E+02  0.40764394466E+02  0.80417686021E+02  0.00000000000E+00 0.  1.
         11    1    1    2    0    0  0.90118772787E+02  0.26525884598E+02  0.12569698411E+03  0.15692274398E+03  0.00000000000E+00 0. -1.
</event>
<event>
 7    1  0.2844572E-009  0.1086313E+03  0.7561462E-02  0.1263126E+00
          1   -1    0    0  501    0  0.00000000000E+00  0.00000000000E+00  0.94248166803E+02  0.94248166803E+02  0.00000000000E+00 0. -1.
         -1   -1    0    0    0  501 -0.00000000000E+00 -0.00000000000E+00 -0.14296031716E+03  0.14296031716E+03  0.00000000000E+00 0.  1.
         25    2    1    2    0    0  0.36290000830E+02  0.18634170139E+02 -0.38805256866E+02  0.13718438584E+03  0.12509800679E+03 0.  0.
          5    1    3    3  502    0  0.74454792053E+02 -0.99099203645E+01 -0.46918982425E+02  0.88659945258E+02  0.41800000000E+01 0.  1.
         -5    1    3    3    0  502 -0.38164791223E+02  0.28544090504E+02  0.81137255594E+01  0.48524440587E+02  0.41800000000E+01 0.  1.
        -11    1    1    2    0    0 -0.52186654870E+02  0.17235633528E+02  0.10262109039E+02  0.55909077005E+02  0.00000000000E+00 0. -1.
         11    1    1    2    0    0  0.15896654040E+02 -0.35869803668E+02 -0.20169002532E+02  0.44115021115E+02  0.00000000000E+00 0.  1.
</event>
<event>
 7    1  0.2844572E-009  0.2278441E+03  0.7561462E-02  0.1128166E+00
          2   -1    0    0  501    0  0.00000000000E+00  0.00000000000E+00  0.84238264198E+03  0.84238264198E+03  0.00000000000E+00 0.  1.
         -2   -1    0    0    0  501 -0.00000000000E+00 -0.00000000000E+00 -0.75559179015E+02  0.75559179015E+02  0.00000000000E+00 0. -1.
         25    2    1    2    0    0 -0.17964624762E+03  0.12671165283E+03  0.28976651458E+03  0.38463212643E+03  0.12509445417E+03 0.  0.
          5    1    3    3  502    0 -0.52013145968E+02  0.13011593124E+02  0.16339352442E+03  0.17201623508E+03  0.41800000000E+01 0. -1.
         -5    1    3    3    0  502 -0.12763310165E+03  0.11370005970E+03  0.12637299017E+03  0.21261589135E+03  0.41800000000E+01 0. -1.
        -11    1    1    2    0    0  0.10271755143E+03 -0.29327118594E+02  0.15569695832E+03  0.18881874401E+03  0.00000000000E+00 0. -1.
         11    1    1    2    0    0  0.76928696181E+02 -0.97384534232E+02  0.32135999006E+03  0.34449095056E+03  0.00000000000E+00 0.  1.
</event>
<event>
 7    1  0.2844572E-009  0.1318618E+03  0.7561462E-02  0.1224719E+00
          2   -1    0    0  501    0  0.00000000000E+00  0.00000000000E+00  0.39578766153E+02  0.39578766153E+02  0.00000000000E+00 0. -1.
         -2   -1    0    0    0  501 -0.00000000000E+00 -0.00000000000E+00 -0.53611491669E+03  0.53611491669E+03  0.00000000000E+00 0.  1.
         25    2    1    2    0    0 -0.74052838763E+02  0.59317759076E+02 -0.23904623534E+03  0.28599579390E+03  0.12509225408E+03 0.  0.
          5    1    3    3  502    0 -0.72023880767E+02 -0.12748736429E+00 -0.50022338631E+02  0.87790446040E+02  0.41800000000E+01 0. -1.
         -5    1    3    3    0  502 -0.20289579959E+01  0.59445246441E+02 -0.18902389671E+03  0.19820534786E+03  0.41800000000E+01 0. -1.
        -11    1    1    2    0    0  0.93842691511E+02 -0.33988443822E+02 -0.18028317513E+03  0.20606719365E+03  0.00000000000E+00 0. -1.
         11    1    1    2    0    0 -0.19789852748E+02 -0.25329315254E+02 -0.77206740075E+02  0.83630695298E+02  0.00000000000E+00 0.  1.
</event>
<event>
 7    1  0.2844572E-009  0.1196297E+03  0.7561462E-02  0.1243709E+00
          1   -1    0    0  501    0  0.00000000000E+00  0.00000000000E+00  0.14089716470E+03  0.14089716470E+03  0.00000000000E+00 0. -1.
         -1   -1    0    0    0  501 -0.00000000000E+00 -0.00000000000E+00 -0.13231928887E+03  0.13231928887E+03  0.00000000000E+00 0.  1.
         25    2    1    2    0    0  0.78819473385E+02 -0.12701391535E+02  0.19937039221E+02  0.14973123990E+03  0.12509246155E+03 0.  0.
          5    1    3    3  502    0  0.49717798125E+02  0.53398502879E+02  0.24930417505E+02  0.77215656942E+02  0.41800000000E+01 0.  1.
         -5    1    3    3    0  502  0.29101675260E+02 -0.66099894413E+02 -0.49933782843E+01  0.72515582954E+02  0.41800000000E+01 0.  1.
        -11    1    1    2    0    0  0.40621451329E+01  0.10130127451E+02  0.29202013005E+02  0.31174959002E+02  0.00000000000E+00 0. -1.
         11    1    1    2    0    0 -0.82881618518E+02  0.25712640844E+01 -0.40561176394E+02  0.92310254672E+02  0.00000000000E+00 0.  1.
</event>
<event>
 7    1  0.2844572E-009  0.1327556E+03  0.7561462E-02  0.1223423E+00
         -1   -1    0    0    0  501 -0.00000000000E+00  0.00000000000E+00  0.23754178876E+02  0.23754178876E+02  0.00000000000E+00 0.  1.
          1   -1    0    0  501    0  0.00000000000E+00 -0.00000000000E+00 -0.11934964998E+04  0.11934964998E+04  0.00000000000E+00 0. -1.
         25    2    1    2    0    0 -0.33695133032E+02  0.84465346459E+02 -0.95270401826E+03  0.96517636499E+03  0.12510280725E+03 0.  0.
          5    1    3    3  502    0  0.30567773036E+02 -0.14932616431E+02 -0.15631744868E+03  0.16003121240E+03  0.41800000000E+01 0. -1.
         -5    1    3    3    0  502 -0.64262906068E+02  0.99397962890E+02 -0.79638656958E+03  0.80514515259E+03  0.41800000000E+01 0. -1.
        -11    1    1    2    0    0 -0.19495323271E+02 -0.35505985075E+02 -0.26816612676E+02  0.48578527366E+02  0.00000000000E+00 0.  1.
         11    1    1    2    0    0  0.53190456303E+02 -0.48959361384E+02 -0.19022168998E+03  0.20349578632E+03  0.00000000000E+00 0. -1.
</event>
<event>
 7    1  0.2844572E-009  0.1113066E+03  0.7561462E-02  0.1258169E+00
          2   -1    0    0  501    0  0.00000000000E+00  0.00000000000E+00  0.85111452593E+03  0.85111452593E+03  0.00000000000E+00 0. -1.
         -2   -1    0    0    0  501 -0.00000000000E+00 -0.00000000000E+00 -0.24591587343E+02  0.24591587343E+02  0.00000000000E+00 0.  1.
         25    2    1    2    0    0  0.60175185938E+02  0.59826153134E+02  0.35190053746E+03  0.38298454410E+03  0.12507178403E+03 0.  0.
          5    1    3    3  502    0 -0.87439848653E+01  0.17734806603E+02  0.25913433310E+03  0.25992124889E+03  0.41800000000E+01 0.  1.
         -5    1    3    3    0  502  0.68919170803E+02  0.42091346531E+02  0.92766204358E+02  0.12306329521E+03  0.41800000000E+01 0.  1.
        -11    1    1    2    0    0  0.14400952326E+02  0.11435729346E+02  0.22888591079E+02  0.29360703929E+02  0.00000000000E+00 0.  1.
         11    1    1    2    0    0 -0.74576138264E+02 -0.71261882480E+02  0.45173381006E+03  0.46336086525E+03  0.00000000000E+00 0. -1.
</event>
<event>
 7    1  0.2844572E-009  0.3354828E+03  0.7561462E-02  0.1068736E+00
         -2   -1    0    0    0  501 -0.00000000000E+00  0.00000000000E+00  0.22052855544E+03  0.22052855544E+03  0.00000000000E+00 0.  1.
          2   -1    0    0  501    0  0.00000000000E+00 -0.00000000000E+00 -0.79521919402E+03  0.79521919402E+03  0.00000000000E+00 0. -1.
         25    2    1    2    0    0  0.48124884110E+02 -0.31834142669E+03  0.56096790077E+01  0.34545153092E+03  0.12509205930E+03 0.  0.
          5    1    3    3  502    0  0.31594974040E+02 -0.57932853773E+01  0.70997512774E+00  0.32400324146E+02  0.41800000000E+01 0.  1.
         -5    1    3    3    0  502  0.16529910069E+02 -0.31254814131E+03  0.48997038800E+01  0.31305120677E+03  0.41800000000E+01 0.  1.
        -11    1    1    2    0    0 -0.47270201921E+02  0.15120551212E+03 -0.20195480322E+03  0.25667746576E+03  0.00000000000E+00 0. -1.
         11    1    1    2    0    0 -0.85468218821E+00  0.16713591457E+03 -0.37834551436E+03  0.41361875279E+03  0.00000000000E+00 0.  1.
</event>
<event>
 7    1  0.2844572E-009  0.1098374E+03  0.7561462E-02  0.1260871E+00
          2   -1    0    0  501    0  0.00000000000E+00  0.00000000000E+00  0.25992165790E+03  0.25992165790E+03  0.00000000000E+00 0. -1.
         -2   -1    0    0    0  501 -0.00000000000E+00 -0.00000000000E+00 -0.73437446054E+02  0.73437446054E+02  0.00000000000E+00 0.  1.
         25    2    1    2    0    0 -0.58406659224E+02  0.19677713537E+01  0.28645171378E+02  0.14100110258E+03  0.12508219345E+03 0.  0.
          5    1    3    3  502    0 -0.18563910316E+02  0.61076808884E+02 -0.24348613398E+00  0.63972861708E+02  0.41800000000E+01 0.  1.
         -5    1    3    3    0  502 -0.39842748908E+02 -0.59109037530E+02  0.28888657512E+02  0.77028240867E+02  0.41800000000E+01 0.  1.
        -11    1    1    2    0    0 -0.13249294967E+01  0.20452792237E+02 -0.16689708469E+01  0.20563501942E+02  0.00000000000E+00 0.  1.
         11    1    1    2    0    0  0.59731588720E+02 -0.22420563590E+02  0.15950801132E+03  0.17179449944E+03  0.00000000000E+00 0. -1.
</event>
<event>
 7    1  0.2844572E-009  0.1514800E+03  0.7561462E-02  0.1198666E+00
         -4   -1    0    0    0  501 -0.00000000000E+00  0.00000000000E+00  0.20958514557E+03  0.20958514557E+03  0.00000000000E+00 0.  1.
          4   -1    0    0  501    0  0.00000000000E+00 -0.00000000000E+00 -0.12590415956E+03  0.12590415956E+03  0.00000000000E+00 0. -1.
         25    2    1    2    0    0 -0.13310008158E+02  0.11115637508E+03 -0.29536082574E+01  0.16789580159E+03  0.12508948938E+03 0.  0.
          5    1    3    3  502    0 -0.93515163481E+01  0.13893945446E+03 -0.53688091704E+01  0.13941993895E+03  0.41800000000E+01 0. -1.
         -5    1    3    3    0  502 -0.39584918102E+01 -0.27783079388E+02  0.24152009130E+01  0.28475862640E+02  0.41800000000E+01 0. -1.
        -11    1    1    2    0    0 -0.26813560653E+02 -0.80286185808E+02  0.80121120165E+02  0.11655141596E+03  0.00000000000E+00 0.  1.
         11    1    1    2    0    0  0.40123568811E+02 -0.30870189269E+02  0.65134741011E+01  0.51042087580E+02  0.00000000000E+00 0. -1.
</event>
<event>
 6    1  0.2889084E-009  0.1039607E+03  0.7561462E-02  0.1272181E+00
         -2   -1    0    0    0  501 -0.00000000000E+00  0.00000000000E+00  0.29813288405E+03  0.29813288405E+03  0.00000000000E+00 0.  1.
          2   -1    0    0  501    0  0.00000000000E+00 -0.00000000000E+00 -0.72670377274E+02  0.72670377274E+02  0.00000000000E+00 0. -1.
          5    1    1    2  502    0 -0.70323329048E+01 -0.81499808865E+02 -0.42381031720E+01  0.82018939701E+02  0.41800000000E+01 0.  1.
         -5    1    1    2    0  502  0.38281241479E+02  0.34096892496E+02  0.23830489043E+02  0.56687001465E+02  0.41800000000E+01 0.  1.
        -11    1    1    2    0    0 -0.41205897965E+02  0.20771172320E+02  0.19697227133E+03  0.20230532197E+03  0.00000000000E+00 0.  1.
         11    1    1    2    0    0  0.99569893904E+01  0.26631744049E+02  0.88978495810E+01  0.29791998187E+02  0.00000000000E+00 0. -1.
</event>
<event>
 7    1  0.2844572E-009  0.1300298E+03  0.7561462E-02  0.1227412E+00
         -2   -1    0    0    0  501 -0.00000000000E+00  0.00000000000E+00  0.70527796208E+03  0.70527796208E+03  0.00000000000E+00 0.  1.
          2   -1    0    0  501    0  0.00000000000E+00 -0.00000000000E+00 -0.24197943920E+02  0.24197943920E+02  0.00000000000E+00 0. -1.
         25    2    1    2    0    0 -0.73048671182E+02  0.14944119940E+02  0.37808636015E+03  0.40516144845E+03  0.12508824284E+03 0.  0.
          5    1    3    3  502    0  0.44935589673E+01 -0.45733786079E+02  0.14278413541E+03  0.15005516648E+03  0.41800000000E+01 0.  1.
         -5    1    3    3    0  502 -0.77542230149E+02  0.60677906019E+02  0.23530222474E+03  0.25510628198E+03  0.41800000000E+01 0.  1.
        -11    1    1    2    0    0  0.58259689117E+02 -0.50345867167E+02  0.19129228021E+03  0.20620774521E+03  0.00000000000E+00 0. -1.
         11    1    1    2    0    0  0.14788982065E+02  0.35401747227E+02  0.11170137780E+03  0.11810671234E+03  0.00000000000E+00 0.  1.
</event>
<event>
 7    1  0.2844572E-009  0.1730716E+03  0.7561462E-02  0.1174682E+00
         -1   -1    0    0    0  501 -0.00000000000E+00  0.00000000000E+00  0.45050068260E+02  0.45050068260E+02  0.00000000000E+00 0.  1.
          1   -1    0    0  501    0  0.00000000000E+00 -0.00000000000E+00 -0.83642222800E+03  0.83642222800E+03  0.00000000000E+00 0. -1.
         25    2    1    2    0    0 -0.13570536061E+03  0.51106026769E+02 -0.57935577807E+03  0.61018799018E+03  0.12509394433E+03 0.  0.
          5    1    3    3  502    0 -0.14337261491E+03  0.60277048092E+01 -0.47395489919E+03  0.49521990953E+03  0.41800000000E+01 0. -1.
         -5    1    3    3    0  502  0.76672543032E+01  0.45078321960E+02 -0.10540087888E+03  0.11496808065E+03  0.41800000000E+01 0. -1.
        -11    1    1    2    0    0  0.36074690170E+02 -0.43835905805E+02 -0.13062706669E+03  0.14243033546E+03  0.00000000000E+00 0. -1.
         11    1    1    2    0    0  0.99630670436E+02 -0.72701209640E+01 -0.81389314978E+02  0.12885397061E+03  0.00000000000E+00 0.  1.
</event>
<event>
 7    1  0.2844572E-009  0.9787221E+02  0.7561462E-02  0.1284835E+00
          2   -1    0    0  501    0  0.00000000000E+00  0.00000000000E+00  0.37620625420E+03  0.37620625420E+03  0.00000000000E+00 0.  1.
         -2   -1    0    0    0  501 -0.00000000000E+00 -0.00000000000E+00 -0.47688825279E+02  0.47688825279E+02  0.00000000000E+00 0. -1.
         25    2    1    2    0    0  0.74814517207E+02 -0.18524688970E+02  0.20595088403E+03  0.25299214057E+03  0.12509548542E+03 0.  0.
          5    1    3    3  502    0  0.18205571869E+02  0.15219148423E+02  0.18069087100E+03  0.18229023174E+03  0.41800000000E+01 0.  1.
         -5    1    3    3    0  502  0.56608945338E+02 -0.33743837393E+02  0.25260013031E+02  0.70701908833E+02  0.41800000000E+01 0.  1.
        -11    1    1    2    0    0 -0.68288561391E+02 -0.16280820713E+02  0.39381496081E+02  0.80494067940E+02  0.00000000000E+00 0. -1.
         11    1    1    2    0    0 -0.65259558168E+01  0.34805509683E+02  0.83185048806E+02  0.90408870961E+02  0.00000000000E+00 0.  1.
</event>
<event>
 7    1  0.2844572E-009  0.1635107E+03  0.7561462E-02  0.1184789E+00
          2   -1    0    0  501    0  0.00000000000E+00  0.00000000000E+00  0.11351319398E+04  0.11351319398E+04  0.00000000000E+00 0. -1.
         -2   -1    0    0    0  501 -0.00000000000E+00 -0.00000000000E+00 -0.35427432924E+02  0.35427432924E+02  0.00000000000E+00 0.  1.
         25    2    1    2    0    0 -0.84560134314E+02 -0.10742414627E+03  0.28928970674E+03  0.34355227653E+03  0.12509703741E+03 0.  0.
          5    1    3    3  502    0 -0.76751285805E+02 -0.26782050448E+02  0.62306335313E+02  0.10250653598E+03  0.41800000000E+01 0. -1.
         -5    1    3    3    0  502 -0.78088485090E+01 -0.80642095819E+02  0.22698337142E+03  0.24104574055E+03  0.41800000000E+01 0. -1.
        -11    1    1    2    0    0  0.10158356764E+03  0.69950895746E+02  0.58409218577E+03  0.59697238673E+03  0.00000000000E+00 0.  1.
         11    1    1    2    0    0 -0.17023433330E+02  0.37473250520E+02  0.22632261432E+03  0.23003470942E+03  0.00000000000E+00 0. -1.
</event>
<event>
 7    1  0.2844572E-009  0.9636525E+02  0.7561462E-02  0.1288130E+00
         -2   -1    0    0    0  501 -0.00000000000E+00  0.00000000000E+00  0.56558385608E+02  0.56558385608E+02  0.00000000000E+00 0.  1.
          2   -1    0    0  501    0  0.00000000000E+00 -0.00000000000E+00 -0.28296360949E+03  0.28296360949E+03  0.00000000000E+00 0. -1.
         25    2    1    2    0    0 -0.42853391126E+02 -0.38973422744E+02 -0.81651428363E+02  0.16022009246E+03  0.12509269149E+03 0.  0.
          5    1    3    3  502    0 -0.32080045168E+02  0.22617697849E+02 -0.88770463913E+02  0.97151208008E+02  0.41800000000E+01 0.  1.
         -5    1    3    3    0  502 -0.10773345958E+02 -0.61591120593E+02  0.71190355507E+01  0.63068884454E+02  0.41800000000E+01 0.  1.
        -11    1    1    2    0    0  0.62197511912E+02  0.26730417575E+02 -0.56654279854E+02  0.88276571850E+02  0.00000000000E+00 0.  1.
         11    1    1    2    0    0 -0.19344120786E+02  0.12243005169E+02 -0.88099515662E+02  0.91025330785E+02  0.00000000000E+00 0. -1.
</event>
<event>
 7    1  0.2844572E-009  0.1035875E+03  0.7561462E-02  0.1272928E+00
         -2   -1    0    0    0  501 -0.00000000000E+00  0.00000000000E+00  0.42347193213E+02  0.42347193213E+02  0.00000000000E+00 0.  1.
          2   -1    0    0  501    0  0.00000000000E+00 -0.00000000000E+00 -0.33780454382E+03  0.33780454382E+03  0.00000000000E+00 0. -1.
         25    2    1    2    0    0 -0.53827939455E+01  0.42991639950E+02 -0.20283763044E+03  0.24221501776E+03  0.12509098661E+03 0.  0.
          5    1    3    3  502    0 -0.52396218317E+02  0.59433768592E+02 -0.14863257161E+03  0.16848397635E+03  0.41800000000E+01 0.  1.
         -5    1    3    3    0  502  0.47013424371E+02 -0.16442128642E+02 -0.54205058826E+02  0.73731041412E+02  0.41800000000E+01 0.  1.
        -11    1    1    2    0    0 -0.29413490848E+02 -0.25394273229E+02 -0.15722325703E+01  0.38890801894E+02  0.00000000000E+00 0.  1.
         11    1    1    2    0    0  0.34796284794E+02 -0.17597366722E+02 -0.91047487602E+02  0.99045917380E+02  0.00000000000E+00 0. -1.
</event>
<event>
 7    1  0.2844572E-009  0.1094710E+03  0.7561462E-02  0.1261553E+00
         -2   -1    0    0    0  501 -0.00000000000E+00  0.00000000000E+00  0.30691519769E+02  0.30691519769E+02  0.00000000000E+00 0.  1.
          2   -1    0    0  501    0  0.00000000000E+00 -0.00000000000E+00 -0.62068449342E+03  0.62068449342E+03  0.00000000000E+00 0. -1.
         25    2    1    2    0    0  0.55971178661E+02 -0.46546263304E+02 -0.32873993611E+03  0.35919040139E+03  0.12509385030E+03 0.  0.
          5    1    3    3  502    0  0.80435787600E+02 -0.17326774862E+02 -0.11173370176E+03  0.13882372118E+03  0.41800000000E+01 0.  1.
         -5    1    3    3    0  502 -0.24464608940E+02 -0.29219488441E+02 -0.21700623436E+03  0.22036668021E+03  0.41800000000E+01 0.  1.
        -11    1    1    2    0    0 -0.49697283696E+02 -0.15424508969E+01 -0.35027680059E+02  0.60820535445E+02  0.00000000000E+00 0.  1.
         11    1    1    2    0    0 -0.62738949647E+01  0.48088714201E+02 -0.22622535748E+03  0.23136507636E+03  0.00000000000E+00 0. -1.
</event>
<event>
 7    1  0.2844572E-009  0.1455684E+03  0.7561462E-02  0.1206027E+00
          3   -1    0    0  501    0  0.00000000000E+00  0.00000000000E+00  0.47332966572E+03  0.47332966572E+03  0.00000000000E+00 0. -1.
         -3   -1    0    0    0  501 -0.00000000000E+00 -0.00000000000E+00 -0.50910095696E+02  0.50910095696E+02  0.00000000000E+00 0.  1.
         25    2    1    2    0    0  0.61250436818E+02 -0.81094695938E+02  0.15228108198E+03  0.22174598200E+03  0.12511509455E+03 0.  0.
          5    1    3    3  502    0 -0.18559381686E+01 -0.95735913849E+02  0.98618887082E+02  0.13752078751E+03  0.41800000000E+01 0.  1.
         -5    1    3    3    0  502  0.63106374986E+02  0.14641217910E+02  0.53662194902E+02  0.84225194494E+02  0.41800000000E+01 0.  1.
        -11    1    1    2    0    0 -0.36239289120E+02 -0.86101900931E+01  0.42325609668E+02  0.56381545590E+02  0.00000000000E+00 0.  1.
         11    1    1    2    0    0 -0.25011147698E+02  0.89704886031E+02  0.22781287837E+03  0.24611223383E+03  0.00000000000E+00 0. -1.
</event>
<event>
 7    1  0.2844572E-009  0.9368617E+02  0.7561462E-02  0.1294163E+00
         -3   -1    0    0    0  501 -0.00000000000E+00  0.00000000000E+00  0.83008138269E+02  0.83008138269E+02  0.00000000000E+00 0.  1.
          3   -1    0    0  501    0  0.00000000000E+00 -0.00000000000E+00 -0.16120283542E+03  0.16120283542E+03  0.00000000000E+00 0. -1.
         25    2    1    2    0    0  0.77071098823E+01  0.42292354908E+02 -0.64394900563E+02  0.14714079617E+03  0.12512261128E+03 0.  0.
          5    1    3    3  502    0  0.56625386447E+02 -0.13007240196E+02 -0.25513250835E+02  0.63592617936E+02  0.41800000000E+01 0.  1.
         -5    1    3    3    0  502 -0.48918276564E+02  0.55299595104E+02 -0.38881649729E+02  0.83548178234E+02  0.41800000000E+01 0.  1.
        -11    1    1    2    0    0 -0.21568178275E+02 -0.25454289585E+02 -0.46824020488E+02  0.57494313346E+02  0.00000000000E+00 0. -1.
         11    1    1    2    0    0  0.13861068393E+02 -0.16838065323E+02  0.33024223901E+02  0.39575864174E+02  0.00000000000E+00 0.  1.
</event>
<event>
 7    1  0.2844572E-009  0.1006255E+03  0.7561462E-02  0.1278986E+00
         -2   -1    0    0    0  501 -0.00000000000E+00  0.00000000000E+00  0.40923518927E+02  0.40923518927E+02  0.00000000000E+00 0. -1.
          2   -1    0    0  501    0  0.00000000000E+00 -0.00000000000E+00 -0.46733035315E+03  0.46733035315E+03  0.00000000000E+00 0.  1.
         25    2    1    2    0    0 -0.18492435918E+02  0.26536585440E+02 -0.38092038052E+03  0.40223658311E+03  0.12509105460E+03 0.  0.
          5    1    3    3  502    0  0.34339847501E+02  0.47294777259E+02 -0.28276505496E+03  0.28877252257E+03  0.41800000000E+01 0. -1.
         -5    1    3    3    0  502 -0.52832283419E+02 -0.20758191820E+02 -0.98155325559E+02  0.11346406054E+03  0.41800000000E+01 0. -1.
        -11    1    1    2    0    0 -0.25516628053E+02  0.11102926040E+02  0.60710231952E+01  0.28482110113E+02  0.00000000000E+00 0. -1.
         11    1    1    2    0    0  0.44009063971E+02 -0.37639511480E+02 -0.51557476894E+02  0.77535178853E+02  0.00000000000E+00 0.  1.
</event>
<event>
 7    1  0.2844572E-009  0.8223156E+02  0.7561462E-02  0.1322835E+00
          1   -1    0    0  501    0  0.00000000000E+00  0.00000000000E+00  0.63737070376E+03  0.63737070376E+03  0.00000000000E+00 0. -1.
         -1   -1    0    0    0  501 -0.00000000000E+00 -0.00000000000E+00 -0.19957406945E+02  0.19957406945E+02  0.00000000000E+00 0.  1.
         25    2    1    2    0    0 -0.20929600291E+01  0.16017512799E+02  0.43839109287E+03  0.45617531443E+03  0.12509286945E+03 0.  0.
          5    1    3    3  502    0 -0.27673775297E+02 -0.16996505603E+02  0.26426333948E+02  0.42077815625E+02  0.41800000000E+01 0. -1.
         -5    1    3    3    0  502  0.25580815267E+02  0.33014018402E+02  0.41196475893E+03  0.41409749881E+03  0.41800000000E+01 0. -1.
        -11    1    1    2    0    0 -0.41154374630E+02  0.53615900221E+01  0.10380252986E+03  0.11179174569E+03  0.00000000000E+00 0. -1.
         11    1    1    2    0    0  0.43247334659E+02 -0.21379102821E+02  0.75219674075E+02  0.89361050579E+02  0.00000000000E+00 0.  1.
</event>
<event>
 7    1  0.2844572E-009  0.3164955E+03  0.7561462E-02  0.1077274E+00
         -2   -1    0    0    0  501 -0.00000000000E+00  0.00000000000E+00  0.81666415590E+02  0.81666415590E+02  0.00000000000E+00 0.  1.
          2   -1    0    0  501    0  0.00000000000E+00 -0.00000000000E+00 -0.14032016211E+04  0.14032016211E+04  0.00000000000E+00 0. -1.
         25    2    1    2    0    0 -0.21604282221E+03  0.21822215458E+03 -0.47213001405E+03  0.57693090948E+03  0.12508842618E+03 0.  0.
          5    1    3    3  502    0 -0.16963791402E+03  0.12974556628E+03 -0.22455588763E+03  0.30992539894E+03  0.41800000000E+01 0. -1.
         -5    1    3    3    0  502 -0.46404908199E+02  0.88476588302E+02 -0.24757412643E+03  0.26700551054E+03  0.41800000000E+01 0. -1.
        -11    1    1    2    0    0  0.17815756190E+03 -0.12186329032E+03 -0.61150815146E+03  0.64848515611E+03  0.00000000000E+00 0. -1.
         11    1    1    2    0    0  0.37885260317E+02 -0.96358864263E+02 -0.23789704004E+03  0.25945197115E+03  0.00000000000E+00 0.  1.
</event>
<event>
 7    1  0.3235300E-009  0.9122273E+02  0.7561462E-02  0.1299917E+00
         -2   -1    0    0    0  501 -0.00000000000E+00  0.00000000000E+00  0.12395371952E+02  0.12395371952E+02  0.00000000000E+00 0.  1.
          2   -1    0    0  501    0  0.00000000000E+00 -0.00000000000E+00 -0.13145209225E+04  0.13145209225E+04  0.00000000000E+00 0. -1.
         25    2    1    2    0    0  0.15103429067E+02 -0.15784414154E+02 -0.10561591160E+04  0.10637635329E+04  0.12507403564E+03 0.  0.
          5    1    3    3  502    0  0.64402969672E+02 -0.14510370460E+02 -0.80886401406E+03  0.81156438992E+03  0.41800000000E+01 0. -1.
         -5    1    3    3    0  502 -0.49299540605E+02 -0.12740436941E+01 -0.24729510192E+03  0.25219914299E+03  0.41800000000E+01 0. -1.
        -11    1    1    2    0    0 -0.13494834388E+02 -0.23707057808E+02 -0.20176826353E+02  0.33929919934E+02  0.00000000000E+00 0.  1.
         11    1    1    2    0    0 -0.16085946789E+01  0.39491471962E+02 -0.22578960822E+03  0.22922284161E+03  0.00000000000E+00 0. -1.
</event>
<event>
 7    1  0.2844572E-009  0.1485612E+03  0.7561462E-02  0.1202252E+00
         -2   -1    0    0    0  501 -0.00000000000E+00  0.00000000000E+00  0.37449185642E+02  0.37449185642E+02  0.00000000000E+00 0.  1.
          2   -1    0    0  501    0  0.00000000000E+00 -0.00000000000E+00 -0.82029856667E+03  0.82029856667E+03  0.00000000000E+00 0. -1.
         25    2    1    2    0    0 -0.88595510838E+02  0.96102281113E+02 -0.52060393128E+03  0.55114499639E+03  0.12509013071E+03 0.  0.
          5    1    3    3  502    0 -0.10158733408E+03  0.44961358473E+02 -0.44616071330E+03  0.45980252793E+03  0.41800000000E+01 0. -1.
         -5    1    3    3    0  502  0.12991823245E+02  0.51140922641E+02 -0.74443217979E+02  0.91342468452E+02  0.41800000000E+01 0. -1.
        -11    1    1    2    0    0  0.45538844388E+02 -0.31450011622E+02 -0.19864223834E+03  0.20620773126E+03  0.00000000000E+00 0. -1.
         11    1    1    2    0    0  0.43056666450E+02 -0.64652269492E+02 -0.63603211413E+02  0.10039502467E+03  0.00000000000E+00 0.  1.
</event>
<event>
 7    1  0.2844572E-009  0.2211047E+03  0.7561462E-02  0.1133062E+00
         -2   -1    0    0    0  501 -0.00000000000E+00  0.00000000000E+00  0.16939169066E+03  0.16939169066E+03  0.00000000000E+00 0.  1.
          2   -1    0    0  501    0  0.00000000000E+00 -0.00000000000E+00 -0.32852423706E+03  0.32852423706E+03  0.00000000000E+00 0. -1.
         25    2    1    2    0    0 -0.15979394166E+03 -0.12019720151E+03 -0.19598852687E+02  0.23667135558E+03  0.12509094485E+03 0.  0.
          5    1    3    3  502    0 -0.10169218761E+03 -0.13091853121E+03 -0.45604922250E+02  0.17198326712E+03  0.41800000000E+01 0. -1.
         -5    1    3    3    0  502 -0.58101754051E+02  0.10721329702E+02  0.26006069563E+02  0.64688088459E+02  0.41800000000E+01 0. -1.
        -11    1    1    2    0    0  0.88051467364E+02  0.11552891087E+03 -0.11503204357E+03  0.18528993821E+03  0.00000000000E+00 0. -1.
         11    1    1    2    0    0  0.71742474295E+02  0.46682906379E+01 -0.24501650138E+02  0.75954633927E+02  0.00000000000E+00 0.  1.
</event>
<event>
 7    1  0.2844572E-009  0.1017188E+03  0.7561462E-02  0.1276722E+00
          2   -1    0    0  501    0  0.00000000000E+00  0.00000000000E+00  0.15834562745E+02  0.15834562745E+02  0.00000000000E+00 0. -1.
         -2   -1    0    0    0  501 -0.00000000000E+00 -0.00000000000E+00 -0.82091112659E+03  0.82091112659E+03  0.00000000000E+00 0.  1.
         25    2    1    2    0    0 -0.21148178154E+02  0.27514686716E+02 -0.50880770177E+03  0.52510676555E+03  0.12509010520E+03 0.  0.
          5    1    3    3  502    0 -0.49456226056E+02  0.55838919373E+02 -0.19664672218E+03  0.21035995094E+03  0.41800000000E+01 0. -1.
         -5    1    3    3    0  502  0.28308047901E+02 -0.28324232657E+02 -0.31216097958E+03  0.31474681461E+03  0.41800000000E+01 0. -1.
        -11    1    1    2    0    0 -0.31447424680E+02 -0.11547246175E+02 -0.17925097736E+03  0.18235457849E+03  0.00000000000E+00 0.  1.
         11    1    1    2    0    0  0.52595602834E+02 -0.15967440541E+02 -0.11701788472E+03  0.12928434530E+03  0.00000000000E+00 0. -1.
</event>
<event>
 7    1  0.2844572E-009  0.1108705E+03  0.7561462E-02  0.1258966E+00
          2   -1    0    0  501    0  0.00000000000E+00  0.00000000000E+00  0.56269676985E+03  0.56269676985E+03  0.00000000000E+00 0. -1.
         -2   -1    0    0    0  501 -0.00000000000E+00 -0.00000000000E+00 -0.26800891069E+02  0.26800891069E+02  0.00000000000E+00 0.  1.
         25    2    1    2    0    0  0.25647762616E+02  0.36158272759E+02  0.41993847562E+03  0.44041010724E+03  0.12509001097E+03 0.  0.
          5    1    3    3  502    0 -0.50693071278E+02  0.13898270181E+02  0.15179482148E+03  0.16069253131E+03  0.41800000000E+01 0.  1.
         -5    1    3    3    0  502  0.76340833895E+02  0.22260002578E+02  0.26814365414E+03  0.27971757594E+03  0.41800000000E+01 0.  1.
        -11    1    1    2    0    0 -0.39060910352E+02 -0.54256636810E+02  0.64416245484E+02  0.92838515918E+02  0.00000000000E+00 0.  1.
         11    1    1    2    0    0  0.13413147736E+02  0.18098364051E+02  0.51541157681E+02  0.56249037757E+02  0.00000000000E+00 0. -1.
</event>
<event>
 7    1  0.2844572E-009  0.1099260E+03  0.7561462E-02  0.1260707E+00
         -1   -1    0    0    0  501 -0.00000000000E+00  0.00000000000E+00  0.50036248325E+02  0.50036248325E+02  0.00000000000E+00 0.  1.
          1   -1    0    0  501    0  0.00000000000E+00 -0.00000000000E+00 -0.33161193070E+03  0.33161193070E+03  0.00000000000E+00 0. -1.
         25    2    1    2    0    0 -0.52988087087E+02 -0.29607608529E+02 -0.10550688172E+03  0.17453846974E+03  0.12509047714E+03 0.  0.
          5    1    3    3  502    0 -0.76519499018E+02  0.22677977132E+02 -0.74320130439E+02  0.10913513900E+03  0.41800000000E+01 0.  1.
         -5    1    3    3    0  502  0.23531411931E+02 -0.52285585660E+02 -0.31186751282E+02  0.65403330732E+02  0.41800000000E+01 0.  1.
        -11    1    1    2    0    0  0.44821818211E+02 -0.66197146305E+01 -0.25421337073E+02  0.51952482021E+02  0.00000000000E+00 0.  1.
         11    1    1    2    0    0  0.81662688752E+01  0.36227323159E+02 -0.15064746359E+03  0.15515722727E+03  0.00000000000E+00 0. -1.
</event>
<event>
 7    1  0.2844572E-009  0.1197380E+03  0.7561462E-02  0.1243530E+00
         -1   -1    0    0    0  501 -0.00000000000E+00  0.00000000000E+00  0.50718383332E+02  0.50718383332E+02  0.00000000000E+00 0.  1.
          1   -1    0    0  501    0  0.00000000000E+00 -0.00000000000E+00 -0.40463692863E+03  0.40463692863E+03  0.00000000000E+00 0. -1.
         25    2    1    2    0    0  0.71488243538E+02 -0.52551771259E+02 -0.22621564330E+03  0.27330177129E+03  0.12509229908E+03 0.  0.
          5    1    3    3  502    0  0.95711081190E+02 -0.39983133154E+01 -0.16921446158E+03  0.19449319778E+03  0.41800000000E+01 0.  1.
         -5    1    3    3    0  502 -0.24222837652E+02 -0.48553457943E+02 -0.57001181713E+02  0.78808573511E+02  0.41800000000E+01 0.  1.
        -11    1    1    2    0    0 -0.64135397036E+02  0.43446547553E+02 -0.14309467595E+03  0.16271766325E+03  0.00000000000E+00 0. -1.
         11    1    1    2    0    0 -0.73528465022E+01  0.91052237057E+01  0.15391773952E+02  0.19335877426E+02  0.00000000000E+00 0.  1.
</event>
<event>
 7    1  0.3403392E-009  0.1039666E+03  0.7561462E-02  0.1272169E+00
         -3   -1    0    0    0  501 -0.00000000000E+00  0.00000000000E+00  0.19791404081E+02  0.19791404081E+02  0.00000000000E+00 0.  1.
          3   -1    0    0  501    0  0.00000000000E+00 -0.00000000000E+00 -0.89646109100E+03  0.89646109100E+03  0.00000000000E+00 0. -1.
         25    2    1    2    0    0 -0.72442722773E+02  0.55738602175E+01 -0.56096994647E+03  0.57932170759E+03  0.12508934425E+03 0.  0.
          5    1    3    3  502    0 -0.65488890696E+02 -0.15738335743E+02 -0.54980487616E+03  0.55393082985E+03  0.41800000000E+01 0.  1.
         -5    1    3    3    0  502 -0.69538320770E+01  0.21312195961E+02 -0.11165070311E+02  0.25390877737E+02  0.41800000000E+01 0.  1.
        -11    1    1    2    0    0  0.43647446097E+02 -0.48948893019E+02 -0.17037207212E+03  0.18255885801E+03  0.00000000000E+00 0. -1.
         11    1    1    2    0    0  0.28795276676E+02  0.43375032801E+02 -0.14532766833E+03  0.15437192948E+03  0.00000000000E+00 0.  1.
</event>
<event>
 7    1  0.2908161E-009  0.1056608E+03  0.7561462E-02  0.1268823E+00
          1   -1    0    0  501    0  0.00000000000E+00  0.00000000000E+00  0.89680307355E+02  0.89680307355E+02  0.00000000000E+00 0. -1.
         -1   -1    0    0    0  501 -0.00000000000E+00 -0.00000000000E+00 -0.17486430531E+03  0.17486430531E+03  0.00000000000E+00 0.  1.
         25    2    1    2    0    0  0.43305163106E+02  0.26923356602E+02 -0.86013982080E+02  0.16014401585E+03  0.12508995331E+03 0.  0.
          5    1    3    3  502    0 -0.19882067722E+02  0.59803347508E+02 -0.47752471736E+02  0.79180224469E+02  0.41800000000E+01 0.  1.
         -5    1    3    3    0  502  0.63187230828E+02 -0.32879990906E+02 -0.38261510344E+02  0.80963791386E+02  0.41800000000E+01 0.  1.
        -11    1    1    2    0    0 -0.28573994859E+02  0.15071445346E+02 -0.34732186608E+02  0.47433600259E+02  0.00000000000E+00 0.  1.
         11    1    1    2    0    0 -0.14731168248E+02 -0.41994801948E+02  0.35562170734E+02  0.56966996550E+02  0.00000000000E+00 0. -1.
</event>
<event>
 7    1  0.2844572E-009  0.1049286E+03  0.7561462E-02  0.1270260E+00
          2   -1    0    0  501    0  0.00000000000E+00  0.00000000000E+00  0.90474217978E+02  0.90474217978E+02  0.00000000000E+00 0. -1.
         -2   -1    0    0    0  501 -0.00000000000E+00 -0.00000000000E+00 -0.13872601275E+03  0.13872601275E+03  0.00000000000E+00 0.  1.
         25    2    1    2    0    0 -0.28045917270E+02 -0.81223977558E+01 -0.39305132544E+02  0.13433136280E+03  0.12508986677E+03 0.  0.
          5    1    3    3  502    0 -0.65095981664E+02 -0.40514100328E+02 -0.11476279442E+02  0.77640559916E+02  0.41800000000E+01 0. -1.
         -5    1    3    3    0  502  0.37050064394E+02  0.32391702572E+02 -0.27828853102E+02  0.56690802888E+02  0.41800000000E+01 0. -1.
        -11    1    1    2    0    0  0.50395092259E+02  0.24438260850E+02 -0.26643871966E+02  0.62022494552E+02  0.00000000000E+00 0.  1.
         11    1    1    2    0    0 -0.22349174989E+02 -0.16315863095E+02  0.17697209737E+02  0.32846373372E+02  0.00000000000E+00 0. -1.
</event>
<event>
 7    1  0.2844572E-009  0.9529776E+02  0.7561462E-02  0.1290507E+00
          2   -1    0    0  501    0  0.00000000000E+00  0.00000000000E+00  0.65479255231E+03  0.65479255231E+03  0.00000000000E+00 0. -1.
         -2   -1    0    0    0  501 -0.00000000000E+00 -0.00000000000E+00 -0.20629174242E+02  0.20629174242E+02  0.00000000000E+00 0.  1.
         25    2    1    2    0    0  0.26485794658E+02  0.32808777458E+02  0.41098454639E+03  0.43166330330E+03  0.12508795646E+03 0.  0.
          5    1    3    3  502    0 -0.31777935160E+01  0.71929660894E+02  0.32169790456E+03  0.32968316409E+03  0.41800000000E+01 0.  1.
         -5    1    3    3    0  502  0.29663588174E+02 -0.39120883436E+02  0.89286641832E+02  0.10198013921E+03  0.41800000000E+01 0.  1.
        -11    1    1    2    0    0 -0.50308539871E+00 -0.41727476964E+02  0.20845418732E+03  0.21259017766E+03  0.00000000000E+00 0. -1.
         11    1    1    2    0    0 -0.25982709259E+02  0.89186995057E+01  0.14724644358E+02  0.31168245584E+02  0.00000000000E+00 0.  1.
</event>
<event>
 7    1  0.2844572E-009  0.1174990E+03  0.7561462E-02  0.1247281E+00
         -2   -1    0    0    0  501 -0.00000000000E+00  0.00000000000E+00  0.34239131633E+02  0.34239131633E+02  0.00000000000E+00 0.  1.
          2   -1    0    0  501    0  0.00000000000E+00 -0.00000000000E+00 -0.43688975268E+03  0.43688975268E+03  0.00000000000E+00 0. -1.
         25    2    1    2    0    0 -0.50670793040E+02 -0.15050333639E+02 -0.18388507044E+03  0.22859502414E+03  0.12509166288E+03 0.  0.
          5    1    3    3  502    0  0.22184905735E+02 -0.50019932129E+02 -0.73825356984E+02  0.91988148076E+02  0.41800000000E+01 0.  1.
         -5    1    3    3    0  502 -0.72855698776E+02  0.34969598490E+02 -0.11005971345E+03  0.13660687606E+03  0.41800000000E+01 0.  1.
        -11    1    1    2    0    0  0.32489172094E+01 -0.32135995111E+02 -0.11179018225E+03  0.11636289139E+03  0.00000000000E+00 0. -1.
         11    1    1    2    0    0  0.47421875831E+02  0.47186328750E+02 -0.10697536836E+03  0.12617096878E+03  0.00000000000E+00 0.  1.
</event>
<event>
 7    1  0.2844572E-009  0.1096466E+03  0.7561462E-02  0.1261226E+00
          2   -1    0    0  501    0  0.00000000000E+00  0.00000000000E+00  0.83380556241E+02  0.83380556241E+02  0.00000000000E+00 0. -1.
         -2   -1    0    0    0  501 -0.00000000000E+00 -0.00000000000E+00 -0.15248637165E+03  0.15248637165E+03  0.00000000000E+00 0.  1.
         25    2    1    2    0    0  0.22890587892E+02  0.60848252801E+01 -0.19071820012E+02  0.12874361288E+03  0.12510067716E+03 0.  0.
          5    1    3    3  502    0  0.73534414646E+02  0.39597388052E+01  0.17644101680E+01  0.73780588314E+02  0.41800000000E+01 0. -1.
         -5    1    3    3    0  502 -0.50643826754E+02  0.21250864749E+01 -0.20836230180E+02  0.54963024561E+02  0.41800000000E+01 0. -1.
        -11    1    1    2    0    0 -0.42634169838E+02  0.30964100679E+02 -0.29526461634E+02  0.60400827025E+02  0.00000000000E+00 0. -1.
         11    1    1    2    0    0  0.19743581946E+02 -0.37048925959E+02 -0.20507533758E+02  0.46722487986E+02  0.00000000000E+00 0.  1.
</event>
<event>
 7    1  0.2844572E-009  0.9233198E+02  0.7561462E-02  0.1297301E+00
          1   -1    0    0  501    0  0.00000000000E+00  0.00000000000E+00  0.68175961431E+02  0.68175961431E+02  0.00000000000E+00 0. -1.
         -1   -1    0    0    0  501 -0.00000000000E+00 -0.00000000000E+00 -0.18870041214E+03  0.18870041214E+03  0.00000000000E+00 0.  1.
         25    2    1    2    0    0 -0.33298217629E+01  0.13673135168E+01 -0.11305795539E+03  0.16865294239E+03  0.12509498967E+03 0.  0.
          5    1    3    3  502    0 -0.16255262552E+01 -0.49380112660E+02 -0.10625290957E+03  0.11725268037E+03  0.41800000000E+01 0.  1.
         -5    1    3    3    0  502 -0.17042955077E+01  0.50747426177E+02 -0.68050458219E+01  0.51400262017E+02  0.41800000000E+01 0.  1.
        -11    1    1    2    0    0  0.10849151632E+02 -0.41708690645E+02  0.89660371878E+01  0.44019413778E+02  0.00000000000E+00 0. -1.
         11    1    1    2    0    0 -0.75193298691E+01  0.40341377129E+02 -0.16432532506E+02  0.44204017406E+02  0.00000000000E+00 0.  1.
</event>
<event>
 7    1  0.2844572E-009  0.9986834E+02  0.7561462E-02  0.1280573E+00
         -2   -1    0    0    0  501 -0.00000000000E+00  0.00000000000E+00  0.40225994634E+03  0.40225994634E+03  0.00000000000E+00 0.  1.
          2   -1    0    0  501    0  0.00000000000E+00 -0.00000000000E+00 -0.44176027035E+02  0.44176027035E+02  0.00000000000E+00 0. -1.
         25    2    1    2    0    0 -0.73374445641E+00  0.72776633551E+02  0.23888360922E+03  0.27930223210E+03  0.12508949328E+03 0.  0.
          5    1    3    3  502    0 -0.48860645014E+01  0.97666220565E+02  0.23347213437E+03  0.25315859495E+03  0.41800000000E+01 0. -1.
         -5    1    3    3    0  502  0.41523200450E+01 -0.24889587014E+02  0.54114748481E+01  0.26143637152E+02  0.41800000000E+01 0. -1.
        -11    1    1    2    0    0  0.11793778372E+02 -0.36921748320E+02 -0.34111638936E+01  0.38909442895E+02  0.00000000000E+00 0. -1.
         11    1    1    2    0    0 -0.11060033916E+02 -0.35854885231E+02  0.12261147398E+03  0.12822429839E+03  0.00000000000E+00 0.  1.
</event>
<event>
 6    1  0.3119005E-009  0.1001220E+03  0.7561462E-02  0.1280040E+00
         -1   -1    0    0    0  501 -0.00000000000E+00  0.00000000000E+00  0.10046448403E+03  0.10046448403E+03  0.00000000000E+00 0.  1.
          1   -1    0    0  501    0  0.00000000000E+00 -0.00000000000E+00 -0.15526258049E+03  0.15526258049E+03  0.00000000000E+00 0. -1.
          5    1    1    2  502    0 -0.73585434674E+02 -0.34534924365E+01  0.86676021830E+01  0.74292277753E+02  0.41800000000E+01 0. -1.
         -5    1    1    2    0  502  0.51112068333E+02 -0.20262015722E+02  0.13666065312E+02  0.56808683769E+02  0.41800000000E+01 0. -1.
        -11    1    1    2    0    0 -0.61812538780E+01 -0.18945034803E+02  0.10883371892E+02  0.22706167156E+02  0.00000000000E+00 0.  1.
         11    1    1    2    0    0  0.28654620218E+02  0.42660542961E+02 -0.88015135841E+02  0.10191993585E+03  0.00000000000E+00 0. -1.
</event>
<event>
 7    1  0.2844572E-009  0.9588433E+02  0.7561462E-02  0.1289197E+00
         -1   -1    0    0    0  501 -0.00000000000E+00  0.00000000000E+00  0.33029102209E+02  0.33029102209E+02  0.00000000000E+00 0.  1.
          1   -1    0    0  501    0  0.00000000000E+00 -0.00000000000E+00 -0.35794872975E+03  0.35794872975E+03  0.00000000000E+00 0. -1.
         25    2    1    2    0    0 -0.10466470791E+02  0.18472471688E+02 -0.18680201877E+03  0.22581678534E+03  0.12508975619E+03 0.  0.
          5    1    3    3  502    0  0.36348267720E+02 -0.24080560355E+02 -0.14087669606E+03  0.14752893224E+03  0.41800000000E+01 0.  1.
         -5    1    3    3    0  502 -0.46814738511E+02  0.42553032043E+02 -0.45925322704E+02  0.78287853103E+02  0.41800000000E+01 0.  1.
        -11    1    1    2    0    0 -0.74873969943E+01 -0.48773324167E+02 -0.10830771838E+03  0.11901873854E+03  0.00000000000E+00 0. -1.
         11    1    1    2    0    0  0.17953867785E+02  0.30300852479E+02 -0.29809890397E+02  0.46142308079E+02  0.00000000000E+00 0.  1.
</event>
<event>
 6    1  0.4394987E-009  0.1218558E+03  0.7561462E-02  0.1240067E+00
         -1   -1    0    0    0  501 -0.00000000000E+00  0.00000000000E+00  0.11432588377E+03  0.11432588377E+03  0.00000000000E+00 0.  1.
          1   -1    0    0  501    0  0.00000000000E+00 -0.00000000000E+00 -0.19225122183E+03  0.19225122183E+03  0.00000000000E+00 0. -1.
          5    1    1    2  502    0 -0.68803370908E+02 -0.19284516485E+02  0.10723554366E+02  0.72375848476E+02  0.41800000000E+01 0. -1.
         -5    1    1    2    0  502  0.12771271195E+02 -0.60702554299E+02 -0.78790129472E+02  0.10036564337E+03  0.41800000000E+01 0. -1.
        -11    1    1    2    0    0  0.30686102770E+02  0.53627689770E+01  0.31948763637E+02  0.44621964236E+02  0.00000000000E+00 0.  1.
         11    1    1    2    0    0  0.25345996943E+02  0.74624301807E+02 -0.41807526584E+02  0.89213649518E+02  0.00000000000E+00 0. -1.
</event>
<event>
 7    1  0.2844572E-009  0.1417237E+03  0.7561462E-02  0.1211028E+00
          2   -1    0    0  501    0  0.00000000000E+00  0.00000000000E+00  0.31956040818E+03  0.31956040818E+03  0.00000000000E+00 0. -1.
         -2   -1    0    0    0  501 -0.00000000000E+00 -0.00000000000E+00 -0.92206625110E+02  0.92206625110E+02  0.00000000000E+00 0.  1.
         25    2    1    2    0    0  0.12292880286E+03 -0.17297653389E+02  0.64154375092E+02  0.18754758451E+03  0.12509042020E+03 0.  0.
          5    1    3    3  502    0  0.11774295325E+03 -0.45563513609E+02  0.84599122134E+02  0.15203263031E+03  0.41800000000E+01 0. -1.
         -5    1    3    3    0  502  0.51858496085E+01  0.28265860221E+02 -0.20444747042E+02  0.35514954200E+02  0.41800000000E+01 0. -1.
        -11    1    1    2    0    0 -0.79298651998E+02  0.26282998129E+02  0.38850987723E+02  0.92132900998E+02  0.00000000000E+00 0.  1.
         11    1    1    2    0    0 -0.43630150865E+02 -0.89853447406E+01  0.12434842026E+03  0.13208654778E+03  0.00000000000E+00 0. -1.
</event>
<event>
 7    1  0.2844572E-009  0.1726409E+03  0.7561462E-02  0.1175122E+00
          2   -1    0    0  501    0  0.00000000000E+00  0.00000000000E+00  0.10052628996E+03  0.10052628996E+03  0.00000000000E+00 0. -1.
         -2   -1    0    0    0  501 -0.00000000000E+00 -0.00000000000E+00 -0.36280582959E+03  0.36280582959E+03  0.00000000000E+00 0.  1.
         25    2    1    2    0    0  0.12487523526E+03 -0.88246526945E+02 -0.96678550906E+02  0.21994531019E+03  0.12509165987E+03 0.  0.
          5    1    3    3  502    0  0.10831244466E+03 -0.11629155175E+03 -0.98570106231E+02  0.18705306444E+03  0.41800000000E+01 0. -1.
         -5    1    3    3    0  502  0.16562790604E+02  0.28045024801E+02  0.18915553250E+01  0.32892245746E+02  0.41800000000E+01 0. -1.
        -11    1    1    2    0    0 -0.19432280983E+02  0.19897195740E+02  0.81293353067E+01  0.28975818108E+02  0.00000000000E+00 0. -1.
         11    1    1    2    0    0 -0.10544295428E+03  0.68349331205E+02 -0.17373032404E+03  0.21441099126E+03  0.00000000000E+00 0.  1.
</event>
<event>
 7    1  0.2844572E-009  0.8317154E+02  0.7561462E-02  0.1320285E+00
          1   -1    0    0  501    0  0.00000000000E+00  0.00000000000E+00  0.13374956252E+03  0.13374956252E+03  0.00000000000E+00 0. -1.
         -1   -1    0    0    0  501 -0.00000000000E+00 -0.00000000000E+00 -0.24685204866E+03  0.24685204866E+03  0.00000000000E+00 0.  1.
         25    2    1    2    0    0  0.53518745343E+02 -0.35218721579E+02  0.77806087946E+02  0.16064215874E+03  0.12508997319E+03 0.  0.
          5    1    3    3  502    0  0.15627888441E+02  0.50362245532E+00 -0.33766060726E+02  0.37444676386E+02  0.41800000000E+01 0. -1.
         -5    1    3    3    0  502  0.37890856902E+02 -0.35722344034E+02  0.11157214867E+03  0.12319748236E+03  0.41800000000E+01 0. -1.
        -11    1    1    2    0    0 -0.36372876695E+02  0.58570222018E+02 -0.17215876850E+03  0.18545106804E+03  0.00000000000E+00 0.  1.
         11    1    1    2    0    0 -0.17145868648E+02 -0.23351500439E+02 -0.18749805585E+02  0.34508384400E+02  0.00000000000E+00 0. -1.
</event>
<event>
 7    1  0.2844572E-009  0.1052574E+03  0.7561462E-02  0.1269613E+00
          1   -1    0    0  501    0  0.00000000000E+00  0.00000000000E+00  0.77771752955E+03  0.77771752955E+03  0.00000000000E+00 0. -1.
         -1   -1    0    0    0  501 -0.00000000000E+00 -0.00000000000E+00 -0.19677094298E+02  0.19677094298E+02  0.00000000000E+00 0.  1.
         25    2    1    2    0    0 -0.39560390722E+01  0.31063392970E+02  0.58520196320E+03  0.59924066002E+03  0.12508975282E+03 0.  0.
          5    1    3    3  502    0  0.47326173857E+02  0.43814812121E+02  0.19444187885E+03  0.20490149132E+03  0.41800000000E+01 0.  1.
         -5    1    3    3    0  502 -0.51282212929E+02 -0.12751419151E+02  0.39076008435E+03  0.39433916871E+03  0.41800000000E+01 0.  1.
        -11    1    1    2    0    0  0.27840240396E+02  0.21477269947E+02  0.39630348923E+02  0.52980342255E+02  0.00000000000E+00 0. -1.
         11    1    1    2    0    0 -0.23884201324E+02 -0.52540662917E+02  0.13320812312E+03  0.14517362157E+03  0.00000000000E+00 0.  1.
</event>
<event>
 7    1  0.2844572E-009  0.1335510E+03  0.7561462E-02  0.1222280E+00
         -1   -1    0    0    0  501 -0.00000000000E+00  0.00000000000E+00  0.98689785811E+02  0.98689785811E+02  0.00000000000E+00 0.  1.
          1   -1    0    0  501    0  0.00000000000E+00 -0.00000000000E+00 -0.23711929681E+03  0.23711929681E+03  0.00000000000E+00 0. -1.
         25    2    1    2    0    0  0.10507117647E+03 -0.38638110570E+01 -0.46332353109E+02  0.16984801464E+03  0.12508708955E+03 0.  0.
          5    1    3    3  502    0  0.63130250496E+02  0.34940179910E+02  0.26679073972E+02  0.77042131900E+02  0.41800000000E+01 0.  1.
         -5    1    3    3    0  502  0.41940925977E+02 -0.38803990966E+02 -0.73011427081E+02  0.92805882740E+02  0.41800000000E+01 0.  1.
        -11    1    1    2    0    0 -0.10523995909E+03  0.31535617645E+02 -0.67539480395E+02  0.12896327222E+03  0.00000000000E+00 0.  1.
         11    1    1    2    0    0  0.16878261284E+00 -0.27671806588E+02 -0.24557677491E+02  0.36997795761E+02  0.00000000000E+00 0. -1.
</event>
<event>
 7    1  0.2844572E-009  0.1188890E+03  0.7561462E-02  0.1244941E+00
          4   -1    0    0  501    0  0.00000000000E+00  0.00000000000E+00  0.27166272243E+03  0.27166272243E+03  0.00000000000E+00 0.  1.
         -4   -1    0    0    0  501 -0.00000000000E+00 -0.00000000000E+00 -0.78974497013E+02  0.78974497013E+02  0.00000000000E+00 0. -1.
         25    2    1    2    0    0  0.61221157572E+02 -0.63204985833E+02  0.15494414899E+03  0.21771087649E+03  0.12508971208E+03 0.  0.
          5    1    3    3  502    0 -0.21840032887E+02 -0.37367884112E+02  0.11294260013E+03  0.12102416751E+03  0.41800000000E+01 0. -1.
         -5    1    3    3    0  502  0.83061190458E+02 -0.25837101721E+02  0.42001548860E+02  0.96686708975E+02  0.41800000000E+01 0. -1.
        -11    1    1    2    0    0 -0.17091529187E+02  0.60640575599E+02  0.56764945017E+02  0.84803648281E+02  0.00000000000E+00 0.  1.
         11    1    1    2    0    0 -0.44129628385E+02  0.25644102334E+01 -0.19020868582E+02  0.48122694676E+02  0.00000000000E+00 0. -1.
</event>
<event>
 7    1  0.2844572E-009  0.1296015E+03  0.7561462E-02  0.1228048E+00
         -3   -1    0    0    0  501 -0.00000000000E+00  0.00000000000E+00  0.26793084369E+03  0.26793084369E+03  0.00000000000E+00 0.  1.
          3   -1    0    0  501    0  0.00000000000E+00 -0.00000000000E+00 -0.78163026561E+02  0.78163026561E+02  0.00000000000E+00 0. -1.
         25    2    1    2    0    0 -0.15711262053E+02  0.82019457252E+02  0.48040671690E+02  0.15789077312E+03  0.12509018738E+03 0.  0.
          5    1    3    3  502    0 -0.51182321647E+02  0.55278832014E+01  0.52114866950E+02  0.73373151078E+02  0.41800000000E+01 0.  1.
         -5    1    3    3    0  502  0.35471059593E+02  0.76491574050E+02 -0.40741952604E+01  0.84517622046E+02  0.41800000000E+01 0.  1.
        -11    1    1    2    0    0  0.53703992939E+02 -0.51417167570E+02  0.75665384164E+02  0.10608060303E+03  0.00000000000E+00 0. -1.
         11    1    1    2    0    0 -0.37992730886E+02 -0.30602289682E+02  0.66061761271E+02  0.82122494094E+02  0.00000000000E+00 0.  1.
</event>
<event>
 7    1  0.2844572E-009  0.3315343E+03  0.7561462E-02  0.1070460E+00
         -2   -1    0    0    0  501 -0.00000000000E+00  0.00000000000E+00  0.44887433191E+03  0.44887433191E+03  0.00000000000E+00 0.  1.
          2   -1    0    0  501    0  0.00000000000E+00 -0.00000000000E+00 -0.25080568828E+03  0.25080568828E+03  0.00000000000E+00 0. -1.
         25    2    1    2    0    0 -0.30861731471E+03 -0.76819114151E+02  0.13354197017E+03  0.36691734398E+03  0.12509618809E+03 0.  0.
          5    1    3    3  502    0 -0.12990330357E+03 -0.95788532825E+02  0.52991504175E+02  0.16992905347E+03  0.41800000000E+01 0.  1.
         -5    1    3    3    0  502 -0.17871401114E+03  0.18969418674E+02  0.80550465999E+02  0.19698829050E+03  0.41800000000E+01 0.  1.
        -11    1    1    2    0    0  0.18468630123E+03  0.70727885736E+02  0.66556802508E+02  0.20866545388E+03  0.00000000000E+00 0.  1.
         11    1    1    2    0    0  0.12393101349E+03  0.60912284150E+01 -0.20301290535E+01  0.12409722234E+03  0.00000000000E+00 0. -1.
</event>
<event>
 7    1  0.2844572E-009  0.1192602E+03  0.7561462E-02  0.1244323E+00
          1   -1    0    0  501    0  0.00000000000E+00  0.00000000000E+00  0.58024086358E+03  0.58024086358E+03  0.00000000000E+00 0. -1.
         -1   -1    0    0    0  501 -0.00000000000E+00 -0.00000000000E+00 -0.34296536270E+02  0.34296536270E+02  0.00000000000E+00 0.  1.
         25    2    1    2    0    0 -0.86657296092E+02 -0.94022927623E+01  0.34294656346E+03  0.37531251812E+03  0.12509696555E+03 0.  0.
          5    1    3    3  502    0 -0.47552636933E+02 -0.40887375792E+02  0.56643056201E+02  0.84610513497E+02  0.41800000000E+01 0.  1.
         -5    1    3    3    0  502 -0.39104659159E+02  0.31485083029E+02  0.28630350726E+03  0.29070200462E+03  0.41800000000E+01 0.  1.
        -11    1    1    2    0    0  0.84720846907E+02  0.40659217663E+02  0.16599242917E+03  0.19074663935E+03  0.00000000000E+00 0. -1.
         11    1    1    2    0    0  0.19364491855E+01 -0.31256924901E+02  0.37005334678E+02  0.48478242381E+02  0.00000000000E+00 0.  1.
</event>
<event>
 7    1  0.2844572E-009  0.6169228E+02  0.7561462E-02  0.1390864E+00
         -1   -1    0    0    0  501 -0.00000000000E+00  0.00000000000E+00  0.13137354337E+02  0.13137354337E+02  0.00000000000E+00 0.  1.
          1   -1    0    0  501    0  0.00000000000E+00 -0.00000000000E+00 -0.19594787991E+04  0.19594787991E+04  0.00000000000E+00 0. -1.
         25    2    1    2    0    0  0.76202727574E+01 -0.16988110500E+02 -0.17279656824E+04  0.17325879907E+04  0.12509628880E+03 0.  0.
          5    1    3    3  502    0  0.65810961500E+01  0.64431790769E+01 -0.92469665773E+01  0.13704166302E+02  0.41800000000E+01 0.  1.
         -5    1    3    3    0  502  0.10391766075E+01 -0.23431289576E+02 -0.17187187158E+04  0.17188838244E+04  0.41800000000E+01 0.  1.
        -11    1    1    2    0    0 -0.27145199933E+02  0.46627737296E+02 -0.17928922988E+03  0.18723150300E+03  0.00000000000E+00 0.  1.
         11    1    1    2    0    0  0.19524927176E+02 -0.29639626797E+02 -0.39086532444E+02  0.52796659708E+02  0.00000000000E+00 0. -1.
</event>
<event>
 7    1  0.2844572E-009  0.8435675E+02  0.7561462E-02  0.1317123E+00
         -2   -1    0    0    0  501 -0.00000000000E+00  0.00000000000E+00  0.38935211325E+02  0.38935211325E+02  0.00000000000E+00 0.  1.
          2   -1    0    0  501    0  0.00000000000E+00 -0.00000000000E+00 -0.30449255873E+03  0.30449255873E+03  0.00000000000E+00 0. -1.
         25    2    1    2    0    0 -0.21457439958E+02 -0.92704836686E+01 -0.12479592008E+03  0.17823521838E+03  0.12508959911E+03 0.  0.
          5    1    3    3  502    0 -0.57094747645E+02 -0.22595959149E+02 -0.12568923040E+03  0.13994871424E+03  0.41800000000E+01 0.  1.
         -5    1    3    3    0  502  0.35637307687E+02  0.13325475481E+02  0.89331032415E+00  0.38286504141E+02  0.41800000000E+01 0.  1.
        -11    1    1    2    0    0  0.25443349658E+02 -0.24242010828E+02 -0.21387201451E+02  0.41139415610E+02  0.00000000000E+00 0.  1.
         11    1    1    2    0    0 -0.39859097008E+01  0.33512494497E+02 -0.11937422588E+03  0.12405313607E+03  0.00000000000E+00 0. -1.
</event>
<event>
 7    1  0.2844572E-009  0.9972850E+02  0.7561462E-02  0.1280868E+00
         -2   -1    0    0    0  501 -0.00000000000E+00  0.00000000000E+00  0.89725672528E+02  0.89725672528E+02  0.00000000000E+00 0.  1.
          2   -1    0    0  501    0  0.00000000000E+00 -0.00000000000E+00 -0.14885567582E+03  0.14885567582E+03  0.00000000000E+00 0. -1.
         25    2    1    2    0    0 -0.24987333936E+02 -0.31015298585E+02 -0.20567447058E+02  0.13288068666E+03  0.12509173196E+03 0.  0.
          5    1    3    3  502    0 -0.61199688294E+02  0.43572734622E+00 -0.47618000364E+02  0.77656539096E+02  0.41800000000E+01 0. -1.
         -5    1    3    3    0  502  0.36212354358E+02 -0.31451025931E+02  0.27050553306E+02  0.55224147566E+02  0.41800000000E+01 0. -1.
        -11    1    1    2    0    0  0.46740724945E+02 -0.59083323846E+01  0.13585385635E+01  0.47132254211E+02  0.00000000000E+00 0.  1.
         11    1    1    2    0    0 -0.21753391009E+02  0.36923630969E+02 -0.39921094798E+02  0.58568407475E+02  0.00000000000E+00 0. -1.
</event>
<event>
 7    1  0.2844572E-009  0.5972233E+02  0.7561462E-02  0.1399001E+00
         -2   -1    0    0    0  501 -0.00000000000E+00  0.00000000000E+00  0.24422587692E+03  0.24422587692E+03  0.00000000000E+00 0.  1.
          2   -1    0    0  501    0  0.00000000000E+00 -0.00000000000E+00 -0.20058598009E+03  0.20058598009E+03  0.00000000000E+00 0. -1.
         25    2    1    2    0    0  0.34423337296E+02  0.53227052592E+01 -0.16680672122E+03  0.21138253130E+03  0.12507915474E+03 0.  0.
          5    1    3    3  502    0 -0.27318309908E+01  0.41076703544E+01  0.19921144790E+02  0.20944217963E+02  0.41800000000E+01 0.  1.
         -5    1    3    3    0  502  0.37155168287E+02  0.12150349048E+01 -0.18672786601E+03  0.19043831333E+03  0.41800000000E+01 0.  1.
        -11    1    1    2    0    0 -0.33147691976E+01 -0.33459908180E+02  0.21562177548E+02  0.39943468188E+02  0.00000000000E+00 0. -1.
         11    1    1    2    0    0 -0.31108568099E+02  0.28137202921E+02  0.18888444050E+03  0.19348585752E+03  0.00000000000E+00 0.  1.
</event>
<event>
 6    1  0.2844572E-009  0.1840675E+03  0.7561462E-02  0.1163924E+00
          2   -1    0    0  501    0  0.00000000000E+00  0.00000000000E+00  0.29990731103E+02  0.29990731103E+02  0.00000000000E+00 0.  1.
         -2   -1    0    0    0  501 -0.00000000000E+00 -0.00000000000E+00 -0.12378622003E+04  0.12378622003E+04  0.00000000000E+00 0. -1.
          5    1    1    2  502    0 -0.37741007006E+02  0.13677217523E+03 -0.41911039665E+03  0.44249520733E+03  0.41800000000E+01 0. -1.
         -5    1    1    2    0  502 -0.49038756183E+02 -0.10351897666E+02 -0.81193556138E+02  0.95508258029E+02  0.41800000000E+01 0. -1.
        -11    1    1    2    0    0  0.10428496344E+03 -0.10221957401E+03 -0.52828597354E+03  0.54809694831E+03  0.00000000000E+00 0.  1.
         11    1    1    2    0    0 -0.17505200255E+02 -0.24200703559E+02 -0.17928154283E+03  0.18175251769E+03  0.00000000000E+00 0. -1.
</event>
<event>
 6    1  0.2844572E-009  0.1179362E+03  0.7561462E-02  0.1246541E+00
          1   -1    0    0  501    0  0.00000000000E+00  0.00000000000E+00  0.55851971572E+02  0.55851971572E+02  0.00000000000E+00 0. -1.
         -1   -1    0    0    0  501 -0.00000000000E+00 -0.00000000000E+00 -0.40877012531E+03  0.40877012531E+03  0.00000000000E+00 0.  1.
          5    1    1    2  502    0  0.23695299146E+02  0.10187377796E+03 -0.27928552703E+02  0.10833840636E+03  0.41800000000E+01 0.  1.
         -5    1    1    2    0  502 -0.74733846986E+01 -0.19527854192E+02 -0.65459988854E+02  0.68845269329E+02  0.41800000000E+01 0.  1.
        -11    1    1    2    0    0  0.20405254689E+02 -0.73362300391E+00 -0.11979843967E+03  0.12152604153E+03  0.00000000000E+00 0.  1.
         11    1    1    2    0    0 -0.36627169137E+02 -0.81612300762E+02 -0.13973117251E+03  0.16591237966E+03  0.00000000000E+00 0. -1.
</event>
<event>
 7    1  0.2844572E-009  0.9793411E+02  0.7561462E-02  0.1284701E+00
          1   -1    0    0  501    0  0.00000000000E+00  0.00000000000E+00  0.12882491501E+03  0.12882491501E+03  0.00000000000E+00 0. -1.
         -1   -1    0    0    0  501 -0.00000000000E+00 -0.00000000000E+00 -0.13194462531E+03  0.13194462531E+03  0.00000000000E+00 0.  1.
         25    2    1    2    0    0  0.38539961658E+02 -0.52422955000E+02 -0.34274652942E+02  0.14510642687E+03  0.12509048097E+03 0.  0.
          5    1    3    3  502    0  0.66694038854E+02 -0.78929695630E+01  0.19146938195E+02  0.69960499066E+02  0.41800000000E+01 0. -1.
         -5    1    3    3    0  502 -0.28154077196E+02 -0.44529985437E+02 -0.53421591137E+02  0.75145927803E+02  0.41800000000E+01 0. -1.
        -11    1    1    2    0    0  0.74852619409E+01  0.13570718984E+02  0.50163820538E+02  0.52503356569E+02  0.00000000000E+00 0. -1.
         11    1    1    2    0    0 -0.46025223599E+02  0.38852236016E+02 -0.19008877892E+02  0.63159756883E+02  0.00000000000E+00 0.  1.
</event>
<event>
 7    1  0.2844572E-009  0.1076466E+03  0.7561462E-02  0.1264991E+00
          1   -1    0    0  501    0  0.00000000000E+00  0.00000000000E+00  0.15836376416E+03  0.15836376416E+03  0.00000000000E+00 0. -1.
         -1   -1    0    0    0  501 -0.00000000000E+00 -0.00000000000E+00 -0.10935898839E+03  0.10935898839E+03  0.00000000000E+00 0.  1.
         25    2    1    2    0    0  0.49925276075E+02  0.36683982893E+02 -0.22290243973E+02  0.14135961952E+03  0.12508972484E+03 0.  0.
          5    1    3    3  502    0 -0.23484036350E+02 -0.10633117780E+02 -0.44091306699E+02  0.51245281572E+02  0.41800000000E+01 0. -1.
         -5    1    3    3    0  502  0.73409312426E+02  0.47317100674E+02  0.21801062726E+02  0.90114337943E+02  0.41800000000E+01 0. -1.
        -11    1    1    2    0    0  0.13885800684E+02 -0.35278961372E+02  0.40564735296E+02  0.55524033767E+02  0.00000000000E+00 0. -1.
         11    1    1    2    0    0 -0.63811076760E+02 -0.14050215216E+01  0.30730284441E+02  0.70839099264E+02  0.00000000000E+00 0.  1.
</event>
<event>
 7    1  0.2844572E-009  0.9354174E+02  0.7561462E-02  0.1294495E+00
         -2   -1    0    0    0  501 -0.00000000000E+00  0.00000000000E+00  0.90697413236E+02  0.90697413236E+02  0.00000000000E+00 0.  1.
          2   -1    0    0  501    0  0.00000000000E+00 -0.00000000000E+00 -0.20451944362E+03  0.20451944362E+03  0.00000000000E+00 0. -1.
         25    2    1    2    0    0 -0.27594308640E+02  0.71090099754E+02 -0.86835473774E+02  0.17030158760E+03  0.12508790141E+03 0.  0.
          5    1    3    3  502    0 -0.28820952711E+01  0.40213509961E+02  0.27676593332E+02  0.49080536621E+02  0.41800000000E+01 0. -1.
         -5    1    3    3    0  502 -0.24712213369E+02  0.30876589794E+02 -0.11451206711E+03  0.12122105098E+03  0.41800000000E+01 0. -1.
        -11    1    1    2    0    0  0.14783508488E+01 -0.79371082440E+02 -0.45829068762E+02  0.91663830340E+02  0.00000000000E+00 0. -1.
         11    1    1    2    0    0  0.26115957792E+02  0.82809826853E+01  0.18842512156E+02  0.33251438916E+02  0.00000000000E+00 0.  1.
</event>
<event>
 7    1  0.2844572E-009  0.1048361E+03  0.7561462E-02  0.1270443E+00
         -4   -1    0    0    0  501 -0.00000000000E+00  0.00000000000E+00  0.14149693580E+03  0.14149693580E+03  0.00000000000E+00 0.  1.
          4   -1    0    0  501    0  0.00000000000E+00 -0.00000000000E+00 -0.14272779890E+03  0.14272779890E+03  0.00000000000E+00 0. -1.
         25    2    1    2    0    0  0.81097370768E+02 -0.39930716912E+02  0.23320043376E+02  0.15608724794E+03  0.12509260109E+03 0.  0.
          5    1    3    3  502    0  0.34484506075E+02 -0.24837310587E+02  0.74021915368E+02  0.85456360273E+02  0.41800000000E+01 0.  1.
         -5    1    3    3    0  502  0.46612864694E+02 -0.15093406325E+02 -0.50701871992E+02  0.70630887669E+02  0.41800000000E+01 0.  1.
        -11    1    1    2    0    0 -0.33496710524E+02  0.57920394380E+02 -0.35999713438E+02  0.75978819869E+02  0.00000000000E+00 0.  1.
         11    1    1    2    0    0 -0.47600660244E+02 -0.17989677468E+02  0.11448806964E+02  0.52158666892E+02  0.00000000000E+00 0. -1.
</event>
<event>
 7    1  0.2844572E-009  0.4749304E+03  0.7561462E-02  0.1020538E+00
          1   -1    0    0  501    0  0.00000000000E+00  0.00000000000E+00  0.21609678749E+03  0.21609678749E+03  0.00000000000E+00 0. -1.
         -1   -1    0    0    0  501 -0.00000000000E+00 -0.00000000000E+00 -0.10831356479E+04  0.10831356479E+04  0.00000000000E+00 0.  1.
         25    2    1    2    0    0 -0.26655066985E+03  0.38211731690E+03 -0.53099056424E+03  0.71739871543E+03  0.12508810544E+03 0.  0.
          5    1    3    3  502    0 -0.14754335259E+03  0.29732368107E+03 -0.32288221691E+03  0.46307754277E+03  0.41800000000E+01 0. -1.
         -5    1    3    3    0  502 -0.11900731726E+03  0.84793635828E+02 -0.20810834732E+03  0.25432117266E+03  0.41800000000E+01 0. -1.
        -11    1    1    2    0    0  0.21816283707E+03 -0.25428638513E+03 -0.26856735792E+03  0.42940076256E+03  0.00000000000E+00 0.  1.
         11    1    1    2    0    0  0.48387832782E+02 -0.12783093177E+03 -0.67480938274E+02  0.15243295742E+03  0.00000000000E+00 0. -1.
</event>
<event>
 6    1  0.2844572E-009  0.2160655E+03  0.7561462E-02  0.1136851E+00
          3   -1    0    0  501    0  0.00000000000E+00  0.00000000000E+00  0.20796706624E+03  0.20796706624E+03  0.00000000000E+00 0. -1.
         -3   -1    0    0    0  501 -0.00000000000E+00 -0.00000000000E+00 -0.30832638627E+03  0.30832638627E+03  0.00000000000E+00 0.  1.
          5    1    1    2  502    0  0.11013504582E+03 -0.13046363535E+02 -0.65047640788E+02  0.12864137705E+03  0.41800000000E+01 0.  1.
         -5    1    1    2    0  502  0.62824667754E+02  0.96121955210E+02 -0.11466717275E+03  0.16233422947E+03  0.41800000000E+01 0.  1.
        -11    1    1    2    0    0 -0.10715403181E+03 -0.90179655125E+02  0.75287503535E+02  0.15900492105E+03  0.00000000000E+00 0. -1.
         11    1    1    2    0    0 -0.65805681764E+02  0.71040634507E+01  0.40679899778E+01  0.66312924928E+02  0.00000000000E+00 0.  1.
</event>
<event>
 7    1  0.2844572E-009  0.1377436E+03  0.7561462E-02  0.1216398E+00
          2   -1    0    0  501    0  0.00000000000E+00  0.00000000000E+00  0.21516382287E+03  0.21516382287E+03  0.00000000000E+00 0. -1.
         -2   -1    0    0    0  501 -0.00000000000E+00 -0.00000000000E+00 -0.10432966830E+03  0.10432966830E+03  0.00000000000E+00 0.  1.
         25    2    1    2    0    0  0.19114458219E+02 -0.94650769651E+02  0.20437192462E+02  0.15934159847E+03  0.12509170820E+03 0.  0.
          5    1    3    3  502    0  0.55229089801E+02 -0.17513916088E+02 -0.24389283358E+02  0.63002374238E+02  0.41800000000E+01 0. -1.
         -5    1    3    3    0  502 -0.36114631582E+02 -0.77136853563E+02  0.44826475819E+02  0.96339224236E+02  0.41800000000E+01 0. -1.
        -11    1    1    2    0    0 -0.55647933489E+02  0.57322687502E+02  0.51950324492E+02  0.95296480622E+02  0.00000000000E+00 0. -1.
         11    1    1    2    0    0  0.36533475270E+02  0.37328082149E+02  0.38446637613E+02  0.64855412079E+02  0.00000000000E+00 0.  1.
</event>
<event>
 7    1  0.2844572E-009  0.1711865E+03  0.7561462E-02  0.1176616E+00
         -2   -1    0    0    0  501 -0.00000000000E+00  0.00000000000E+00  0.10556608570E+03  0.10556608570E+03  0.00000000000E+00 0.  1.
          2   -1    0    0  501    0  0.00000000000E+00 -0.00000000000E+00 -0.39344016907E+03  0.39344016907E+03  0.00000000000E+00 0. -1.
         25    2    1    2    0    0  0.39236102717E+02 -0.16148475019E+03 -0.20440889875E+03  0.29162849047E+03  0.12508949702E+03 0.  0.
          5    1    3    3  502    0  0.52863478940E+02 -0.14320108112E+03 -0.21692450398E+03  0.26528250953E+03  0.41800000000E+01 0. -1.
         -5    1    3    3    0  502 -0.13627376223E+02 -0.18283669071E+02  0.12515605223E+02  0.26345980936E+02  0.41800000000E+01 0. -1.
        -11    1    1    2    0    0 -0.37006431061E+02  0.13735421009E+03 -0.10351209213E+03  0.17592728097E+03  0.00000000000E+00 0.  1.
         11    1    1    2    0    0 -0.22296716560E+01  0.24130540092E+02  0.20046907514E+02  0.31450483330E+02  0.00000000000E+00 0. -1.
</event>
<event>
 7    1  0.2844572E-009  0.1341671E+03  0.7561462E-02  0.1221400E+00
         -2   -1    0    0    0  501 -0.00000000000E+00  0.00000000000E+00  0.46292878600E+02  0.46292878600E+02  0.00000000000E+00 0.  1.
          2   -1    0    0  501    0  0.00000000000E+00 -0.00000000000E+00 -0.41304564428E+03  0.41304564428E+03  0.00000000000E+00 0. -1.
         25    2    1    2    0    0 -0.51748809033E+02  0.68932285532E+02 -0.19815607634E+03  0.24968592244E+03  0.12509048744E+03 0.  0.
          5    1    3    3  502    0 -0.88033404014E+02  0.37898390303E+02 -0.90689553360E+02  0.13201604334E+03  0.41800000000E+01 0. -1.
         -5    1    3    3    0  502  0.36284594981E+02  0.31033895229E+02 -0.10746652298E+03  0.11766987910E+03  0.41800000000E+01 0. -1.
        -11    1    1    2    0    0  0.71545873530E+02 -0.24158083665E+02 -0.10721401209E+03  0.13113835981E+03  0.00000000000E+00 0.  1.
         11    1    1    2    0    0 -0.19797064497E+02 -0.44774201868E+02 -0.61382677251E+02  0.78514240632E+02  0.00000000000E+00 0. -1.
</event>
<event>
 7    1  0.2844572E-009  0.1075652E+03  0.7561462E-02  0.1265146E+00
         -1   -1    0    0    0  501 -0.00000000000E+00  0.00000000000E+00  0.47287565471E+02  0.47287565471E+02  0.00000000000E+00 0.  1.
          1   -1    0    0  501    0  0.00000000000E+00 -0.00000000000E+00 -0.25272770610E+03  0.25272770610E+03  0.00000000000E+00 0. -1.
         25    2    1    2    0    0  0.80367681676E+01  0.11921595575E+02 -0.12634266879E+03  0.17837452946E+03  0.12509312019E+03 0.  0.
          5    1    3    3  502    0  0.26713263166E+00  0.68451327466E+02 -0.72796207738E+02  0.10001207853E+03  0.41800000000E+01 0. -1.
         -5    1    3    3    0  502  0.77696355360E+01 -0.56529731891E+02 -0.53546461054E+02  0.78362450928E+02  0.41800000000E+01 0. -1.
        -11    1    1    2    0    0  0.38222042409E+02 -0.18756127853E+02 -0.22273286654E+02  0.48050142105E+02  0.00000000000E+00 0.  1.
         11    1    1    2    0    0 -0.46258810577E+02  0.68345322783E+01 -0.56824185184E+02  0.73590600006E+02  0.00000000000E+00 0. -1.
</event>
<event>
 7    1  0.2844572E-009  0.1062647E+03  0.7561462E-02  0.1267648E+00
         -2   -1    0    0    0  501 -0.00000000000E+00  0.00000000000E+00  0.17276461462E+03  0.17276461462E+03  0.00000000000E+00 0.  1.
          2   -1    0    0  501    0  0.00000000000E+00 -0.00000000000E+00 -0.82225983132E+02  0.82225983132E+02  0.00000000000E+00 0. -1.
         25    2    1    2    0    0 -0.92589639834E+01 -0.50766305239E+02  0.56772524742E+02  0.14674087028E+03  0.12508723869E+03 0.  0.
          5    1    3    3  502    0 -0.45589445747E+02 -0.56488431005E+02 -0.69560991539E+01  0.73042454205E+02  0.41800000000E+01 0.  1.
         -5    1    3    3    0  502  0.36330481764E+02  0.57221257657E+01  0.63728623896E+02  0.73698416076E+02  0.41800000000E+01 0.  1.
        -11    1    1    2    0    0  0.48999601999E+02  0.34167905317E+02  0.18040613160E+02  0.62400885193E+02  0.00000000000E+00 0. -1.
         11    1    1    2    0    0 -0.39740638015E+02  0.16598399922E+02  0.15725493591E+02  0.45848842281E+02  0.00000000000E+00 0.  1.
</event>
<event>
 7    1  0.2844572E-009  0.2046231E+03  0.7561462E-02  0.1145896E+00
          2   -1    0    0  501    0  0.00000000000E+00  0.00000000000E+00  0.10389712480E+03  0.10389712480E+03  0.00000000000E+00 0. -1.
         -2   -1    0    0    0  501 -0.00000000000E+00 -0.00000000000E+00 -0.60027432688E+03  0.60027432688E+03  0.00000000000E+00 0.  1.
         25    2    1    2    0    0  0.18532145065E+03 -0.51753366608E+02 -0.41911789501E+03  0.47783817500E+03  0.12508821106E+03 0.  0.
          5    1    3    3  502    0  0.17295483293E+03 -0.10503958897E+02 -0.38672669994E+03  0.42379089211E+03  0.41800000000E+01 0.  1.
         -5    1    3    3    0  502  0.12366617725E+02 -0.41249407711E+02 -0.32391195064E+02  0.54047282893E+02  0.41800000000E+01 0.  1.
        -11    1    1    2    0    0 -0.16848859538E+03  0.49896860891E+02 -0.32798420984E+02  0.17875637029E+03  0.00000000000E+00 0. -1.
         11    1    1    2    0    0 -0.16832855273E+02  0.18565057167E+01 -0.44460886080E+02  0.47576906385E+02  0.00000000000E+00 0.  1.
</event>
<event>
 7    1  0.2844572E-009  0.3945000E+03  0.7561462E-02  0.1045701E+00
          2   -1    0    0  501    0  0.00000000000E+00  0.00000000000E+00  0.11334072202E+04  0.11334072202E+04  0.00000000000E+00 0. -1.
         -2   -1    0    0    0  501 -0.00000000000E+00 -0.00000000000E+00 -0.13991628026E+03  0.13991628026E+03  0.00000000000E+00 0.  1.
         25    2    1    2    0    0 -0.36261174294E+03 -0.12091218144E+03  0.46739899633E+03  0.61661731770E+03  0.12509221789E+03 0.  0.
          5    1    3    3  502    0 -0.36807255998E+03 -0.12400124003E+03  0.43423513657E+03  0.58260736622E+03  0.41800000000E+01 0. -1.
         -5    1    3    3    0  502  0.54608170380E+01  0.30890585900E+01  0.33163859756E+02  0.34009951479E+02  0.41800000000E+01 0. -1.
        -11    1    1    2    0    0  0.10071071947E+03 -0.81979021774E+01  0.13757977752E+03  0.17069871060E+03  0.00000000000E+00 0.  1.
         11    1    1    2    0    0  0.26190102347E+03  0.12911008362E+03  0.38851216608E+03  0.48600747214E+03  0.00000000000E+00 0. -1.
</event>
<event>
 7    1  0.2844572E-009  0.6883632E+02  0.7561462E-02  0.1364095E+00
          2   -1    0    0  501    0  0.00000000000E+00  0.00000000000E+00  0.30708860776E+02  0.30708860776E+02  0.00000000000E+00 0. -1.
         -2   -1    0    0    0  501 -0.00000000000E+00 -0.00000000000E+00 -0.39178728334E+03  0.39178728334E+03  0.00000000000E+00 0.  1.
         25    2    1    2    0    0  0.20248247557E+01  0.48996498416E+01 -0.17568354886E+03  0.21573208969E+03  0.12509004236E+03 0.  0.
          5    1    3    3  502    0 -0.38588795184E+01 -0.21476732451E+02 -0.18538848294E+03  0.18671503152E+03  0.41800000000E+01 0.  1.
         -5    1    3    3    0  502  0.58837042741E+01  0.26376382292E+02  0.97049340863E+01  0.29017058163E+02  0.41800000000E+01 0.  1.
        -11    1    1    2    0    0  0.41746391153E+02 -0.12727776972E+02 -0.63848096647E+02  0.77339103476E+02  0.00000000000E+00 0. -1.
         11    1    1    2    0    0 -0.43771215909E+02  0.78281271309E+01 -0.12154677705E+03  0.12942495095E+03  0.00000000000E+00 0.  1.
</event>
<event>
 7    1  0.2844572E-009  0.1119333E+03  0.7561462E-02  0.1257031E+00
          2   -1    0    0  501    0  0.00000000000E+00  0.00000000000E+00  0.54552382166E+03  0.54552382166E+03  0.00000000000E+00 0. -1.
         -2   -1    0    0    0  501 -0.00000000000E+00 -0.00000000000E+00 -0.24181225221E+02  0.24181225221E+02  0.00000000000E+00 0.  1.
         25    2    1    2    0    0  0.22482654824E+02  0.33922636370E+02  0.28615544510E+03  0.31494032991E+03  0.12508500158E+03 0.  0.
          5    1    3    3  502    0  0.24254416081E+02  0.77917970996E+02  0.13855214052E+03  0.16085289847E+03  0.41800000000E+01 0. -1.
         -5    1    3    3    0  502 -0.17717612568E+01 -0.43995334626E+02  0.14760330457E+03  0.15408743144E+03  0.41800000000E+01 0. -1.
        -11    1    1    2    0    0  0.31671522338E+02 -0.30007299572E+02  0.10694264086E+03  0.11550000775E+03  0.00000000000E+00 0.  1.
         11    1    1    2    0    0 -0.54154177162E+02 -0.39153367982E+01  0.12824451048E+03  0.13926470922E+03  0.00000000000E+00 0. -1.
</event>
<event>
 7    1  0.2844572E-009  0.2432843E+03  0.7561462E-02  0.1117624E+00
          1   -1    0    0  501    0  0.00000000000E+00  0.00000000000E+00  0.13725749448E+04  0.13725749448E+04  0.00000000000E+00 0. -1.
         -1   -1    0    0    0  501 -0.00000000000E+00 -0.00000000000E+00 -0.70661752160E+02  0.70661752160E+02  0.00000000000E+00 0.  1.
         25    2    1    2    0    0  0.23411010497E+03 -0.24755779385E+02  0.26507438714E+03  0.37593911457E+03  0.12508156250E+03 0.  0.
          5    1    3    3  502    0  0.94517860898E+02  0.15273721429E+02  0.31516679324E+02  0.10088451849E+03  0.41800000000E+01 0.  1.
         -5    1    3    3    0  502  0.13959224407E+03 -0.40029500813E+02  0.23355770782E+03  0.27505459608E+03  0.41800000000E+01 0.  1.
        -11    1    1    2    0    0 -0.63385069762E+02 -0.24202732948E+02  0.18276677574E+03  0.19495418350E+03  0.00000000000E+00 0. -1.
         11    1    1    2    0    0 -0.17072503521E+03  0.48958512332E+02  0.85407202971E+03  0.87234339885E+03  0.00000000000E+00 0.  1.
</event>
<event>
 7    1  0.2844572E-009  0.1127678E+03  0.7561462E-02  0.1255529E+00
         -2   -1    0    0    0  501 -0.00000000000E+00  0.00000000000E+00  0.25600726938E+02  0.25600726938E+02  0.00000000000E+00 0.  1.
          2   -1    0    0  501    0  0.00000000000E+00 -0.00000000000E+00 -0.15075944883E+04  0.15075944883E+04  0.00000000000E+00 0. -1.
         25    2    1    2    0    0  0.29468543971E+02 -0.76513099947E+02 -0.13135355742E+04  0.13220233999E+04  0.12509003042E+03 0.  0.
          5    1    3    3  502    0 -0.15376882618E+02 -0.83972391568E+02 -0.11165557752E+04  0.11198223442E+04  0.41800000000E+01 0. -1.
         -5    1    3    3    0  502  0.44845426589E+02  0.74592916208E+01 -0.19697979905E+03  0.20220105576E+03  0.41800000000E+01 0. -1.
        -11    1    1    2    0    0  0.12156219567E+02  0.27767162258E+02 -0.13597244555E+03  0.13931006756E+03  0.00000000000E+00 0. -1.
         11    1    1    2    0    0 -0.41624763538E+02  0.48745937690E+02 -0.32485741589E+02  0.71861747735E+02  0.00000000000E+00 0.  1.
</event>
<event>
 7    1  0.2844572E-009  0.1192611E+03  0.7561462E-02  0.1244321E+00
         -2   -1    0    0    0  501 -0.00000000000E+00  0.00000000000E+00  0.36436077817E+03  0.36436077817E+03  0.00000000000E+00 0.  1.
          2   -1    0    0  501    0  0.00000000000E+00 -0.00000000000E+00 -0.51679678366E+02  0.51679678366E+02  0.00000000000E+00 0. -1.
         25    2    1    2    0    0 -0.79523166232E+02 -0.21012934437E+02  0.12210732108E+03  0.19318903624E+03  0.12508528484E+03 0.  0.
          5    1    3    3  502    0  0.23407599328E+02  0.14251526762E+02  0.64053859543E+02  0.69795351161E+02  0.41800000000E+01 0. -1.
         -5    1    3    3    0  502 -0.10293076556E+03 -0.35264461199E+02  0.58053461532E+02  0.12339368508E+03  0.41800000000E+01 0. -1.
        -11    1    1    2    0    0  0.26643049651E+01 -0.16273693993E+02  0.87211808012E+02  0.88757146720E+02  0.00000000000E+00 0.  1.
         11    1    1    2    0    0  0.76858861267E+02  0.37286628430E+02  0.10336197072E+03  0.13409427358E+03  0.00000000000E+00 0. -1.
</event>
<event>
 7    1  0.2844572E-009  0.9691667E+02  0.7561462E-02  0.1286917E+00
          1   -1    0    0  501    0  0.00000000000E+00  0.00000000000E+00  0.82834319302E+02  0.82834319302E+02  0.00000000000E+00 0. -1.
         -1   -1    0    0    0  501 -0.00000000000E+00 -0.00000000000E+00 -0.23076021611E+03  0.23076021611E+03  0.00000000000E+00 0.  1.
         25    2    1    2    0    0 -0.19340993573E+02  0.31580317482E+02  0.66285315976E+01  0.13062547457E+03  0.12509071385E+03 0.  0.
          5    1    3    3  502    0 -0.55441690714E+02  0.60934924611E+02  0.12896759412E+02  0.83490388129E+02  0.41800000000E+01 0.  1.
         -5    1    3    3    0  502  0.36100697141E+02 -0.29354607129E+02 -0.62682278148E+01  0.47135086440E+02  0.41800000000E+01 0.  1.
        -11    1    1    2    0    0 -0.65650109603E+01 -0.37487198088E+02 -0.15151886116E+03  0.15622533302E+03  0.00000000000E+00 0.  1.
         11    1    1    2    0    0  0.25906004533E+02  0.59068806060E+01 -0.30355672440E+01  0.26743727823E+02  0.00000000000E+00 0. -1.
</event>
<event>
 7    1  0.2844572E-009  0.9205535E+02  0.7561462E-02  0.1297949E+00
         -1   -1    0    0    0  501 -0.00000000000E+00  0.00000000000E+00  0.93960778199E+02  0.93960778199E+02  0.00000000000E+00 0.  1.
          1   -1    0    0  501    0  0.00000000000E+00 -0.00000000000E+00 -0.15462979693E+03  0.15462979693E+03  0.00000000000E+00 0. -1.
         25    2    1    2    0    0  0.18849755250E+02 -0.14249167231E+02  0.11615891972E+02  0.12783223991E+03  0.12509116905E+03 0.  0.
          5    1    3    3  502    0 -0.39664706535E+02 -0.11112970953E+02  0.44274351201E+02  0.60617469777E+02  0.41800000000E+01 0. -1.
         -5    1    3    3    0  502  0.58514461786E+02 -0.31361962783E+01 -0.32658459229E+02  0.67214770136E+02  0.41800000000E+01 0. -1.
        -11    1    1    2    0    0 -0.25938018354E+02 -0.29706196336E+02 -0.64439404385E+02  0.75549161044E+02  0.00000000000E+00 0.  1.
         11    1    1    2    0    0  0.70882631036E+01  0.43955363567E+02 -0.78455063193E+01  0.45209174175E+02  0.00000000000E+00 0. -1.
</event>
<event>
 7    1  0.2844572E-009  0.1434412E+03  0.7561462E-02  0.1208772E+00
          1   -1    0    0  501    0  0.00000000000E+00  0.00000000000E+00  0.50509894718E+02  0.50509894718E+02  0.00000000000E+00 0. -1.
         -1   -1    0    0    0  501 -0.00000000000E+00 -0.00000000000E+00 -0.48759810866E+03  0.48759810866E+03  0.00000000000E+00 0.  1.
         25    2    1    2    0    0  0.78221304949E+02  0.59513854870E+02 -0.13724630452E+03  0.21010546179E+03  0.12508911025E+03 0.  0.
          5    1    3    3  502    0  0.35821472846E+02  0.95935771998E+02 -0.80300110232E+02  0.13020149910E+03  0.41800000000E+01 0.  1.
         -5    1    3    3    0  502  0.42399832103E+02 -0.36421917128E+02 -0.56946194283E+02  0.79903962687E+02  0.41800000000E+01 0.  1.
        -11    1    1    2    0    0 -0.95834965495E+02 -0.53319631090E+02 -0.28022356911E+03  0.30091954465E+03  0.00000000000E+00 0.  1.
         11    1    1    2    0    0  0.17613660545E+02 -0.61942237805E+01 -0.19618340320E+02  0.27082996935E+02  0.00000000000E+00 0. -1.
</event>
<event>
 7    1  0.3224860E-009  0.1126549E+03  0.7561462E-02  0.1255731E+00
         -2   -1    0    0    0  501 -0.00000000000E+00  0.00000000000E+00  0.24809627822E+02  0.24809627822E+02  0.00000000000E+00 0.  1.
          2   -1    0    0  501    0  0.00000000000E+00 -0.00000000000E+00 -0.64760518555E+03  0.64760518555E+03  0.00000000000E+00 0. -1.
         25    2    1    2    0    0 -0.55045990587E+02  0.34102124678E+02 -0.35010299979E+03  0.37737639219E+03  0.12509122645E+03 0.  0.
          5    1    3    3  502    0  0.22184847079E+02  0.56075721194E+02 -0.14894944737E+03  0.16074845013E+03  0.41800000000E+01 0.  1.
         -5    1    3    3    0  502 -0.77230837666E+02 -0.21973596516E+02 -0.20115355242E+03  0.21662794206E+03  0.41800000000E+01 0.  1.
        -11    1    1    2    0    0  0.28781832139E+02  0.12170243998E+02 -0.20684304730E+02  0.37474646929E+02  0.00000000000E+00 0.  1.
         11    1    1    2    0    0  0.26264158448E+02 -0.46272368676E+02 -0.25200825321E+03  0.25756377426E+03  0.00000000000E+00 0. -1.
</event>
<event>
 7    1  0.2844572E-009  0.1518629E+03  0.7561462E-02  0.1198202E+00
          1   -1    0    0  501    0  0.00000000000E+00  0.00000000000E+00  0.35578359609E+03  0.35578359609E+03  0.00000000000E+00 0. -1.
         -1   -1    0    0    0  501 -0.00000000000E+00 -0.00000000000E+00 -0.73157457430E+02  0.73157457430E+02  0.00000000000E+00 0.  1.
         25    2    1    2    0    0 -0.15409594715E+02 -0.11771676407E+03  0.16963905078E+03  0.24190811057E+03  0.12508970486E+03 0.  0.
          5    1    3    3  502    0  0.44809634902E+02 -0.16575297124E+02  0.21255595506E+02  0.52458713243E+02  0.41800000000E+01 0.  1.
         -5    1    3    3    0  502 -0.60219229617E+02 -0.10114146694E+03  0.14838345527E+03  0.18944939733E+03  0.41800000000E+01 0.  1.
        -11    1    1    2    0    0 -0.22220346760E+02  0.85823333609E+02  0.36183071401E+02  0.95752822716E+02  0.00000000000E+00 0.  1.
         11    1    1    2    0    0  0.37629941476E+02  0.31893430457E+02  0.76804016487E+02  0.91280120236E+02  0.00000000000E+00 0. -1.
</event>
<event>
 7    1  0.2844572E-009  0.9634330E+02  0.7561462E-02  0.1288179E+00
         -1   -1    0    0    0  501 -0.00000000000E+00  0.00000000000E+00  0.18606677323E+03  0.18606677323E+03  0.00000000000E+00 0.  1.
          1   -1    0    0  501    0  0.00000000000E+00 -0.00000000000E+00 -0.96163021318E+02  0.96163021318E+02  0.00000000000E+00 0. -1.
         25    2    1    2    0    0 -0.44140078448E+02 -0.64187019155E+02  0.35971454160E+02  0.15168179999E+03  0.12508038608E+03 0.  0.
          5    1    3    3  502    0  0.14787308296E+02 -0.21114057564E+02  0.67264250831E+02  0.72155524760E+02  0.41800000000E+01 0. -1.
         -5    1    3    3    0  502 -0.58927386745E+02 -0.43072961590E+02 -0.31292796671E+02  0.79526275232E+02  0.41800000000E+01 0. -1.
        -11    1    1    2    0    0  0.55793978290E+02  0.57041970069E+02  0.72283790351E+02  0.10766476076E+03  0.00000000000E+00 0.  1.
         11    1    1    2    0    0 -0.11653899842E+02  0.71450490851E+01 -0.18351492602E+02  0.22883233789E+02  0.00000000000E+00 0. -1.
</event>
<event>
 7    1  0.2844572E-009  0.1834671E+03  0.7561462E-02  0.1164489E+00
          2   -1    0    0  501    0  0.00000000000E+00  0.00000000000E+00  0.68772583796E+03  0.68772583796E+03  0.00000000000E+00 0.  1.
         -2   -1    0    0    0  501 -0.00000000000E+00 -0.00000000000E+00 -0.57259052914E+02  0.57259052914E+02  0.00000000000E+00 0. -1.
         25    2    1    2    0    0 -0.16262637831E+03 -0.21110073835E+02  0.37808498344E+03  0.43068415121E+03  0.12509040434E+03 0.  0.
          5    1    3    3  502    0  0.82517952170E+01 -0.23907908696E+02  0.15858662471E+02  0.30143818568E+02  0.41800000000E+01 0.  1.
         -5    1    3    3    0  502 -0.17087817353E+03  0.27978348606E+01  0.36222632097E+03  0.40054033264E+03  0.41800000000E+01 0.  1.
        -11    1    1    2    0    0  0.13375647743E+03  0.35072302682E+02  0.13741669865E+03  0.19494668691E+03  0.00000000000E+00 0. -1.
         11    1    1    2    0    0  0.28869900877E+02 -0.13962228847E+02  0.11496510295E+03  0.11935405275E+03  0.00000000000E+00 0.  1.
</event>
<event>
 7    1  0.2844572E-009  0.1934147E+03  0.7561462E-02  0.1155417E+00
         -1   -1    0    0    0  501 -0.00000000000E+00  0.00000000000E+00  0.50315377866E+02  0.50315377866E+02  0.00000000000E+00 0.  1.
          1   -1    0    0  501    0  0.00000000000E+00 -0.00000000000E+00 -0.97327478946E+03  0.97327478946E+03  0.00000000000E+00 0. -1.
         25    2    1    2    0    0 -0.16282537834E+03  0.67768758759E+02 -0.65584273111E+03  0.69056618875E+03  0.12508902670E+03 0.  0.
          5    1    3    3  502    0 -0.14325388773E+03  0.98322071303E+02 -0.46855121785E+03  0.49974655797E+03  0.41800000000E+01 0.  1.
         -5    1    3    3    0  502 -0.19571490612E+02 -0.30553312544E+02 -0.18729151327E+03  0.19081963079E+03  0.41800000000E+01 0.  1.
        -11    1    1    2    0    0  0.31346325648E+02 -0.16089654934E+02 -0.54447223813E+01  0.35652687547E+02  0.00000000000E+00 0. -1.
         11    1    1    2    0    0  0.13147905269E+03 -0.51679103824E+02 -0.26167195810E+03  0.29737129102E+03  0.00000000000E+00 0.  1.
</event>
<event>
 7    1  0.2949871E-009  0.1189169E+03  0.7561462E-02  0.1244895E+00
         -1   -1    0    0    0  501 -0.00000000000E+00  0.00000000000E+00  0.18939268309E+02  0.18939268309E+02  0.00000000000E+00 0.  1.
          1   -1    0    0  501    0  0.00000000000E+00 -0.00000000000E+00 -0.13970432656E+04  0.13970432656E+04  0.00000000000E+00 0. -1.
         25    2    1    2    0    0 -0.40198019817E+02 -0.99333019104E+02 -0.97963827200E+03  0.99338975482E+03  0.12509648884E+03 0.  0.
          5    1    3    3  502    0 -0.10018029807E+02 -0.59286777617E+02 -0.14226459844E+03  0.15450557042E+03  0.41800000000E+01 0.  1.
         -5    1    3    3    0  502 -0.30179990009E+02 -0.40046241487E+02 -0.83737367356E+03  0.83888418440E+03  0.41800000000E+01 0.  1.
        -11    1    1    2    0    0 -0.19107106208E+02  0.34044401380E+02 -0.22094311838E+03  0.22436569331E+03  0.00000000000E+00 0. -1.
         11    1    1    2    0    0  0.59305126024E+02  0.65288617723E+02 -0.17752260692E+03  0.19822708580E+03  0.00000000000E+00 0.  1.
</event>
<event>
 7    1  0.2844572E-009  0.4486894E+03  0.7561462E-02  0.1028114E+00
          2   -1    0    0  501    0  0.00000000000E+00  0.00000000000E+00  0.15547778918E+04  0.15547778918E+04  0.00000000000E+00 0. -1.
         -2   -1    0    0    0  501 -0.00000000000E+00 -0.00000000000E+00 -0.18976192641E+03  0.18976192641E+03  0.00000000000E+00 0.  1.
         25    2    1    2    0    0 -0.19062836911E+03 -0.40432767038E+03  0.11499379633E+04  0.12400906169E+04  0.12508948225E+03 0.  0.
          5    1    3    3  502    0 -0.72948757130E+01 -0.44576747337E+02  0.45927756949E+02  0.64553333556E+02  0.41800000000E+01 0.  1.
         -5    1    3    3    0  502 -0.18333349340E+03 -0.35975092304E+03  0.11040102063E+04  0.11755372833E+04  0.41800000000E+01 0.  1.
        -11    1    1    2    0    0  0.43921173000E+02  0.12861452836E+03  0.23122914174E+02  0.13786020275E+03  0.00000000000E+00 0.  1.
         11    1    1    2    0    0  0.14670719611E+03  0.27571314202E+03  0.19195508790E+03  0.36658899853E+03  0.00000000000E+00 0. -1.
</event>
<event>
 7    1  0.2844572E-009  0.2363184E+03  0.7561462E-02  0.1122270E+00
         -2   -1    0    0    0  501 -0.00000000000E+00  0.00000000000E+00  0.46653861139E+02  0.46653861139E+02  0.00000000000E+00 0.  1.
          2   -1    0    0  501    0  0.00000000000E+00 -0.00000000000E+00 -0.13596890488E+04  0.13596890488E+04  0.00000000000E+00 0. -1.
         25    2    1    2    0    0 -0.19408355310E+03 -0.99328203522E+02 -0.85593920095E+03  0.89208433913E+03  0.12509210524E+03 0.  0.
          5    1    3    3  502    0 -0.95012152367E+02  0.18993001794E+02 -0.33175002989E+03  0.34563506469E+03  0.41800000000E+01 0.  1.
         -5    1    3    3    0  502 -0.99071400735E+02 -0.11832120532E+03 -0.52418917106E+03  0.54644927444E+03  0.41800000000E+01 0.  1.
        -11    1    1    2    0    0  0.10696636898E+03  0.75602544217E+02 -0.17855090814E+03  0.22144519770E+03  0.00000000000E+00 0. -1.
         11    1    1    2    0    0  0.87117184120E+02  0.23725659306E+02 -0.27854507856E+03  0.29281337310E+03  0.00000000000E+00 0.  1.
</event>
<event>
 7    1  0.2844572E-009  0.1142949E+03  0.7561462E-02  0.1252817E+00
          2   -1    0    0  501    0  0.00000000000E+00  0.00000000000E+00  0.63165026380E+03  0.63165026380E+03  0.00000000000E+00 0. -1.
         -2   -1    0    0    0  501 -0.00000000000E+00 -0.00000000000E+00 -0.33325906378E+02  0.33325906378E+02  0.00000000000E+00 0.  1.
         25    2    1    2    0    0 -0.24255948091E+01  0.55832577661E+02  0.50463950189E+03  0.52290795142E+03  0.12509411877E+03 0.  0.
          5    1    3    3  502    0 -0.48245056350E+02  0.68912487694E+02  0.24977036432E+03  0.26358911911E+03  0.41800000000E+01 0. -1.
         -5    1    3    3    0  502  0.45819461541E+02 -0.13079910033E+02  0.25486913758E+03  0.25931883231E+03  0.41800000000E+01 0. -1.
        -11    1    1    2    0    0  0.28559182644E+02  0.61947714415E+01  0.60140441861E+02  0.66864600901E+02  0.00000000000E+00 0. -1.
         11    1    1    2    0    0 -0.26133587834E+02 -0.62027349102E+02  0.33544413665E+02  0.75203617851E+02  0.00000000000E+00 0.  1.
</event>
<event>
 7    1  0.2844572E-009  0.1151387E+03  0.7561462E-02  0.1251339E+00
         -1   -1    0    0    0  501 -0.00000000000E+00  0.00000000000E+00  0.52398034941E+02  0.52398034941E+02  0.00000000000E+00 0.  1.
          1   -1    0    0  501    0  0.00000000000E+00 -0.00000000000E+00 -0.37460970884E+03  0.37460970884E+03  0.00000000000E+00 0. -1.
         25    2    1    2    0    0 -0.19828303184E+02 -0.81322612597E+02 -0.22057988870E+03  0.26703607053E+03  0.12508495808E+03 0.  0.
          5    1    3    3  502    0 -0.50458533949E+02 -0.57621829135E+02 -0.21425496569E+03  0.22757197008E+03  0.41800000000E+01 0.  1.
         -5    1    3    3    0  502  0.30630230765E+02 -0.23700783462E+02 -0.63249230095E+01  0.39464100453E+02  0.41800000000E+01 0.  1.
        -11    1    1    2    0    0  0.31599859600E+01  0.93764469383E+02 -0.54608200293E+02  0.10855329000E+03  0.00000000000E+00 0.  1.
         11    1    1    2    0    0  0.16668317224E+02 -0.12441856785E+02 -0.47023584906E+02  0.51418383257E+02  0.00000000000E+00 0. -1.
</event>
<event>
 7    1  0.2844572E-009  0.1129450E+03  0.7561462E-02  0.1255211E+00
         -4   -1    0    0    0  501 -0.00000000000E+00  0.00000000000E+00  0.81409688951E+02  0.81409688951E+02  0.00000000000E+00 0. -1.
          4   -1    0    0  501    0  0.00000000000E+00 -0.00000000000E+00 -0.22162439099E+03  0.22162439099E+03  0.00000000000E+00 0.  1.
         25    2    1    2    0    0 -0.48371290983E+02 -0.14776816209E+02 -0.88917268693E+01  0.13522396385E+03  0.12509325123E+03 0.  0.
          5    1    3    3  502    0 -0.78141076184E+02  0.18397661883E+02  0.18836190995E+02  0.82563770754E+02  0.41800000000E+01 0.  1.
         -5    1    3    3    0  502  0.29769785201E+02 -0.33174478092E+02 -0.27727917864E+02  0.52660193093E+02  0.41800000000E+01 0.  1.
        -11    1    1    2    0    0  0.73683715756E+02  0.59349359799E+01 -0.74357666200E+02  0.10485025491E+03  0.00000000000E+00 0.  1.
         11    1    1    2    0    0 -0.25312424773E+02  0.88418802290E+01 -0.56965308971E+02  0.62959861181E+02  0.00000000000E+00 0. -1.
</event>
<event>
 7    1  0.2844572E-009  0.1784721E+03  0.7561462E-02  0.1169290E+00
          2   -1    0    0  501    0  0.00000000000E+00  0.00000000000E+00  0.87719929960E+03  0.87719929960E+03  0.00000000000E+00 0.  1.
         -2   -1    0    0    0  501 -0.00000000000E+00 -0.00000000000E+00 -0.51751659207E+02  0.51751659207E+02  0.00000000000E+00 0. -1.
         25    2    1    2    0    0  0.16258524565E+03 -0.67923652906E+02  0.32327558692E+03  0.38884681579E+03  0.12508859390E+03 0.  0.
          5    1    3    3  502    0  0.12121500894E+03 -0.58259995559E+02  0.11733437583E+03  0.17852768308E+03  0.41800000000E+01 0.  1.
         -5    1    3    3    0  502  0.41370236714E+02 -0.96636573467E+01  0.20594121110E+03  0.21031913272E+03  0.41800000000E+01 0.  1.
        -11    1    1    2    0    0 -0.14151103767E+03  0.44841818308E+02  0.47821007819E+03  0.50072052219E+03  0.00000000000E+00 0.  1.
         11    1    1    2    0    0 -0.21074207975E+02  0.23081834598E+02  0.23961975269E+02  0.39383620821E+02  0.00000000000E+00 0. -1.
</event>
<event>
 7    1  0.2844572E-009  0.1954425E+03  0.7561462E-02  0.1153642E+00
         -2   -1    0    0    0  501 -0.00000000000E+00  0.00000000000E+00  0.95110782047E+02  0.95110782047E+02  0.00000000000E+00 0.  1.
          2   -1    0    0  501    0  0.00000000000E+00 -0.00000000000E+00 -0.55412365611E+03  0.55412365611E+03  0.00000000000E+00 0. -1.
         25    2    1    2    0    0  0.83992596983E+02  0.16146537763E+03 -0.35916714821E+03  0.42163124545E+03  0.12508414075E+03 0.  0.
          5    1    3    3  502    0  0.37881187596E+02  0.11639481308E+03 -0.11134207972E+03  0.16552120106E+03  0.41800000000E+01 0. -1.
         -5    1    3    3    0  502  0.46111409387E+02  0.45070564558E+02 -0.24782506849E+03  0.25611004439E+03  0.41800000000E+01 0. -1.
        -11    1    1    2    0    0  0.16076272742E+02 -0.56624500260E+02 -0.37758337757E+02  0.69931914353E+02  0.00000000000E+00 0. -1.
         11    1    1    2    0    0 -0.10006886973E+03 -0.10484087737E+03 -0.62087388098E+02  0.15767127835E+03  0.00000000000E+00 0.  1.
</event>
<event>
 7    1  0.2844572E-009  0.1032529E+03  0.7561462E-02  0.1273601E+00
          2   -1    0    0  501    0  0.00000000000E+00  0.00000000000E+00  0.52210822807E+03  0.52210822807E+03  0.00000000000E+00 0. -1.
         -2   -1    0    0    0  501 -0.00000000000E+00 -0.00000000000E+00 -0.24010819997E+02  0.24010819997E+02  0.00000000000E+00 0.  1.
         25    2    1    2    0    0 -0.49079290166E+01 -0.25922221920E+02  0.32623645080E+03  0.35039123804E+03  0.12509096095E+03 0.  0.
          5    1    3    3  502    0  0.49009807299E+02 -0.32146133092E+02  0.86626926454E+02  0.10467584187E+03  0.41800000000E+01 0.  1.
         -5    1    3    3    0  502 -0.53917736315E+02  0.62239111723E+01  0.23960952435E+03  0.24571539617E+03  0.41800000000E+01 0.  1.
        -11    1    1    2    0    0 -0.38234193548E+02  0.31848657233E+02  0.83096033297E+02  0.96856291864E+02  0.00000000000E+00 0. -1.
         11    1    1    2    0    0  0.43142122565E+02 -0.59264353124E+01  0.88764923974E+02  0.98871518159E+02  0.00000000000E+00 0.  1.
</event>
<event>
 7    1  0.2844572E-009  0.1077001E+03  0.7561462E-02  0.1264889E+00
          1   -1    0    0  501    0  0.00000000000E+00  0.00000000000E+00  0.16250437667E+02  0.16250437667E+02  0.00000000000E+00 0. -1.
         -1   -1    0    0    0  501 -0.00000000000E+00 -0.00000000000E+00 -0.80821829889E+03  0.80821829889E+03  0.00000000000E+00 0.  1.
         25    2    1    2    0    0 -0.44432441228E+02  0.12375023162E+02 -0.52154219723E+03  0.53831327592E+03  0.12509011358E+03 0.  0.
          5    1    3    3  502    0 -0.68035663013E+02 -0.32983349651E+02 -0.22593547137E+03  0.23828777228E+03  0.41800000000E+01 0. -1.
         -5    1    3    3    0  502  0.23603221785E+02  0.45358372813E+02 -0.29560672586E+03  0.30002550364E+03  0.41800000000E+01 0. -1.
        -11    1    1    2    0    0  0.42546844134E+02 -0.41353782488E+02 -0.13207855379E+03  0.14479334806E+03  0.00000000000E+00 0. -1.
         11    1    1    2    0    0  0.18855970943E+01  0.28978759326E+02 -0.13834711021E+03  0.14136211257E+03  0.00000000000E+00 0.  1.
</event>
<event>
 7    1  0.2844572E-009  0.1732337E+03  0.7561462E-02  0.1174517E+00
         -3   -1    0    0    0  501 -0.00000000000E+00  0.00000000000E+00  0.77321518374E+03  0.77321518374E+03  0.00000000000E+00 0.  1.
          3   -1    0    0  501    0  0.00000000000E+00 -0.00000000000E+00 -0.52499590543E+02  0.52499590543E+02  0.00000000000E+00 0. -1.
         25    2    1    2    0    0 -0.48209813342E+02  0.16219337531E+03  0.32879078193E+03  0.39036192495E+03  0.12509267393E+03 0.  0.
          5    1    3    3  502    0 -0.15777742992E+02  0.37681196671E+02  0.21392776849E+03  0.21783335898E+03  0.41800000000E+01 0.  1.
         -5    1    3    3    0  502 -0.32432070350E+02  0.12451217864E+03  0.11486301344E+03  0.17252856597E+03  0.41800000000E+01 0.  1.
        -11    1    1    2    0    0  0.54303970188E+02 -0.96799174135E+02  0.16305497672E+03  0.19724585351E+03  0.00000000000E+00 0. -1.
         11    1    1    2    0    0 -0.60941568459E+01 -0.65394201179E+02  0.22886983454E+03  0.23810699582E+03  0.00000000000E+00 0.  1.
</event>
<event>
 7    1  0.2844572E-009  0.1095173E+03  0.7561462E-02  0.1261466E+00
          2   -1    0    0  501    0  0.00000000000E+00  0.00000000000E+00  0.29596502114E+03  0.29596502114E+03  0.00000000000E+00 0. -1.
         -2   -1    0    0    0  501 -0.00000000000E+00 -0.00000000000E+00 -0.41818603080E+02  0.41818603080E+02  0.00000000000E+00 0.  1.
         25    2    1    2    0    0  0.19273695717E+02  0.18582746660E+02  0.13255515545E+03  0.18421369052E+03  0.12508805186E+03 0.  0.
          5    1    3    3  502    0 -0.31733419078E+02 -0.37986486929E+02  0.36977706182E+02  0.61925812309E+02  0.41800000000E+01 0. -1.
         -5    1    3    3    0  502  0.51007114795E+02  0.56569233590E+02  0.95577449266E+02  0.12228787821E+03  0.41800000000E+01 0. -1.
        -11    1    1    2    0    0  0.10503765356E+02  0.32386245478E+02  0.35529281864E+02  0.49209022065E+02  0.00000000000E+00 0.  1.
         11    1    1    2    0    0 -0.29777461073E+02 -0.50968992139E+02  0.86061980749E+02  0.10436091164E+03  0.00000000000E+00 0. -1.
</event>
<event>
 7    1  0.2844572E-009  0.9171207E+02  0.7561462E-02  0.1298758E+00
         -3   -1    0    0    0  501 -0.00000000000E+00  0.00000000000E+00  0.55427417446E+02  0.55427417446E+02  0.00000000000E+00 0.  1.
          3   -1    0    0  501    0  0.00000000000E+00 -0.00000000000E+00 -0.20978369687E+03  0.20978369687E+03  0.00000000000E+00 0. -1.
         25    2    1    2    0    0  0.34990858061E+01  0.16443382645E+02 -0.10649139728E+03  0.16513694118E+03  0.12508862143E+03 0.  0.
          5    1    3    3  502    0  0.13496667563E+02  0.68190854844E+02 -0.40431772985E+02  0.80525482839E+02  0.41800000000E+01 0. -1.
         -5    1    3    3    0  502 -0.99975817574E+01 -0.51747472199E+02 -0.66059624295E+02  0.84611458337E+02  0.41800000000E+01 0. -1.
        -11    1    1    2    0    0 -0.20891666921E+02  0.14491723456E+02 -0.57863576219E+02  0.63203364217E+02  0.00000000000E+00 0. -1.
         11    1    1    2    0    0  0.17392581115E+02 -0.30935106101E+02  0.99986940764E+01  0.36870808922E+02  0.00000000000E+00 0.  1.
</event>
<event>
 7    1  0.2844572E-009  0.1382236E+03  0.7561462E-02  0.1215739E+00
          2   -1    0    0  501    0  0.00000000000E+00  0.00000000000E+00  0.86889368172E+03  0.86889368172E+03  0.00000000000E+00 0. -1.
         -2   -1    0    0    0  501 -0.00000000000E+00 -0.00000000000E+00 -0.40378737444E+02  0.40378737444E+02  0.00000000000E+00 0.  1.
         25    2    1    2    0    0  0.10616643483E+03  0.35202729177E+02  0.67114384519E+03  0.69180343294E+03  0.12508950737E+03 0.  0.
          5    1    3    3  502    0  0.78656673951E+02  0.67510988521E+02  0.28465312819E+03  0.30296778990E+03  0.41800000000E+01 0. -1.
         -5    1    3    3    0  502  0.27509760883E+02 -0.32308259344E+02  0.38649071701E+03  0.38883564304E+03  0.41800000000E+01 0. -1.
        -11    1    1    2    0    0 -0.35518722690E+02  0.19680616850E+02  0.51855510425E+01  0.40936490821E+02  0.00000000000E+00 0.  1.
         11    1    1    2    0    0 -0.70647712144E+02 -0.54883346027E+02  0.15218554804E+03  0.17653249541E+03  0.00000000000E+00 0. -1.
</event>
<event>
 7    1  0.2844572E-009  0.1919774E+03  0.7561462E-02  0.1156690E+00
         -1   -1    0    0    0  501 -0.00000000000E+00  0.00000000000E+00  0.42799018450E+02  0.42799018450E+02  0.00000000000E+00 0.  1.
          1   -1    0    0  501    0  0.00000000000E+00 -0.00000000000E+00 -0.13638592051E+04  0.13638592051E+04  0.00000000000E+00 0. -1.
         25    2    1    2    0    0 -0.16392753785E+03 -0.61877135437E+01 -0.27664475411E+03  0.34509562707E+03  0.12509255127E+03 0.  0.
          5    1    3    3  502    0 -0.19821386611E+02  0.38606274788E+02 -0.21445316902E+02  0.48587095377E+02  0.41800000000E+01 0.  1.
         -5    1    3    3    0  502 -0.14410615124E+03 -0.44793988332E+02 -0.25519943721E+03  0.29650853169E+03  0.41800000000E+01 0.  1.
        -11    1    1    2    0    0  0.75500193518E+01  0.30245776981E+02 -0.14191497411E+03  0.14529855365E+03  0.00000000000E+00 0.  1.
         11    1    1    2    0    0  0.15637751850E+03 -0.24058063437E+02 -0.90250045838E+03  0.91626404278E+03  0.00000000000E+00 0. -1.
</event>
<event>
 7    1  0.2844572E-009  0.2021753E+03  0.7561462E-02  0.1147917E+00
          1   -1    0    0  501    0  0.00000000000E+00  0.00000000000E+00  0.67154161255E+03  0.67154161255E+03  0.00000000000E+00 0. -1.
         -1   -1    0    0    0  501 -0.00000000000E+00 -0.00000000000E+00 -0.15191999261E+03  0.15191999261E+03  0.00000000000E+00 0.  1.
         25    2    1    2    0    0  0.98901850866E+02  0.15833131601E+03 -0.38333997367E+02  0.22796100051E+03  0.12508533354E+03 0.  0.
          5    1    3    3  502    0 -0.17772047597E+02  0.14090372506E+02 -0.35545457834E+02  0.42371408353E+02  0.41800000000E+01 0.  1.
         -5    1    3    3    0  502  0.11667389846E+03  0.14424094350E+03 -0.27885395324E+01  0.18558959216E+03  0.41800000000E+01 0.  1.
        -11    1    1    2    0    0 -0.17219405999E+02 -0.82454003910E+02  0.14431263533E+03  0.16709670080E+03  0.00000000000E+00 0.  1.
         11    1    1    2    0    0 -0.81682444867E+02 -0.75877312098E+02  0.41364298198E+03  0.42840390385E+03  0.00000000000E+00 0. -1.
</event>
<event>
 7    1  0.2844572E-009  0.1064872E+03  0.7561462E-02  0.1267217E+00
         -2   -1    0    0    0  501 -0.00000000000E+00  0.00000000000E+00  0.12484511898E+02  0.12484511898E+02  0.00000000000E+00 0. -1.
          2   -1    0    0  501    0  0.00000000000E+00 -0.00000000000E+00 -0.19397862401E+04  0.19397862401E+04  0.00000000000E+00 0.  1.
         25    2    1    2    0    0 -0.33021855929E+02 -0.59887729769E+02 -0.16440798343E+04  0.16502494899E+04  0.12509154230E+03 0.  0.
          5    1    3    3  502    0  0.34090980176E+02 -0.51783218279E+02 -0.45252963024E+03  0.45677591362E+03  0.41800000000E+01 0.  1.
         -5    1    3    3    0  502 -0.67112836105E+02 -0.81045114902E+01 -0.11915502041E+04  0.11934735762E+04  0.41800000000E+01 0.  1.
        -11    1    1    2    0    0  0.37822308445E+01  0.52911122152E+02 -0.25609309450E+03  0.26152928166E+03  0.00000000000E+00 0.  1.
         11    1    1    2    0    0  0.29239625084E+02  0.69766076171E+01 -0.27128799405E+02  0.40491980515E+02  0.00000000000E+00 0. -1.
</event>
<event>
 7    1  0.2844572E-009  0.1125053E+03  0.7561462E-02  0.1256000E+00
          2   -1    0    0  501    0  0.00000000000E+00  0.00000000000E+00  0.18195135838E+03  0.18195135838E+03  0.00000000000E+00 0. -1.
         -2   -1    0    0    0  501 -0.00000000000E+00 -0.00000000000E+00 -0.84956513525E+02  0.84956513525E+02  0.00000000000E+00 0.  1.
         25    2    1    2    0    0 -0.16093727492E+02  0.58509770203E+02  0.41396021214E+02  0.14506535279E+03  0.12509166533E+03 0.  0.
          5    1    3    3  502    0 -0.51954752337E+02  0.61210083233E+02  0.63673209138E+02  0.10255593860E+03  0.41800000000E+01 0. -1.
         -5    1    3    3    0  502  0.35861024845E+02 -0.27003130299E+01 -0.22277187924E+02  0.42509414195E+02  0.41800000000E+01 0. -1.
        -11    1    1    2    0    0 -0.31138266117E+02 -0.52168268745E+02  0.30461869153E+02  0.67963559007E+02  0.00000000000E+00 0. -1.
         11    1    1    2    0    0  0.47231993609E+02 -0.63415014585E+01  0.25136954488E+02  0.53878960105E+02  0.00000000000E+00 0.  1.
</event>
<event>
 7    1  0.2844572E-009  0.1007250E+03  0.7561462E-02  0.1278779E+00
          3   -1    0    0  501    0  0.00000000000E+00  0.00000000000E+00  0.18544443493E+02  0.18544443493E+02  0.00000000000E+00 0. -1.
         -3   -1    0    0    0  501 -0.00000000000E+00 -0.00000000000E+00 -0.92838185625E+03  0.92838185625E+03  0.00000000000E+00 0.  1.
         25    2    1    2    0    0 -0.39431038810E+02  0.73013723903E+01 -0.71527657008E+03  0.72723840424E+03  0.12508800113E+03 0.  0.
          5    1    3    3  502    0  0.28324960333E+02  0.21521912022E+02 -0.49514256301E+03  0.49643642713E+03  0.41800000000E+01 0. -1.
         -5    1    3    3    0  502 -0.67755999144E+02 -0.14220539632E+02 -0.22013400707E+03  0.23080197711E+03  0.41800000000E+01 0. -1.
        -11    1    1    2    0    0  0.65876000870E+02  0.69343530762E+01 -0.16384861826E+03  0.17673172451E+03  0.00000000000E+00 0.  1.
         11    1    1    2    0    0 -0.26444962060E+02 -0.14235725467E+02 -0.30712224409E+02  0.42956170989E+02  0.00000000000E+00 0. -1.
</event>
<event>
 7    1  0.2844572E-009  0.1925777E+03  0.7561462E-02  0.1156157E+00
         -2   -1    0    0    0  501 -0.00000000000E+00  0.00000000000E+00  0.49573602397E+02  0.49573602397E+02  0.00000000000E+00 0.  1.
          2   -1    0    0  501    0  0.00000000000E+00 -0.00000000000E+00 -0.96352729679E+03  0.96352729679E+03  0.00000000000E+00 0. -1.
         25    2    1    2    0    0 -0.11235807160E+03  0.13127287392E+03 -0.65374796120E+03  0.68767147806E+03  0.12509500902E+03 0.  0.
          5    1    3    3  502    0  0.75931423752E+01  0.76981040654E+02 -0.31037441211E+03  0.31989605269E+03  0.41800000000E+01 0. -1.
         -5    1    3    3    0  502 -0.11995121397E+03  0.54291833263E+02 -0.34337354909E+03  0.36777542537E+03  0.41800000000E+01 0. -1.
        -11    1    1    2    0    0  0.12955931432E+02 -0.23591256767E+01  0.51338851575E+01  0.14134299065E+02  0.00000000000E+00 0.  1.
         11    1    1    2    0    0  0.99402140167E+02 -0.12891374824E+03 -0.26533961836E+03  0.31129512207E+03  0.00000000000E+00 0. -1.
</event>
<event>
 7    1  0.2844572E-009  0.8973290E+02  0.7561462E-02  0.1303500E+00
          1   -1    0    0  501    0  0.00000000000E+00  0.00000000000E+00  0.22268949942E+02  0.22268949942E+02  0.00000000000E+00 0. -1.
         -1   -1    0    0    0  501 -0.00000000000E+00 -0.00000000000E+00 -0.68534124046E+03  0.68534124046E+03  0.00000000000E+00 0.  1.
         25    2    1    2    0    0 -0.44040509008E+02  0.39834889708E+02 -0.40241061963E+03  0.42556722933E+03  0.12508706975E+03 0.  0.
          5    1    3    3  502    0 -0.27612594275E+02 -0.14274362769E+01 -0.36843181658E+03  0.36949150031E+03  0.41800000000E+01 0.  1.
         -5    1    3    3    0  502 -0.16427914733E+02  0.41262325984E+02 -0.33978803049E+02  0.56075729017E+02  0.41800000000E+01 0.  1.
        -11    1    1    2    0    0  0.70140056231E+02 -0.16896515621E+02 -0.19158946211E+03  0.20472332969E+03  0.00000000000E+00 0.  1.
         11    1    1    2    0    0 -0.26099547223E+02 -0.22938374087E+02 -0.69072208782E+02  0.77319631382E+02  0.00000000000E+00 0. -1.
</event>
<event>
 7    1  0.2844572E-009  0.2411470E+03  0.7561462E-02  0.1119031E+00
         -2   -1    0    0    0  501 -0.00000000000E+00  0.00000000000E+00  0.68031901966E+03  0.68031901966E+03  0.00000000000E+00 0.  1.
          2   -1    0    0  501    0  0.00000000000E+00 -0.00000000000E+00 -0.93454851267E+02  0.93454851267E+02  0.00000000000E+00 0. -1.
         25    2    1    2    0    0  0.70067545093E+02 -0.20981749519E+03  0.22399556010E+03  0.33875369998E+03  0.12508883300E+03 0.  0.
          5    1    3    3  502    0  0.10608831167E+03 -0.15055268728E+03  0.15375856427E+03  0.23995835057E+03  0.41800000000E+01 0.  1.
         -5    1    3    3    0  502 -0.36020766581E+02 -0.59264807910E+02  0.70236995826E+02  0.98795349406E+02  0.41800000000E+01 0.  1.
        -11    1    1    2    0    0  0.60200965576E+01  0.62463278098E+02  0.16684561568E+03  0.17825645050E+03  0.00000000000E+00 0.  1.
         11    1    1    2    0    0 -0.76087641651E+02  0.14735421709E+03  0.19602299261E+03  0.25676372045E+03  0.00000000000E+00 0. -1.
</event>
<event>
 7    1  0.2844572E-009  0.1140847E+03  0.7561462E-02  0.1253187E+00
          1   -1    0    0  501    0  0.00000000000E+00  0.00000000000E+00  0.22836951737E+03  0.22836951737E+03  0.00000000000E+00 0. -1.
         -1   -1    0    0    0  501 -0.00000000000E+00 -0.00000000000E+00 -0.78603008579E+02  0.78603008579E+02  0.00000000000E+00 0.  1.
         25    2    1    2    0    0 -0.50737058782E+02 -0.54268716828E+02  0.10655197419E+03  0.18033265885E+03  0.12508877601E+03 0.  0.
          5    1    3    3  502    0 -0.22397950409E+01 -0.69061667773E+02  0.83388181120E+01  0.69724736823E+02  0.41800000000E+01 0. -1.
         -5    1    3    3    0  502 -0.48497263741E+02  0.14792950945E+02  0.98213156080E+02  0.11060792203E+03  0.41800000000E+01 0. -1.
        -11    1    1    2    0    0  0.14843060452E+02 -0.20396103674E+02  0.35343715124E+02  0.43422294820E+02  0.00000000000E+00 0. -1.
         11    1    1    2    0    0  0.35893998330E+02  0.74664820502E+02  0.78708194748E+01  0.83217572278E+02  0.00000000000E+00 0.  1.
</event>
<event>
 7    1  0.2844572E-009  0.1540046E+03  0.7561462E-02  0.1195637E+00
          1   -1    0    0  501    0  0.00000000000E+00  0.00000000000E+00  0.12954186138E+03  0.12954186138E+03  0.00000000000E+00 0. -1.
         -1   -1    0    0    0  501 -0.00000000000E+00 -0.00000000000E+00 -0.28565574725E+03  0.28565574725E+03  0.00000000000E+00 0.  1.
         25    2    1    2    0    0 -0.15273445568E+03  0.62240762725E+01 -0.12595910752E+03  0.23426525322E+03  0.12509180239E+03 0.  0.
          5    1    3    3  502    0 -0.60247098966E+02 -0.28358215977E+01  0.17808599698E+02  0.63026767656E+02  0.41800000000E+01 0. -1.
         -5    1    3    3    0  502 -0.92487356712E+02  0.90598978702E+01 -0.14376770722E+03  0.17123848557E+03  0.41800000000E+01 0. -1.
        -11    1    1    2    0    0  0.66143515328E+02 -0.13927258585E+02 -0.58605285375E+02  0.89462353119E+02  0.00000000000E+00 0.  1.
         11    1    1    2    0    0  0.86590940350E+02  0.77031823129E+01  0.28450507030E+02  0.91470002289E+02  0.00000000000E+00 0. -1.
</event>
<event>
 7    1  0.2844572E-009  0.1175112E+03  0.7561462E-02  0.1247260E+00
          1   -1    0    0  501    0  0.00000000000E+00  0.00000000000E+00  0.66417346205E+02  0.66417346205E+02  0.00000000000E+00 0. -1.
         -1   -1    0    0    0  501 -0.00000000000E+00 -0.00000000000E+00 -0.37304905933E+03  0.37304905933E+03  0.00000000000E+00 0.  1.
         25    2    1    2    0    0  0.75702190591E+02 -0.45902347147E+02 -0.26258402044E+03  0.30403043131E+03  0.12508512396E+03 0.  0.
          5    1    3    3  502    0 -0.24608358811E+02  0.82773534521E+01 -0.12423794703E+02  0.29084514408E+02  0.41800000000E+01 0. -1.
         -5    1    3    3    0  502  0.10031054940E+03 -0.54179700599E+02 -0.25016022574E+03  0.27494591690E+03  0.41800000000E+01 0. -1.
        -11    1    1    2    0    0 -0.74494791327E+02  0.32653190555E+02 -0.69324438037E+02  0.10687180403E+03  0.00000000000E+00 0.  1.
         11    1    1    2    0    0 -0.12073992637E+01  0.13249156593E+02  0.25276745351E+02  0.28564170195E+02  0.00000000000E+00 0. -1.
</event>
<event>
 7    1  0.2844572E-009  0.1821926E+03  0.7561462E-02  0.1165698E+00
         -4   -1    0    0    0  501 -0.00000000000E+00  0.00000000000E+00  0.54777907755E+02  0.54777907755E+02  0.00000000000E+00 0.  1.
          4   -1    0    0  501    0  0.00000000000E+00 -0.00000000000E+00 -0.76263732260E+03  0.76263732260E+03  0.00000000000E+00 0. -1.
         25    2    1    2    0    0  0.11334670058E+02  0.16139059061E+03 -0.49487699319E+03  0.53547402334E+03  0.12511512219E+03 0.  0.
          5    1    3    3  502    0  0.64616196531E+02  0.11429236955E+03 -0.28446268394E+03  0.31332808611E+03  0.41800000000E+01 0. -1.
         -5    1    3    3    0  502 -0.53281526473E+02  0.47098221061E+02 -0.21041430926E+03  0.22214593724E+03  0.41800000000E+01 0. -1.
        -11    1    1    2    0    0 -0.64175853064E+01 -0.94099791980E+02 -0.18737580021E+03  0.20977522913E+03  0.00000000000E+00 0.  1.
         11    1    1    2    0    0 -0.49170847511E+01 -0.67290798627E+02 -0.25606621442E+02  0.72165977884E+02  0.00000000000E+00 0. -1.
</event>
<event>
 7    1  0.2844572E-009  0.1867488E+03  0.7561462E-02  0.1161427E+00
         -1   -1    0    0    0  501 -0.00000000000E+00  0.00000000000E+00  0.21515021900E+02  0.21515021900E+02  0.00000000000E+00 0.  1.
          1   -1    0    0  501    0  0.00000000000E+00 -0.00000000000E+00 -0.19918222744E+04  0.19918222744E+04  0.00000000000E+00 0. -1.
         25    2    1    2    0    0  0.22224690076E+02 -0.15590046149E+03 -0.14026777181E+04  0.14170213634E+04  0.12508346233E+03 0.  0.
          5    1    3    3  502    0 -0.31330363018E+02 -0.68558175894E+01 -0.10954907810E+03  0.11422375757E+03  0.41800000000E+01 0.  1.
         -5    1    3    3    0  502  0.53555053094E+02 -0.14904464390E+03 -0.12931286400E+04  0.13027976058E+04  0.41800000000E+01 0.  1.
        -11    1    1    2    0    0 -0.57622943240E+02  0.76348463557E+02 -0.29872103381E+03  0.31366183625E+03  0.00000000000E+00 0.  1.
         11    1    1    2    0    0  0.35398253164E+02  0.79551997937E+02 -0.26890850053E+03  0.28265409666E+03  0.00000000000E+00 0. -1.
</event>
<event>
 7    1  0.2844572E-009  0.7022319E+02  0.7561462E-02  0.1359336E+00
          3   -1    0    0  501    0  0.00000000000E+00  0.00000000000E+00  0.10197433925E+03  0.10197433925E+03  0.00000000000E+00 0. -1.
         -3   -1    0    0    0  501 -0.00000000000E+00 -0.00000000000E+00 -0.12087467129E+03  0.12087467129E+03  0.00000000000E+00 0.  1.
         25    2    1    2    0    0  0.10363787189E+02 -0.53250981500E+00 -0.22909828886E+02  0.12759346976E+03  0.12509013396E+03 0.  0.
          5    1    3    3  502    0 -0.29877825730E+02  0.31968251358E+02 -0.52009205464E+02  0.68096133651E+02  0.41800000000E+01 0.  1.
         -5    1    3    3    0  502  0.40241612918E+02 -0.32500761173E+02  0.29099376578E+02  0.59497336111E+02  0.41800000000E+01 0.  1.
        -11    1    1    2    0    0 -0.23654274760E+02 -0.11826392247E+02  0.44001953482E+02  0.51337707177E+02  0.00000000000E+00 0. -1.
         11    1    1    2    0    0  0.13290487572E+02  0.12358902062E+02 -0.39992456637E+02  0.43917833598E+02  0.00000000000E+00 0.  1.
</event>
<event>
 7    1  0.2844572E-009  0.1068972E+03  0.7561462E-02  0.1266426E+00
          2   -1    0    0  501    0  0.00000000000E+00  0.00000000000E+00  0.44994669560E+03  0.44994669560E+03  0.00000000000E+00 0. -1.
         -2   -1    0    0    0  501 -0.00000000000E+00 -0.00000000000E+00 -0.43464315862E+02  0.43464315862E+02  0.00000000000E+00 0.  1.
         25    2    1    2    0    0 -0.66045301920E+01  0.81552011248E+02  0.13735583319E+03  0.20299874446E+03  0.12509002751E+03 0.  0.
          5    1    3    3  502    0  0.29794099647E+02  0.51931488021E+02  0.14344376580E+03  0.15549326085E+03  0.41800000000E+01 0. -1.
         -5    1    3    3    0  502 -0.36398629839E+02  0.29620523227E+02 -0.60879326040E+01  0.47505483618E+02  0.41800000000E+01 0. -1.
        -11    1    1    2    0    0 -0.82638613636E+01 -0.89447805790E+02  0.19969148644E+03  0.21896550213E+03  0.00000000000E+00 0.  1.
         11    1    1    2    0    0  0.14868391556E+02  0.78957945421E+01  0.69435060105E+02  0.71446764873E+02  0.00000000000E+00 0. -1.
</event>
<event>
 7    1  0.2844572E-009  0.2068531E+03  0.7561462E-02  0.1144082E+00
         -2   -1    0    0    0  501 -0.00000000000E+00  0.00000000000E+00  0.30677268508E+02  0.30677268508E+02  0.00000000000E+00 0.  1.
          2   -1    0    0  501    0  0.00000000000E+00 -0.00000000000E+00 -0.14933531876E+04  0.14933531876E+04  0.00000000000E+00 0. -1.
         25    2    1    2    0    0  0.87508012781E+02  0.15846117394E+03 -0.65040252115E+03  0.68661407230E+03  0.12509136188E+03 0.  0.
          5    1    3    3  502    0 -0.76998280638E+00 -0.18936608587E+02 -0.93574686912E+02  0.95566115590E+02  0.41800000000E+01 0.  1.
         -5    1    3    3    0  502  0.88277995588E+02  0.17739778253E+03 -0.55682783424E+03  0.59104795671E+03  0.41800000000E+01 0.  1.
        -11    1    1    2    0    0 -0.31374160045E+02 -0.12890084257E+03 -0.43278954844E+03  0.45266605613E+03  0.00000000000E+00 0.  1.
         11    1    1    2    0    0 -0.56133852737E+02 -0.29560331366E+02 -0.37948384953E+03  0.38475032770E+03  0.00000000000E+00 0. -1.
</event>
<event>
 7    1  0.2844572E-009  0.1038161E+03  0.7561462E-02  0.1272470E+00
          1   -1    0    0  501    0  0.00000000000E+00  0.00000000000E+00  0.55958815753E+03  0.55958815753E+03  0.00000000000E+00 0. -1.
         -1   -1    0    0    0  501 -0.00000000000E+00 -0.00000000000E+00 -0.24029722071E+02  0.24029722071E+02  0.00000000000E+00 0.  1.
         25    2    1    2    0    0 -0.21217006768E+01  0.26590751226E+02  0.37989768446E+03  0.40085044756E+03  0.12508901227E+03 0.  0.
          5    1    3    3  502    0  0.18103204225E+02  0.71353970181E+02  0.27863098778E+03  0.28822181530E+03  0.41800000000E+01 0. -1.
         -5    1    3    3    0  502 -0.20224904902E+02 -0.44763218955E+02  0.10126669668E+03  0.11262863226E+03  0.41800000000E+01 0. -1.
        -11    1    1    2    0    0  0.26287648922E+02  0.19384325004E+02  0.22027760362E+02  0.39395618643E+02  0.00000000000E+00 0.  1.
         11    1    1    2    0    0 -0.24165948245E+02 -0.45975076230E+02  0.13363299064E+03  0.14337181339E+03  0.00000000000E+00 0. -1.
</event>
<event>
 7    1  0.2844572E-009  0.6990696E+02  0.7561462E-02  0.1360410E+00
          1   -1    0    0  501    0  0.00000000000E+00  0.00000000000E+00  0.18434597788E+03  0.18434597788E+03  0.00000000000E+00 0. -1.
         -1   -1    0    0    0  501 -0.00000000000E+00 -0.00000000000E+00 -0.64775157810E+02  0.64775157810E+02  0.00000000000E+00 0.  1.
         25    2    1    2    0    0  0.68601156719E+01  0.66714089371E+01  0.55450252729E+02  0.13718597971E+03  0.12511472182E+03 0.  0.
          5    1    3    3  502    0  0.47962653564E+02  0.27379615794E+02 -0.10781385815E+02  0.56424907426E+02  0.41800000000E+01 0. -1.
         -5    1    3    3    0  502 -0.41102537892E+02 -0.20708206857E+02  0.66231638544E+02  0.80761072285E+02  0.41800000000E+01 0. -1.
        -11    1    1    2    0    0 -0.18536619878E+02 -0.15022157620E+02  0.84051660688E+02  0.87372496591E+02  0.00000000000E+00 0. -1.
         11    1    1    2    0    0  0.11676504206E+02  0.83507486832E+01 -0.19931093349E+02  0.24562659386E+02  0.00000000000E+00 0.  1.
</event>
<event>
 7    1  0.2844572E-009  0.1180209E+03  0.7561462E-02  0.1246398E+00
          1   -1    0    0  501    0  0.00000000000E+00  0.00000000000E+00  0.53259253094E+02  0.53259253094E+02  0.00000000000E+00 0. -1.
         -1   -1    0    0    0  501 -0.00000000000E+00 -0.00000000000E+00 -0.29489352673E+03  0.29489352673E+03  0.00000000000E+00 0.  1.
         25    2    1    2    0    0 -0.47089234826E+02 -0.20036531608E+02 -0.19244054558E+03  0.23515650811E+03  0.12508541518E+03 0.  0.
          5    1    3    3  502    0 -0.88558576937E+02 -0.27386305762E+02 -0.13464841318E+03  0.16352461241E+03  0.41800000000E+01 0.  1.
         -5    1    3    3    0  502  0.41469342110E+02  0.73497741542E+01 -0.57792132399E+02  0.71631895706E+02  0.41800000000E+01 0.  1.
        -11    1    1    2    0    0  0.34786380311E+02 -0.32115887692E+02 -0.16054217906E+02  0.49992603553E+02  0.00000000000E+00 0.  1.
         11    1    1    2    0    0  0.12302854515E+02  0.52152419300E+02 -0.33139510155E+02  0.63003668158E+02  0.00000000000E+00 0. -1.
</event>
<event>
 7    1  0.2844572E-009  0.2391887E+03  0.7561462E-02  0.1120334E+00
          1   -1    0    0  501    0  0.00000000000E+00  0.00000000000E+00  0.12927686305E+04  0.12927686305E+04  0.00000000000E+00 0. -1.
         -1   -1    0    0    0  501 -0.00000000000E+00 -0.00000000000E+00 -0.46868461026E+02  0.46868461026E+02  0.00000000000E+00 0.  1.
         25    2    1    2    0    0 -0.17028384461E+03  0.14355722757E+03  0.52761972650E+03  0.58620486482E+03  0.12509317497E+03 0.  0.
          5    1    3    3  502    0  0.88384629564E+01 -0.12491896990E+02  0.18487211950E+02  0.24360117477E+02  0.41800000000E+01 0.  1.
         -5    1    3    3    0  502 -0.17912230756E+03  0.15604912456E+03  0.50913251455E+03  0.56184474734E+03  0.41800000000E+01 0.  1.
        -11    1    1    2    0    0  0.91697969369E+02 -0.56836963305E+02  0.40090146254E+03  0.41516375161E+03  0.00000000000E+00 0. -1.
         11    1    1    2    0    0  0.78585875239E+02 -0.86720264267E+02  0.31737898043E+03  0.33826847510E+03  0.00000000000E+00 0.  1.
</event>
<event>
 7    1  0.2844572E-009  0.1424498E+03  0.7561462E-02  0.1210070E+00
          2   -1    0    0  501    0  0.00000000000E+00  0.00000000000E+00  0.22805363461E+03  0.22805363461E+03  0.00000000000E+00 0.  1.
         -2   -1    0    0    0  501 -0.00000000000E+00 -0.00000000000E+00 -0.10856271382E+03  0.10856271382E+03  0.00000000000E+00 0. -1.
         25    2    1    2    0    0  0.93805803966E+02  0.28381516724E+02  0.12293799960E+03  0.20091433618E+03  0.12509108437E+03 0.  0.
          5    1    3    3  502    0 -0.25633373602E+02 -0.20881469777E+01 -0.98696742618E+00  0.26074445435E+02  0.41800000000E+01 0.  1.
         -5    1    3    3    0  502  0.11943917757E+03  0.30469663701E+02  0.12392496702E+03  0.17483989074E+03  0.41800000000E+01 0.  1.
        -11    1    1    2    0    0 -0.85601425178E+02  0.18781244701E+02  0.81771823734E+00  0.87641359004E+02  0.00000000000E+00 0.  1.
         11    1    1    2    0    0 -0.82043787878E+01 -0.47162761425E+02 -0.42647970493E+01  0.48060653246E+02  0.00000000000E+00 0. -1.
</event>
<event>
 7    1  0.2844572E-009  0.1196404E+03  0.7561462E-02  0.1243691E+00
         -2   -1    0    0    0  501 -0.00000000000E+00  0.00000000000E+00  0.61410347506E+02  0.61410347506E+02  0.00000000000E+00 0. -1.
          2   -1    0    0  501    0  0.00000000000E+00 -0.00000000000E+00 -0.28749667054E+03  0.28749667054E+03  0.00000000000E+00 0.  1.
         25    2    1    2    0    0 -0.57586783483E+02 -0.25105259943E+02 -0.18596682672E+03  0.23276274036E+03  0.12509324902E+03 0.  0.
          5    1    3    3  502    0  0.15662834177E+02  0.33365424502E+02 -0.20072820453E+02  0.42177795670E+02  0.41800000000E+01 0.  1.
         -5    1    3    3    0  502 -0.73249617660E+02 -0.58470684444E+02 -0.16589400627E+03  0.19058494469E+03  0.41800000000E+01 0.  1.
        -11    1    1    2    0    0  0.67484572316E+02 -0.13235315422E+02 -0.31392267773E+02  0.75596399061E+02  0.00000000000E+00 0. -1.
         11    1    1    2    0    0 -0.98977888328E+01  0.38340575365E+02 -0.87272285418E+01  0.40547878627E+02  0.00000000000E+00 0.  1.
</event>
<event>
 7    1  0.3210856E-009  0.8611940E+02  0.7561462E-02  0.1312531E+00
         -2   -1    0    0    0  501 -0.00000000000E+00  0.00000000000E+00  0.60029475878E+02  0.60029475878E+02  0.00000000000E+00 0.  1.
          2   -1    0    0  501    0  0.00000000000E+00 -0.00000000000E+00 -0.22508424465E+03  0.22508424465E+03  0.00000000000E+00 0. -1.
         25    2    1    2    0    0  0.27924798993E+02 -0.25627898252E+02 -0.11658179423E+03  0.17514300171E+03  0.12508865949E+03 0.  0.
          5    1    3    3  502    0 -0.10355879565E+02  0.37271210791E+02 -0.21037743999E+01  0.38965185257E+02  0.41800000000E+01 0. -1.
         -5    1    3    3    0  502  0.38280678558E+02 -0.62899109043E+02 -0.11447801983E+03  0.13617781645E+03  0.41800000000E+01 0. -1.
        -11    1    1    2    0    0  0.11135166514E+02  0.15752297042E+02  0.21712152631E+02  0.29043835271E+02  0.00000000000E+00 0.  1.
         11    1    1    2    0    0 -0.39059965507E+02  0.98756012100E+01 -0.70185127176E+02  0.80926883552E+02  0.00000000000E+00 0. -1.
</event>
<event>
 7    1  0.2844572E-009  0.1626052E+03  0.7561462E-02  0.1185787E+00
         -1   -1    0    0    0  501 -0.00000000000E+00  0.00000000000E+00  0.15807581130E+04  0.15807581130E+04  0.00000000000E+00 0.  1.
          1   -1    0    0  501    0  0.00000000000E+00 -0.00000000000E+00 -0.17291207787E+02  0.17291207787E+02  0.00000000000E+00 0. -1.
         25    2    1    2    0    0  0.82473413056E+02 -0.92665248489E+02  0.78250952777E+03  0.80209560294E+03  0.12508989991E+03 0.  0.
          5    1    3    3  502    0  0.33873968114E+02  0.26161457869E+02  0.12595101986E+03  0.13309019271E+03  0.41800000000E+01 0.  1.
         -5    1    3    3    0  502  0.48599444942E+02 -0.11882670636E+03  0.65655850792E+03  0.66900541022E+03  0.41800000000E+01 0.  1.
        -11    1    1    2    0    0 -0.47991813556E+02 -0.68125674286E+01  0.24008146251E+03  0.24492597633E+03  0.00000000000E+00 0.  1.
         11    1    1    2    0    0 -0.34481599499E+02  0.99477815918E+02  0.54087591494E+03  0.55102774152E+03  0.00000000000E+00 0. -1.
</event>
<event>
 7    1  0.2844572E-009  0.2383857E+03  0.7561462E-02  0.1120873E+00
         -1   -1    0    0    0  501 -0.00000000000E+00  0.00000000000E+00  0.29365431237E+03  0.29365431237E+03  0.00000000000E+00 0.  1.
          1   -1    0    0  501    0  0.00000000000E+00 -0.00000000000E+00 -0.57748648121E+03  0.57748648121E+03  0.00000000000E+00 0. -1.
         25    2    1    2    0    0 -0.16124209950E+03 -0.14240156661E+03 -0.49511253636E+03  0.55413095819E+03  0.12508986508E+03 0.  0.
          5    1    3    3  502    0 -0.90858800473E+02 -0.14455885402E+03 -0.40612241854E+03  0.44057402913E+03  0.41800000000E+01 0. -1.
         -5    1    3    3    0  502 -0.70383299022E+02  0.21572874047E+01 -0.88990117818E+02  0.11355692907E+03  0.41800000000E+01 0. -1.
        -11    1    1    2    0    0  0.52002628755E+02 -0.46967751213E+01  0.58803420227E+02  0.78639527747E+02  0.00000000000E+00 0. -1.
         11    1    1    2    0    0  0.10923947074E+03  0.14709834173E+03  0.15247694729E+03  0.23837030764E+03  0.00000000000E+00 0.  1.
</event>
<event>
 7    1  0.2844572E-009  0.8887570E+02  0.7561462E-02  0.1305597E+00
          1   -1    0    0  501    0  0.00000000000E+00  0.00000000000E+00  0.38531957647E+03  0.38531957647E+03  0.00000000000E+00 0. -1.
         -1   -1    0    0    0  501 -0.00000000000E+00 -0.00000000000E+00 -0.34209369811E+02  0.34209369811E+02  0.00000000000E+00 0.  1.
         25    2    1    2    0    0 -0.27687565451E+02 -0.36802469030E+01  0.16739531985E+03  0.21082881013E+03  0.12508976208E+03 0.  0.
          5    1    3    3  502    0 -0.17514274569E+02  0.39391644071E+02  0.16000656656E+03  0.16576496970E+03  0.41800000000E+01 0. -1.
         -5    1    3    3    0  502 -0.10173290883E+02 -0.43071890974E+02  0.73887532886E+01  0.45063840434E+02  0.41800000000E+01 0. -1.
        -11    1    1    2    0    0 -0.31044327917E+02 -0.10616091263E+01  0.11015345436E+03  0.11444938102E+03  0.00000000000E+00 0. -1.
         11    1    1    2    0    0  0.58731893368E+02  0.47418560293E+01  0.73561432444E+02  0.94250755119E+02  0.00000000000E+00 0.  1.
</event>
<event>
 7    1  0.2844572E-009  0.1288739E+03  0.7561462E-02  0.1229136E+00
         -2   -1    0    0    0  501 -0.00000000000E+00  0.00000000000E+00  0.34278129756E+02  0.34278129756E+02  0.00000000000E+00 0. -1.
          2   -1    0    0  501    0  0.00000000000E+00 -0.00000000000E+00 -0.61135187955E+03  0.61135187955E+03  0.00000000000E+00 0.  1.
         25    2    1    2    0    0  0.90238029471E+02 -0.30590881213E+02 -0.34862158742E+03  0.38244746590E+03  0.12510135484E+03 0.  0.
          5    1    3    3  502    0  0.27788987164E+02  0.37532536427E+02 -0.44782924575E+02  0.64837503281E+02  0.41800000000E+01 0.  1.
         -5    1    3    3    0  502  0.62449042307E+02 -0.68123417640E+02 -0.30383866284E+03  0.31760996262E+03  0.41800000000E+01 0.  1.
        -11    1    1    2    0    0 -0.36981622026E+02  0.49541949738E+02 -0.17415096945E+03  0.18479882389E+03  0.00000000000E+00 0.  1.
         11    1    1    2    0    0 -0.53256407445E+02 -0.18951068526E+02 -0.54301192935E+02  0.78383719524E+02  0.00000000000E+00 0. -1.
</event>
<event>
 7    1  0.2844572E-009  0.2030859E+03  0.7561462E-02  0.1147161E+00
          2   -1    0    0  501    0  0.00000000000E+00  0.00000000000E+00  0.38977256884E+03  0.38977256884E+03  0.00000000000E+00 0. -1.
         -2   -1    0    0    0  501 -0.00000000000E+00 -0.00000000000E+00 -0.10805892226E+03  0.10805892226E+03  0.00000000000E+00 0.  1.
         25    2    1    2    0    0 -0.52223844506E+02 -0.16522375076E+03  0.15262217069E+03  0.26261599274E+03  0.12508962749E+03 0.  0.
          5    1    3    3  502    0  0.19687788737E+01 -0.15763052438E+03  0.10098499779E+03  0.18726104903E+03  0.41800000000E+01 0.  1.
         -5    1    3    3    0  502 -0.54192623380E+02 -0.75932263795E+01  0.51637172895E+02  0.75354943702E+02  0.41800000000E+01 0.  1.
        -11    1    1    2    0    0 -0.98102188161E+01  0.11030748649E+03  0.93931997334E+02  0.14521433157E+03  0.00000000000E+00 0.  1.
         11    1    1    2    0    0  0.62034063322E+02  0.54916264270E+02  0.35159478556E+02  0.90001166804E+02  0.00000000000E+00 0. -1.
</event>
<event>
 7    1  0.2844572E-009  0.9605479E+02  0.7561462E-02  0.1288818E+00
          2   -1    0    0  501    0  0.00000000000E+00  0.00000000000E+00  0.43613082019E+03  0.43613082019E+03  0.00000000000E+00 0. -1.
         -2   -1    0    0    0  501 -0.00000000000E+00 -0.00000000000E+00 -0.38870377146E+02  0.38870377146E+02  0.00000000000E+00 0.  1.
         25    2    1    2    0    0 -0.90043895525E+01 -0.31322479186E+02  0.10387813194E+03  0.16583203820E+03  0.12508965531E+03 0.  0.
          5    1    3    3  502    0  0.46739793167E+02  0.15704889224E+02  0.17000282301E+02  0.52323358160E+02  0.41800000000E+01 0.  1.
         -5    1    3    3    0  502 -0.55744182719E+02 -0.47027368410E+02  0.86877849640E+02  0.11350868004E+03  0.41800000000E+01 0.  1.
        -11    1    1    2    0    0  0.28438903564E+02  0.39346492517E+02  0.28015144771E+03  0.28432683898E+03  0.00000000000E+00 0. -1.
         11    1    1    2    0    0 -0.19434514011E+02 -0.80240133310E+01  0.13230863398E+02  0.24842320162E+02  0.00000000000E+00 0.  1.
</event>
<event>
 7    1  0.2844572E-009  0.8443085E+02  0.7561462E-02  0.1316928E+00
         -1   -1    0    0    0  501 -0.00000000000E+00  0.00000000000E+00  0.21745954255E+03  0.21745954255E+03  0.00000000000E+00 0.  1.
          1   -1    0    0  501    0  0.00000000000E+00 -0.00000000000E+00 -0.72959261412E+02  0.72959261412E+02  0.00000000000E+00 0. -1.
         25    2    1    2    0    0 -0.27137861481E+02  0.57506414837E+02  0.83908227437E+02  0.16349942838E+03  0.12509205081E+03 0.  0.
          5    1    3    3  502    0 -0.42472886779E+01 -0.84088281869E+01  0.92499229092E+02  0.93071626370E+02  0.41800000000E+01 0.  1.
         -5    1    3    3    0  502 -0.22890572803E+02  0.65915243024E+02 -0.85910016552E+01  0.70427802008E+02  0.41800000000E+01 0.  1.
        -11    1    1    2    0    0 -0.11771418096E+02  0.67244134966E+01  0.49113755350E+02  0.50950416931E+02  0.00000000000E+00 0.  1.
         11    1    1    2    0    0  0.38909279577E+02 -0.64230828334E+02  0.11478298349E+02  0.75968958652E+02  0.00000000000E+00 0. -1.
</event>
<event>
 7    1  0.2844572E-009  0.1573409E+03  0.7561462E-02  0.1191732E+00
         -1   -1    0    0    0  501 -0.00000000000E+00  0.00000000000E+00  0.71357941754E+02  0.71357941754E+02  0.00000000000E+00 0.  1.
          1   -1    0    0  501    0  0.00000000000E+00 -0.00000000000E+00 -0.45165651722E+03  0.45165651722E+03  0.00000000000E+00 0. -1.
         25    2    1    2    0    0 -0.49613358214E+02  0.12803303757E+03 -0.24993488581E+03  0.31139513567E+03  0.12508213042E+03 0.  0.
          5    1    3    3  502    0  0.22487711070E+02 -0.53806476543E+01 -0.81001014976E+02  0.84340294910E+02  0.41800000000E+01 0. -1.
         -5    1    3    3    0  502 -0.72101069284E+02  0.13341368523E+03 -0.16893387083E+03  0.22705484076E+03  0.41800000000E+01 0. -1.
        -11    1    1    2    0    0  0.25765771326E+02 -0.35154976814E+02 -0.10308986334E+03  0.11192527547E+03  0.00000000000E+00 0. -1.
         11    1    1    2    0    0  0.23847586888E+02 -0.92878060759E+02 -0.27273826318E+02  0.99694047830E+02  0.00000000000E+00 0.  1.
</event>
<event>
 7    1  0.2844572E-009  0.1271499E+03  0.7561462E-02  0.1231747E+00
         -1   -1    0    0    0  501 -0.00000000000E+00  0.00000000000E+00  0.75507460730E+02  0.75507460730E+02  0.00000000000E+00 0.  1.
          1   -1    0    0  501    0  0.00000000000E+00 -0.00000000000E+00 -0.30878801928E+03  0.30878801928E+03  0.00000000000E+00 0. -1.
         25    2    1    2    0    0  0.60556517406E+02  0.65818277389E+02 -0.55109009685E+02  0.16335494881E+03  0.12509475973E+03 0.  0.
          5    1    3    3  502    0  0.52450436098E+02 -0.44393030648E+01  0.23268352616E+02  0.57703070040E+02  0.41800000000E+01 0. -1.
         -5    1    3    3    0  502  0.81060813079E+01  0.70257580454E+02 -0.78377362301E+02  0.10565187877E+03  0.41800000000E+01 0. -1.
        -11    1    1    2    0    0 -0.42095085954E+02  0.17295462822E+02 -0.62597906564E+02  0.77392681837E+02  0.00000000000E+00 0. -1.
         11    1    1    2    0    0 -0.18461431452E+02 -0.83113740212E+02 -0.11557364230E+03  0.14354784936E+03  0.00000000000E+00 0.  1.
</event>
<event>
 7    1  0.2844572E-009  0.1629404E+03  0.7561462E-02  0.1185417E+00
          1   -1    0    0  501    0  0.00000000000E+00  0.00000000000E+00  0.24032230178E+03  0.24032230178E+03  0.00000000000E+00 0. -1.
         -1   -1    0    0    0  501 -0.00000000000E+00 -0.00000000000E+00 -0.35032242365E+03  0.35032242365E+03  0.00000000000E+00 0.  1.
         25    2    1    2    0    0 -0.80732470229E+02  0.10371632339E+03  0.18226674215E+03  0.25718346648E+03  0.12508941862E+03 0.  0.
          5    1    3    3  502    0  0.24300069030E+02  0.60444628636E+02  0.87624124386E+02  0.10926804684E+03  0.41800000000E+01 0.  1.
         -5    1    3    3    0  502 -0.10503253926E+03  0.43271694759E+02  0.94642617767E+02  0.14791541964E+03  0.41800000000E+01 0.  1.
        -11    1    1    2    0    0  0.70901476012E+02 -0.37929761196E+02 -0.90742958888E+02  0.12124343559E+03  0.00000000000E+00 0. -1.
         11    1    1    2    0    0  0.98309942172E+01 -0.65786562198E+02 -0.20152390513E+03  0.21221782336E+03  0.00000000000E+00 0.  1.
</event>
<event>
 7    1  0.2844572E-009  0.9527429E+02  0.7561462E-02  0.1290560E+00
         -1   -1    0    0    0  501 -0.00000000000E+00  0.00000000000E+00  0.15830147360E+03  0.15830147360E+03  0.00000000000E+00 0.  1.
          1   -1    0    0  501    0  0.00000000000E+00 -0.00000000000E+00 -0.11533397230E+03  0.11533397230E+03  0.00000000000E+00 0. -1.
         25    2    1    2    0    0 -0.16994949170E+02 -0.17633082629E+02  0.10232056165E+03  0.16345422392E+03  0.12509209439E+03 0.  0.
          5    1    3    3  502    0 -0.18989256569E+02  0.40231016207E+02 -0.12771696349E+01  0.44701567001E+02  0.41800000000E+01 0.  1.
         -5    1    3    3    0  502  0.19943073990E+01 -0.57864098836E+02  0.10359773129E+03  0.11875265691E+03  0.41800000000E+01 0.  1.
        -11    1    1    2    0    0 -0.83886094901E+01  0.47720068550E+02 -0.14652818081E+02  0.50618956818E+02  0.00000000000E+00 0. -1.
         11    1    1    2    0    0  0.25383558660E+02 -0.30086985921E+02 -0.44700242274E+02  0.59562265164E+02  0.00000000000E+00 0.  1.
</event>
<event>
 7    1  0.2844572E-009  0.2110136E+03  0.7561462E-02  0.1140766E+00
          2   -1    0    0  501    0  0.00000000000E+00  0.00000000000E+00  0.28502088323E+03  0.28502088323E+03  0.00000000000E+00 0. -1.
         -2   -1    0    0    0  501 -0.00000000000E+00 -0.00000000000E+00 -0.16450003198E+03  0.16450003198E+03  0.00000000000E+00 0.  1.
         25    2    1    2    0    0  0.35619330299E+02  0.19165287827E+03  0.68813411912E+02  0.24162835366E+03  0.12509761466E+03 0.  0.
          5    1    3    3  502    0  0.73721623148E+02  0.79974748386E+02  0.57258337124E+02  0.12299116907E+03  0.41800000000E+01 0.  1.
         -5    1    3    3    0  502 -0.38102292849E+02  0.11167812989E+03  0.11555074789E+02  0.11863718459E+03  0.41800000000E+01 0.  1.
        -11    1    1    2    0    0 -0.18080543823E+02 -0.75507751265E+02 -0.43001407158E+01  0.77761287131E+02  0.00000000000E+00 0.  1.
         11    1    1    2    0    0 -0.17538786476E+02 -0.11614512701E+03  0.56007580052E+02  0.13013127442E+03  0.00000000000E+00 0. -1.
</event>
<event>
 7    1  0.2844572E-009  0.1111010E+03  0.7561462E-02  0.1258544E+00
          2   -1    0    0  501    0  0.00000000000E+00  0.00000000000E+00  0.28893622232E+03  0.28893622232E+03  0.00000000000E+00 0. -1.
         -2   -1    0    0    0  501 -0.00000000000E+00 -0.00000000000E+00 -0.62008578140E+02  0.62008578140E+02  0.00000000000E+00 0.  1.
         25    2    1    2    0    0 -0.45981955683E+02 -0.42684702407E+02  0.65274664640E+02  0.15441628401E+03  0.12508909966E+03 0.  0.
          5    1    3    3  502    0 -0.45776507008E+01 -0.73969793389E+02  0.70141588633E+02  0.10212639265E+03  0.41800000000E+01 0.  1.
         -5    1    3    3    0  502 -0.41404304982E+02  0.31285090982E+02 -0.48669239928E+01  0.52289891355E+02  0.41800000000E+01 0.  1.
        -11    1    1    2    0    0 -0.16544388463E+02  0.26637749411E+02  0.12050626122E+02  0.33593214690E+02  0.00000000000E+00 0.  1.
         11    1    1    2    0    0  0.62526344146E+02  0.16046952996E+02  0.14960235342E+03  0.16293530177E+03  0.00000000000E+00 0. -1.
</event>
<event>
 7    1  0.2844572E-009  0.1069447E+03  0.7561462E-02  0.1266335E+00
         -1   -1    0    0    0  501 -0.00000000000E+00  0.00000000000E+00  0.46937320028E+02  0.46937320028E+02  0.00000000000E+00 0.  1.
          1   -1    0    0  501    0  0.00000000000E+00 -0.00000000000E+00 -0.37032695881E+03  0.37032695881E+03  0.00000000000E+00 0. -1.
         25    2    1    2    0    0 -0.30949562486E+02  0.61394674975E+02 -0.12912495976E+03  0.19244468503E+03  0.12503807432E+03 0.  0.
          5    1    3    3  502    0  0.46611899470E+02  0.35944819790E+02 -0.70060452142E+02  0.91600429018E+02  0.41800000000E+01 0.  1.
         -5    1    3    3    0  502 -0.77561461956E+02  0.25449855185E+02 -0.59064507619E+02  0.10084425601E+03  0.41800000000E+01 0.  1.
        -11    1    1    2    0    0  0.25835628981E+02 -0.23563966482E+02 -0.96156786289E+01  0.36265707173E+02  0.00000000000E+00 0.  1.
         11    1    1    2    0    0  0.51139335047E+01 -0.37830708493E+02 -0.18464900039E+03  0.18855388664E+03  0.00000000000E+00 0. -1.
</event>
<event>
 7    1  0.2844572E-009  0.1360629E+03  0.7561462E-02  0.1218727E+00
         -1   -1    0    0    0  501 -0.00000000000E+00  0.00000000000E+00  0.85416616541E+02  0.85416616541E+02  0.00000000000E+00 0. -1.
          1   -1    0    0  501    0  0.00000000000E+00 -0.00000000000E+00 -0.37651351390E+03  0.37651351390E+03  0.00000000000E+00 0.  1.
         25    2    1    2    0    0 -0.98444699536E+02 -0.59685886105E+02 -0.43189723215E+02  0.17540465607E+03  0.12509067636E+03 0.  0.
          5    1    3    3  502    0 -0.66035302728E+02  0.12131264383E+02 -0.65000576685E+02  0.93543445261E+02  0.41800000000E+01 0. -1.
         -5    1    3    3    0  502 -0.32409396808E+02 -0.71817150488E+02  0.21810853470E+02  0.81861210807E+02  0.41800000000E+01 0. -1.
        -11    1    1    2    0    0  0.93914640490E+02  0.34013618935E+02 -0.23890681452E+03  0.25894661997E+03  0.00000000000E+00 0.  1.
         11    1    1    2    0    0  0.45300590460E+01  0.25672267171E+02 -0.90003596255E+01  0.27578854400E+02  0.00000000000E+00 0. -1.
</event>
<event>
 7    1  0.2844572E-009  0.1145331E+03  0.7561462E-02  0.1252398E+00
         -1   -1    0    0    0  501 -0.00000000000E+00  0.00000000000E+00  0.68944335189E+02  0.68944335189E+02  0.00000000000E+00 0.  1.
          1   -1    0    0  501    0  0.00000000000E+00 -0.00000000000E+00 -0.20519015555E+03  0.20519015555E+03  0.00000000000E+00 0. -1.
         25    2    1    2    0    0  0.25526780154E+02 -0.42669230045E+02 -0.78511402427E+02  0.15583342096E+03  0.12509090727E+03 0.  0.
          5    1    3    3  502    0  0.68337900309E+02 -0.49420974838E+02 -0.27584899069E+02  0.88830740340E+02  0.41800000000E+01 0.  1.
         -5    1    3    3    0  502 -0.42811120155E+02  0.67517447939E+01 -0.50926503358E+02  0.67002680625E+02  0.41800000000E+01 0.  1.
        -11    1    1    2    0    0  0.72336538207E+01 -0.24934384146E+02 -0.48026310907E+01  0.26402926462E+02  0.00000000000E+00 0.  1.
         11    1    1    2    0    0 -0.32760433975E+02  0.67603614191E+02 -0.52931786848E+02  0.91898143315E+02  0.00000000000E+00 0. -1.
</event>
<event>
 7    1  0.2844572E-009  0.1108506E+03  0.7561462E-02  0.1259003E+00
         -2   -1    0    0    0  501 -0.00000000000E+00  0.00000000000E+00  0.59627854718E+02  0.59627854718E+02  0.00000000000E+00 0. -1.
          2   -1    0    0  501    0  0.00000000000E+00 -0.00000000000E+00 -0.28469319887E+03  0.28469319887E+03  0.00000000000E+00 0.  1.
         25    2    1    2    0    0 -0.55477694831E+02 -0.21374973204E+02 -0.12842648752E+03  0.18887896038E+03  0.12508890787E+03 0.  0.
          5    1    3    3  502    0  0.30993871306E+02 -0.40869451633E+01  0.17520437337E+01  0.31589004994E+02  0.41800000000E+01 0.  1.
         -5    1    3    3    0  502 -0.86471566136E+02 -0.17288028041E+02 -0.13017853126E+03  0.15728995538E+03  0.41800000000E+01 0.  1.
        -11    1    1    2    0    0  0.47515768007E+02  0.51880583438E+02 -0.10154581436E+03  0.12353499731E+03  0.00000000000E+00 0.  1.
         11    1    1    2    0    0  0.79619268237E+01 -0.30505610234E+02  0.49069577317E+01  0.31907095899E+02  0.00000000000E+00 0. -1.
</event>
<event>
 7    1  0.2844572E-009  0.9890573E+02  0.7561462E-02  0.1282614E+00
         -2   -1    0    0    0  501 -0.00000000000E+00  0.00000000000E+00  0.40170642044E+02  0.40170642044E+02  0.00000000000E+00 0.  1.
          2   -1    0    0  501    0  0.00000000000E+00 -0.00000000000E+00 -0.47986512080E+03  0.47986512080E+03  0.00000000000E+00 0. -1.
         25    2    1    2    0    0 -0.59557663205E+02 -0.52439802072E+02 -0.18960938273E+03  0.24061626543E+03  0.12508965217E+03 0.  0.
          5    1    3    3  502    0 -0.46389110640E+02 -0.74463391872E+02 -0.19517665004E+03  0.21402837063E+03  0.41800000000E+01 0. -1.
         -5    1    3    3    0  502 -0.13168552565E+02  0.22023589800E+02  0.55672673058E+01  0.26587894794E+02  0.41800000000E+01 0. -1.
        -11    1    1    2    0    0  0.19137885119E+02  0.35145147159E+02 -0.19199421075E+02  0.44385332997E+02  0.00000000000E+00 0.  1.
         11    1    1    2    0    0  0.40419778086E+02  0.17294654913E+02 -0.23088567495E+03  0.23503416443E+03  0.00000000000E+00 0. -1.
</event>
<event>
 7    1  0.2844572E-009  0.1141421E+03  0.7561462E-02  0.1253086E+00
         -2   -1    0    0    0  501 -0.00000000000E+00  0.00000000000E+00  0.17436792061E+02  0.17436792061E+02  0.00000000000E+00 0.  1.
          2   -1    0    0  501    0  0.00000000000E+00 -0.00000000000E+00 -0.87963088752E+03  0.87963088752E+03  0.00000000000E+00 0. -1.
         25    2    1    2    0    0 -0.66922438850E+01 -0.45706516625E+02 -0.62427879504E+03  0.63836249219E+03  0.12509510665E+03 0.  0.
          5    1    3    3  502    0  0.55791025438E+02 -0.33959941571E+02 -0.23670203055E+03  0.24558346813E+03  0.41800000000E+01 0.  1.
         -5    1    3    3    0  502 -0.62483269323E+02 -0.11746575054E+02 -0.38757676449E+03  0.39277902407E+03  0.41800000000E+01 0.  1.
        -11    1    1    2    0    0 -0.34328152416E+02  0.46855572027E+02 -0.11037644925E+03  0.12472701082E+03  0.00000000000E+00 0.  1.
         11    1    1    2    0    0  0.41020396301E+02 -0.11490554024E+01 -0.12753885117E+03  0.13397817658E+03  0.00000000000E+00 0. -1.
</event>
<event>
 7    1  0.2844572E-009  0.1313737E+03  0.7561462E-02  0.1225432E+00
          2   -1    0    0  501    0  0.00000000000E+00  0.00000000000E+00  0.12321205162E+04  0.12321205162E+04  0.00000000000E+00 0. -1.
         -2   -1    0    0    0  501 -0.00000000000E+00 -0.00000000000E+00 -0.17053219594E+02  0.17053219594E+02  0.00000000000E+00 0.  1.
         25    2    1    2    0    0  0.42782213800E+02  0.81627182561E+02  0.76744485498E+03  0.78301497465E+03  0.12509008895E+03 0.  0.
          5    1    3    3  502    0 -0.37427690561E+02  0.55506384878E+02  0.25592261087E+03  0.26456690258E+03  0.41800000000E+01 0. -1.
         -5    1    3    3    0  502  0.80209904361E+02  0.26120797683E+02  0.51152224410E+03  0.51844807208E+03  0.41800000000E+01 0. -1.
        -11    1    1    2    0    0 -0.39573130352E+02 -0.92108519736E+02  0.44310310496E+03  0.45430207316E+03  0.00000000000E+00 0. -1.
         11    1    1    2    0    0 -0.32090834480E+01  0.10481337176E+02  0.45193366512E+01  0.11856687958E+02  0.00000000000E+00 0.  1.
</event>
<event>
 7    1  0.2844572E-009  0.9010938E+02  0.7561462E-02  0.1302587E+00
          4   -1    0    0  501    0  0.00000000000E+00  0.00000000000E+00  0.69066166391E+02  0.69066166391E+02  0.00000000000E+00 0. -1.
         -4   -1    0    0    0  501 -0.00000000000E+00 -0.00000000000E+00 -0.23345713232E+03  0.23345713232E+03  0.00000000000E+00 0.  1.
         25    2    1    2    0    0  0.10683068534E+00 -0.12386124755E+02 -0.12844206821E+02  0.12635098371E+03  0.12508465109E+03 0.  0.
          5    1    3    3  502    0  0.26761395127E+02 -0.42810611818E+02 -0.50064861313E+02  0.71224177718E+02  0.41800000000E+01 0. -1.
         -5    1    3    3    0  502 -0.26654564441E+02  0.30424487063E+02  0.37220654492E+02  0.55126805996E+02  0.41800000000E+01 0. -1.
        -11    1    1    2    0    0 -0.33499316242E+02  0.35091632442E+02 -0.95217869912E+02  0.10686472574E+03  0.00000000000E+00 0. -1.
         11    1    1    2    0    0  0.33392485556E+02 -0.22705507687E+02 -0.56328889196E+02  0.69307589260E+02  0.00000000000E+00 0.  1.
</event>
<event>
 7    1  0.2844572E-009  0.1284644E+03  0.7561462E-02  0.1229752E+00
          2   -1    0    0  501    0  0.00000000000E+00  0.00000000000E+00  0.65750367589E+03  0.65750367589E+03  0.00000000000E+00 0. -1.
         -2   -1    0    0    0  501 -0.00000000000E+00 -0.00000000000E+00 -0.35409962821E+02  0.35409962821E+02  0.00000000000E+00 0.  1.
         25    2    1    2    0    0 -0.80611863617E+02 -0.51371252209E+02  0.43923115197E+03  0.46659270984E+03  0.12508986333E+03 0.  0.
          5    1    3    3  502    0 -0.57070621739E+02 -0.92902292839E+02  0.32004021320E+03  0.33812882507E+03  0.41800000000E+01 0.  1.
         -5    1    3    3    0  502 -0.23541241878E+02  0.41531040629E+02  0.11919093877E+03  0.12846388477E+03  0.41800000000E+01 0.  1.
        -11    1    1    2    0    0  0.24409261769E+02  0.10100065813E+01 -0.40365198324E+01  0.24761374472E+02  0.00000000000E+00 0.  1.
         11    1    1    2    0    0  0.56202601848E+02  0.50361245628E+02  0.18689908093E+03  0.20155955440E+03  0.00000000000E+00 0. -1.
</event>
<event>
 7    1  0.3922539E-009  0.1251249E+03  0.7561462E-02  0.1234874E+00
         -3   -1    0    0    0  501 -0.00000000000E+00  0.00000000000E+00  0.15183398422E+03  0.15183398422E+03  0.00000000000E+00 0.  1.
          3   -1    0    0  501    0  0.00000000000E+00 -0.00000000000E+00 -0.14654645344E+03  0.14654645344E+03  0.00000000000E+00 0. -1.
         25    2    1    2    0    0 -0.10114449098E+03  0.34569830778E+01 -0.10356637954E+02  0.16123550530E+03  0.12508984544E+03 0.  0.
          5    1    3    3  502    0 -0.24757303212E+02  0.37543817213E+02 -0.51015435535E+02  0.68135962135E+02  0.41800000000E+01 0.  1.
         -5    1    3    3    0  502 -0.76387187772E+02 -0.34086834135E+02  0.40658797581E+02  0.93099543167E+02  0.41800000000E+01 0.  1.
        -11    1    1    2    0    0  0.55973896600E+02  0.31487592000E+02  0.39340715934E+02  0.75314258150E+02  0.00000000000E+00 0.  1.
         11    1    1    2    0    0  0.45170594384E+02 -0.34944575078E+02 -0.23696547194E+02  0.61830674210E+02  0.00000000000E+00 0. -1.
</event>
<event>
 7    1  0.2844572E-009  0.1133853E+03  0.7561462E-02  0.1254426E+00
          1   -1    0    0  501    0  0.00000000000E+00  0.00000000000E+00  0.38519656873E+02  0.38519656873E+02  0.00000000000E+00 0. -1.
         -1   -1    0    0    0  501 -0.00000000000E+00 -0.00000000000E+00 -0.64521011320E+03  0.64521011320E+03  0.00000000000E+00 0.  1.
         25    2    1    2    0    0 -0.97309024036E+02  0.22712947760E+02 -0.44601383730E+03  0.47387822073E+03  0.12508917163E+03 0.  0.
          5    1    3    3  502    0 -0.36173484422E+02  0.73477087579E+01 -0.38248426638E+03  0.38428400465E+03  0.41800000000E+01 0. -1.
         -5    1    3    3    0  502 -0.61135539614E+02  0.15365239002E+02 -0.63529570921E+02  0.89594216079E+02  0.41800000000E+01 0. -1.
        -11    1    1    2    0    0  0.74775800429E+02 -0.50829136105E+02 -0.14426876012E+03  0.17026008503E+03  0.00000000000E+00 0.  1.
         11    1    1    2    0    0  0.22533223607E+02  0.28116188345E+02 -0.16407858908E+02  0.39591464321E+02  0.00000000000E+00 0. -1.
</event>
<event>
 7    1  0.2844572E-009  0.9511673E+02  0.7561462E-02  0.1290913E+00
          4   -1    0    0  501    0  0.00000000000E+00  0.00000000000E+00  0.30702509046E+02  0.30702509046E+02  0.00000000000E+00 0. -1.
         -4   -1    0    0    0  501 -0.00000000000E+00 -0.00000000000E+00 -0.39198558656E+03  0.39198558656E+03  0.00000000000E+00 0.  1.
         25    2    1    2    0    0 -0.10175955047E+02  0.40490532370E+01 -0.22763251504E+03  0.25996765014E+03  0.12508665924E+03 0.  0.
          5    1    3    3  502    0  0.52705221579E+02 -0.16879608807E+02 -0.13526182338E+03  0.14620531741E+03  0.41800000000E+01 0.  1.
         -5    1    3    3    0  502 -0.62881176625E+02  0.20928662044E+02 -0.92370691661E+02  0.11376233272E+03  0.41800000000E+01 0.  1.
        -11    1    1    2    0    0  0.15106667214E+02  0.30178551382E+02 -0.12144771387E+03  0.12604960754E+03  0.00000000000E+00 0.  1.
         11    1    1    2    0    0 -0.49307121677E+01 -0.34227604619E+02 -0.12202848606E+02  0.36670837930E+02  0.00000000000E+00 0. -1.
</event>
<event>
 7    1  0.2844572E-009  0.1325555E+03  0.7561462E-02  0.1223712E+00
          2   -1    0    0  501    0  0.00000000000E+00  0.00000000000E+00  0.38681849084E+03  0.38681849084E+03  0.00000000000E+00 0. -1.
         -2   -1    0    0    0  501 -0.00000000000E+00 -0.00000000000E+00 -0.67220663091E+02  0.67220663091E+02  0.00000000000E+00 0.  1.
         25    2    1    2    0    0 -0.26503949375E+01  0.10967972683E+03  0.14890884393E+03  0.22329003988E+03  0.12509169053E+03 0.  0.
          5    1    3    3  502    0  0.21771832799E+02  0.99177274126E+02  0.36936525435E+02  0.10812919919E+03  0.41800000000E+01 0. -1.
         -5    1    3    3    0  502 -0.24422227737E+02  0.10502452706E+02  0.11197231849E+03  0.11516084069E+03  0.41800000000E+01 0. -1.
        -11    1    1    2    0    0 -0.92184885567E+01 -0.12029716778E+03  0.17650118382E+03  0.21379676564E+03  0.00000000000E+00 0. -1.
         11    1    1    2    0    0  0.11868883494E+02  0.10617440951E+02 -0.58121999978E+01  0.16952348409E+02  0.00000000000E+00 0.  1.
</event>
<event>
 7    1  0.2844572E-009  0.1515062E+03  0.7561462E-02  0.1198634E+00
          3   -1    0    0  501    0  0.00000000000E+00  0.00000000000E+00  0.41290865613E+02  0.41290865613E+02  0.00000000000E+00 0. -1.
         -3   -1    0    0    0  501 -0.00000000000E+00 -0.00000000000E+00 -0.58184773939E+03  0.58184773939E+03  0.00000000000E+00 0.  1.
         25    2    1    2    0    0 -0.75848131972E+02 -0.81777063242E+02 -0.30130040044E+03  0.34477612711E+03  0.12509284283E+03 0.  0.
          5    1    3    3  502    0 -0.10863560403E+03 -0.74420157853E+02 -0.25907881014E+03  0.29065332722E+03  0.41800000000E+01 0.  1.
         -5    1    3    3    0  502  0.32787472063E+02 -0.73569053892E+01 -0.42221590296E+02  0.54122799894E+02  0.41800000000E+01 0.  1.
        -11    1    1    2    0    0  0.36493203953E+02  0.90071221326E+02 -0.13279569922E+03  0.16455782138E+03  0.00000000000E+00 0. -1.
         11    1    1    2    0    0  0.39354928019E+02 -0.82941580836E+01 -0.10646077412E+03  0.11380465652E+03  0.00000000000E+00 0.  1.
</event>
<event>
 7    1  0.2844572E-009  0.1062786E+03  0.7561462E-02  0.1267621E+00
         -1   -1    0    0    0  501 -0.00000000000E+00  0.00000000000E+00  0.81114427359E+03  0.81114427359E+03  0.00000000000E+00 0.  1.
          1   -1    0    0  501    0  0.00000000000E+00 -0.00000000000E+00 -0.23283200233E+02  0.23283200233E+02  0.00000000000E+00 0. -1.
         25    2    1    2    0    0 -0.52072275778E+02  0.59809042322E+02  0.51172274131E+03  0.53272518764E+03  0.12508924065E+03 0.  0.
          5    1    3    3  502    0 -0.55628087047E+02  0.32104992760E+02  0.93281461828E+02  0.11333189379E+03  0.41800000000E+01 0.  1.
         -5    1    3    3    0  502  0.35558112695E+01  0.27704049562E+02  0.41844127948E+03  0.41939329385E+03  0.41800000000E+01 0.  1.
        -11    1    1    2    0    0 -0.13295990675E+02 -0.52520978192E+02  0.10086994694E+03  0.11449883281E+03  0.00000000000E+00 0.  1.
         11    1    1    2    0    0  0.65368266452E+02 -0.72880641291E+01  0.17526838511E+03  0.18720345338E+03  0.00000000000E+00 0. -1.
</event>
<event>
 7    1  0.2844572E-009  0.1494945E+03  0.7561462E-02  0.1201095E+00
          1   -1    0    0  501    0  0.00000000000E+00  0.00000000000E+00  0.22815992937E+03  0.22815992937E+03  0.00000000000E+00 0. -1.
         -1   -1    0    0    0  501 -0.00000000000E+00 -0.00000000000E+00 -0.15796233363E+03  0.15796233363E+03  0.00000000000E+00 0.  1.
         25    2    1    2    0    0  0.12086409013E+03 -0.63080430320E+02 -0.40121270320E+02  0.18932623798E+03  0.12508972414E+03 0.  0.
          5    1    3    3  502    0  0.34031617793E+02 -0.75092517140E+01  0.43941649621E+02  0.56239495395E+02  0.41800000000E+01 0. -1.
         -5    1    3    3    0  502  0.86832472338E+02 -0.55571178606E+02 -0.84062919941E+02  0.13308674259E+03  0.41800000000E+01 0. -1.
        -11    1    1    2    0    0 -0.33156173893E+02  0.65016475069E+02  0.33989771332E+02  0.80509492936E+02  0.00000000000E+00 0.  1.
         11    1    1    2    0    0 -0.87707916237E+02 -0.19360447492E+01  0.76329094734E+02  0.11628653208E+03  0.00000000000E+00 0. -1.
</event>
<event>
 7    1  0.2844572E-009  0.9443147E+02  0.7561462E-02  0.1292462E+00
         -1   -1    0    0    0  501 -0.00000000000E+00  0.00000000000E+00  0.19312371111E+02  0.19312371111E+02  0.00000000000E+00 0.  1.
          1   -1    0    0  501    0  0.00000000000E+00 -0.00000000000E+00 -0.81606162400E+03  0.81606162400E+03  0.00000000000E+00 0. -1.
         25    2    1    2    0    0  0.51009340299E+02 -0.34755465514E+02 -0.42033904394E+03  0.44287947337E+03  0.12508965142E+03 0.  0.
          5    1    3    3  502    0 -0.59819020056E+01  0.18224746227E+02 -0.49521779686E+01  0.20246505705E+02  0.41800000000E+01 0. -1.
         -5    1    3    3    0  502  0.56991242305E+02 -0.52980211741E+02 -0.41538686597E+03  0.42263296767E+03  0.41800000000E+01 0. -1.
        -11    1    1    2    0    0 -0.66796903780E+02  0.35216278316E+02 -0.36569205861E+03  0.37340687506E+03  0.00000000000E+00 0. -1.
         11    1    1    2    0    0  0.15787563481E+02 -0.46081280171E+00 -0.10718150342E+02  0.19087646681E+02  0.00000000000E+00 0.  1.
</event>
<event>
 7    1  0.2844572E-009  0.8012927E+02  0.7561462E-02  0.1328685E+00
         -4   -1    0    0    0  501 -0.00000000000E+00  0.00000000000E+00  0.52049290295E+03  0.52049290295E+03  0.00000000000E+00 0.  1.
          4   -1    0    0  501    0  0.00000000000E+00 -0.00000000000E+00 -0.48373679803E+02  0.48373679803E+02  0.00000000000E+00 0. -1.
         25    2    1    2    0    0  0.74301899332E+01 -0.50250499746E+02  0.68502855504E+02  0.15139718576E+03  0.12509255053E+03 0.  0.
          5    1    3    3  502    0  0.43891148837E+01 -0.40476539071E+01 -0.36152621665E+02  0.36879971324E+02  0.41800000000E+01 0.  1.
         -5    1    3    3    0  502  0.30410750495E+01 -0.46202845839E+02  0.10465547717E+03  0.11451721444E+03  0.41800000000E+01 0.  1.
        -11    1    1    2    0    0 -0.45101277372E+02  0.51916705803E+02  0.27183978240E+03  0.28040388168E+03  0.00000000000E+00 0. -1.
         11    1    1    2    0    0  0.37671087438E+02 -0.16662060566E+01  0.13177658524E+03  0.13706551531E+03  0.00000000000E+00 0.  1.
</event>
<event>
 7    1  0.2844572E-009  0.1355774E+03  0.7561462E-02  0.1219407E+00
         -2   -1    0    0    0  501 -0.00000000000E+00  0.00000000000E+00  0.45111310619E+02  0.45111310619E+02  0.00000000000E+00 0.  1.
          2   -1    0    0  501    0  0.00000000000E+00 -0.00000000000E+00 -0.55789140942E+03  0.55789140942E+03  0.00000000000E+00 0. -1.
         25    2    1    2    0    0 -0.10744196374E+03 -0.31878401940E+02 -0.22059694730E+03  0.27725558839E+03  0.12509052743E+03 0.  0.
          5    1    3    3  502    0 -0.27029115316E+00  0.32163470479E+02 -0.12939863005E+02  0.34920972855E+02  0.41800000000E+01 0.  1.
         -5    1    3    3    0  502 -0.10717167259E+03 -0.64041872419E+02 -0.20765708430E+03  0.24233461554E+03  0.41800000000E+01 0.  1.
        -11    1    1    2    0    0  0.66418652742E+01  0.76486990146E+01  0.47850246957E+01  0.11203277747E+02  0.00000000000E+00 0.  1.
         11    1    1    2    0    0  0.10080009846E+03  0.24229702925E+02 -0.29696817619E+03  0.31454385390E+03  0.00000000000E+00 0. -1.
</event>
<event>
 7    1  0.2844572E-009  0.7819619E+02  0.7561462E-02  0.1334250E+00
          1   -1    0    0  501    0  0.00000000000E+00  0.00000000000E+00  0.17417361499E+03  0.17417361499E+03  0.00000000000E+00 0. -1.
         -1   -1    0    0    0  501 -0.00000000000E+00 -0.00000000000E+00 -0.86960112256E+02  0.86960112256E+02  0.00000000000E+00 0.  1.
         25    2    1    2    0    0  0.20070083235E+02  0.53199075782E+02  0.21383201710E+02  0.13906098812E+03  0.12509103563E+03 0.  0.
          5    1    3    3  502    0  0.43381037781E+01 -0.22578105313E+01 -0.48187339555E+02  0.48614904568E+02  0.41800000000E+01 0. -1.
         -5    1    3    3    0  502  0.15731979457E+02  0.55456886313E+02  0.69570541265E+02  0.90446083547E+02  0.41800000000E+01 0. -1.
        -11    1    1    2    0    0  0.23130668978E+02 -0.41327496282E+02  0.60681624079E+02  0.76975640934E+02  0.00000000000E+00 0. -1.
         11    1    1    2    0    0 -0.43200752213E+02 -0.11871579499E+02  0.51486769463E+01  0.45097098198E+02  0.00000000000E+00 0.  1.
</event>
<event>
 7    1  0.2844572E-009  0.1585677E+03  0.7561462E-02  0.1190323E+00
         -2   -1    0    0    0  501 -0.00000000000E+00  0.00000000000E+00  0.98957156115E+02  0.98957156115E+02  0.00000000000E+00 0.  1.
          2   -1    0    0  501    0  0.00000000000E+00 -0.00000000000E+00 -0.28477768556E+03  0.28477768556E+03  0.00000000000E+00 0. -1.
         25    2    1    2    0    0 -0.10664185366E+03 -0.69296461244E+02 -0.80154585481E+02  0.19556603580E+03  0.12508729868E+03 0.  0.
          5    1    3    3  502    0 -0.12731652794E+03 -0.26982478577E+02 -0.49959592043E+02  0.13946679058E+03  0.41800000000E+01 0.  1.
         -5    1    3    3    0  502  0.20674674279E+02 -0.42313982666E+02 -0.30194993437E+02  0.56099245220E+02  0.41800000000E+01 0.  1.
        -11    1    1    2    0    0  0.75827240528E+02  0.15124176765E+02 -0.15980455665E+02  0.78954962430E+02  0.00000000000E+00 0.  1.
         11    1    1    2    0    0  0.30814613137E+02  0.54172284478E+02 -0.89685488299E+02  0.10921384344E+03  0.00000000000E+00 0. -1.
</event>
<event>
 7    1  0.2844572E-009  0.1149989E+03  0.7561462E-02  0.1251583E+00
          2   -1    0    0  501    0  0.00000000000E+00  0.00000000000E+00  0.42110705973E+03  0.42110705973E+03  0.00000000000E+00 0. -1.
         -2   -1    0    0    0  501 -0.00000000000E+00 -0.00000000000E+00 -0.54884954822E+02  0.54884954822E+02  0.00000000000E+00 0.  1.
         25    2    1    2    0    0 -0.72531682915E+02  0.72491563603E+02  0.22852170808E+03  0.27997367300E+03  0.12508882720E+03 0.  0.
          5    1    3    3  502    0 -0.29090664410E+02  0.15243899579E+02 -0.68769684332E+01  0.33814321300E+02  0.41800000000E+01 0.  1.
         -5    1    3    3    0  502 -0.43441018506E+02  0.57247664023E+02  0.23539867651E+03  0.24615935170E+03  0.41800000000E+01 0.  1.
        -11    1    1    2    0    0  0.80668670117E+02 -0.37462480304E+02  0.51880245346E+02  0.10296810975E+03  0.00000000000E+00 0. -1.
         11    1    1    2    0    0 -0.81369872016E+01 -0.35029083298E+02  0.85820151484E+02  0.93050231801E+02  0.00000000000E+00 0.  1.
</event>
<event>
 7    1  0.2844572E-009  0.9622547E+02  0.7561462E-02  0.1288440E+00
         -1   -1    0    0    0  501 -0.00000000000E+00  0.00000000000E+00  0.29226845825E+02  0.29226845825E+02  0.00000000000E+00 0.  1.
          1   -1    0    0  501    0  0.00000000000E+00 -0.00000000000E+00 -0.42112140924E+03  0.42112140924E+03  0.00000000000E+00 0. -1.
         25    2    1    2    0    0  0.17986347921E+02 -0.20975999264E+02 -0.30910439340E+03  0.33459817868E+03  0.12508762489E+03 0.  0.
          5    1    3    3  502    0 -0.29867213878E+02 -0.56648068282E+02 -0.11768740062E+03  0.13404794206E+03  0.41800000000E+01 0. -1.
         -5    1    3    3    0  502  0.47853561799E+02  0.35672069018E+02 -0.19141699278E+03  0.20055023663E+03  0.41800000000E+01 0. -1.
        -11    1    1    2    0    0 -0.37364480144E+02 -0.31510652757E+01 -0.74981208401E+02  0.83834451165E+02  0.00000000000E+00 0.  1.
         11    1    1    2    0    0  0.19378132223E+02  0.24127064540E+02 -0.78089616155E+01  0.31915625221E+02  0.00000000000E+00 0. -1.
</event>
<event>
 7    1  0.2844572E-009  0.1015729E+03  0.7561462E-02  0.1277023E+00
         -2   -1    0    0    0  501 -0.00000000000E+00  0.00000000000E+00  0.39096409599E+03  0.39096409599E+03  0.00000000000E+00 0.  1.
          2   -1    0    0  501    0  0.00000000000E+00 -0.00000000000E+00 -0.38547992937E+02  0.38547992937E+02  0.00000000000E+00 0. -1.
         25    2    1    2    0    0 -0.46296220085E+02  0.35661403226E+02  0.25627670574E+03  0.29110139110E+03  0.12508874578E+03 0.  0.
          5    1    3    3  502    0  0.23621858428E+02  0.24024375437E+02  0.10898476024E+02  0.35656864561E+02  0.41800000000E+01 0.  1.
         -5    1    3    3    0  502 -0.69918078513E+02  0.11637027790E+02  0.24537822972E+03  0.25544452654E+03  0.41800000000E+01 0.  1.
        -11    1    1    2    0    0 -0.21840446870E+02 -0.12936510224E+01  0.31771367541E+02  0.38575879094E+02  0.00000000000E+00 0.  1.
         11    1    1    2    0    0  0.68136666956E+02 -0.34367752204E+02  0.64368029776E+02  0.99834818739E+02  0.00000000000E+00 0. -1.
</event>
<event>
 7    1  0.2844572E-009  0.1268502E+03  0.7561462E-02  0.1232206E+00
         -3   -1    0    0    0  501 -0.00000000000E+00  0.00000000000E+00  0.22533005801E+03  0.22533005801E+03  0.00000000000E+00 0.  1.
          3   -1    0    0  501    0  0.00000000000E+00 -0.00000000000E+00 -0.10087918268E+03  0.10087918268E+03  0.00000000000E+00 0. -1.
         25    2    1    2    0    0  0.21231742702E+02 -0.10284502074E+03  0.88073530906E+02  0.18556415384E+03  0.12509685510E+03 0.  0.
          5    1    3    3  502    0  0.21042032366E+02 -0.11437312078E+03  0.22084057992E+02  0.11844473775E+03  0.41800000000E+01 0. -1.
         -5    1    3    3    0  502  0.18971033605E+00  0.11528100042E+02  0.65989472914E+02  0.67119416089E+02  0.41800000000E+01 0. -1.
        -11    1    1    2    0    0 -0.39008998534E+02  0.27684499088E+02 -0.12249374950E+02  0.49377936804E+02  0.00000000000E+00 0. -1.
         11    1    1    2    0    0  0.17777255832E+02  0.75160521655E+02  0.48626719379E+02  0.91267150048E+02  0.00000000000E+00 0.  1.
</event>
<event>
 7    1  0.2844572E-009  0.2480829E+03  0.7561462E-02  0.1114522E+00
          1   -1    0    0  501    0  0.00000000000E+00  0.00000000000E+00  0.22345584645E+03  0.22345584645E+03  0.00000000000E+00 0. -1.
         -1   -1    0    0    0  501 -0.00000000000E+00 -0.00000000000E+00 -0.42091298572E+03  0.42091298572E+03  0.00000000000E+00 0.  1.
         25    2    1    2    0    0 -0.70114879800E+02  0.22990739103E+03 -0.26523902481E+03  0.37917431341E+03  0.12509162580E+03 0.  0.
          5    1    3    3  502    0 -0.29534126536E+02  0.11983331770E+03 -0.22207313242E+03  0.25409887289E+03  0.41800000000E+01 0. -1.
         -5    1    3    3    0  502 -0.40580753264E+02  0.11007407334E+03 -0.43165892396E+02  0.12507544052E+03  0.41800000000E+01 0. -1.
        -11    1    1    2    0    0  0.58262838647E+02 -0.55469686628E+02  0.32878532213E+02  0.86904789180E+02  0.00000000000E+00 0. -1.
         11    1    1    2    0    0  0.11852041153E+02 -0.17443770440E+03  0.34903353333E+02  0.17828972957E+03  0.00000000000E+00 0.  1.
</event>
<event>
 7    1  0.2844572E-009  0.1147942E+03  0.7561462E-02  0.1251941E+00
          1   -1    0    0  501    0  0.00000000000E+00  0.00000000000E+00  0.40418518648E+03  0.40418518648E+03  0.00000000000E+00 0. -1.
         -1   -1    0    0    0  501 -0.00000000000E+00 -0.00000000000E+00 -0.67679993229E+02  0.67679993229E+02  0.00000000000E+00 0.  1.
         25    2    1    2    0    0 -0.48643104964E+02  0.50384109321E+02  0.32595839055E+03  0.35609118592E+03  0.12508936879E+03 0.  0.
          5    1    3    3  502    0 -0.44879723656E+02  0.83566280727E+02  0.15436063103E+03  0.18122414210E+03  0.41800000000E+01 0. -1.
         -5    1    3    3    0  502 -0.37633813080E+01 -0.33182171406E+02  0.17159775952E+03  0.17486704381E+03  0.41800000000E+01 0. -1.
        -11    1    1    2    0    0  0.44776258534E+02  0.53703660683E+01  0.32647794228E+02  0.55674344432E+02  0.00000000000E+00 0. -1.
         11    1    1    2    0    0  0.38668464302E+01 -0.55754475390E+02 -0.22100991525E+02  0.60099649364E+02  0.00000000000E+00 0.  1.
</event>
<event>
 7    1  0.2844572E-009  0.2225519E+03  0.7561462E-02  0.1131995E+00
         -2   -1    0    0    0  501 -0.00000000000E+00  0.00000000000E+00  0.14050426632E+03  0.14050426632E+03  0.00000000000E+00 0.  1.
          2   -1    0    0  501    0  0.00000000000E+00 -0.00000000000E+00 -0.40041700670E+03  0.40041700670E+03  0.00000000000E+00 0. -1.
         25    2    1    2    0    0  0.14225401046E+03 -0.13697659575E+03 -0.54703146133E+02  0.24008067292E+03  0.12508998377E+03 0.  0.
          5    1    3    3  502    0  0.16161354068E+03 -0.11715629676E+03 -0.65392904250E+02  0.21009102486E+03  0.41800000000E+01 0. -1.
         -5    1    3    3    0  502 -0.19359530217E+02 -0.19820298991E+02  0.10689758116E+02  0.29989648063E+02  0.41800000000E+01 0. -1.
        -11    1    1    2    0    0 -0.57876837154E+02  0.11728037036E+03 -0.10054868161E+03  0.16496803001E+03  0.00000000000E+00 0.  1.
         11    1    1    2    0    0 -0.84377173307E+02  0.19696225387E+02 -0.10466091264E+03  0.13587257009E+03  0.00000000000E+00 0. -1.
</event>
<event>
 7    1  0.2844572E-009  0.1232042E+03  0.7561462E-02  0.1237903E+00
          4   -1    0    0  501    0  0.00000000000E+00  0.00000000000E+00  0.11901780353E+03  0.11901780353E+03  0.00000000000E+00 0. -1.
         -4   -1    0    0    0  501 -0.00000000000E+00 -0.00000000000E+00 -0.29876722044E+03  0.29876722044E+03  0.00000000000E+00 0.  1.
         25    2    1    2    0    0  0.65791569584E+02 -0.90641039755E+01 -0.20756842006E+03  0.25128264765E+03  0.12509049282E+03 0.  0.
          5    1    3    3  502    0  0.63154262773E+02 -0.61698156014E+02 -0.13856732225E+03  0.16435783692E+03  0.41800000000E+01 0. -1.
         -5    1    3    3    0  502  0.26373068112E+01  0.52634052038E+02 -0.69001097816E+02  0.86924810733E+02  0.41800000000E+01 0. -1.
        -11    1    1    2    0    0 -0.79517556902E+02 -0.11586999226E+02 -0.43232073314E+02  0.91248630509E+02  0.00000000000E+00 0.  1.
         11    1    1    2    0    0  0.13725987318E+02  0.20651103202E+02  0.71051076465E+02  0.75253745808E+02  0.00000000000E+00 0. -1.
</event>
<event>
 7    1  0.2844572E-009  0.1028746E+03  0.7561462E-02  0.1274365E+00
          1   -1    0    0  501    0  0.00000000000E+00  0.00000000000E+00  0.13747498227E+03  0.13747498227E+03  0.00000000000E+00 0.  1.
         -1   -1    0    0    0  501 -0.00000000000E+00 -0.00000000000E+00 -0.11461402032E+03  0.11461402032E+03  0.00000000000E+00 0. -1.
         25    2    1    2    0    0  0.30612121878E+02  0.17206769583E+02 -0.41315301303E+02  0.13633498219E+03  0.12508836206E+03 0.  0.
          5    1    3    3  502    0  0.97312206816E+01  0.70301125563E+02 -0.12155712947E+02  0.72126130276E+02  0.41800000000E+01 0.  1.
         -5    1    3    3    0  502  0.20880901196E+02 -0.53094355980E+02 -0.29159588356E+02  0.64208851919E+02  0.41800000000E+01 0.  1.
        -11    1    1    2    0    0 -0.61162366032E+01  0.26580731611E+02 -0.74761542996E+01  0.28281381265E+02  0.00000000000E+00 0. -1.
         11    1    1    2    0    0 -0.24495885275E+02 -0.43787501194E+02  0.71652417545E+02  0.87472639129E+02  0.00000000000E+00 0.  1.
</event>
<event>
 7    1  0.2844572E-009  0.1035667E+03  0.7561462E-02  0.1272970E+00
          2   -1    0    0  501    0  0.00000000000E+00  0.00000000000E+00  0.15547914284E+03  0.15547914284E+03  0.00000000000E+00 0. -1.
         -2   -1    0    0    0  501 -0.00000000000E+00 -0.00000000000E+00 -0.10761568623E+03  0.10761568623E+03  0.00000000000E+00 0.  1.
         25    2    1    2    0    0  0.52018896459E+02  0.13456573526E+02 -0.21651346403E+02  0.13784934598E+03  0.12508643582E+03 0.  0.
          5    1    3    3  502    0 -0.21389711969E+02  0.44831471861E+02  0.11743262211E+02  0.51212862200E+02  0.41800000000E+01 0.  1.
         -5    1    3    3    0  502  0.73408608428E+02 -0.31374898335E+02 -0.33394608615E+02  0.86636483778E+02  0.41800000000E+01 0.  1.
        -11    1    1    2    0    0 -0.18951302664E+01 -0.25680632342E+02 -0.12287830994E+02  0.28532037900E+02  0.00000000000E+00 0.  1.
         11    1    1    2    0    0 -0.50123766192E+02  0.12224058815E+02  0.81802634009E+02  0.96713445198E+02  0.00000000000E+00 0. -1.
</event>
<event>
 7    1  0.2844572E-009  0.1300319E+03  0.7561462E-02  0.1227408E+00
         -1   -1    0    0    0  501 -0.00000000000E+00  0.00000000000E+00  0.28312593288E+03  0.28312593288E+03  0.00000000000E+00 0.  1.
          1   -1    0    0  501    0  0.00000000000E+00 -0.00000000000E+00 -0.92722451175E+02  0.92722451175E+02  0.00000000000E+00 0. -1.
         25    2    1    2    0    0 -0.76463010356E+01 -0.11711970339E+03  0.97234109545E+02  0.19717393748E+03  0.12509036221E+03 0.  0.
          5    1    3    3  502    0 -0.34671486993E+02 -0.99105716707E+02  0.11873195595E+02  0.10574734166E+03  0.41800000000E+01 0. -1.
         -5    1    3    3    0  502  0.27025185958E+02 -0.18013986686E+02  0.85360913950E+02  0.91426595817E+02  0.41800000000E+01 0. -1.
        -11    1    1    2    0    0 -0.11500402884E+02  0.76175668217E+02  0.10659783584E+03  0.13152220459E+03  0.00000000000E+00 0.  1.
         11    1    1    2    0    0  0.19146703920E+02  0.40944035176E+02 -0.13428463681E+02  0.47152241986E+02  0.00000000000E+00 0. -1.
</event>
<event>
 7    1  0.2844572E-009  0.1401827E+03  0.7561462E-02  0.1213083E+00
          1   -1    0    0  501    0  0.00000000000E+00  0.00000000000E+00  0.22091854545E+03  0.22091854545E+03  0.00000000000E+00 0. -1.
         -1   -1    0    0    0  501 -0.00000000000E+00 -0.00000000000E+00 -0.15881714774E+03  0.15881714774E+03  0.00000000000E+00 0.  1.
         25    2    1    2    0    0  0.17585249316E+02 -0.10320841151E+03 -0.80774619046E+02  0.18202594713E+03  0.12509072366E+03 0.  0.
          5    1    3    3  502    0 -0.39674452229E+02 -0.59384812314E+02 -0.83238365590E+02  0.10975753277E+03  0.41800000000E+01 0.  1.
         -5    1    3    3    0  502  0.57259701545E+02 -0.43823599198E+02  0.24637465440E+01  0.72268414364E+02  0.41800000000E+01 0.  1.
        -11    1    1    2    0    0 -0.18894210803E+02  0.11913196572E+03  0.12800661380E+03  0.17588379583E+03  0.00000000000E+00 0.  1.
         11    1    1    2    0    0  0.13089614875E+01 -0.15923554212E+02  0.14869402958E+02  0.21825950225E+02  0.00000000000E+00 0. -1.
</event>
<event>
 7    1  0.3458914E-009  0.9428409E+02  0.7561462E-02  0.1292797E+00
          1   -1    0    0  501    0  0.00000000000E+00  0.00000000000E+00  0.18219158582E+03  0.18219158582E+03  0.00000000000E+00 0. -1.
         -1   -1    0    0    0  501 -0.00000000000E+00 -0.00000000000E+00 -0.90641679488E+02  0.90641679488E+02  0.00000000000E+00 0.  1.
         25    2    1    2    0    0  0.15779987295E+02  0.48731914309E+02  0.10004831516E+03  0.16816791004E+03  0.12508786164E+03 0.  0.
          5    1    3    3  502    0  0.52645207583E+02 -0.89831203487E+01  0.80733506730E+02  0.96889554863E+02  0.41800000000E+01 0. -1.
         -5    1    3    3    0  502 -0.36865220289E+02  0.57715034658E+02  0.19314808432E+02  0.71278355181E+02  0.41800000000E+01 0. -1.
        -11    1    1    2    0    0  0.14643362478E+02 -0.15009591003E+02 -0.42859295095E+02  0.47714097107E+02  0.00000000000E+00 0.  1.
         11    1    1    2    0    0 -0.30423349772E+02 -0.33722323306E+02  0.34360886262E+02  0.56951258153E+02  0.00000000000E+00 0. -1.
</event>
<event>
 7    1  0.2844572E-009  0.2356432E+03  0.7561462E-02  0.1122730E+00
          1   -1    0    0  501    0  0.00000000000E+00  0.00000000000E+00  0.26513820393E+03  0.26513820393E+03  0.00000000000E+00 0. -1.
         -1   -1    0    0    0  501 -0.00000000000E+00 -0.00000000000E+00 -0.32259215037E+03  0.32259215037E+03  0.00000000000E+00 0.  1.
         25    2    1    2    0    0  0.22011581297E+03  0.57391376664E+02 -0.18056478980E+03  0.31620500645E+03  0.12504887667E+03 0.  0.
          5    1    3    3  502    0  0.68496091574E+02 -0.56107280683E+01 -0.12519892120E+03  0.14288259901E+03  0.41800000000E+01 0. -1.
         -5    1    3    3    0  502  0.15161972139E+03  0.63002104733E+02 -0.55365868598E+02  0.17332240744E+03  0.41800000000E+01 0. -1.
        -11    1    1    2    0    0 -0.46339971709E+02 -0.43999710066E+02  0.12540976378E+02  0.65120223835E+02  0.00000000000E+00 0.  1.
         11    1    1    2    0    0 -0.17377584126E+03 -0.13391666598E+02  0.11056986698E+03  0.20640512402E+03  0.00000000000E+00 0. -1.
</event>
<event>
 7    1  0.2844572E-009  0.1332682E+03  0.7561462E-02  0.1222685E+00
          2   -1    0    0  501    0  0.00000000000E+00  0.00000000000E+00  0.30642025673E+03  0.30642025673E+03  0.00000000000E+00 0. -1.
         -2   -1    0    0    0  501 -0.00000000000E+00 -0.00000000000E+00 -0.67420175405E+02  0.67420175405E+02  0.00000000000E+00 0.  1.
         25    2    1    2    0    0 -0.86233252982E+02 -0.37429423030E+02  0.10808132154E+03  0.19016556158E+03  0.12507690880E+03 0.  0.
          5    1    3    3  502    0  0.17663613295E+02  0.13317770996E+02 -0.10188716884E+02  0.24711305321E+02  0.41800000000E+01 0. -1.
         -5    1    3    3    0  502 -0.10389686628E+03 -0.50747194026E+02  0.11827003843E+03  0.16545425626E+03  0.41800000000E+01 0. -1.
        -11    1    1    2    0    0  0.78859915047E+02  0.63486610551E+02  0.10965761854E+03  0.14924553335E+03  0.00000000000E+00 0. -1.
         11    1    1    2    0    0  0.73733379345E+01 -0.26057187520E+02  0.21261141238E+02  0.34429337207E+02  0.00000000000E+00 0.  1.
</event>
<event>
 7    1  0.2844572E-009  0.3473709E+03  0.7561462E-02  0.1063699E+00
         -2   -1    0    0    0  501 -0.00000000000E+00  0.00000000000E+00  0.13642412299E+03  0.13642412299E+03  0.00000000000E+00 0.  1.
          2   -1    0    0  501    0  0.00000000000E+00 -0.00000000000E+00 -0.11282721462E+04  0.11282721462E+04  0.00000000000E+00 0. -1.
         25    2    1    2    0    0 -0.10663309128E+03 -0.32281073776E+03 -0.23976257296E+03  0.43440715476E+03  0.12508435611E+03 0.  0.
          5    1    3    3  502    0  0.36580199442E+01 -0.28433977493E+02  0.12275606537E+02  0.31464823245E+02  0.41800000000E+01 0.  1.
         -5    1    3    3    0  502 -0.11029111122E+03 -0.29437676027E+03 -0.25203817950E+03  0.40294233151E+03  0.41800000000E+01 0.  1.
        -11    1    1    2    0    0 -0.31543230503E+01  0.12586092565E+03 -0.28855823199E+03  0.31482816838E+03  0.00000000000E+00 0.  1.
         11    1    1    2    0    0  0.10978741433E+03  0.19694981212E+03 -0.46352721831E+03  0.51546094610E+03  0.00000000000E+00 0. -1.
</event>
<event>
 7    1  0.2844572E-009  0.1485317E+03  0.7561462E-02  0.1202289E+00
          1   -1    0    0  501    0  0.00000000000E+00  0.00000000000E+00  0.49741044792E+02  0.49741044792E+02  0.00000000000E+00 0. -1.
         -1   -1    0    0    0  501 -0.00000000000E+00 -0.00000000000E+00 -0.75595047240E+03  0.75595047240E+03  0.00000000000E+00 0.  1.
         25    2    1    2    0    0  0.11908120518E+03 -0.64193686128E+02 -0.54268854640E+03  0.57311376731E+03  0.12508944447E+03 0.  0.
          5    1    3    3  502    0 -0.21869366896E+01 -0.37099100285E+02 -0.28002777509E+03  0.28251398754E+03  0.41800000000E+01 0. -1.
         -5    1    3    3    0  502  0.12126814187E+03 -0.27094585843E+02 -0.26266077131E+03  0.29059977976E+03  0.41800000000E+01 0. -1.
        -11    1    1    2    0    0 -0.34862243703E+02  0.20810176368E+02 -0.12302090350E+03  0.12954760582E+03  0.00000000000E+00 0.  1.
         11    1    1    2    0    0 -0.84218961481E+02  0.43383509760E+02 -0.40499977716E+02  0.10303014407E+03  0.00000000000E+00 0. -1.
</event>
<event>
 7    1  0.2844572E-009  0.1207030E+03  0.7561462E-02  0.1241942E+00
          2   -1    0    0  501    0  0.00000000000E+00  0.00000000000E+00  0.66760071584E+03  0.66760071584E+03  0.00000000000E+00 0.  1.
         -2   -1    0    0    0  501 -0.00000000000E+00 -0.00000000000E+00 -0.32495890944E+02  0.32495890944E+02  0.00000000000E+00 0. -1.
         25    2    1    2    0    0  0.72670112825E+02 -0.48075315337E+02  0.23695539540E+03  0.28175685055E+03  0.12508749811E+03 0.  0.
          5    1    3    3  502    0  0.24136980533E+02 -0.58546983008E+02  0.22024050206E+03  0.22920229972E+03  0.41800000000E+01 0. -1.
         -5    1    3    3    0  502  0.48533132292E+02  0.10471667671E+02  0.16714893331E+02  0.52554550830E+02  0.41800000000E+01 0. -1.
        -11    1    1    2    0    0  0.22502858472E+02  0.16269940686E+02  0.98163562084E+02  0.10201556024E+03  0.00000000000E+00 0.  1.
         11    1    1    2    0    0 -0.95172971296E+02  0.31805374651E+02  0.29998586742E+03  0.31632419600E+03  0.00000000000E+00 0. -1.
</event>
<event>
 7    1  0.2844572E-009  0.1140090E+03  0.7561462E-02  0.1253321E+00
          2   -1    0    0  501    0  0.00000000000E+00  0.00000000000E+00  0.87660266877E+03  0.87660266877E+03  0.00000000000E+00 0.  1.
         -2   -1    0    0    0  501 -0.00000000000E+00 -0.00000000000E+00 -0.34106781195E+02  0.34106781195E+02  0.00000000000E+00 0. -1.
         25    2    1    2    0    0  0.51651653627E+01  0.46916177130E+02  0.69418181684E+03  0.70694060028E+03  0.12509520728E+03 0.  0.
          5    1    3    3  502    0 -0.38644171493E+02 -0.41080100703E+01  0.79625248181E+02  0.88701185364E+02  0.41800000000E+01 0.  1.
         -5    1    3    3    0  502  0.43809336855E+02  0.51024187200E+02  0.61455656866E+03  0.61823941492E+03  0.41800000000E+01 0.  1.
        -11    1    1    2    0    0  0.27638139037E+02  0.28260688599E+02  0.66662228267E+01  0.40087052477E+02  0.00000000000E+00 0. -1.
         11    1    1    2    0    0 -0.32803304400E+02 -0.75176865729E+02  0.14164784791E+03  0.16368179721E+03  0.00000000000E+00 0.  1.
</event>
<event>
 7    1  0.2844572E-009  0.1010599E+03  0.7561462E-02  0.1278083E+00
          4   -1    0    0  501    0  0.00000000000E+00  0.00000000000E+00  0.19388438385E+03  0.19388438385E+03  0.00000000000E+00 0. -1.
         -4   -1    0    0    0  501 -0.00000000000E+00 -0.00000000000E+00 -0.83871059682E+02  0.83871059682E+02  0.00000000000E+00 0.  1.
         25    2    1    2    0    0 -0.43019065049E+02 -0.50060510108E+02  0.78731710232E+02  0.16187698560E+03  0.12509509040E+03 0.  0.
          5    1    3    3  502    0  0.10824585454E+02 -0.60171854583E+02  0.86894948695E+02  0.10632980882E+03  0.41800000000E+01 0.  1.
         -5    1    3    3    0  502 -0.53843650503E+02  0.10111344475E+02 -0.81632384633E+01  0.55547176785E+02  0.41800000000E+01 0.  1.
        -11    1    1    2    0    0 -0.10807788228E+02 -0.20225952558E+01 -0.21568816967E+02  0.24209771649E+02  0.00000000000E+00 0.  1.
         11    1    1    2    0    0  0.53826853277E+02  0.52083105364E+02  0.52850430906E+02  0.91668686284E+02  0.00000000000E+00 0. -1.
</event>
<event>
 7    1  0.2844572E-009  0.9460089E+02  0.7561462E-02  0.1292078E+00
          4   -1    0    0  501    0  0.00000000000E+00  0.00000000000E+00  0.24737184708E+02  0.24737184708E+02  0.00000000000E+00 0. -1.
         -4   -1    0    0    0  501 -0.00000000000E+00 -0.00000000000E+00 -0.53916527935E+03  0.53916527935E+03  0.00000000000E+00 0.  1.
         25    2    1    2    0    0 -0.40191480752E+02  0.71390718883E+01 -0.29270887061E+03  0.32092218512E+03  0.12508494912E+03 0.  0.
          5    1    3    3  502    0 -0.67991564497E+01 -0.35720456598E+02 -0.24728787093E+03  0.24998188546E+03  0.41800000000E+01 0.  1.
         -5    1    3    3    0  502 -0.33392324303E+02  0.42859528487E+02 -0.45420999681E+02  0.70940299664E+02  0.41800000000E+01 0.  1.
        -11    1    1    2    0    0  0.16218000159E+02 -0.48037278943E+02 -0.94984242438E+02  0.10766898350E+03  0.00000000000E+00 0.  1.
         11    1    1    2    0    0  0.23973480594E+02  0.40898207054E+02 -0.12673498160E+03  0.13531129543E+03  0.00000000000E+00 0. -1.
</event>
<event>
 7    1  0.2844572E-009  0.1544101E+03  0.7561462E-02  0.1195156E+00
          1   -1    0    0  501    0  0.00000000000E+00  0.00000000000E+00  0.13893268791E+04  0.13893268791E+04  0.00000000000E+00 0. -1.
         -1   -1    0    0    0  501 -0.00000000000E+00 -0.00000000000E+00 -0.18471263255E+02  0.18471263255E+02  0.00000000000E+00 0.  1.
         25    2    1    2    0    0  0.76067637663E+02  0.89654106457E+02  0.79408139205E+03  0.81242663752E+03  0.12509052658E+03 0.  0.
          5    1    3    3  502    0  0.10481390313E+03  0.67702340691E+02  0.70859273230E+03  0.71950725771E+03  0.41800000000E+01 0.  1.
         -5    1    3    3    0  502 -0.28746265464E+02  0.21951765767E+02  0.85488659751E+02  0.92919379811E+02  0.41800000000E+01 0.  1.
        -11    1    1    2    0    0  0.11588560848E+02  0.96675212513E+01  0.65259517358E+02  0.66981790925E+02  0.00000000000E+00 0.  1.
         11    1    1    2    0    0 -0.87656198510E+02 -0.99321627709E+02  0.51151470639E+03  0.52838971387E+03  0.00000000000E+00 0. -1.
</event>
<event>
 7    1  0.2844572E-009  0.1171578E+03  0.7561462E-02  0.1247861E+00
          2   -1    0    0  501    0  0.00000000000E+00  0.00000000000E+00  0.13483734915E+03  0.13483734915E+03  0.00000000000E+00 0. -1.
         -2   -1    0    0    0  501 -0.00000000000E+00 -0.00000000000E+00 -0.15955373835E+03  0.15955373835E+03  0.00000000000E+00 0.  1.
         25    2    1    2    0    0 -0.67969717251E+02  0.60597206277E+01  0.60845325174E+02  0.15494006611E+03  0.12509063839E+03 0.  0.
          5    1    3    3  502    0 -0.62761287540E+02 -0.42651166254E+02 -0.91036672013E+00  0.76002647086E+02  0.41800000000E+01 0. -1.
         -5    1    3    3    0  502 -0.52084297108E+01  0.48710886882E+02  0.61755691894E+02  0.78937419025E+02  0.41800000000E+01 0. -1.
        -11    1    1    2    0    0  0.29980509215E+02 -0.45437011312E+02 -0.51885416726E+02  0.75202722016E+02  0.00000000000E+00 0.  1.
         11    1    1    2    0    0  0.37989208036E+02  0.39377290685E+02 -0.33676297650E+02  0.64248299373E+02  0.00000000000E+00 0. -1.
</event>
<event>
 7    1  0.2844572E-009  0.1049082E+03  0.7561462E-02  0.1270301E+00
         -2   -1    0    0    0  501 -0.00000000000E+00  0.00000000000E+00  0.43168876678E+02  0.43168876678E+02  0.00000000000E+00 0.  1.
          2   -1    0    0  501    0  0.00000000000E+00 -0.00000000000E+00 -0.27841575572E+03  0.27841575572E+03  0.00000000000E+00 0. -1.
         25    2    1    2    0    0  0.27202119447E+01  0.48542594069E+01 -0.10668481120E+03  0.16450205232E+03  0.12509321680E+03 0.  0.
          5    1    3    3  502    0 -0.54825106333E+02  0.25458622630E+02 -0.34139666478E+02  0.69547990466E+02  0.41800000000E+01 0. -1.
         -5    1    3    3    0  502  0.57545318278E+02 -0.20604363223E+02 -0.72545144718E+02  0.94954061849E+02  0.41800000000E+01 0. -1.
        -11    1    1    2    0    0  0.14018427644E+02 -0.43575230694E+02 -0.49167285217E+02  0.67176922967E+02  0.00000000000E+00 0.  1.
         11    1    1    2    0    0 -0.16738639589E+02  0.38720971287E+02 -0.79394782632E+02  0.89905657118E+02  0.00000000000E+00 0. -1.
</event>
<event>
 7    1  0.2844572E-009  0.1092135E+03  0.7561462E-02  0.1262033E+00
         -3   -1    0    0    0  501 -0.00000000000E+00  0.00000000000E+00  0.30357644249E+03  0.30357644249E+03  0.00000000000E+00 0.  1.
          3   -1    0    0  501    0  0.00000000000E+00 -0.00000000000E+00 -0.45512960731E+02  0.45512960731E+02  0.00000000000E+00 0. -1.
         25    2    1    2    0    0  0.28939266174E+01  0.43407900946E+02  0.16586534770E+03  0.21225181395E+03  0.12508756246E+03 0.  0.
          5    1    3    3  502    0  0.54977960838E+02  0.39552946209E+00  0.11518300497E+03  0.12770015527E+03  0.41800000000E+01 0.  1.
         -5    1    3    3    0  502 -0.52084034221E+02  0.43012371484E+02  0.50682342730E+02  0.84551658682E+02  0.41800000000E+01 0.  1.
        -11    1    1    2    0    0 -0.55535181673E+01  0.25780395193E+02  0.47782124216E+02  0.54576567636E+02  0.00000000000E+00 0.  1.
         11    1    1    2    0    0  0.26595915499E+01 -0.69188296139E+02  0.44416009840E+02  0.82261021632E+02  0.00000000000E+00 0. -1.
</event>
<event>
 7    1  0.2844572E-009  0.1911734E+03  0.7561462E-02  0.1157407E+00
         -2   -1    0    0    0  501 -0.00000000000E+00  0.00000000000E+00  0.22945278677E+02  0.22945278677E+02  0.00000000000E+00 0.  1.
          2   -1    0    0  501    0  0.00000000000E+00 -0.00000000000E+00 -0.20502002687E+04  0.20502002687E+04  0.00000000000E+00 0. -1.
         25    2    1    2    0    0  0.45443044337E+02 -0.17035662685E+03 -0.13759301680E+04  0.13928093873E+04  0.12509081372E+03 0.  0.
          5    1    3    3  502    0 -0.98499523223E+01 -0.46481216004E+01 -0.89441739772E+01  0.14700246369E+02  0.41800000000E+01 0.  1.
         -5    1    3    3    0  502  0.55292996659E+02 -0.16570850525E+03 -0.13669859940E+04  0.13781091410E+04  0.41800000000E+01 0.  1.
        -11    1    1    2    0    0 -0.69228702345E+02  0.14756902734E+03 -0.52035751609E+03  0.54528999221E+03  0.00000000000E+00 0.  1.
         11    1    1    2    0    0  0.23785658008E+02  0.22787599507E+02 -0.13096730598E+03  0.13504616786E+03  0.00000000000E+00 0. -1.
</event>
<event>
 7    1  0.2844572E-009  0.2579006E+03  0.7561462E-02  0.1108411E+00
          2   -1    0    0  501    0  0.00000000000E+00  0.00000000000E+00  0.72367754821E+03  0.72367754821E+03  0.00000000000E+00 0. -1.
         -2   -1    0    0    0  501 -0.00000000000E+00 -0.00000000000E+00 -0.10720889377E+03  0.10720889377E+03  0.00000000000E+00 0.  1.
         25    2    1    2    0    0  0.18279698430E+03  0.16047010676E+03  0.19519329166E+03  0.33602449062E+03  0.12508654826E+03 0.  0.
          5    1    3    3  502    0  0.19466935843E+03  0.16026913254E+03  0.16003900152E+03  0.29868429548E+03  0.41800000000E+01 0. -1.
         -5    1    3    3    0  502 -0.11872374131E+02  0.20097422161E+00  0.35154290141E+02  0.37340195145E+02  0.41800000000E+01 0. -1.
        -11    1    1    2    0    0 -0.65220113772E+02 -0.98443895084E+02  0.26212364158E+03  0.28749550813E+03  0.00000000000E+00 0. -1.
         11    1    1    2    0    0 -0.11757687053E+03 -0.62026211681E+02  0.15915172119E+03  0.20736644323E+03  0.00000000000E+00 0.  1.
</event>
<event>
 7    1  0.2844572E-009  0.1061085E+03  0.7561462E-02  0.1267951E+00
         -3   -1    0    0    0  501 -0.00000000000E+00  0.00000000000E+00  0.13566731871E+03  0.13566731871E+03  0.00000000000E+00 0.  1.
          3   -1    0    0  501    0  0.00000000000E+00 -0.00000000000E+00 -0.13633065269E+03  0.13633065269E+03  0.00000000000E+00 0. -1.
         25    2    1    2    0    0 -0.14011914382E+02 -0.37029857675E+01  0.80087157208E+02  0.14923179962E+03  0.12508449712E+03 0.  0.
          5    1    3    3  502    0 -0.59409278131E+02  0.29473597288E+02  0.26796320330E+02  0.71649636763E+02  0.41800000000E+01 0.  1.
         -5    1    3    3    0  502  0.45397363749E+02 -0.33176583055E+02  0.53290836877E+02  0.77582162857E+02  0.41800000000E+01 0.  1.
        -11    1    1    2    0    0 -0.17312639235E+02  0.38711599476E+02 -0.22736130293E+02  0.48117013956E+02  0.00000000000E+00 0.  1.
         11    1    1    2    0    0  0.31324553618E+02 -0.35008613709E+02 -0.58014360901E+02  0.74649157825E+02  0.00000000000E+00 0. -1.
</event>
<event>
 7    1  0.2844572E-009  0.1392463E+03  0.7561462E-02  0.1214347E+00
         -1   -1    0    0    0  501 -0.00000000000E+00  0.00000000000E+00  0.11276776507E+04  0.11276776507E+04  0.00000000000E+00 0.  1.
          1   -1    0    0  501    0  0.00000000000E+00 -0.00000000000E+00 -0.23419887431E+02  0.23419887431E+02  0.00000000000E+00 0. -1.
         25    2    1    2    0    0 -0.11165132885E+03  0.21181699355E+02  0.45038627112E+03  0.48105065102E+03  0.12508897638E+03 0.  0.
          5    1    3    3  502    0 -0.15063323909E+02 -0.22861877710E+02  0.27214073787E+03  0.27354638142E+03  0.41800000000E+01 0.  1.
         -5    1    3    3    0  502 -0.96588004936E+02  0.44043577065E+02  0.17824553325E+03  0.20750426960E+03  0.41800000000E+01 0.  1.
        -11    1    1    2    0    0  0.75386199236E+01 -0.38311804641E+02  0.13384591119E+03  0.13942508062E+03  0.00000000000E+00 0.  1.
         11    1    1    2    0    0  0.10411270892E+03  0.17130105286E+02  0.52002558096E+03  0.53062180649E+03  0.00000000000E+00 0. -1.
</event>
<event>
 7    1  0.2844572E-009  0.2311999E+03  0.7561462E-02  0.1125798E+00
          2   -1    0    0  501    0  0.00000000000E+00  0.00000000000E+00  0.31440304314E+03  0.31440304314E+03  0.00000000000E+00 0.  1.
         -2   -1    0    0    0  501 -0.00000000000E+00 -0.00000000000E+00 -0.24227760737E+03  0.24227760737E+03  0.00000000000E+00 0. -1.
         25    2    1    2    0    0  0.10853850119E+03  0.19630661326E+03  0.15621358556E+03  0.30061000438E+03  0.12508716069E+03 0.  0.
          5    1    3    3  502    0  0.20549537552E+01  0.19408795439E+02  0.76799327623E+02  0.79350698162E+02  0.41800000000E+01 0. -1.
         -5    1    3    3    0  502  0.10648354744E+03  0.17689781782E+03  0.79414257938E+02  0.22125930622E+03  0.41800000000E+01 0. -1.
        -11    1    1    2    0    0 -0.11522541584E+03 -0.15005722439E+03 -0.43395988368E+02  0.19410635965E+03  0.00000000000E+00 0.  1.
         11    1    1    2    0    0  0.66869146511E+01 -0.46249388867E+02 -0.40692161429E+02  0.61964286487E+02  0.00000000000E+00 0. -1.
</event>
<event>
 7    1  0.2844572E-009  0.8901334E+02  0.7561462E-02  0.1305259E+00
         -2   -1    0    0    0  501 -0.00000000000E+00  0.00000000000E+00  0.28522590904E+02  0.28522590904E+02  0.00000000000E+00 0.  1.
          2   -1    0    0  501    0  0.00000000000E+00 -0.00000000000E+00 -0.41969290209E+03  0.41969290209E+03  0.00000000000E+00 0. -1.
         25    2    1    2    0    0  0.88602216518E+01 -0.45181135915E+01 -0.24192085367E+03  0.27252835780E+03  0.12508832673E+03 0.  0.
          5    1    3    3  502    0 -0.21459338927E+02  0.31693321353E+02 -0.16014708115E+02  0.41700277236E+02  0.41800000000E+01 0. -1.
         -5    1    3    3    0  502  0.30319560579E+02 -0.36211434945E+02 -0.22590614556E+03  0.23082808056E+03  0.41800000000E+01 0. -1.
        -11    1    1    2    0    0  0.29954415997E+02  0.32547663365E+02 -0.61952324432E+02  0.76122978993E+02  0.00000000000E+00 0.  1.
         11    1    1    2    0    0 -0.38814637649E+02 -0.28029549773E+02 -0.87297133080E+02  0.99564156202E+02  0.00000000000E+00 0. -1.
</event>
<event>
 7    1  0.2844572E-009  0.1074845E+03  0.7561462E-02  0.1265300E+00
          2   -1    0    0  501    0  0.00000000000E+00  0.00000000000E+00  0.31554226219E+03  0.31554226219E+03  0.00000000000E+00 0.  1.
         -2   -1    0    0    0  501 -0.00000000000E+00 -0.00000000000E+00 -0.42646870850E+02  0.42646870850E+02  0.00000000000E+00 0. -1.
         25    2    1    2    0    0 -0.19601977684E+02  0.28045277258E+02  0.19369880793E+03  0.23310364635E+03  0.12508919474E+03 0.  0.
          5    1    3    3  502    0  0.93254828227E+01 -0.43721562004E+02  0.11118052244E+03  0.11990463121E+03  0.41800000000E+01 0.  1.
         -5    1    3    3    0  502 -0.28927460507E+02  0.71766839262E+02  0.82518285493E+02  0.11319901514E+03  0.41800000000E+01 0.  1.
        -11    1    1    2    0    0  0.49227980132E+02 -0.37052215926E+02  0.34215502500E+02  0.70476672340E+02  0.00000000000E+00 0.  1.
         11    1    1    2    0    0 -0.29626002448E+02  0.90069386674E+01  0.44981080905E+02  0.54608814349E+02  0.00000000000E+00 0. -1.
</event>
<event>
 7    1  0.2844572E-009  0.6839656E+02  0.7561462E-02  0.1365632E+00
          1   -1    0    0  501    0  0.00000000000E+00  0.00000000000E+00  0.20802140152E+03  0.20802140152E+03  0.00000000000E+00 0. -1.
         -1   -1    0    0    0  501 -0.00000000000E+00 -0.00000000000E+00 -0.59852720383E+02  0.59852720383E+02  0.00000000000E+00 0.  1.
         25    2    1    2    0    0  0.21637019263E+02 -0.15240891075E+02  0.65108263583E+02  0.14348275194E+03  0.12509104186E+03 0.  0.
          5    1    3    3  502    0 -0.10714137644E+02  0.29060868396E+02 -0.23556076245E+02  0.39136785068E+02  0.41800000000E+01 0.  1.
         -5    1    3    3    0  502  0.32351156907E+02 -0.44301759472E+02  0.88664339828E+02  0.10434596687E+03  0.41800000000E+01 0.  1.
        -11    1    1    2    0    0  0.11966094739E+02  0.11698438493E+02  0.88586409171E+02  0.90153162875E+02  0.00000000000E+00 0. -1.
         11    1    1    2    0    0 -0.33603114002E+02  0.35424525823E+01 -0.55259916211E+01  0.34238207084E+02  0.00000000000E+00 0.  1.
</event>
<event>
 7    1  0.2844572E-009  0.1336537E+03  0.7561462E-02  0.1222133E+00
         -2   -1    0    0    0  501 -0.00000000000E+00  0.00000000000E+00  0.24054310007E+02  0.24054310007E+02  0.00000000000E+00 0.  1.
          2   -1    0    0  501    0  0.00000000000E+00 -0.00000000000E+00 -0.13141033310E+04  0.13141033310E+04  0.00000000000E+00 0. -1.
         25    2    1    2    0    0  0.11328013829E+03 -0.70082372436E+02 -0.80523769613E+03  0.82571112318E+03  0.12508870060E+03 0.  0.
          5    1    3    3  502    0  0.34190439152E+02 -0.27780521988E+02 -0.57275637973E+02  0.72378965429E+02  0.41800000000E+01 0.  1.
         -5    1    3    3    0  502  0.79089699141E+02 -0.42301850447E+02 -0.74796205815E+03  0.75333215775E+03  0.41800000000E+01 0.  1.
        -11    1    1    2    0    0 -0.84701289338E+02  0.50336685115E+02 -0.45823790227E+03  0.46871106810E+03  0.00000000000E+00 0.  1.
         11    1    1    2    0    0 -0.28578848955E+02  0.19745687320E+02 -0.26573422624E+02  0.43735449755E+02  0.00000000000E+00 0. -1.
</event>
<event>
 7    1  0.2844572E-009  0.1488787E+03  0.7561462E-02  0.1201858E+00
         -2   -1    0    0    0  501 -0.00000000000E+00  0.00000000000E+00  0.71533416450E+02  0.71533416450E+02  0.00000000000E+00 0.  1.
          2   -1    0    0  501    0  0.00000000000E+00 -0.00000000000E+00 -0.12647759788E+04  0.12647759788E+04  0.00000000000E+00 0. -1.
         25    2    1    2    0    0 -0.47557964058E+01 -0.12831051717E+03 -0.11625108608E+04  0.11762507050E+04  0.12509201841E+03 0.  0.
          5    1    3    3  502    0 -0.21658171682E+01  0.63024831651E+01 -0.22296928754E+01  0.81765511294E+01  0.41800000000E+01 0.  1.
         -5    1    3    3    0  502 -0.25899792377E+01 -0.13461300034E+03 -0.11602811679E+04  0.11680741539E+04  0.41800000000E+01 0.  1.
        -11    1    1    2    0    0 -0.38242994361E+02  0.32562275535E+02  0.15338736997E+01  0.50251180824E+02  0.00000000000E+00 0.  1.
         11    1    1    2    0    0  0.42998790766E+02  0.95748241639E+02 -0.32265575248E+02  0.10980750944E+03  0.00000000000E+00 0. -1.
</event>
<event>
 7    1  0.2844572E-009  0.1282371E+03  0.7561462E-02  0.1230095E+00
          1   -1    0    0  501    0  0.00000000000E+00  0.00000000000E+00  0.12087514708E+03  0.12087514708E+03  0.00000000000E+00 0. -1.
         -1   -1    0    0    0  501 -0.00000000000E+00 -0.00000000000E+00 -0.20846631530E+03  0.20846631530E+03  0.00000000000E+00 0.  1.
         25    2    1    2    0    0  0.93103586796E+02  0.84599615896E+01  0.23203352473E+02  0.15788113911E+03  0.12509280433E+03 0.  0.
          5    1    3    3  502    0 -0.17919521962E+02 -0.17724285031E+01  0.40928915304E+02  0.44909901783E+02  0.41800000000E+01 0.  1.
         -5    1    3    3    0  502  0.11102310876E+03  0.10232390093E+02 -0.17725562831E+02  0.11297123733E+03  0.41800000000E+01 0.  1.
        -11    1    1    2    0    0 -0.70935187344E+02 -0.44764479313E+02 -0.93311715633E+02  0.12547005892E+03  0.00000000000E+00 0.  1.
         11    1    1    2    0    0 -0.22168399451E+02  0.36304517723E+02 -0.17482805060E+02  0.45990264340E+02  0.00000000000E+00 0. -1.
</event>
<event>
 7    1  0.2844572E-009  0.9333456E+02  0.7561462E-02  0.1294972E+00
         -2   -1    0    0    0  501 -0.00000000000E+00  0.00000000000E+00  0.35479760653E+02  0.35479760653E+02  0.00000000000E+00 0.  1.
          2   -1    0    0  501    0  0.00000000000E+00 -0.00000000000E+00 -0.49732050237E+03  0.49732050237E+03  0.00000000000E+00 0. -1.
         25    2    1    2    0    0  0.10406482075E+02 -0.71160322784E+01 -0.40539860175E+03  0.42444446083E+03  0.12508453637E+03 0.  0.
          5    1    3    3  502    0 -0.42824182305E+02  0.89837044363E+01 -0.58937635428E+02  0.73523702337E+02  0.41800000000E+01 0.  1.
         -5    1    3    3    0  502  0.53230664381E+02 -0.16099736715E+02 -0.34646096633E+03  0.35092075849E+03  0.41800000000E+01 0.  1.
        -11    1    1    2    0    0 -0.23915770698E+02 -0.35182356970E+02 -0.46168012899E+02  0.62779357635E+02  0.00000000000E+00 0.  1.
         11    1    1    2    0    0  0.13509288623E+02  0.42298389248E+02 -0.10274127068E+02  0.45576444564E+02  0.00000000000E+00 0. -1.
</event>
<event>
 7    1  0.2844572E-009  0.1448347E+03  0.7561462E-02  0.1206968E+00
          4   -1    0    0  501    0  0.00000000000E+00  0.00000000000E+00  0.65593307440E+02  0.65593307440E+02  0.00000000000E+00 0. -1.
         -4   -1    0    0    0  501 -0.00000000000E+00 -0.00000000000E+00 -0.51037054332E+03  0.51037054332E+03  0.00000000000E+00 0.  1.
         25    2    1    2    0    0  0.13360654555E+02 -0.10570445940E+03 -0.39386710093E+03  0.42676638508E+03  0.12508522861E+03 0.  0.
          5    1    3    3  502    0  0.67493420229E+02 -0.49100744748E+02 -0.16736957165E+03  0.18707295589E+03  0.41800000000E+01 0.  1.
         -5    1    3    3    0  502 -0.54132765673E+02 -0.56603714648E+02 -0.22649752928E+03  0.23969342920E+03  0.41800000000E+01 0.  1.
        -11    1    1    2    0    0 -0.16928897827E+02  0.11576312420E+03 -0.63156711500E+02  0.13295284395E+03  0.00000000000E+00 0.  1.
         11    1    1    2    0    0  0.35682432720E+01 -0.10058664807E+02  0.12246576552E+02  0.16244621725E+02  0.00000000000E+00 0. -1.
</event>
<event>
 7    1  0.3973571E-009  0.9178086E+02  0.7561462E-02  0.1298596E+00
         -1   -1    0    0    0  501 -0.00000000000E+00  0.00000000000E+00  0.12371122679E+02  0.12371122679E+02  0.00000000000E+00 0.  1.
          1   -1    0    0  501    0  0.00000000000E+00 -0.00000000000E+00 -0.11854452074E+04  0.11854452074E+04  0.00000000000E+00 0. -1.
         25    2    1    2    0    0  0.32741243469E+02  0.26283790797E+02 -0.82946574563E+03  0.83989528429E+03  0.12509132150E+03 0.  0.
          5    1    3    3  502    0 -0.88303721952E+01  0.39831370392E+02 -0.73014528508E+03  0.73129619393E+03  0.41800000000E+01 0. -1.
         -5    1    3    3    0  502  0.41571615664E+02 -0.13547579595E+02 -0.99320460554E+02  0.10859909036E+03  0.41800000000E+01 0. -1.
        -11    1    1    2    0    0  0.31015392111E+02 -0.12231150392E+02 -0.87918993456E+02  0.94028213840E+02  0.00000000000E+00 0. -1.
         11    1    1    2    0    0 -0.63756635579E+02 -0.14052640405E+02 -0.25568934560E+03  0.26389283191E+03  0.00000000000E+00 0.  1.
</event>
<event>
 7    1  0.3399494E-009  0.1572943E+03  0.7561462E-02  0.1191786E+00
          1   -1    0    0  501    0  0.00000000000E+00  0.00000000000E+00  0.48129409190E+03  0.48129409190E+03  0.00000000000E+00 0. -1.
         -1   -1    0    0    0  501 -0.00000000000E+00 -0.00000000000E+00 -0.57226202338E+02  0.57226202338E+02  0.00000000000E+00 0.  1.
         25    2    1    2    0    0  0.10591361371E+03  0.58500041778E+02  0.27929247069E+03  0.32907688547E+03  0.12508942365E+03 0.  0.
          5    1    3    3  502    0  0.68078357350E+02  0.94467685012E+02  0.22651296246E+03  0.25472416614E+03  0.41800000000E+01 0.  1.
         -5    1    3    3    0  502  0.37835256357E+02 -0.35967643234E+02  0.52779508230E+02  0.74352719334E+02  0.41800000000E+01 0.  1.
        -11    1    1    2    0    0 -0.45959208692E+02  0.17255096111E+02  0.77417937895E+02  0.91670738588E+02  0.00000000000E+00 0. -1.
         11    1    1    2    0    0 -0.59954405015E+02 -0.75755137890E+02  0.67357480971E+02  0.11777267018E+03  0.00000000000E+00 0.  1.
</event>
<event>
 7    1  0.2844572E-009  0.8739648E+02  0.7561462E-02  0.1309282E+00
         -1   -1    0    0    0  501 -0.00000000000E+00  0.00000000000E+00  0.24868594549E+02  0.24868594549E+02  0.00000000000E+00 0.  1.
          1   -1    0    0  501    0  0.00000000000E+00 -0.00000000000E+00 -0.64061422996E+03  0.64061422996E+03  0.00000000000E+00 0. -1.
         25    2    1    2    0    0  0.80957789373E+01 -0.34324892676E+02 -0.48748071019E+03  0.50450846391E+03  0.12509039713E+03 0.  0.
          5    1    3    3  502    0 -0.68101027267E+01  0.25380003340E+02 -0.37731085659E+03  0.37824790412E+03  0.41800000000E+01 0. -1.
         -5    1    3    3    0  502  0.14905881664E+02 -0.59704896016E+02 -0.11016985360E+03  0.12626055979E+03  0.41800000000E+01 0. -1.
        -11    1    1    2    0    0  0.10705404352E+01  0.59605155372E+02 -0.11797556534E+03  0.13218227802E+03  0.00000000000E+00 0. -1.
         11    1    1    2    0    0 -0.91663193725E+01 -0.25280262696E+02 -0.10289359880E+02  0.28792082585E+02  0.00000000000E+00 0.  1.
</event>
<event>
 7    1  0.2844572E-009  0.9838991E+02  0.7561462E-02  0.1283719E+00
         -1   -1    0    0    0  501 -0.00000000000E+00  0.00000000000E+00  0.41729026962E+02  0.41729026962E+02  0.00000000000E+00 0.  1.
          1   -1    0    0  501    0  0.00000000000E+00 -0.00000000000E+00 -0.41199726974E+03  0.41199726974E+03  0.00000000000E+00 0. -1.
         25    2    1    2    0    0 -0.67777305394E+02  0.61438697100E+01 -0.18784536034E+03  0.23572295690E+03  0.12509165738E+03 0.  0.
          5    1    3    3  502    0 -0.61987904794E+02  0.28186935226E+02 -0.19873616864E+03  0.21012030075E+03  0.41800000000E+01 0.  1.
         -5    1    3    3    0  502 -0.57894006001E+01 -0.22043065516E+02  0.10890808302E+02  0.25602656154E+02  0.41800000000E+01 0.  1.
        -11    1    1    2    0    0  0.20435676631E+01  0.30202904587E+02 -0.13524736206E+02  0.33155845694E+02  0.00000000000E+00 0.  1.
         11    1    1    2    0    0  0.65733737731E+02 -0.36346774297E+02 -0.16889814623E+03  0.18484749410E+03  0.00000000000E+00 0. -1.
</event>
<event>
 7    1  0.2844572E-009  0.1271731E+03  0.7561462E-02  0.1231712E+00
          3   -1    0    0  501    0  0.00000000000E+00  0.00000000000E+00  0.80211178798E+02  0.80211178798E+02  0.00000000000E+00 0. -1.
         -3   -1    0    0    0  501 -0.00000000000E+00 -0.00000000000E+00 -0.22240358772E+03  0.22240358772E+03  0.00000000000E+00 0.  1.
         25    2    1    2    0    0  0.33089932202E+02 -0.62922456461E+02 -0.43713114059E+02  0.15037538468E+03  0.12509093028E+03 0.  0.
          5    1    3    3  502    0  0.30940710180E+02  0.34061447620E+02 -0.20454353151E+02  0.50530809643E+02  0.41800000000E+01 0. -1.
         -5    1    3    3    0  502  0.21492220220E+01 -0.96983904081E+02 -0.23258760908E+02  0.99844575041E+02  0.41800000000E+01 0. -1.
        -11    1    1    2    0    0  0.18128404353E+02 -0.10929452290E+02 -0.39277091668E+02  0.44618179049E+02  0.00000000000E+00 0. -1.
         11    1    1    2    0    0 -0.51218336554E+02  0.73851908752E+02 -0.59202203195E+02  0.10762120278E+03  0.00000000000E+00 0.  1.
</event>
<event>
 7    1  0.2844572E-009  0.1853666E+03  0.7561462E-02  0.1162708E+00
         -1   -1    0    0    0  501 -0.00000000000E+00  0.00000000000E+00  0.41291119238E+02  0.41291119238E+02  0.00000000000E+00 0.  1.
          1   -1    0    0  501    0  0.00000000000E+00 -0.00000000000E+00 -0.92209847280E+03  0.92209847280E+03  0.00000000000E+00 0. -1.
         25    2    1    2    0    0  0.13061749854E+03 -0.92771327409E+02 -0.51588863598E+03  0.55448783911E+03  0.12509288099E+03 0.  0.
          5    1    3    3  502    0  0.98262866727E+02  0.65880817434E+01 -0.24111568793E+03  0.26048654699E+03  0.41800000000E+01 0.  1.
         -5    1    3    3    0  502  0.32354631817E+02 -0.99359409153E+02 -0.27477294805E+03  0.29400129212E+03  0.41800000000E+01 0.  1.
        -11    1    1    2    0    0 -0.83626664350E+02  0.86260986457E+02 -0.16920381944E+03  0.20751941906E+03  0.00000000000E+00 0. -1.
         11    1    1    2    0    0 -0.46990834194E+02  0.65103409528E+01 -0.19571489814E+03  0.20138233387E+03  0.00000000000E+00 0.  1.
</event>
<event>
 7    1  0.2844572E-009  0.1676692E+03  0.7561462E-02  0.1180300E+00
         -1   -1    0    0    0  501 -0.00000000000E+00  0.00000000000E+00  0.26570505724E+03  0.26570505724E+03  0.00000000000E+00 0.  1.
          1   -1    0    0  501    0  0.00000000000E+00 -0.00000000000E+00 -0.12176543113E+03  0.12176543113E+03  0.00000000000E+00 0. -1.
         25    2    1    2    0    0  0.12751034045E+03  0.62063492867E+02  0.95864836254E+02  0.21200929094E+03  0.12508840294E+03 0.  0.
          5    1    3    3  502    0  0.24125354824E+01 -0.31616169603E+02  0.93248794327E+01  0.33314085373E+02  0.41800000000E+01 0. -1.
         -5    1    3    3    0  502  0.12509780496E+03  0.93679662470E+02  0.86539956821E+02  0.17869520557E+03  0.41800000000E+01 0. -1.
        -11    1    1    2    0    0 -0.36823310788E+02 -0.38586727136E+02  0.60850244862E+02  0.80917513730E+02  0.00000000000E+00 0.  1.
         11    1    1    2    0    0 -0.90687029657E+02 -0.23476765731E+02 -0.12775455003E+02  0.94543683701E+02  0.00000000000E+00 0. -1.
</event>
<event>
 7    1  0.2844572E-009  0.1167016E+03  0.7561462E-02  0.1248640E+00
          4   -1    0    0  501    0  0.00000000000E+00  0.00000000000E+00  0.17175303435E+03  0.17175303435E+03  0.00000000000E+00 0. -1.
         -4   -1    0    0    0  501 -0.00000000000E+00 -0.00000000000E+00 -0.11478752580E+03  0.11478752580E+03  0.00000000000E+00 0.  1.
         25    2    1    2    0    0  0.83633316618E+02  0.33896690081E+01  0.61730443801E+02  0.16267786122E+03  0.12508963720E+03 0.  0.
          5    1    3    3  502    0  0.55084358949E+02 -0.58789042243E+02  0.43929840602E+02  0.91857179274E+02  0.41800000000E+01 0.  1.
         -5    1    3    3    0  502  0.28548957669E+02  0.62178711251E+02  0.17800603199E+02  0.70820681945E+02  0.41800000000E+01 0.  1.
        -11    1    1    2    0    0 -0.54978252078E+02  0.20554740614E+01 -0.47119225555E+02  0.72436555634E+02  0.00000000000E+00 0.  1.
         11    1    1    2    0    0 -0.28655064540E+02 -0.54451430695E+01  0.42354290305E+02  0.51426143294E+02  0.00000000000E+00 0. -1.
</event>
<event>
 7    1  0.2844572E-009  0.2764959E+03  0.7561462E-02  0.1097618E+00
         -4   -1    0    0    0  501 -0.00000000000E+00  0.00000000000E+00  0.95630785203E+02  0.95630785203E+02  0.00000000000E+00 0.  1.
          4   -1    0    0  501    0  0.00000000000E+00 -0.00000000000E+00 -0.84139361074E+03  0.84139361074E+03  0.00000000000E+00 0. -1.
         25    2    1    2    0    0  0.45600539199E+02 -0.25470208543E+03 -0.45105423005E+03  0.53483591336E+03  0.12508786624E+03 0.  0.
          5    1    3    3  502    0  0.49165217400E+02 -0.22050042317E+02 -0.99594802374E+02  0.11331381217E+03  0.41800000000E+01 0.  1.
         -5    1    3    3    0  502 -0.35646782005E+01 -0.23265204311E+03 -0.35145942767E+03  0.42152210119E+03  0.41800000000E+01 0.  1.
        -11    1    1    2    0    0 -0.44731903242E+02  0.81043134961E+02 -0.60363938799E+02  0.11051125734E+03  0.00000000000E+00 0. -1.
         11    1    1    2    0    0 -0.86863595709E+00  0.17365895046E+03 -0.23434465669E+03  0.29167722524E+03  0.00000000000E+00 0.  1.
</event>
<event>
 7    1  0.2844572E-009  0.1052911E+03  0.7561462E-02  0.1269547E+00
          1   -1    0    0  501    0  0.00000000000E+00  0.00000000000E+00  0.15473488484E+03  0.15473488484E+03  0.00000000000E+00 0. -1.
         -1   -1    0    0    0  501 -0.00000000000E+00 -0.00000000000E+00 -0.84891028842E+02  0.84891028842E+02  0.00000000000E+00 0.  1.
         25    2    1    2    0    0  0.27133142573E+02  0.14388250955E+02  0.62395629445E+02  0.14312791664E+03  0.12509658970E+03 0.  0.
          5    1    3    3  502    0  0.57838476644E+02  0.51683513295E+02  0.52170924622E+02  0.93572179107E+02  0.41800000000E+01 0. -1.
         -5    1    3    3    0  502 -0.30705334071E+02 -0.37295262340E+02  0.10224704823E+02  0.49555737530E+02  0.41800000000E+01 0. -1.
        -11    1    1    2    0    0 -0.40151784741E+02 -0.39376723795E+02 -0.17464779553E+02  0.58887271286E+02  0.00000000000E+00 0.  1.
         11    1    1    2    0    0  0.13018642167E+02  0.24988472840E+02  0.24913006103E+02  0.37610725755E+02  0.00000000000E+00 0. -1.
</event>
<event>
 7    1  0.2844572E-009  0.1223709E+03  0.7561462E-02  0.1239236E+00
         -2   -1    0    0    0  501 -0.00000000000E+00  0.00000000000E+00  0.37398571230E+02  0.37398571230E+02  0.00000000000E+00 0. -1.
          2   -1    0    0  501    0  0.00000000000E+00 -0.00000000000E+00 -0.43290179163E+03  0.43290179163E+03  0.00000000000E+00 0.  1.
         25    2    1    2    0    0 -0.50916075320E+02 -0.24044428610E+02 -0.15798993801E+03  0.20923434291E+03  0.12509040118E+03 0.  0.
          5    1    3    3  502    0  0.35382465427E+02 -0.34299616303E+02 -0.47205791958E+02  0.68368426431E+02  0.41800000000E+01 0.  1.
         -5    1    3    3    0  502 -0.86298540746E+02  0.10255187693E+02 -0.11078414605E+03  0.14086591648E+03  0.41800000000E+01 0.  1.
        -11    1    1    2    0    0 -0.15780201534E+02 -0.22115490515E+02 -0.64160691878E+02  0.69675706408E+02  0.00000000000E+00 0.  1.
         11    1    1    2    0    0  0.66696276854E+02  0.46159919125E+02 -0.17335259051E+03  0.19139031354E+03  0.00000000000E+00 0. -1.
</event>
<event>
 7    1  0.2844572E-009  0.1065322E+03  0.7561462E-02  0.1267130E+00
         -1   -1    0    0    0  501 -0.00000000000E+00  0.00000000000E+00  0.15646561565E+02  0.15646561565E+02  0.00000000000E+00 0.  1.
          1   -1    0    0  501    0  0.00000000000E+00 -0.00000000000E+00 -0.16064326472E+04  0.16064326472E+04  0.00000000000E+00 0. -1.
         25    2    1    2    0    0  0.87919829121E+02 -0.90257899702E+01 -0.12315232619E+04  0.12410112271E+04  0.12509180627E+03 0.  0.
          5    1    3    3  502    0  0.37400376111E+02 -0.80390970133E+01 -0.84299740449E+02  0.92667868508E+02  0.41800000000E+01 0.  1.
         -5    1    3    3    0  502  0.50519453010E+02 -0.98669295685E+00 -0.11472235214E+04  0.11483433586E+04  0.41800000000E+01 0.  1.
        -11    1    1    2    0    0 -0.24548409898E+02  0.44817315828E+02 -0.10803879986E+03  0.11951400965E+03  0.00000000000E+00 0.  1.
         11    1    1    2    0    0 -0.63371419224E+02 -0.35791525857E+02 -0.25122402392E+03  0.26155397205E+03  0.00000000000E+00 0. -1.
</event>
<event>
 7    1  0.2844572E-009  0.1255637E+03  0.7561462E-02  0.1234191E+00
          2   -1    0    0  501    0  0.00000000000E+00  0.00000000000E+00  0.30724429423E+03  0.30724429423E+03  0.00000000000E+00 0. -1.
         -2   -1    0    0    0  501 -0.00000000000E+00 -0.00000000000E+00 -0.64160271500E+02  0.64160271500E+02  0.00000000000E+00 0.  1.
         25    2    1    2    0    0  0.84246185945E+02  0.27508894830E+02  0.11982975888E+03  0.19458016969E+03  0.12509241456E+03 0.  0.
          5    1    3    3  502    0 -0.61700011810E+01  0.39553367610E+02 -0.43054524702E+01  0.40478971390E+02  0.41800000000E+01 0. -1.
         -5    1    3    3    0  502  0.90416187126E+02 -0.12044472780E+02  0.12413521135E+03  0.15410119830E+03  0.41800000000E+01 0. -1.
        -11    1    1    2    0    0 -0.28842435494E+02  0.28667911097E+02  0.16059228680E+02  0.43722237336E+02  0.00000000000E+00 0.  1.
         11    1    1    2    0    0 -0.55403750451E+02 -0.56176805927E+02  0.10719503517E+03  0.13310215871E+03  0.00000000000E+00 0. -1.
</event>
<event>
 7    1  0.2844572E-009  0.1405873E+03  0.7561462E-02  0.1212541E+00
          2   -1    0    0  501    0  0.00000000000E+00  0.00000000000E+00  0.22672782200E+03  0.22672782200E+03  0.00000000000E+00 0. -1.
         -2   -1    0    0    0  501 -0.00000000000E+00 -0.00000000000E+00 -0.10338197947E+03  0.10338197947E+03  0.00000000000E+00 0.  1.
         25    2    1    2    0    0  0.49746062977E+02  0.87026442313E+02  0.25428541499E+02  0.16229741662E+03  0.12508224604E+03 0.  0.
          5    1    3    3  502    0  0.81707117099E+02  0.39768132881E+02 -0.15071949133E+02  0.92207339340E+02  0.41800000000E+01 0. -1.
         -5    1    3    3    0  502 -0.31961054122E+02  0.47258309432E+02  0.40500490633E+02  0.70090077275E+02  0.41800000000E+01 0. -1.
        -11    1    1    2    0    0 -0.68139434240E+02 -0.32568462500E+02  0.37146429429E+02  0.84163795467E+02  0.00000000000E+00 0.  1.
         11    1    1    2    0    0  0.18393371263E+02 -0.54457979813E+02  0.60770871596E+02  0.83648589386E+02  0.00000000000E+00 0. -1.
</event>
<event>
 7    1  0.2844572E-009  0.2280469E+03  0.7561462E-02  0.1128022E+00
         -2   -1    0    0    0  501 -0.00000000000E+00  0.00000000000E+00  0.33008470352E+03  0.33008470352E+03  0.00000000000E+00 0.  1.
          2   -1    0    0  501    0  0.00000000000E+00 -0.00000000000E+00 -0.17723441722E+03  0.17723441722E+03  0.00000000000E+00 0. -1.
         25    2    1    2    0    0 -0.11128355534E+03  0.17773558759E+03  0.25040562771E+02  0.24545307686E+03  0.12508482870E+03 0.  0.
          5    1    3    3  502    0 -0.12476799588E+03  0.13812678597E+03 -0.15779581853E+02  0.18684894808E+03  0.41800000000E+01 0. -1.
         -5    1    3    3    0  502  0.13484440533E+02  0.39608801627E+02  0.40820144624E+02  0.58604128779E+02  0.41800000000E+01 0. -1.
        -11    1    1    2    0    0  0.89465762854E+02 -0.18447755403E+03  0.12084997440E+03  0.23799329187E+03  0.00000000000E+00 0. -1.
         11    1    1    2    0    0  0.21817792490E+02  0.67419664325E+01  0.69597491286E+01  0.23872752009E+02  0.00000000000E+00 0.  1.
</event>
<event>
 7    1  0.2844572E-009  0.1447661E+03  0.7561462E-02  0.1207056E+00
          1   -1    0    0  501    0  0.00000000000E+00  0.00000000000E+00  0.65446650114E+03  0.65446650114E+03  0.00000000000E+00 0. -1.
         -1   -1    0    0    0  501 -0.00000000000E+00 -0.00000000000E+00 -0.41447985572E+02  0.41447985572E+02  0.00000000000E+00 0.  1.
         25    2    1    2    0    0 -0.46887970908E+02  0.64013661129E+01  0.29574193730E+03  0.32457684022E+03  0.12508945770E+03 0.  0.
          5    1    3    3  502    0 -0.67047113066E+02  0.22226297604E+02  0.78082706438E+02  0.10537411978E+03  0.41800000000E+01 0.  1.
         -5    1    3    3    0  502  0.20159142158E+02 -0.15824931491E+02  0.21765923086E+03  0.21920272044E+03  0.41800000000E+01 0.  1.
        -11    1    1    2    0    0  0.20290146516E+02  0.90280557817E+02  0.14528240863E+03  0.17224763401E+03  0.00000000000E+00 0. -1.
         11    1    1    2    0    0  0.26597824393E+02 -0.96681923930E+02  0.17199416964E+03  0.19909001247E+03  0.00000000000E+00 0.  1.
</event>
<event>
 7    1  0.2844572E-009  0.7447674E+02  0.7561462E-02  0.1345499E+00
         -1   -1    0    0    0  501 -0.00000000000E+00  0.00000000000E+00  0.41177884204E+02  0.41177884204E+02  0.00000000000E+00 0.  1.
          1   -1    0    0  501    0  0.00000000000E+00 -0.00000000000E+00 -0.41041314410E+03  0.41041314410E+03  0.00000000000E+00 0. -1.
         25    2    1    2    0    0 -0.53576212563E+02 -0.41343931639E+02 -0.21899369010E+03  0.26112387937E+03  0.12509081835E+03 0.  0.
          5    1    3    3  502    0 -0.24444892401E+02 -0.27438706145E+02  0.26715573307E+01  0.37081598914E+02  0.41800000000E+01 0. -1.
         -5    1    3    3    0  502 -0.29131320161E+02 -0.13905225494E+02 -0.22166524743E+03  0.22404228045E+03  0.41800000000E+01 0. -1.
        -11    1    1    2    0    0  0.28938908859E+02  0.45999727273E+02 -0.20117678145E+02  0.57949601630E+02  0.00000000000E+00 0.  1.
         11    1    1    2    0    0  0.24637303704E+02 -0.46557956335E+01 -0.13012389165E+03  0.13251754731E+03  0.00000000000E+00 0. -1.
</event>
<event>
 7    1  0.2844572E-009  0.7023293E+02  0.7561462E-02  0.1359303E+00
         -1   -1    0    0    0  501 -0.00000000000E+00  0.00000000000E+00  0.30876933462E+03  0.30876933462E+03  0.00000000000E+00 0.  1.
          1   -1    0    0  501    0  0.00000000000E+00 -0.00000000000E+00 -0.41754996675E+02  0.41754996675E+02  0.00000000000E+00 0. -1.
         25    2    1    2    0    0  0.17662804153E+02  0.27746172169E+02  0.14890551501E+03  0.19723851776E+03  0.12509338819E+03 0.  0.
          5    1    3    3  502    0  0.13095754056E+02 -0.48008492042E+01  0.16123269887E+03  0.16188885852E+03  0.41800000000E+01 0.  1.
         -5    1    3    3    0  502  0.45670500972E+01  0.32547021374E+02 -0.12327183858E+02  0.35349659245E+02  0.41800000000E+01 0.  1.
        -11    1    1    2    0    0 -0.97096971064E+01  0.31517581103E+02  0.66788625664E+02  0.74487291899E+02  0.00000000000E+00 0.  1.
         11    1    1    2    0    0 -0.79531070467E+01 -0.59263753272E+02  0.51320197267E+02  0.78798521631E+02  0.00000000000E+00 0. -1.
</event>
<event>
 7    1  0.2844572E-009  0.1002588E+03  0.7561462E-02  0.1279753E+00
         -1   -1    0    0    0  501 -0.00000000000E+00  0.00000000000E+00  0.20458151625E+03  0.20458151625E+03  0.00000000000E+00 0.  1.
          1   -1    0    0  501    0  0.00000000000E+00 -0.00000000000E+00 -0.76240162692E+02  0.76240162692E+02  0.00000000000E+00 0. -1.
         25    2    1    2    0    0 -0.36639326001E+02 -0.43894675847E+01  0.12255871852E+03  0.17896876264E+03  0.12508985123E+03 0.  0.
          5    1    3    3  502    0 -0.40792293003E+02  0.38612566921E+02  0.12330328195E+03  0.13555852328E+03  0.41800000000E+01 0.  1.
         -5    1    3    3    0  502  0.41529670019E+01 -0.43002034506E+02 -0.74456343606E+00  0.43410239359E+02  0.41800000000E+01 0.  1.
        -11    1    1    2    0    0  0.58550328086E+02  0.31055300490E+02  0.10205089749E+02  0.67057560828E+02  0.00000000000E+00 0.  1.
         11    1    1    2    0    0 -0.21911002084E+02 -0.26665832905E+02 -0.44224547106E+01  0.34795355474E+02  0.00000000000E+00 0. -1.
</event>
<event>
 7    1  0.2844572E-009  0.1308265E+03  0.7561462E-02  0.1226234E+00
         -2   -1    0    0    0  501 -0.00000000000E+00  0.00000000000E+00  0.46037909665E+02  0.46037909665E+02  0.00000000000E+00 0.  1.
          2   -1    0    0  501    0  0.00000000000E+00 -0.00000000000E+00 -0.40175099322E+03  0.40175099322E+03  0.00000000000E+00 0. -1.
         25    2    1    2    0    0 -0.64832055449E+02 -0.49415421263E+02 -0.18613689372E+03  0.23862238031E+03  0.12509443596E+03 0.  0.
          5    1    3    3  502    0  0.19281304319E+02 -0.57730318409E+02 -0.52729924363E+02  0.80637929557E+02  0.41800000000E+01 0.  1.
         -5    1    3    3    0  502 -0.84113359769E+02  0.83148971466E+01 -0.13340696935E+03  0.15798445075E+03  0.41800000000E+01 0.  1.
        -11    1    1    2    0    0  0.78900133025E+02  0.17041638165E+02 -0.14565454360E+03  0.16652595742E+03  0.00000000000E+00 0. -1.
         11    1    1    2    0    0 -0.14068077576E+02  0.32373783098E+02 -0.23921646243E+02  0.42640565166E+02  0.00000000000E+00 0.  1.
</event>
<event>
 7    1  0.2844572E-009  0.1454427E+03  0.7561462E-02  0.1206187E+00
         -2   -1    0    0    0  501 -0.00000000000E+00  0.00000000000E+00  0.14251330539E+03  0.14251330539E+03  0.00000000000E+00 0. -1.
          2   -1    0    0  501    0  0.00000000000E+00 -0.00000000000E+00 -0.17965154592E+03  0.17965154592E+03  0.00000000000E+00 0.  1.
         25    2    1    2    0    0  0.46416490793E+02 -0.10858050438E+03 -0.34489564670E+01  0.17205289772E+03  0.12508432261E+03 0.  0.
          5    1    3    3  502    0 -0.29028832454E+02 -0.29652196725E+02  0.36788835661E+02  0.55613098399E+02  0.41800000000E+01 0. -1.
         -5    1    3    3    0  502  0.75445323248E+02 -0.78928307660E+02 -0.40237792128E+02  0.11643979932E+03  0.41800000000E+01 0. -1.
        -11    1    1    2    0    0  0.20905923096E+02  0.24862216071E+02 -0.27403838874E+02  0.42498915204E+02  0.00000000000E+00 0.  1.
         11    1    1    2    0    0 -0.67322413890E+02  0.83718288313E+02 -0.62854451893E+01  0.10761303839E+03  0.00000000000E+00 0. -1.
</event>
<event>
 7    1  0.2844572E-009  0.9010074E+02  0.7561462E-02  0.1302608E+00
         -1   -1    0    0    0  501 -0.00000000000E+00  0.00000000000E+00  0.64729465336E+02  0.64729465336E+02  0.00000000000E+00 0.  1.
          1   -1    0    0  501    0  0.00000000000E+00 -0.00000000000E+00 -0.22538696287E+03  0.22538696287E+03  0.00000000000E+00 0. -1.
         25    2    1    2    0    0  0.45163635971E+02  0.25208421435E+02 -0.91583311948E+02  0.16342574595E+03  0.12508098531E+03 0.  0.
          5    1    3    3  502    0 -0.75300377932E+01 -0.10188933219E+02 -0.98531732299E+02  0.99430832739E+02  0.41800000000E+01 0.  1.
         -5    1    3    3    0  502  0.52693673764E+02  0.35397354653E+02  0.69484203514E+01  0.63994913209E+02  0.41800000000E+01 0.  1.
        -11    1    1    2    0    0 -0.49756251329E+02  0.23001413704E+02 -0.51381291012E+02  0.75131795165E+02  0.00000000000E+00 0.  1.
         11    1    1    2    0    0  0.45926153579E+01 -0.48209835139E+02 -0.17692894574E+02  0.51558887094E+02  0.00000000000E+00 0. -1.
</event>
<event>
 7    1  0.3685453E-009  0.8614352E+02  0.7561462E-02  0.1312469E+00
          2   -1    0    0  501    0  0.00000000000E+00  0.00000000000E+00  0.59058789710E+03  0.59058789710E+03  0.00000000000E+00 0. -1.
         -2   -1    0    0    0  501 -0.00000000000E+00 -0.00000000000E+00 -0.25933738135E+02  0.25933738135E+02  0.00000000000E+00 0.  1.
         25    2    1    2    0    0  0.23230304140E+02  0.12718727218E+02  0.44920417895E+03  0.46704760319E+03  0.12509059201E+03 0.  0.
          5    1    3    3  502    0  0.23667618737E+02  0.55650800913E+02  0.11432848444E+03  0.12940495575E+03  0.41800000000E+01 0.  1.
         -5    1    3    3    0  502 -0.43731459707E+00 -0.42932073695E+02  0.33487569451E+03  0.33764264744E+03  0.41800000000E+01 0.  1.
        -11    1    1    2    0    0  0.19118323281E+02  0.87796894634E+01 -0.35604982472E+01  0.21337065869E+02  0.00000000000E+00 0.  1.
         11    1    1    2    0    0 -0.42348627421E+02 -0.21498416682E+02  0.11901047826E+03  0.12813696617E+03  0.00000000000E+00 0. -1.
</event>
<event>
 7    1  0.2844572E-009  0.1000816E+03  0.7561462E-02  0.1280124E+00
         -2   -1    0    0    0  501 -0.00000000000E+00  0.00000000000E+00  0.15916926598E+03  0.15916926598E+03  0.00000000000E+00 0.  1.
          2   -1    0    0  501    0  0.00000000000E+00 -0.00000000000E+00 -0.12216379415E+03  0.12216379415E+03  0.00000000000E+00 0. -1.
         25    2    1    2    0    0  0.56763008323E+02  0.65647479130E+02  0.26638127212E+02  0.15455932971E+03  0.12508943180E+03 0.  0.
          5    1    3    3  502    0  0.11730354573E+02  0.59386164651E+02  0.69273492920E+02  0.92090211161E+02  0.41800000000E+01 0. -1.
         -5    1    3    3    0  502  0.45032653750E+02  0.62613144794E+01 -0.42635365708E+02  0.62469118545E+02  0.41800000000E+01 0. -1.
        -11    1    1    2    0    0 -0.38123119865E+02 -0.17019253503E+02  0.47178746149E+02  0.62998899564E+02  0.00000000000E+00 0.  1.
         11    1    1    2    0    0 -0.18639888458E+02 -0.48628225627E+02 -0.36811401529E+02  0.63774830865E+02  0.00000000000E+00 0. -1.
</event>
<event>
 7    1  0.2884964E-009  0.7756965E+02  0.7561462E-02  0.1336093E+00
         -1   -1    0    0    0  501 -0.00000000000E+00  0.00000000000E+00  0.18189869643E+02  0.18189869643E+02  0.00000000000E+00 0.  1.
          1   -1    0    0  501    0  0.00000000000E+00 -0.00000000000E+00 -0.84573125165E+03  0.84573125165E+03  0.00000000000E+00 0. -1.
         25    2    1    2    0    0 -0.17359693787E+02 -0.14612037146E+02 -0.66255179567E+03  0.67463837959E+03  0.12508873117E+03 0.  0.
          5    1    3    3  502    0 -0.38643243180E+02 -0.75586010984E+01 -0.64405938481E+03  0.64527544216E+03  0.41800000000E+01 0. -1.
         -5    1    3    3    0  502  0.21283549393E+02 -0.70534360471E+01 -0.18492410865E+02  0.29362937429E+02  0.41800000000E+01 0. -1.
        -11    1    1    2    0    0 -0.32444645468E+02 -0.13955285628E+02 -0.65424489704E+02  0.74348966836E+02  0.00000000000E+00 0.  1.
         11    1    1    2    0    0  0.49804339254E+02  0.28567322774E+02 -0.99565096632E+02  0.11493377487E+03  0.00000000000E+00 0. -1.
</event>
<event>
 7    1  0.2844572E-009  0.2175411E+03  0.7561462E-02  0.1135730E+00
          2   -1    0    0  501    0  0.00000000000E+00  0.00000000000E+00  0.48047617014E+02  0.48047617014E+02  0.00000000000E+00 0. -1.
         -2   -1    0    0    0  501 -0.00000000000E+00 -0.00000000000E+00 -0.10459146568E+04  0.10459146568E+04  0.00000000000E+00 0.  1.
         25    2    1    2    0    0  0.58333227870E+02 -0.18691084040E+03 -0.52081668176E+03  0.57029031574E+03  0.12507038217E+03 0.  0.
          5    1    3    3  502    0  0.22616576900E+02 -0.18306594831E+03 -0.34964747442E+03  0.39534223117E+03  0.41800000000E+01 0.  1.
         -5    1    3    3    0  502  0.35716650970E+02 -0.38448920859E+01 -0.17116920734E+03  0.17494808457E+03  0.41800000000E+01 0.  1.
        -11    1    1    2    0    0 -0.38386442616E+02  0.14787239243E+02 -0.11873553557E+03  0.12565949558E+03  0.00000000000E+00 0.  1.
         11    1    1    2    0    0 -0.19946785254E+02  0.17212360115E+03 -0.35831482249E+03  0.39801246254E+03  0.00000000000E+00 0. -1.
</event>
<event>
 7    1  0.2844572E-009  0.1626084E+03  0.7561462E-02  0.1185783E+00
          2   -1    0    0  501    0  0.00000000000E+00  0.00000000000E+00  0.21253070837E+03  0.21253070837E+03  0.00000000000E+00 0. -1.
         -2   -1    0    0    0  501 -0.00000000000E+00 -0.00000000000E+00 -0.14697761736E+03  0.14697761736E+03  0.00000000000E+00 0.  1.
         25    2    1    2    0    0  0.10876197903E+03 -0.86150571561E+02  0.44640139913E+02  0.19206758286E+03  0.12508447238E+03 0.  0.
          5    1    3    3  502    0  0.82310339850E+02 -0.10310003052E+03 -0.62219655269E+01  0.13213929618E+03  0.41800000000E+01 0.  1.
         -5    1    3    3    0  502  0.26451639180E+02  0.16949458964E+02  0.50862105440E+02  0.59928286679E+02  0.41800000000E+01 0.  1.
        -11    1    1    2    0    0 -0.89163819562E+02  0.18452236926E+02  0.31126586525E+02  0.96226483648E+02  0.00000000000E+00 0.  1.
         11    1    1    2    0    0 -0.19598159468E+02  0.67698334635E+02 -0.10213635431E+02  0.71214259215E+02  0.00000000000E+00 0. -1.
</event>
<event>
 7    1  0.2844572E-009  0.9146347E+02  0.7561462E-02  0.1299346E+00
          2   -1    0    0  501    0  0.00000000000E+00  0.00000000000E+00  0.11472925296E+03  0.11472925296E+03  0.00000000000E+00 0. -1.
         -2   -1    0    0    0  501 -0.00000000000E+00 -0.00000000000E+00 -0.16866274904E+03  0.16866274904E+03  0.00000000000E+00 0.  1.
         25    2    1    2    0    0  0.43618248766E+02 -0.40198732026E+02  0.33843331174E+02  0.14251015529E+03  0.12508110814E+03 0.  0.
          5    1    3    3  502    0 -0.33017855822E+02 -0.31975865398E+00 -0.21688178784E+02  0.39725691280E+02  0.41800000000E+01 0. -1.
         -5    1    3    3    0  502  0.76636104588E+02 -0.39878973372E+02  0.55531509958E+02  0.10278446401E+03  0.41800000000E+01 0. -1.
        -11    1    1    2    0    0 -0.15535707398E+02  0.29038114618E+02  0.13200359627E+02  0.35479850608E+02  0.00000000000E+00 0. -1.
         11    1    1    2    0    0 -0.28082541368E+02  0.11160617408E+02 -0.10097718688E+03  0.10540199610E+03  0.00000000000E+00 0.  1.
</event>
<event>
 7    1  0.2844572E-009  0.1237341E+03  0.7561462E-02  0.1237061E+00
          4   -1    0    0  501    0  0.00000000000E+00  0.00000000000E+00  0.40669996356E+03  0.40669996356E+03  0.00000000000E+00 0. -1.
         -4   -1    0    0    0  501 -0.00000000000E+00 -0.00000000000E+00 -0.46984312939E+02  0.46984312939E+02  0.00000000000E+00 0.  1.
         25    2    1    2    0    0  0.60645343166E+02  0.60657546972E+02  0.20551648414E+03  0.25542376891E+03  0.12508829209E+03 0.  0.
          5    1    3    3  502    0 -0.23490018746E+02  0.28292208284E+02  0.74275440519E+01  0.37747461384E+02  0.41800000000E+01 0. -1.
         -5    1    3    3    0  502  0.84135361911E+02  0.32365338687E+02  0.19808894009E+03  0.21767630753E+03  0.41800000000E+01 0. -1.
        -11    1    1    2    0    0  0.21516021010E+02 -0.10346608767E+02  0.12602158740E+02  0.26996404909E+02  0.00000000000E+00 0.  1.
         11    1    1    2    0    0 -0.82161364175E+02 -0.50310938204E+02  0.14159700774E+03  0.17126410268E+03  0.00000000000E+00 0. -1.
</event>
<event>
 7    1  0.2844572E-009  0.9607314E+02  0.7561462E-02  0.1288777E+00
         -1   -1    0    0    0  501 -0.00000000000E+00  0.00000000000E+00  0.45686150388E+02  0.45686150388E+02  0.00000000000E+00 0.  1.
          1   -1    0    0  501    0  0.00000000000E+00 -0.00000000000E+00 -0.46862280355E+03  0.46862280355E+03  0.00000000000E+00 0. -1.
         25    2    1    2    0    0  0.76434528399E+01 -0.23822105091E+02 -0.63044897097E+02  0.14229738113E+03  0.12509184852E+03 0.  0.
          5    1    3    3  502    0  0.17920389056E+02 -0.58627381533E+02 -0.80937441880E+02  0.10162013633E+03  0.41800000000E+01 0. -1.
         -5    1    3    3    0  502 -0.10276936217E+02  0.34805276442E+02  0.17892544783E+02  0.40677244806E+02  0.41800000000E+01 0. -1.
        -11    1    1    2    0    0  0.23823745764E+02  0.48594345732E+02 -0.21015006905E+03  0.21700698795E+03  0.00000000000E+00 0.  1.
         11    1    1    2    0    0 -0.31467198604E+02 -0.24772240640E+02 -0.14974168702E+03  0.15500458485E+03  0.00000000000E+00 0. -1.
</event>
<event>
 7    1  0.2844572E-009  0.1275419E+03  0.7561462E-02  0.1231149E+00
         -3   -1    0    0    0  501 -0.00000000000E+00  0.00000000000E+00  0.19995669452E+03  0.19995669452E+03  0.00000000000E+00 0.  1.
          3   -1    0    0  501    0  0.00000000000E+00 -0.00000000000E+00 -0.84826672119E+02  0.84826672119E+02  0.00000000000E+00 0. -1.
         25    2    1    2    0    0 -0.39602922519E+02  0.59843376032E+02  0.55596874419E+02  0.15456028398E+03  0.12509295668E+03 0.  0.
          5    1    3    3  502    0  0.96368444485E+01 -0.33380333725E+02  0.29745377015E+02  0.45927935990E+02  0.41800000000E+01 0. -1.
         -5    1    3    3    0  502 -0.49239766967E+02  0.93223709758E+02  0.25851497404E+02  0.10863234799E+03  0.41800000000E+01 0. -1.
        -11    1    1    2    0    0  0.59974917017E+02 -0.10092861398E+02  0.22076437606E+02  0.64701048057E+02  0.00000000000E+00 0. -1.
         11    1    1    2    0    0 -0.20371994498E+02 -0.49750514635E+02  0.37456710379E+02  0.65522034604E+02  0.00000000000E+00 0.  1.
</event>
<event>
 7    1  0.2844572E-009  0.1013773E+03  0.7561462E-02  0.1277426E+00
          1   -1    0    0  501    0  0.00000000000E+00  0.00000000000E+00  0.33079548047E+03  0.33079548047E+03  0.00000000000E+00 0. -1.
         -1   -1    0    0    0  501 -0.00000000000E+00 -0.00000000000E+00 -0.42350130307E+02  0.42350130307E+02  0.00000000000E+00 0.  1.
         25    2    1    2    0    0 -0.32065634634E+02 -0.29053207437E+02  0.19566066037E+03  0.23622664518E+03  0.12509052759E+03 0.  0.
          5    1    3    3  502    0  0.41138844782E+02 -0.12403162580E+02  0.12796905582E+03  0.13505478385E+03  0.41800000000E+01 0. -1.
         -5    1    3    3    0  502 -0.73204479416E+02 -0.16650044857E+02  0.67691604550E+02  0.10117186134E+03  0.41800000000E+01 0. -1.
        -11    1    1    2    0    0  0.55571174203E+02  0.17956295931E+02  0.94258467292E+02  0.11088391507E+03  0.00000000000E+00 0. -1.
         11    1    1    2    0    0 -0.23505539569E+02  0.11096911506E+02 -0.14737775001E+01  0.26035050519E+02  0.00000000000E+00 0.  1.
</event>
<event>
 7    1  0.2844572E-009  0.9971117E+02  0.7561462E-02  0.1280904E+00
          1   -1    0    0  501    0  0.00000000000E+00  0.00000000000E+00  0.54917273453E+02  0.54917273453E+02  0.00000000000E+00 0. -1.
         -1   -1    0    0    0  501 -0.00000000000E+00 -0.00000000000E+00 -0.28949868664E+03  0.28949868664E+03  0.00000000000E+00 0.  1.
         25    2    1    2    0    0 -0.25253961925E+02  0.33039405596E+02 -0.19806092389E+03  0.23791814118E+03  0.12509015716E+03 0.  0.
          5    1    3    3  502    0  0.26681656191E+02 -0.24971369457E+02 -0.12769725847E+03  0.13288921058E+03  0.41800000000E+01 0. -1.
         -5    1    3    3    0  502 -0.51935618116E+02  0.58010775052E+02 -0.70363665422E+02  0.10502893060E+03  0.41800000000E+01 0. -1.
        -11    1    1    2    0    0  0.46394992612E+02 -0.41157042976E+02 -0.50418208767E+02  0.79927425213E+02  0.00000000000E+00 0.  1.
         11    1    1    2    0    0 -0.21141030687E+02  0.81176373804E+01  0.13897719463E+02  0.26570393701E+02  0.00000000000E+00 0. -1.
</event>
<event>
 7    1  0.2844572E-009  0.1935961E+03  0.7561462E-02  0.1155257E+00
          1   -1    0    0  501    0  0.00000000000E+00  0.00000000000E+00  0.23788433229E+03  0.23788433229E+03  0.00000000000E+00 0. -1.
         -1   -1    0    0    0  501 -0.00000000000E+00 -0.00000000000E+00 -0.18197588639E+03  0.18197588639E+03  0.00000000000E+00 0.  1.
         25    2    1    2    0    0 -0.99043442073E+02  0.13997050760E+03  0.74763274022E+02  0.22503477050E+03  0.12509897833E+03 0.  0.
          5    1    3    3  502    0  0.24550580704E+02  0.59679437445E+02  0.26598449758E+02  0.69923645473E+02  0.41800000000E+01 0.  1.
         -5    1    3    3    0  502 -0.12359402278E+03  0.80291070151E+02  0.48164824264E+02  0.15511112503E+03  0.41800000000E+01 0.  1.
        -11    1    1    2    0    0  0.31518136461E+02 -0.19748849006E+02  0.30778123888E+02  0.48277353626E+02  0.00000000000E+00 0. -1.
         11    1    1    2    0    0  0.67525305612E+02 -0.12022165859E+03 -0.49632952006E+02  0.14654809455E+03  0.00000000000E+00 0.  1.
</event>
<event>
 7    1  0.2844572E-009  0.1519546E+03  0.7561462E-02  0.1198092E+00
         -1   -1    0    0    0  501 -0.00000000000E+00  0.00000000000E+00  0.69891441540E+02  0.69891441540E+02  0.00000000000E+00 0.  1.
          1   -1    0    0  501    0  0.00000000000E+00 -0.00000000000E+00 -0.72871212909E+03  0.72871212909E+03  0.00000000000E+00 0. -1.
         25    2    1    2    0    0  0.11392559745E+03 -0.75450066136E+02 -0.59261346911E+03  0.62089474647E+03  0.12509119952E+03 0.  0.
          5    1    3    3  502    0  0.79101821510E+02 -0.38503882472E+02 -0.13984040145E+03  0.16526480996E+03  0.41800000000E+01 0.  1.
         -5    1    3    3    0  502  0.34823775937E+02 -0.36946183664E+02 -0.45277306765E+03  0.45562993652E+03  0.41800000000E+01 0.  1.
        -11    1    1    2    0    0 -0.83779591147E+02  0.96747990965E+02 -0.52632809808E+02  0.13838137995E+03  0.00000000000E+00 0.  1.
         11    1    1    2    0    0 -0.30146006301E+02 -0.21297924829E+02 -0.13574408633E+02  0.39327444204E+02  0.00000000000E+00 0. -1.
</event>
<event>
 7    1  0.2844572E-009  0.9388451E+02  0.7561462E-02  0.1293708E+00
          1   -1    0    0  501    0  0.00000000000E+00  0.00000000000E+00  0.53760412500E+02  0.53760412500E+02  0.00000000000E+00 0. -1.
         -1   -1    0    0    0  501 -0.00000000000E+00 -0.00000000000E+00 -0.32473599847E+03  0.32473599847E+03  0.00000000000E+00 0.  1.
         25    2    1    2    0    0 -0.40976942285E+02 -0.61207269650E+02 -0.12010213920E+03  0.18840853785E+03  0.12509122127E+03 0.  0.
          5    1    3    3  502    0 -0.43743457475E+02 -0.56775379001E+02 -0.37794772230E+01  0.71893605978E+02  0.41800000000E+01 0.  1.
         -5    1    3    3    0  502  0.27665151902E+01 -0.44318906496E+01 -0.11632266197E+03  0.11651493187E+03  0.41800000000E+01 0.  1.
        -11    1    1    2    0    0  0.57420115521E+02  0.70080089818E+02 -0.95458601500E+02  0.13160787688E+03  0.00000000000E+00 0. -1.
         11    1    1    2    0    0 -0.16443173236E+02 -0.88728201678E+01 -0.55414845279E+02  0.58479996247E+02  0.00000000000E+00 0.  1.
</event>
<event>
 7    1  0.2844572E-009  0.2019781E+03  0.7561462E-02  0.1148081E+00
         -1   -1    0    0    0  501 -0.00000000000E+00  0.00000000000E+00  0.43025972047E+03  0.43025972047E+03  0.00000000000E+00 0.  1.
          1   -1    0    0  501    0  0.00000000000E+00 -0.00000000000E+00 -0.11254251368E+03  0.11254251368E+03  0.00000000000E+00 0. -1.
         25    2    1    2    0    0  0.22911788827E+02  0.18433451879E+03  0.23607827596E+03  0.32540084460E+03  0.12509433401E+03 0.  0.
          5    1    3    3  502    0  0.42361922407E+02  0.18133354857E+03  0.15638760159E+03  0.24320966806E+03  0.41800000000E+01 0. -1.
         -5    1    3    3    0  502 -0.19450133581E+02  0.30009702164E+01  0.79690674374E+02  0.82191176539E+02  0.41800000000E+01 0. -1.
        -11    1    1    2    0    0 -0.39536805133E+02 -0.58263991768E+02  0.50010795189E+02  0.86365104830E+02  0.00000000000E+00 0. -1.
         11    1    1    2    0    0  0.16625016306E+02 -0.12607052702E+03  0.31628135629E+02  0.13103628472E+03  0.00000000000E+00 0.  1.
</event>
<event>
 7    1  0.2844572E-009  0.1095287E+03  0.7561462E-02  0.1261445E+00
          3   -1    0    0  501    0  0.00000000000E+00  0.00000000000E+00  0.21105127799E+03  0.21105127799E+03  0.00000000000E+00 0. -1.
         -3   -1    0    0    0  501 -0.00000000000E+00 -0.00000000000E+00 -0.89859276551E+02  0.89859276551E+02  0.00000000000E+00 0.  1.
         25    2    1    2    0    0 -0.51037821988E+01 -0.84228015745E+02  0.68515367799E+02  0.16571939695E+03  0.12509258839E+03 0.  0.
          5    1    3    3  502    0 -0.41700327418E+02 -0.67728253598E+02 -0.71458193654E+01  0.79966047649E+02  0.41800000000E+01 0.  1.
         -5    1    3    3    0  502  0.36596545219E+02 -0.16499762148E+02  0.75661187165E+02  0.85753349299E+02  0.41800000000E+01 0.  1.
        -11    1    1    2    0    0  0.27504775729E+02  0.31847095907E+02 -0.16829493608E+02  0.45320878861E+02  0.00000000000E+00 0.  1.
         11    1    1    2    0    0 -0.22400993531E+02  0.52380919838E+02  0.69506127249E+02  0.89870278733E+02  0.00000000000E+00 0. -1.
</event>
<event>
 7    1  0.2844572E-009  0.1391695E+03  0.7561462E-02  0.1214451E+00
         -1   -1    0    0    0  501 -0.00000000000E+00  0.00000000000E+00  0.70659297156E+02  0.70659297156E+02  0.00000000000E+00 0.  1.
          1   -1    0    0  501    0  0.00000000000E+00 -0.00000000000E+00 -0.36238387968E+03  0.36238387968E+03  0.00000000000E+00 0. -1.
         25    2    1    2    0    0 -0.88762168717E+02 -0.65206144746E+02 -0.89964248434E+02  0.18939756271E+03  0.12508919560E+03 0.  0.
          5    1    3    3  502    0 -0.10715234482E+03 -0.81136940919E+02 -0.52130321670E+02  0.14422160386E+03  0.41800000000E+01 0.  1.
         -5    1    3    3    0  502  0.18390176104E+02  0.15930796173E+02 -0.37833926764E+02  0.45175958852E+02  0.41800000000E+01 0.  1.
        -11    1    1    2    0    0  0.77987407291E+02  0.32046419127E+02 -0.77275082452E+02  0.11436978204E+03  0.00000000000E+00 0.  1.
         11    1    1    2    0    0  0.10774761426E+02  0.33159725619E+02 -0.12448525164E+03  0.12927583209E+03  0.00000000000E+00 0. -1.
</event>
<event>
 7    1  0.3270705E-009  0.9525318E+02  0.7561462E-02  0.1290607E+00
          4   -1    0    0  501    0  0.00000000000E+00  0.00000000000E+00  0.62999033761E+03  0.62999033761E+03  0.00000000000E+00 0.  1.
         -4   -1    0    0    0  501 -0.00000000000E+00 -0.00000000000E+00 -0.25730113312E+02  0.25730113312E+02  0.00000000000E+00 0. -1.
         25    2    1    2    0    0  0.39355757054E+02  0.13164148352E+02  0.46647208066E+03  0.48473296395E+03  0.12509066268E+03 0.  0.
          5    1    3    3  502    0  0.66779580219E+01  0.61865674628E+02  0.14370729359E+03  0.15665636103E+03  0.41800000000E+01 0. -1.
         -5    1    3    3    0  502  0.32677799032E+02 -0.48701526276E+02  0.32276478707E+03  0.32807660292E+03  0.41800000000E+01 0. -1.
        -11    1    1    2    0    0  0.12943549589E+02 -0.11021649147E+02 -0.59530517760E+01  0.18012524846E+02  0.00000000000E+00 0. -1.
         11    1    1    2    0    0 -0.52299306643E+02 -0.21424992050E+01  0.14374119541E+03  0.15297496212E+03  0.00000000000E+00 0.  1.
</event>
<event>
 7    1  0.2844572E-009  0.8066389E+02  0.7561462E-02  0.1327178E+00
          1   -1    0    0  501    0  0.00000000000E+00  0.00000000000E+00  0.55857256572E+03  0.55857256572E+03  0.00000000000E+00 0. -1.
         -1   -1    0    0    0  501 -0.00000000000E+00 -0.00000000000E+00 -0.26822794635E+02  0.26822794635E+02  0.00000000000E+00 0.  1.
         25    2    1    2    0    0  0.53630675050E+02  0.12449945902E+02  0.25428635841E+03  0.28868565935E+03  0.12508639966E+03 0.  0.
          5    1    3    3  502    0  0.61280144048E+01 -0.13960509629E+01  0.23545987219E+03  0.23558082547E+03  0.41800000000E+01 0.  1.
         -5    1    3    3    0  502  0.47502660645E+02  0.13845996865E+02  0.18826486224E+02  0.53104833877E+02  0.41800000000E+01 0.  1.
        -11    1    1    2    0    0 -0.61176608753E+02 -0.41621187793E+02  0.17752935337E+03  0.19233193193E+03  0.00000000000E+00 0.  1.
         11    1    1    2    0    0  0.75459337031E+01  0.29171241891E+02  0.99934059312E+02  0.10437776909E+03  0.00000000000E+00 0. -1.
</event>
<event>
 7    1  0.2844572E-009  0.1532535E+03  0.7561462E-02  0.1196531E+00
         -1   -1    0    0    0  501 -0.00000000000E+00  0.00000000000E+00  0.78433991603E+02  0.78433991603E+02  0.00000000000E+00 0.  1.
          1   -1    0    0  501    0  0.00000000000E+00 -0.00000000000E+00 -0.42930491263E+03  0.42930491263E+03  0.00000000000E+00 0. -1.
         25    2    1    2    0    0 -0.12173334116E+03 -0.72817812052E+02 -0.12820969677E+03  0.22849120324E+03  0.12509621701E+03 0.  0.
          5    1    3    3  502    0  0.59650479492E+01 -0.69499416914E+01  0.19771522076E+02  0.22187135276E+02  0.41800000000E+01 0.  1.
         -5    1    3    3    0  502 -0.12769838911E+03 -0.65867870360E+02 -0.14798121885E+03  0.20630406796E+03  0.41800000000E+01 0.  1.
        -11    1    1    2    0    0  0.59224061022E+02  0.34621311280E+01 -0.14882145106E+03  0.16021017462E+03  0.00000000000E+00 0. -1.
         11    1    1    2    0    0  0.62509280136E+02  0.69355680924E+02 -0.73839773193E+02  0.11903752637E+03  0.00000000000E+00 0.  1.
</event>
<event>
 7    1  0.2844572E-009  0.1541091E+03  0.7561462E-02  0.1195513E+00
          2   -1    0    0  501    0  0.00000000000E+00  0.00000000000E+00  0.66054000987E+02  0.66054000987E+02  0.00000000000E+00 0. -1.
         -2   -1    0    0    0  501 -0.00000000000E+00 -0.00000000000E+00 -0.42136118126E+03  0.42136118126E+03  0.00000000000E+00 0.  1.
         25    2    1    2    0    0 -0.11570984210E+03  0.28685889511E+02 -0.22736759132E+03  0.28557945174E+03  0.12509178173E+03 0.  0.
          5    1    3    3  502    0  0.10081796044E+02 -0.30205724098E+02 -0.59911545609E+02  0.67977158495E+02  0.41800000000E+01 0.  1.
         -5    1    3    3    0  502 -0.12579163814E+03  0.58891613608E+02 -0.16745604571E+03  0.21760229324E+03  0.41800000000E+01 0.  1.
        -11    1    1    2    0    0  0.88147927273E+02 -0.50860750502E+02 -0.13150207930E+03  0.16628189884E+03  0.00000000000E+00 0.  1.
         11    1    1    2    0    0  0.27561914827E+02  0.22174860991E+02  0.35624903369E+01  0.35553831668E+02  0.00000000000E+00 0. -1.
</event>
<event>
 7    1  0.2844572E-009  0.1187488E+03  0.7561462E-02  0.1245175E+00
          2   -1    0    0  501    0  0.00000000000E+00  0.00000000000E+00  0.28417981304E+03  0.28417981304E+03  0.00000000000E+00 0. -1.
         -2   -1    0    0    0  501 -0.00000000000E+00 -0.00000000000E+00 -0.81490975918E+02  0.81490975918E+02  0.00000000000E+00 0.  1.
         25    2    1    2    0    0 -0.51486279013E+02 -0.60181665138E+02  0.17937956760E+03  0.23258718601E+03  0.12508836908E+03 0.  0.
          5    1    3    3  502    0 -0.98065920050E+01  0.16710651809E+02  0.13111414608E+03  0.13260394727E+03  0.41800000000E+01 0. -1.
         -5    1    3    3    0  502 -0.41679687008E+02 -0.76892316947E+02  0.48265421523E+02  0.99983238742E+02  0.41800000000E+01 0. -1.
        -11    1    1    2    0    0  0.51707990931E+02 -0.15849709664E+02  0.19888115195E+01  0.54119173994E+02  0.00000000000E+00 0. -1.
         11    1    1    2    0    0 -0.22171191823E+00  0.76031374801E+02  0.21320458005E+02  0.78964428953E+02  0.00000000000E+00 0.  1.
</event>
<event>
 7    1  0.2844572E-009  0.8868488E+02  0.7561462E-02  0.1306068E+00
          1   -1    0    0  501    0  0.00000000000E+00  0.00000000000E+00  0.28903924016E+03  0.28903924016E+03  0.00000000000E+00 0. -1.
         -1   -1    0    0    0  501 -0.00000000000E+00 -0.00000000000E+00 -0.58621924601E+02  0.58621924601E+02  0.00000000000E+00 0.  1.
         25    2    1    2    0    0  0.62881733930E+02 -0.11145406589E+02  0.17174914857E+03  0.22186256184E+03  0.12508754438E+03 0.  0.
          5    1    3    3  502    0  0.67013483889E+02 -0.36328427703E+02  0.37332287131E+02  0.84980784562E+02  0.41800000000E+01 0. -1.
         -5    1    3    3    0  502 -0.41317499592E+01  0.25183021113E+02  0.13441686144E+03  0.13688177728E+03  0.41800000000E+01 0. -1.
        -11    1    1    2    0    0 -0.22278321955E+02 -0.15016258593E+02 -0.19994355298E+02  0.33490086519E+02  0.00000000000E+00 0.  1.
         11    1    1    2    0    0 -0.40603411975E+02  0.26161665182E+02  0.78662522284E+02  0.92308516407E+02  0.00000000000E+00 0. -1.
</event>
<event>
 7    1  0.2844572E-009  0.1343918E+03  0.7561462E-02  0.1221081E+00
         -2   -1    0    0    0  501 -0.00000000000E+00  0.00000000000E+00  0.35798779990E+03  0.35798779990E+03  0.00000000000E+00 0. -1.
          2   -1    0    0  501    0  0.00000000000E+00 -0.00000000000E+00 -0.76284968473E+02  0.76284968473E+02  0.00000000000E+00 0.  1.
         25    2    1    2    0    0 -0.88486751056E+02 -0.90021982923E+02  0.17028813470E+03  0.24612857089E+03  0.12508941630E+03 0.  0.
          5    1    3    3  502    0 -0.46260524733E+02 -0.73266118250E+02  0.19940234434E+02  0.89011491288E+02  0.41800000000E+01 0. -1.
         -5    1    3    3    0  502 -0.42226226323E+02 -0.16755864673E+02  0.15034790026E+03  0.15711707960E+03  0.41800000000E+01 0. -1.
        -11    1    1    2    0    0  0.66261373357E+02  0.30629040400E+02  0.99842160575E+02  0.12368170739E+03  0.00000000000E+00 0.  1.
         11    1    1    2    0    0  0.22225377699E+02  0.59392942523E+02  0.11572536156E+02  0.64462490089E+02  0.00000000000E+00 0. -1.
</event>
<event>
 7    1  0.2844572E-009  0.1065709E+03  0.7561462E-02  0.1267055E+00
          1   -1    0    0  501    0  0.00000000000E+00  0.00000000000E+00  0.25934190626E+03  0.25934190626E+03  0.00000000000E+00 0. -1.
         -1   -1    0    0    0  501 -0.00000000000E+00 -0.00000000000E+00 -0.46606060120E+02  0.46606060120E+02  0.00000000000E+00 0.  1.
         25    2    1    2    0    0 -0.15564374230E+02  0.16405049531E+02  0.12537618101E+03  0.17854379261E+03  0.12508926300E+03 0.  0.
          5    1    3    3  502    0  0.44073354091E+02  0.36708062037E+02  0.31965442975E+02  0.65796689157E+02  0.41800000000E+01 0. -1.
         -5    1    3    3    0  502 -0.59637728321E+02 -0.20303012506E+02  0.93410738035E+02  0.11274710345E+03  0.41800000000E+01 0. -1.
        -11    1    1    2    0    0  0.44394949066E+02  0.17737580794E+02  0.40543428580E+02  0.62684151713E+02  0.00000000000E+00 0. -1.
         11    1    1    2    0    0 -0.28830574836E+02 -0.34142630325E+02  0.46816236550E+02  0.64720022061E+02  0.00000000000E+00 0.  1.
</event>
<event>
 7    1  0.2844572E-009  0.6316711E+02  0.7561462E-02  0.1385002E+00
         -2   -1    0    0    0  501 -0.00000000000E+00  0.00000000000E+00  0.13485905534E+03  0.13485905534E+03  0.00000000000E+00 0.  1.
          2   -1    0    0  501    0  0.00000000000E+00 -0.00000000000E+00 -0.99591413855E+02  0.99591413855E+02  0.00000000000E+00 0. -1.
         25    2    1    2    0    0  0.21668461217E+02  0.34272586603E+02  0.12073530404E+02  0.13206121907E+03  0.12510101135E+03 0.  0.
          5    1    3    3  502    0 -0.15353628596E+02  0.39297055196E+02 -0.46205217822E+02  0.62708747493E+02  0.41800000000E+01 0. -1.
         -5    1    3    3    0  502  0.37022089813E+02 -0.50244685924E+01  0.58278748226E+02  0.69352471575E+02  0.41800000000E+01 0. -1.
        -11    1    1    2    0    0  0.43700064829E+01 -0.92501788787E+01 -0.33579607216E+02  0.35103458330E+02  0.00000000000E+00 0. -1.
         11    1    1    2    0    0 -0.26038467700E+02 -0.25022407725E+02  0.56773718301E+02  0.67285791801E+02  0.00000000000E+00 0.  1.
</event>
<event>
 7    1  0.2844572E-009  0.1104963E+03  0.7561462E-02  0.1259654E+00
          2   -1    0    0  501    0  0.00000000000E+00  0.00000000000E+00  0.10700197374E+04  0.10700197374E+04  0.00000000000E+00 0. -1.
         -2   -1    0    0    0  501 -0.00000000000E+00 -0.00000000000E+00 -0.23034884389E+02  0.23034884389E+02  0.00000000000E+00 0.  1.
         25    2    1    2    0    0 -0.64246406340E+02 -0.15400796329E+02  0.87637975043E+03  0.88772454116E+03  0.12509439941E+03 0.  0.
          5    1    3    3  502    0 -0.95463208801E+02 -0.37437622925E+02  0.66625724258E+03  0.67411496463E+03  0.41800000000E+01 0. -1.
         -5    1    3    3    0  502  0.31216802462E+02  0.22036826596E+02  0.21012250784E+03  0.21360957653E+03  0.41800000000E+01 0. -1.
        -11    1    1    2    0    0  0.32830494819E+02 -0.15103006942E+02  0.81077119475E+01  0.37036160732E+02  0.00000000000E+00 0.  1.
         11    1    1    2    0    0  0.31415911521E+02  0.30503803271E+02  0.16249739064E+03  0.16829391990E+03  0.00000000000E+00 0. -1.
</event>
<event>
 7    1  0.2844572E-009  0.9180272E+02  0.7561462E-02  0.1298544E+00
         -1   -1    0    0    0  501 -0.00000000000E+00  0.00000000000E+00  0.20335404894E+02  0.20335404894E+02  0.00000000000E+00 0.  1.
          1   -1    0    0  501    0  0.00000000000E+00 -0.00000000000E+00 -0.83331657278E+03  0.83331657278E+03  0.00000000000E+00 0. -1.
         25    2    1    2    0    0 -0.55220384109E+01  0.66626580179E+02 -0.42630641475E+03  0.44928410735E+03  0.12509778482E+03 0.  0.
          5    1    3    3  502    0 -0.10408489321E+02  0.60515183847E+02 -0.43350963545E+03  0.43785671236E+03  0.41800000000E+01 0.  1.
         -5    1    3    3    0  502  0.48864509105E+01  0.61113963318E+01  0.72032207084E+01  0.11427394987E+02  0.41800000000E+01 0.  1.
        -11    1    1    2    0    0  0.27992251149E+02  0.12701548645E+02 -0.16538625283E+03  0.16821863181E+03  0.00000000000E+00 0. -1.
         11    1    1    2    0    0 -0.22470212739E+02 -0.79328128824E+02 -0.22128850031E+03  0.23614923852E+03  0.00000000000E+00 0.  1.
</event>
<event>
 7    1  0.2844572E-009  0.1131430E+03  0.7561462E-02  0.1254858E+00
         -1   -1    0    0    0  501 -0.00000000000E+00  0.00000000000E+00  0.12437171374E+03  0.12437171374E+03  0.00000000000E+00 0.  1.
          1   -1    0    0  501    0  0.00000000000E+00 -0.00000000000E+00 -0.14019263418E+03  0.14019263418E+03  0.00000000000E+00 0. -1.
         25    2    1    2    0    0 -0.41804221706E+02 -0.36510568988E+02 -0.54461252435E+02  0.14727955490E+03  0.12507847407E+03 0.  0.
          5    1    3    3  502    0 -0.60486290846E+02  0.16724587787E+02 -0.64200291379E+02  0.89874651766E+02  0.41800000000E+01 0.  1.
         -5    1    3    3    0  502  0.18682069140E+02 -0.53235156775E+02  0.97390389442E+01  0.57404903134E+02  0.41800000000E+01 0.  1.
        -11    1    1    2    0    0  0.52585491908E+02 -0.14606722518E+02  0.42545492961E+01  0.54742045007E+02  0.00000000000E+00 0.  1.
         11    1    1    2    0    0 -0.10781270201E+02  0.51117291506E+02  0.34385782694E+02  0.62542748017E+02  0.00000000000E+00 0. -1.
</event>
<event>
 7    1  0.2844572E-009  0.1091869E+03  0.7561462E-02  0.1262083E+00
          3   -1    0    0  501    0  0.00000000000E+00  0.00000000000E+00  0.62498905726E+02  0.62498905726E+02  0.00000000000E+00 0. -1.
         -3   -1    0    0    0  501 -0.00000000000E+00 -0.00000000000E+00 -0.23090671761E+03  0.23090671761E+03  0.00000000000E+00 0.  1.
         25    2    1    2    0    0  0.46285007121E+02  0.24866816677E+02 -0.97540862299E+02  0.16709541312E+03  0.12508395905E+03 0.  0.
          5    1    3    3  502    0 -0.12142816385E+02 -0.33047269101E+02  0.47383385709E+01  0.35770018692E+02  0.41800000000E+01 0.  1.
         -5    1    3    3    0  502  0.58427823506E+02  0.57914085778E+02 -0.10227920087E+03  0.13132539443E+03  0.41800000000E+01 0.  1.
        -11    1    1    2    0    0  0.23244368775E+01 -0.47054689778E+02 -0.16080269485E+02  0.49780738279E+02  0.00000000000E+00 0.  1.
         11    1    1    2    0    0 -0.48609443999E+02  0.22187873101E+02 -0.54786680101E+02  0.76529471938E+02  0.00000000000E+00 0. -1.
</event>
<event>
 6    1  0.2844572E-009  0.9720278E+02  0.7561462E-02  0.1286291E+00
         -1   -1    0    0    0  501 -0.00000000000E+00  0.00000000000E+00  0.72807119413E+03  0.72807119413E+03  0.00000000000E+00 0.  1.
          1   -1    0    0  501    0  0.00000000000E+00 -0.00000000000E+00 -0.30887995923E+02  0.30887995923E+02  0.00000000000E+00 0. -1.
          5    1    1    2  502    0 -0.33302504928E+01 -0.44054786527E+02  0.49350630023E+03  0.49549758380E+03  0.41800000000E+01 0. -1.
         -5    1    1    2    0  502  0.32361214265E+02  0.45359257438E+02  0.13728958312E+03  0.14822487125E+03  0.41800000000E+01 0. -1.
        -11    1    1    2    0    0 -0.48727556899E+02 -0.31555716872E+02  0.39269336050E+02  0.70087222962E+02  0.00000000000E+00 0. -1.
         11    1    1    2    0    0  0.19696593127E+02  0.30251245961E+02  0.27117978807E+02  0.45149512042E+02  0.00000000000E+00 0.  1.
</event>
<event>
 7    1  0.3369045E-009  0.1101716E+03  0.7561462E-02  0.1260252E+00
         -2   -1    0    0    0  501 -0.00000000000E+00  0.00000000000E+00  0.20998543620E+02  0.20998543620E+02  0.00000000000E+00 0.  1.
          2   -1    0    0  501    0  0.00000000000E+00 -0.00000000000E+00 -0.80623386243E+03  0.80623386243E+03  0.00000000000E+00 0. -1.
         25    2    1    2    0    0 -0.63991678242E+02 -0.25257492550E+02 -0.50361732126E+03  0.52346012286E+03  0.12508884099E+03 0.  0.
          5    1    3    3  502    0  0.96617842056E+01 -0.59622032955E+02 -0.24316888666E+03  0.25059273080E+03  0.41800000000E+01 0.  1.
         -5    1    3    3    0  502 -0.73653462448E+02  0.34364540406E+02 -0.26044843460E+03  0.27286739206E+03  0.41800000000E+01 0.  1.
        -11    1    1    2    0    0  0.46254217836E+02  0.35160689539E+02 -0.27688258910E+03  0.28291287511E+03  0.00000000000E+00 0.  1.
         11    1    1    2    0    0  0.17737460406E+02 -0.99031969894E+01 -0.47354084527E+01  0.20859408081E+02  0.00000000000E+00 0. -1.
</event>
<event>
 7    1  0.2844572E-009  0.1002484E+03  0.7561462E-02  0.1279774E+00
         -3   -1    0    0    0  501 -0.00000000000E+00  0.00000000000E+00  0.21409585846E+03  0.21409585846E+03  0.00000000000E+00 0.  1.
          3   -1    0    0  501    0  0.00000000000E+00 -0.00000000000E+00 -0.65236535325E+02  0.65236535325E+02  0.00000000000E+00 0. -1.
         25    2    1    2    0    0 -0.37266003860E+02  0.29752618293E+02  0.78366389345E+02  0.15512274470E+03  0.12509117318E+03 0.  0.
          5    1    3    3  502    0 -0.22453131810E+02 -0.44986828209E+02  0.56492175535E+02  0.75741640708E+02  0.41800000000E+01 0. -1.
         -5    1    3    3    0  502 -0.14812872050E+02  0.74739446503E+02  0.21874213810E+02  0.79381103996E+02  0.41800000000E+01 0. -1.
        -11    1    1    2    0    0  0.51197737298E+01 -0.39744999632E+02 -0.61097524844E+01  0.40536479302E+02  0.00000000000E+00 0. -1.
         11    1    1    2    0    0  0.32146230130E+02  0.99923813385E+01  0.76602686275E+02  0.83673169779E+02  0.00000000000E+00 0.  1.
</event>
<event>
 7    1  0.2844572E-009  0.8876116E+02  0.7561462E-02  0.1305880E+00
          1   -1    0    0  501    0  0.00000000000E+00  0.00000000000E+00  0.71612898455E+03  0.71612898455E+03  0.00000000000E+00 0. -1.
         -1   -1    0    0    0  501 -0.00000000000E+00 -0.00000000000E+00 -0.19854460580E+02  0.19854460580E+02  0.00000000000E+00 0.  1.
         25    2    1    2    0    0 -0.27377765166E+02 -0.28553713411E+02  0.48629051585E+03  0.50367745424E+03  0.12509058928E+03 0.  0.
          5    1    3    3  502    0 -0.35483952305E+02 -0.46361631108E+02  0.47872072192E+03  0.48228571792E+03  0.41800000000E+01 0.  1.
         -5    1    3    3    0  502  0.81061871387E+01  0.17807917697E+02  0.75697939292E+01  0.21391736320E+02  0.41800000000E+01 0.  1.
        -11    1    1    2    0    0  0.81187324016E+01 -0.33260930889E+02  0.63231282925E+02  0.71905482960E+02  0.00000000000E+00 0.  1.
         11    1    1    2    0    0  0.19259032764E+02  0.61814644300E+02  0.14675272519E+03  0.16040050792E+03  0.00000000000E+00 0. -1.
</event>
<event>
 7    1  0.4536653E-009  0.1534492E+03  0.7561462E-02  0.1196298E+00
          1   -1    0    0  501    0  0.00000000000E+00  0.00000000000E+00  0.27719552630E+03  0.27719552630E+03  0.00000000000E+00 0. -1.
         -1   -1    0    0    0  501 -0.00000000000E+00 -0.00000000000E+00 -0.11659744573E+03  0.11659744573E+03  0.00000000000E+00 0.  1.
         25    2    1    2    0    0 -0.72683471584E+02  0.98704072799E+02  0.43039042342E+01  0.17518800298E+03  0.12508769631E+03 0.  0.
          5    1    3    3  502    0  0.29278541737E+02  0.32625320369E+01 -0.16341473792E+02  0.33946918671E+02  0.41800000000E+01 0. -1.
         -5    1    3    3    0  502 -0.10196201332E+03  0.95441540762E+02  0.20645378026E+02  0.14124108431E+03  0.41800000000E+01 0. -1.
        -11    1    1    2    0    0  0.71232623498E+02 -0.46216882248E+02  0.46285928554E+02  0.96708190125E+02  0.00000000000E+00 0.  1.
         11    1    1    2    0    0  0.14508480855E+01 -0.52487190551E+02  0.11000824778E+03  0.12189677892E+03  0.00000000000E+00 0. -1.
</event>
<event>
 7    1  0.2844572E-009  0.1074280E+03  0.7561462E-02  0.1265408E+00
         -2   -1    0    0    0  501 -0.00000000000E+00  0.00000000000E+00  0.15710434189E+02  0.15710434189E+02  0.00000000000E+00 0.  1.
          2   -1    0    0  501    0  0.00000000000E+00 -0.00000000000E+00 -0.83765253613E+03  0.83765253613E+03  0.00000000000E+00 0. -1.
         25    2    1    2    0    0  0.24642088901E+02  0.23982601093E+02 -0.56061905538E+03  0.57543352757E+03  0.12509045407E+03 0.  0.
          5    1    3    3  502    0  0.68156480329E+02 -0.61575858125E+01 -0.21245704519E+03  0.22324580651E+03  0.41800000000E+01 0.  1.
         -5    1    3    3    0  502 -0.43514391428E+02  0.30140186906E+02 -0.34816201019E+03  0.35218772106E+03  0.41800000000E+01 0.  1.
        -11    1    1    2    0    0 -0.51357298130E+02  0.75047897472E+01 -0.12113300420E+03  0.13178428831E+03  0.00000000000E+00 0. -1.
         11    1    1    2    0    0  0.26715209228E+02 -0.31487390841E+02 -0.14019004237E+03  0.14614515443E+03  0.00000000000E+00 0.  1.
</event>
<event>
 7    1  0.2844572E-009  0.1131989E+03  0.7561462E-02  0.1254758E+00
         -1   -1    0    0    0  501 -0.00000000000E+00  0.00000000000E+00  0.10453966033E+03  0.10453966033E+03  0.00000000000E+00 0.  1.
          1   -1    0    0  501    0  0.00000000000E+00 -0.00000000000E+00 -0.14853867153E+03  0.14853867153E+03  0.00000000000E+00 0. -1.
         25    2    1    2    0    0  0.14751427874E+02  0.57885203117E+02 -0.38897374594E+02  0.14397800577E+03  0.12509340122E+03 0.  0.
          5    1    3    3  502    0 -0.46783785626E+02  0.60149320840E+02 -0.28083496982E+02  0.81319238792E+02  0.41800000000E+01 0. -1.
         -5    1    3    3    0  502  0.61535213500E+02 -0.22641177223E+01 -0.10813877612E+02  0.62658766973E+02  0.41800000000E+01 0. -1.
        -11    1    1    2    0    0  0.20778058791E+02 -0.39708681205E+00 -0.30497380614E+02  0.36904953995E+02  0.00000000000E+00 0. -1.
         11    1    1    2    0    0 -0.35529486666E+02 -0.57488116305E+02  0.25395744011E+02  0.72195372102E+02  0.00000000000E+00 0.  1.
</event>
<event>
 7    1  0.2844572E-009  0.1874191E+03  0.7561462E-02  0.1160810E+00
          1   -1    0    0  501    0  0.00000000000E+00  0.00000000000E+00  0.14694295363E+03  0.14694295363E+03  0.00000000000E+00 0. -1.
         -1   -1    0    0    0  501 -0.00000000000E+00 -0.00000000000E+00 -0.28635073623E+03  0.28635073623E+03  0.00000000000E+00 0.  1.
         25    2    1    2    0    0  0.98141550119E+02  0.11940129299E+03  0.11587839856E+02  0.19916919489E+03  0.12508260283E+03 0.  0.
          5    1    3    3  502    0  0.10939532940E+03  0.13669597126E+03 -0.15855035502E-01  0.17513023526E+03  0.41800000000E+01 0.  1.
         -5    1    3    3    0  502 -0.11253779279E+02 -0.17294678269E+02  0.11603694892E+02  0.24038959621E+02  0.41800000000E+01 0.  1.
        -11    1    1    2    0    0 -0.85611816003E+02 -0.33641007550E+02 -0.71295945354E+02  0.11637960411E+03  0.00000000000E+00 0.  1.
         11    1    1    2    0    0 -0.12529734116E+02 -0.85760285439E+02 -0.79699677095E+02  0.11774489086E+03  0.00000000000E+00 0. -1.
</event>
<event>
 7    1  0.2844572E-009  0.1116375E+03  0.7561462E-02  0.1257567E+00
          2   -1    0    0  501    0  0.00000000000E+00  0.00000000000E+00  0.20693346698E+03  0.20693346698E+03  0.00000000000E+00 0. -1.
         -2   -1    0    0    0  501 -0.00000000000E+00 -0.00000000000E+00 -0.65823495293E+02  0.65823495293E+02  0.00000000000E+00 0.  1.
         25    2    1    2    0    0 -0.43018125457E+02  0.61731635496E+01  0.77677120093E+02  0.15352374453E+03  0.12508852099E+03 0.  0.
          5    1    3    3  502    0  0.29164432726E+02  0.40475637043E+02  0.16234779979E+02  0.52629666645E+02  0.41800000000E+01 0. -1.
         -5    1    3    3    0  502 -0.72182558182E+02 -0.34302473493E+02  0.61442340113E+02  0.10089407788E+03  0.41800000000E+01 0. -1.
        -11    1    1    2    0    0 -0.10365615928E+02 -0.32175774860E+02  0.46495101109E+02  0.57484962456E+02  0.00000000000E+00 0. -1.
         11    1    1    2    0    0  0.53383741385E+02  0.26002611311E+02  0.16937750481E+02  0.61748255284E+02  0.00000000000E+00 0.  1.
</event>
<event>
 7    1  0.2844572E-009  0.8717230E+02  0.7561462E-02  0.1309848E+00
         -1   -1    0    0    0  501 -0.00000000000E+00  0.00000000000E+00  0.19289739337E+02  0.19289739337E+02  0.00000000000E+00 0.  1.
          1   -1    0    0  501    0  0.00000000000E+00 -0.00000000000E+00 -0.61803566780E+03  0.61803566780E+03  0.00000000000E+00 0. -1.
         25    2    1    2    0    0  0.18386667327E+02 -0.36933829176E+01 -0.34749110430E+03  0.36979532608E+03  0.12508718964E+03 0.  0.
          5    1    3    3  502    0 -0.33674552710E+02 -0.98799462162E+01 -0.25609541224E+02  0.43645272816E+02  0.41800000000E+01 0. -1.
         -5    1    3    3    0  502  0.52061220037E+02  0.61865632986E+01 -0.32188156308E+03  0.32615005327E+03  0.41800000000E+01 0. -1.
        -11    1    1    2    0    0 -0.52342010757E+02  0.10845896435E+01 -0.19374086948E+03  0.20068977785E+03  0.00000000000E+00 0. -1.
         11    1    1    2    0    0  0.33955343430E+02  0.26087932742E+01 -0.57513954682E+02  0.66840303208E+02  0.00000000000E+00 0.  1.
</event>
<event>
 7    1  0.2844572E-009  0.1218532E+03  0.7561462E-02  0.1240071E+00
          1   -1    0    0  501    0  0.00000000000E+00  0.00000000000E+00  0.84456788014E+03  0.84456788014E+03  0.00000000000E+00 0. -1.
         -1   -1    0    0    0  501 -0.00000000000E+00 -0.00000000000E+00 -0.19038059713E+02  0.19038059713E+02  0.00000000000E+00 0.  1.
         25    2    1    2    0    0  0.53078807636E+02 -0.26414402335E+02  0.36060184581E+03  0.38625911266E+03  0.12508928986E+03 0.  0.
          5    1    3    3  502    0 -0.40714120271E+02 -0.16082272783E+02  0.11384343522E+03  0.12204130133E+03  0.41800000000E+01 0.  1.
         -5    1    3    3    0  502  0.93792927906E+02 -0.10332129552E+02  0.24675841059E+03  0.26421781132E+03  0.41800000000E+01 0.  1.
        -11    1    1    2    0    0 -0.44576781581E+02  0.57668884198E+02  0.36803487375E+03  0.37518323251E+03  0.00000000000E+00 0. -1.
         11    1    1    2    0    0 -0.85020260541E+01 -0.31254481862E+02  0.96893100867E+02  0.10216359469E+03  0.00000000000E+00 0.  1.
</event>
<event>
 7    1  0.2844572E-009  0.1204359E+03  0.7561462E-02  0.1242380E+00
         -2   -1    0    0    0  501 -0.00000000000E+00  0.00000000000E+00  0.52405523626E+02  0.52405523626E+02  0.00000000000E+00 0.  1.
          2   -1    0    0  501    0  0.00000000000E+00 -0.00000000000E+00 -0.31008674548E+03  0.31008674548E+03  0.00000000000E+00 0. -1.
         25    2    1    2    0    0  0.59752117835E+02 -0.35118028305E+02 -0.16583915027E+03  0.21898284768E+03  0.12508905755E+03 0.  0.
          5    1    3    3  502    0 -0.22117239002E+02 -0.44763848039E+02 -0.25624110005E+02  0.56276476132E+02  0.41800000000E+01 0.  1.
         -5    1    3    3    0  502  0.81869356836E+02  0.96458197341E+01 -0.14021504026E+03  0.16270637155E+03  0.41800000000E+01 0.  1.
        -11    1    1    2    0    0 -0.61366786233E+02 -0.10774126486E+02 -0.66224299468E+02  0.90926465312E+02  0.00000000000E+00 0.  1.
         11    1    1    2    0    0  0.16146683980E+01  0.45892154791E+02 -0.25617772121E+02  0.52582956115E+02  0.00000000000E+00 0. -1.
</event>
<event>
 7    1  0.3156576E-009  0.2928179E+03  0.7561462E-02  0.1088887E+00
         -1   -1    0    0    0  501 -0.00000000000E+00  0.00000000000E+00  0.13442017505E+03  0.13442017505E+03  0.00000000000E+00 0.  1.
          1   -1    0    0  501    0  0.00000000000E+00 -0.00000000000E+00 -0.66495958408E+03  0.66495958408E+03  0.00000000000E+00 0. -1.
         25    2    1    2    0    0  0.23849888689E+03 -0.14350729836E+03 -0.27534794093E+03  0.41102355960E+03  0.12509122368E+03 0.  0.
          5    1    3    3  502    0  0.80166238889E+02 -0.10407515175E+03 -0.17698831350E+03  0.22045543446E+03  0.41800000000E+01 0.  1.
         -5    1    3    3    0  502  0.15833264801E+03 -0.39432146615E+02 -0.98359627424E+02  0.19056812514E+03  0.41800000000E+01 0.  1.
        -11    1    1    2    0    0 -0.18418233489E+03  0.64603099438E+02 -0.15062429329E+03  0.24654486544E+03  0.00000000000E+00 0.  1.
         11    1    1    2    0    0 -0.54316551999E+02  0.78904198927E+02 -0.10456717481E+03  0.14181133410E+03  0.00000000000E+00 0. -1.
</event>
<event>
 7    1  0.2844572E-009  0.9554670E+02  0.7561462E-02  0.1289950E+00
         -1   -1    0    0    0  501 -0.00000000000E+00  0.00000000000E+00  0.20113602234E+03  0.20113602234E+03  0.00000000000E+00 0.  1.
          1   -1    0    0  501    0  0.00000000000E+00 -0.00000000000E+00 -0.11819858975E+03  0.11819858975E+03  0.00000000000E+00 0. -1.
         25    2    1    2    0    0  0.52370411297E+02  0.31661816957E+02  0.13944330885E+03  0.19707027996E+03  0.12508848159E+03 0.  0.
          5    1    3    3  502    0 -0.12065362761E+02 -0.31305441849E+02  0.35830492388E+01  0.33998739826E+02  0.41800000000E+01 0.  1.
         -5    1    3    3    0  502  0.64435774057E+02  0.62967258805E+02  0.13586025961E+03  0.16307154013E+03  0.41800000000E+01 0.  1.
        -11    1    1    2    0    0 -0.21397530633E+02  0.18296314312E+01 -0.71176197178E+02  0.74345496925E+02  0.00000000000E+00 0. -1.
         11    1    1    2    0    0 -0.30972880663E+02 -0.33491448388E+02  0.14670320925E+02  0.47918835209E+02  0.00000000000E+00 0.  1.
</event>
<event>
 7    1  0.2844572E-009  0.2783238E+03  0.7561462E-02  0.1096608E+00
          1   -1    0    0  501    0  0.00000000000E+00  0.00000000000E+00  0.34057880012E+03  0.34057880012E+03  0.00000000000E+00 0. -1.
         -1   -1    0    0    0  501 -0.00000000000E+00 -0.00000000000E+00 -0.64195676090E+03  0.64195676090E+03  0.00000000000E+00 0.  1.
         25    2    1    2    0    0 -0.20970152721E+03  0.18002783319E+03  0.22736155263E+03  0.37911140122E+03  0.12508967859E+03 0.  0.
          5    1    3    3  502    0 -0.67463379530E+02  0.47997745537E+02  0.14751748416E+03  0.16921575485E+03  0.41800000000E+01 0.  1.
         -5    1    3    3    0  502 -0.14223814768E+03  0.13203008765E+03  0.79844068464E+02  0.20989564638E+03  0.41800000000E+01 0.  1.
        -11    1    1    2    0    0  0.94743715417E+02 -0.10934320676E+03 -0.35559008540E+03  0.38389662321E+03  0.00000000000E+00 0.  1.
         11    1    1    2    0    0  0.11495781179E+03 -0.70684626426E+02 -0.17314942800E+03  0.21952753659E+03  0.00000000000E+00 0. -1.
</event>
<event>
 7    1  0.2844572E-009  0.9429790E+02  0.7561462E-02  0.1292765E+00
          1   -1    0    0  501    0  0.00000000000E+00  0.00000000000E+00  0.41288281180E+02  0.41288281180E+02  0.00000000000E+00 0. -1.
         -1   -1    0    0    0  501 -0.00000000000E+00 -0.00000000000E+00 -0.34345052194E+03  0.34345052194E+03  0.00000000000E+00 0.  1.
         25    2    1    2    0    0  0.26580686191E+02 -0.35456597373E+02 -0.20710391790E+03  0.24597406779E+03  0.12508999177E+03 0.  0.
          5    1    3    3  502    0 -0.25197688858E+02 -0.23126690319E+02 -0.18501310791E+03  0.18819428745E+03  0.41800000000E+01 0.  1.
         -5    1    3    3    0  502  0.51778375050E+02 -0.12329907054E+02 -0.22090809985E+02  0.57779780343E+02  0.41800000000E+01 0.  1.
        -11    1    1    2    0    0 -0.60105439105E+02  0.16921623994E+02 -0.64379233450E+02  0.89686625916E+02  0.00000000000E+00 0. -1.
         11    1    1    2    0    0  0.33524752913E+02  0.18534973379E+02 -0.30679089406E+02  0.49078109406E+02  0.00000000000E+00 0.  1.
</event>
<event>
 7    1  0.2844572E-009  0.8907084E+02  0.7561462E-02  0.1305118E+00
          1   -1    0    0  501    0  0.00000000000E+00  0.00000000000E+00  0.72412076284E+02  0.72412076284E+02  0.00000000000E+00 0. -1.
         -1   -1    0    0    0  501 -0.00000000000E+00 -0.00000000000E+00 -0.25248061925E+03  0.25248061925E+03  0.00000000000E+00 0.  1.
         25    2    1    2    0    0 -0.12645941887E+02  0.24968459511E+02 -0.18943311541E+03  0.22872755607E+03  0.12509214953E+03 0.  0.
          5    1    3    3  502    0  0.47224973704E+02 -0.27198785755E+01 -0.13498102090E+03  0.14309068552E+03  0.41800000000E+01 0.  1.
         -5    1    3    3    0  502 -0.59870915591E+02  0.27688338086E+02 -0.54452094515E+02  0.85636870545E+02  0.41800000000E+01 0.  1.
        -11    1    1    2    0    0  0.23982718814E+02  0.11334669408E+02 -0.30936606228E+02  0.40751921883E+02  0.00000000000E+00 0.  1.
         11    1    1    2    0    0 -0.11336776927E+02 -0.36303128918E+02  0.40301178674E+02  0.55413217583E+02  0.00000000000E+00 0. -1.
</event>
<event>
 7    1  0.2844572E-009  0.1225099E+03  0.7561462E-02  0.1239013E+00
          2   -1    0    0  501    0  0.00000000000E+00  0.00000000000E+00  0.21038727244E+03  0.21038727244E+03  0.00000000000E+00 0. -1.
         -2   -1    0    0    0  501 -0.00000000000E+00 -0.00000000000E+00 -0.88465336170E+02  0.88465336170E+02  0.00000000000E+00 0.  1.
         25    2    1    2    0    0 -0.57722920519E+02 -0.26208262870E+02  0.87235172353E+01  0.14051048499E+03  0.12509311749E+03 0.  0.
          5    1    3    3  502    0 -0.90180945990E+02 -0.40578987863E+02 -0.11166986047E+02  0.99606381588E+02  0.41800000000E+01 0. -1.
         -5    1    3    3    0  502  0.32458025472E+02  0.14370724993E+02  0.19890503282E+02  0.40904103402E+02  0.41800000000E+01 0. -1.
        -11    1    1    2    0    0  0.15950179914E+01 -0.30481875089E+02  0.25357767448E+02  0.39682554874E+02  0.00000000000E+00 0.  1.
         11    1    1    2    0    0  0.56127902527E+02  0.56690137960E+02  0.87840651590E+02  0.11865956875E+03  0.00000000000E+00 0. -1.
</event>
<event>
 7    1  0.2844572E-009  0.1943676E+03  0.7561462E-02  0.1154580E+00
          2   -1    0    0  501    0  0.00000000000E+00  0.00000000000E+00  0.45752928910E+03  0.45752928910E+03  0.00000000000E+00 0. -1.
         -2   -1    0    0    0  501 -0.00000000000E+00 -0.00000000000E+00 -0.89013584255E+02  0.89013584255E+02  0.00000000000E+00 0.  1.
         25    2    1    2    0    0 -0.45688137605E+02 -0.16363720709E+03  0.19468239962E+03  0.28707753900E+03  0.12509090781E+03 0.  0.
          5    1    3    3  502    0  0.29539227306E+02 -0.98655559509E+02  0.13905637733E+03  0.17308851449E+03  0.41800000000E+01 0.  1.
         -5    1    3    3    0  502 -0.75227364911E+02 -0.64981647581E+02  0.55626022289E+02  0.11398902451E+03  0.41800000000E+01 0.  1.
        -11    1    1    2    0    0  0.11179887013E+02  0.14776805884E+03  0.10767174200E+03  0.18317639890E+03  0.00000000000E+00 0.  1.
         11    1    1    2    0    0  0.34508250592E+02  0.15869148252E+02  0.66161563226E+02  0.76288935460E+02  0.00000000000E+00 0. -1.
</event>
<event>
 7    1  0.2844572E-009  0.2627705E+03  0.7561462E-02  0.1105490E+00
          1   -1    0    0  501    0  0.00000000000E+00  0.00000000000E+00  0.54167919860E+03  0.54167919860E+03  0.00000000000E+00 0. -1.
         -1   -1    0    0    0  501 -0.00000000000E+00 -0.00000000000E+00 -0.17043841394E+03  0.17043841394E+03  0.00000000000E+00 0.  1.
         25    2    1    2    0    0 -0.23000201566E+03  0.12471773580E+03  0.67269080470E+02  0.29770377754E+03  0.12508784571E+03 0.  0.
          5    1    3    3  502    0 -0.97200445176E+02  0.42660730256E+02  0.90834501436E+02  0.13977211274E+03  0.41800000000E+01 0.  1.
         -5    1    3    3    0  502 -0.13280157048E+03  0.82057005547E+02 -0.23565420965E+02  0.15793166480E+03  0.41800000000E+01 0.  1.
        -11    1    1    2    0    0  0.75256281702E+02 -0.56114013323E+02  0.42765533042E+02  0.10315610134E+03  0.00000000000E+00 0.  1.
         11    1    1    2    0    0  0.15474573395E+03 -0.68603722479E+02  0.26120617115E+03  0.31125773366E+03  0.00000000000E+00 0. -1.
</event>
<event>
 7    1  0.2844572E-009  0.1481292E+03  0.7561462E-02  0.1202791E+00
         -2   -1    0    0    0  501 -0.00000000000E+00  0.00000000000E+00  0.19504875464E+02  0.19504875464E+02  0.00000000000E+00 0.  1.
          2   -1    0    0  501    0  0.00000000000E+00 -0.00000000000E+00 -0.15603308275E+04  0.15603308275E+04  0.00000000000E+00 0. -1.
         25    2    1    2    0    0  0.12807575011E+03  0.19582911391E+02 -0.10168920945E+04  0.10327167271E+04  0.12508964129E+03 0.  0.
          5    1    3    3  502    0  0.74697987601E+02 -0.15971003238E+02 -0.85675264053E+03  0.86016127660E+03  0.41800000000E+01 0.  1.
         -5    1    3    3    0  502  0.53377762510E+02  0.35553914629E+02 -0.16013945396E+03  0.17255545048E+03  0.41800000000E+01 0.  1.
        -11    1    1    2    0    0 -0.94701282688E+02 -0.52777983669E+02 -0.40355059631E+03  0.41785994339E+03  0.00000000000E+00 0.  1.
         11    1    1    2    0    0 -0.33374467423E+02  0.33195072278E+02 -0.12038326127E+03  0.12925903254E+03  0.00000000000E+00 0. -1.
</event>
<event>
 7    1  0.2844572E-009  0.1539435E+03  0.7561462E-02  0.1195709E+00
         -2   -1    0    0    0  501 -0.00000000000E+00  0.00000000000E+00  0.24931311467E+02  0.24931311467E+02  0.00000000000E+00 0.  1.
          2   -1    0    0  501    0  0.00000000000E+00 -0.00000000000E+00 -0.13843413737E+04  0.13843413737E+04  0.00000000000E+00 0. -1.
         25    2    1    2    0    0 -0.64040160081E+02 -0.13068869936E+03 -0.62734382633E+03  0.65603810499E+03  0.12508013641E+03 0.  0.
          5    1    3    3  502    0 -0.11670245562E+02 -0.81253136929E+02 -0.52157000911E+03  0.52800664171E+03  0.41800000000E+01 0. -1.
         -5    1    3    3    0  502 -0.52369914519E+02 -0.49435562432E+02 -0.10577381722E+03  0.12803146328E+03  0.41800000000E+01 0. -1.
        -11    1    1    2    0    0  0.70582814626E+02  0.10141519330E+03 -0.69327057982E+03  0.70419533654E+03  0.00000000000E+00 0. -1.
         11    1    1    2    0    0 -0.65426545444E+01  0.29273506060E+02 -0.38795656066E+02  0.49039243624E+02  0.00000000000E+00 0.  1.
</event>
<event>
 7    1  0.2844572E-009  0.1709204E+03  0.7561462E-02  0.1176891E+00
          1   -1    0    0  501    0  0.00000000000E+00  0.00000000000E+00  0.26020931802E+03  0.26020931802E+03  0.00000000000E+00 0. -1.
         -1   -1    0    0    0  501 -0.00000000000E+00 -0.00000000000E+00 -0.13491257954E+03  0.13491257954E+03  0.00000000000E+00 0.  1.
         25    2    1    2    0    0 -0.30793140260E+02 -0.14345210128E+03  0.10454307987E+03  0.21932583223E+03  0.12509133577E+03 0.  0.
          5    1    3    3  502    0 -0.32819471407E+02 -0.16564210227E+03  0.83633900251E+02  0.18848481483E+03  0.41800000000E+01 0. -1.
         -5    1    3    3    0  502  0.20263311470E+01  0.22190000995E+02  0.20909179620E+02  0.30841017403E+02  0.41800000000E+01 0. -1.
        -11    1    1    2    0    0 -0.53292672597E+01  0.46301186402E+02 -0.34830092301E+02  0.58183642731E+02  0.00000000000E+00 0.  1.
         11    1    1    2    0    0  0.36122407520E+02  0.97150914876E+02  0.55583750911E+02  0.11761242261E+03  0.00000000000E+00 0. -1.
</event>
<event>
 7    1  0.2844572E-009  0.9693001E+02  0.7561462E-02  0.1286887E+00
         -1   -1    0    0    0  501 -0.00000000000E+00  0.00000000000E+00  0.21558750192E+03  0.21558750192E+03  0.00000000000E+00 0.  1.
          1   -1    0    0  501    0  0.00000000000E+00 -0.00000000000E+00 -0.58218556391E+02  0.58218556391E+02  0.00000000000E+00 0. -1.
         25    2    1    2    0    0 -0.26349319760E+02 -0.49418836961E+01  0.92747730156E+02  0.15801510964E+03  0.12509166462E+03 0.  0.
          5    1    3    3  502    0 -0.71169837669E+02  0.11329236225E+02  0.81448767056E+02  0.10883414649E+03  0.41800000000E+01 0.  1.
         -5    1    3    3    0  502  0.44820517908E+02 -0.16271119921E+02  0.11298963100E+02  0.49180963148E+02  0.41800000000E+01 0.  1.
        -11    1    1    2    0    0 -0.62264136893E+01  0.31294058901E+02  0.66595127048E+02  0.73844412764E+02  0.00000000000E+00 0.  1.
         11    1    1    2    0    0  0.32575733450E+02 -0.26352175205E+02 -0.19739116703E+01  0.41946535913E+02  0.00000000000E+00 0. -1.
</event>
<event>
 7    1  0.2844572E-009  0.1534869E+03  0.7561462E-02  0.1196253E+00
         -2   -1    0    0    0  501 -0.00000000000E+00  0.00000000000E+00  0.37004700179E+03  0.37004700179E+03  0.00000000000E+00 0.  1.
          2   -1    0    0  501    0  0.00000000000E+00 -0.00000000000E+00 -0.67559329167E+02  0.67559329167E+02  0.00000000000E+00 0. -1.
         25    2    1    2    0    0 -0.41625718292E+02 -0.10470806370E+03  0.14180792133E+03  0.22011201798E+03  0.12507331802E+03 0.  0.
          5    1    3    3  502    0 -0.14336106550E+02  0.24851669394E+02  0.45348757132E+01  0.29345645681E+02  0.41800000000E+01 0. -1.
         -5    1    3    3    0  502 -0.27289611742E+02 -0.12955973309E+03  0.13727304561E+03  0.19076637230E+03  0.41800000000E+01 0. -1.
        -11    1    1    2    0    0  0.43762257722E+02  0.30895956355E+01  0.36863169911E+02  0.57302478986E+02  0.00000000000E+00 0. -1.
         11    1    1    2    0    0 -0.21365394296E+01  0.10161846806E+03  0.12381658139E+03  0.16019183399E+03  0.00000000000E+00 0.  1.
</event>
<event>
 7    1  0.2844572E-009  0.1302579E+03  0.7561462E-02  0.1227074E+00
          3   -1    0    0  501    0  0.00000000000E+00  0.00000000000E+00  0.42926050073E+02  0.42926050073E+02  0.00000000000E+00 0. -1.
         -3   -1    0    0    0  501 -0.00000000000E+00 -0.00000000000E+00 -0.46468469064E+03  0.46468469064E+03  0.00000000000E+00 0.  1.
         25    2    1    2    0    0  0.76330861701E+02 -0.45104781286E+02 -0.22764477865E+03  0.27446357864E+03  0.12508904432E+03 0.  0.
          5    1    3    3  502    0  0.96188600976E+02 -0.65139550403E+02 -0.21239628188E+03  0.24212612610E+03  0.41800000000E+01 0. -1.
         -5    1    3    3    0  502 -0.19857739275E+02  0.20034769118E+02 -0.15248496768E+02  0.32337452535E+02  0.41800000000E+01 0. -1.
        -11    1    1    2    0    0 -0.85265207071E+02  0.55737180097E+02 -0.19415935516E+03  0.21925930762E+03  0.00000000000E+00 0.  1.
         11    1    1    2    0    0  0.89343453697E+01 -0.10632398811E+02  0.45493244740E-01  0.13887854453E+02  0.00000000000E+00 0. -1.
</event>
<event>
 7    1  0.2844572E-009  0.1029373E+03  0.7561462E-02  0.1274238E+00
         -2   -1    0    0    0  501 -0.00000000000E+00  0.00000000000E+00  0.20268385910E+03  0.20268385910E+03  0.00000000000E+00 0.  1.
          2   -1    0    0  501    0  0.00000000000E+00 -0.00000000000E+00 -0.91312687875E+02  0.91312687875E+02  0.00000000000E+00 0. -1.
         25    2    1    2    0    0  0.18697624765E+02  0.22946826388E+02 -0.21403694465E+02  0.13032102766E+03  0.12509713866E+03 0.  0.
          5    1    3    3  502    0 -0.41645236417E+02 -0.27249121473E+02 -0.77189887710E+01  0.50536081416E+02  0.41800000000E+01 0. -1.
         -5    1    3    3    0  502  0.60342861182E+02  0.50195947862E+02 -0.13684705694E+02  0.79784946245E+02  0.41800000000E+01 0. -1.
        -11    1    1    2    0    0  0.51838232769E+01 -0.44715385335E+02  0.12130224559E+03  0.12938536430E+03  0.00000000000E+00 0.  1.
         11    1    1    2    0    0 -0.23881448042E+02  0.21768558947E+02  0.11472620104E+02  0.34290155019E+02  0.00000000000E+00 0. -1.
</event>
<event>
 7    1  0.2844572E-009  0.1263397E+03  0.7561462E-02  0.1232990E+00
         -1   -1    0    0    0  501 -0.00000000000E+00  0.00000000000E+00  0.16952282461E+03  0.16952282461E+03  0.00000000000E+00 0.  1.
          1   -1    0    0  501    0  0.00000000000E+00 -0.00000000000E+00 -0.12998558445E+03  0.12998558445E+03  0.00000000000E+00 0. -1.
         25    2    1    2    0    0 -0.21549322361E+02 -0.79635322507E+02 -0.37409343334E+02  0.15444371189E+03  0.12508894151E+03 0.  0.
          5    1    3    3  502    0  0.24652179390E+02  0.14062102176E+02 -0.40753405246E+02  0.49837587275E+02  0.41800000000E+01 0.  1.
         -5    1    3    3    0  502 -0.46201501752E+02 -0.93697424683E+02  0.33440619114E+01  0.10460612461E+03  0.41800000000E+01 0.  1.
        -11    1    1    2    0    0 -0.25509886599E+02 -0.15979685096E+01  0.32071712719E+02  0.41011005528E+02  0.00000000000E+00 0.  1.
         11    1    1    2    0    0  0.47059208960E+02  0.81233291017E+02  0.44874870776E+02  0.10405369164E+03  0.00000000000E+00 0. -1.
</event>
<event>
 7    1  0.2844572E-009  0.1608527E+03  0.7561462E-02  0.1187737E+00
          2   -1    0    0  501    0  0.00000000000E+00  0.00000000000E+00  0.19396579790E+03  0.19396579790E+03  0.00000000000E+00 0. -1.
         -2   -1    0    0    0  501 -0.00000000000E+00 -0.00000000000E+00 -0.20003886657E+03  0.20003886657E+03  0.00000000000E+00 0.  1.
         25    2    1    2    0    0  0.12939483241E+03  0.75198244358E+02 -0.68845038098E+02  0.20685083782E+03  0.12509928547E+03 0.  0.
          5    1    3    3  502    0  0.12487161847E+03  0.81625367830E+02 -0.12452819482E+02  0.14976036487E+03  0.41800000000E+01 0.  1.
         -5    1    3    3    0  502  0.45232139397E+01 -0.64271234712E+01 -0.56392218616E+02  0.57090472944E+02  0.41800000000E+01 0.  1.
        -11    1    1    2    0    0 -0.13265743037E+03 -0.55840205471E+02  0.27133431693E+02  0.14646619233E+03  0.00000000000E+00 0.  1.
         11    1    1    2    0    0  0.32625979607E+01 -0.19358038888E+02  0.35638537731E+02  0.40687634321E+02  0.00000000000E+00 0. -1.
</event>
<event>
 7    1  0.2844572E-009  0.1279914E+03  0.7561462E-02  0.1230467E+00
          1   -1    0    0  501    0  0.00000000000E+00  0.00000000000E+00  0.29514458063E+03  0.29514458063E+03  0.00000000000E+00 0. -1.
         -1   -1    0    0    0  501 -0.00000000000E+00 -0.00000000000E+00 -0.77419229346E+02  0.77419229346E+02  0.00000000000E+00 0.  1.
         25    2    1    2    0    0 -0.44096427830E+02 -0.92425658673E+02  0.76348820568E+02  0.17878207671E+03  0.12508753424E+03 0.  0.
          5    1    3    3  502    0 -0.46368697066E+02 -0.11819775340E+03  0.38493835755E+02  0.13274039614E+03  0.41800000000E+01 0.  1.
         -5    1    3    3    0  502  0.22722692364E+01  0.25772094731E+02  0.37854984813E+02  0.46041680568E+02  0.41800000000E+01 0.  1.
        -11    1    1    2    0    0  0.90685571374E+01  0.27645986609E+02  0.10991269551E+03  0.11369846058E+03  0.00000000000E+00 0. -1.
         11    1    1    2    0    0  0.35027870692E+02  0.64779672064E+02  0.31463835208E+02  0.80083272685E+02  0.00000000000E+00 0.  1.
</event>
<event>
 6    1  0.2844572E-009  0.1025615E+03  0.7561462E-02  0.1275000E+00
          1   -1    0    0  501    0  0.00000000000E+00  0.00000000000E+00  0.10716674280E+03  0.10716674280E+03  0.00000000000E+00 0. -1.
         -1   -1    0    0    0  501 -0.00000000000E+00 -0.00000000000E+00 -0.18431360329E+03  0.18431360329E+03  0.00000000000E+00 0.  1.
          5    1    1    2  502    0  0.27889419911E+01 -0.48508939768E+02  0.11328147512E+02  0.50066902849E+02  0.41800000000E+01 0.  1.
         -5    1    1    2    0  502 -0.47013516498E+02  0.71896208528E+02  0.22185731481E+02  0.88820125060E+02  0.41800000000E+01 0.  1.
        -11    1    1    2    0    0  0.21324162194E+02 -0.37722606268E+02 -0.51019685811E+01  0.43631926388E+02  0.00000000000E+00 0. -1.
         11    1    1    2    0    0  0.22900412313E+02  0.14335337508E+02 -0.10555877091E+03  0.10896139179E+03  0.00000000000E+00 0.  1.
</event>
<event>
 7    1  0.2844572E-009  0.9178688E+02  0.7561462E-02  0.1298581E+00
         -2   -1    0    0    0  501 -0.00000000000E+00  0.00000000000E+00  0.20156056484E+02  0.20156056484E+02  0.00000000000E+00 0.  1.
          2   -1    0    0  501    0  0.00000000000E+00 -0.00000000000E+00 -0.62449575148E+03  0.62449575148E+03  0.00000000000E+00 0. -1.
         25    2    1    2    0    0  0.24461884729E+02 -0.17281939513E+02 -0.32776632486E+03  0.35210136895E+03  0.12509021170E+03 0.  0.
          5    1    3    3  502    0 -0.37393922150E+02 -0.82544272277E+01 -0.32918635827E+02  0.50670997299E+02  0.41800000000E+01 0.  1.
         -5    1    3    3    0  502  0.61855806879E+02 -0.90275122849E+01 -0.29484768903E+03  0.30143037165E+03  0.41800000000E+01 0.  1.
        -11    1    1    2    0    0  0.27306981298E+02  0.13588192852E+02 -0.18320557135E+03  0.18572719668E+03  0.00000000000E+00 0. -1.
         11    1    1    2    0    0 -0.51768866027E+02  0.36937466601E+01 -0.93367798791E+02  0.10682324235E+03  0.00000000000E+00 0.  1.
</event>
<event>
 7    1  0.2844572E-009  0.1304659E+03  0.7561462E-02  0.1226766E+00
          1   -1    0    0  501    0  0.00000000000E+00  0.00000000000E+00  0.94297449975E+02  0.94297449975E+02  0.00000000000E+00 0. -1.
         -1   -1    0    0    0  501 -0.00000000000E+00 -0.00000000000E+00 -0.23040114964E+03  0.23040114964E+03  0.00000000000E+00 0.  1.
         25    2    1    2    0    0 -0.83069563739E+02  0.38950696401E+02 -0.31944010298E+02  0.15837997265E+03  0.12508431865E+03 0.  0.
          5    1    3    3  502    0  0.38718977915E+01  0.52701712401E+02 -0.44700250568E+02  0.69340081362E+02  0.41800000000E+01 0.  1.
         -5    1    3    3    0  502 -0.86941461530E+02 -0.13751016000E+02  0.12756240269E+02  0.89039891284E+02  0.41800000000E+01 0.  1.
        -11    1    1    2    0    0  0.64724391214E+02  0.11840776570E+02 -0.24777825842E+02  0.70309255872E+02  0.00000000000E+00 0.  1.
         11    1    1    2    0    0  0.18345172525E+02 -0.50791472971E+02 -0.79381863521E+02  0.96009371092E+02  0.00000000000E+00 0. -1.
</event>
<event>
 7    1  0.2844572E-009  0.9178161E+02  0.7561462E-02  0.1298594E+00
          2   -1    0    0  501    0  0.00000000000E+00  0.00000000000E+00  0.53050511002E+03  0.53050511002E+03  0.00000000000E+00 0. -1.
         -2   -1    0    0    0  501 -0.00000000000E+00 -0.00000000000E+00 -0.28157318881E+02  0.28157318881E+02  0.00000000000E+00 0.  1.
         25    2    1    2    0    0  0.30747982088E+02  0.24999002298E+02  0.36633971454E+03  0.38913005715E+03  0.12508807461E+03 0.  0.
          5    1    3    3  502    0  0.13693635428E+02 -0.50947688734E+02  0.13450544778E+03  0.14454193344E+03  0.41800000000E+01 0. -1.
         -5    1    3    3    0  502  0.17054346660E+02  0.75946691033E+02  0.23183426676E+03  0.24458812371E+03  0.41800000000E+01 0. -1.
        -11    1    1    2    0    0 -0.23719110448E+02  0.29232130901E+01 -0.59954341631E+01  0.24639127541E+02  0.00000000000E+00 0.  1.
         11    1    1    2    0    0 -0.70288716402E+01 -0.27922215389E+02  0.14200351076E+03  0.14489324420E+03  0.00000000000E+00 0. -1.
</event>
<event>
 7    1  0.2844572E-009  0.9247174E+02  0.7561462E-02  0.1296974E+00
          1   -1    0    0  501    0  0.00000000000E+00  0.00000000000E+00  0.65866986339E+02  0.65866986339E+02  0.00000000000E+00 0. -1.
         -1   -1    0    0    0  501 -0.00000000000E+00 -0.00000000000E+00 -0.22458404194E+03  0.22458404194E+03  0.00000000000E+00 0.  1.
         25    2    1    2    0    0 -0.27646551912E+01  0.15601448489E+02 -0.26423469354E+02  0.12883087082E+03  0.12509254587E+03 0.  0.
          5    1    3    3  502    0  0.58412112757E+01  0.53537852362E+02  0.28751185180E+02  0.61192519429E+02  0.41800000000E+01 0. -1.
         -5    1    3    3    0  502 -0.86058664669E+01 -0.37936403873E+02 -0.55174654534E+02  0.67638351395E+02  0.41800000000E+01 0. -1.
        -11    1    1    2    0    0 -0.15614295192E+02  0.34806173087E+02 -0.67112248851E+02  0.77196695817E+02  0.00000000000E+00 0.  1.
         11    1    1    2    0    0  0.18378950383E+02 -0.50407621575E+02 -0.65181337397E+02  0.84423461638E+02  0.00000000000E+00 0. -1.
</event>
<event>
 7    1  0.2844572E-009  0.3213678E+03  0.7561462E-02  0.1075022E+00
          2   -1    0    0  501    0  0.00000000000E+00  0.00000000000E+00  0.86307203766E+03  0.86307203766E+03  0.00000000000E+00 0. -1.
         -2   -1    0    0    0  501 -0.00000000000E+00 -0.00000000000E+00 -0.14508348680E+03  0.14508348680E+03  0.00000000000E+00 0.  1.
         25    2    1    2    0    0  0.30869932543E+03  0.52259971395E+02  0.18881783604E+03  0.38642970157E+03  0.12509740573E+03 0.  0.
          5    1    3    3  502    0  0.24356744143E+03  0.70990074987E+02  0.95697753320E+02  0.27118300401E+03  0.41800000000E+01 0.  1.
         -5    1    3    3    0  502  0.65131884002E+02 -0.18730103592E+02  0.93120082722E+02  0.11524669757E+03  0.41800000000E+01 0.  1.
        -11    1    1    2    0    0 -0.19315658062E+03 -0.67378858931E+02  0.38841742239E+03  0.43899597867E+03  0.00000000000E+00 0. -1.
         11    1    1    2    0    0 -0.11554274481E+03  0.15118887537E+02  0.14075329243E+03  0.18272984422E+03  0.00000000000E+00 0.  1.
</event>
<event>
 7    1  0.2844572E-009  0.1380195E+03  0.7561462E-02  0.1216019E+00
         -1   -1    0    0    0  501 -0.00000000000E+00  0.00000000000E+00  0.81824794549E+02  0.81824794549E+02  0.00000000000E+00 0.  1.
          1   -1    0    0  501    0  0.00000000000E+00 -0.00000000000E+00 -0.33196999230E+03  0.33196999230E+03  0.00000000000E+00 0. -1.
         25    2    1    2    0    0  0.71421501030E+02  0.85866007680E+02 -0.20550050611E+03  0.26523902294E+03  0.12508908502E+03 0.  0.
          5    1    3    3  502    0  0.88643413812E+02  0.46909839013E+02 -0.68025926426E+02  0.12125669827E+03  0.41800000000E+01 0.  1.
         -5    1    3    3    0  502 -0.17221912782E+02  0.38956168667E+02 -0.13747457969E+03  0.14398232467E+03  0.41800000000E+01 0.  1.
        -11    1    1    2    0    0  0.13963994875E+02 -0.22708580858E+02  0.10783255062E+02  0.28756762460E+02  0.00000000000E+00 0.  1.
         11    1    1    2    0    0 -0.85385495905E+02 -0.63157426822E+02 -0.55427946699E+02  0.11979900145E+03  0.00000000000E+00 0. -1.
</event>
<event>
 7    1  0.2844572E-009  0.6543680E+02  0.7561462E-02  0.1376336E+00
          1   -1    0    0  501    0  0.00000000000E+00  0.00000000000E+00  0.35700548873E+03  0.35700548873E+03  0.00000000000E+00 0. -1.
         -1   -1    0    0    0  501 -0.00000000000E+00 -0.00000000000E+00 -0.44282344361E+02  0.44282344361E+02  0.00000000000E+00 0.  1.
         25    2    1    2    0    0  0.12140057410E+02  0.18194709383E+02  0.27113000230E+03  0.29939663343E+03  0.12509371494E+03 0.  0.
          5    1    3    3  502    0  0.13954046915E+02  0.49319285850E+02  0.26148639745E+03  0.26649524542E+03  0.41800000000E+01 0. -1.
         -5    1    3    3    0  502 -0.18139895053E+01 -0.31124576467E+02  0.96436048501E+01  0.32901388005E+02  0.41800000000E+01 0. -1.
        -11    1    1    2    0    0 -0.72365318888E+01 -0.32277991187E+02 -0.19908058178E+02  0.38607860460E+02  0.00000000000E+00 0.  1.
         11    1    1    2    0    0 -0.49035255211E+01  0.14083281804E+02  0.61501200246E+02  0.63283339202E+02  0.00000000000E+00 0. -1.
</event>
<event>
 7    1  0.2844572E-009  0.1917954E+03  0.7561462E-02  0.1156852E+00
         -1   -1    0    0    0  501 -0.00000000000E+00  0.00000000000E+00  0.10582580145E+03  0.10582580145E+03  0.00000000000E+00 0.  1.
          1   -1    0    0  501    0  0.00000000000E+00 -0.00000000000E+00 -0.50453253573E+03  0.50453253573E+03  0.00000000000E+00 0. -1.
         25    2    1    2    0    0  0.18235470084E+03  0.62130681422E+01 -0.87169479897E+02  0.23777385200E+03  0.12508416101E+03 0.  0.
          5    1    3    3  502    0  0.87971523589E+02  0.34315879489E+02  0.15120940341E+02  0.95721908591E+02  0.41800000000E+01 0. -1.
         -5    1    3    3    0  502  0.94383177249E+02 -0.28102811347E+02 -0.10229042024E+03  0.14205194341E+03  0.41800000000E+01 0. -1.
        -11    1    1    2    0    0 -0.36421259363E+02  0.21019289133E+02 -0.13773852272E+03  0.14401464956E+03  0.00000000000E+00 0. -1.
         11    1    1    2    0    0 -0.14593344147E+03 -0.27232357275E+02 -0.17379873167E+03  0.22856983562E+03  0.00000000000E+00 0.  1.
</event>
<event>
 7    1  0.2844572E-009  0.1628451E+03  0.7561462E-02  0.1185522E+00
         -1   -1    0    0    0  501 -0.00000000000E+00  0.00000000000E+00  0.51243417801E+02  0.51243417801E+02  0.00000000000E+00 0.  1.
          1   -1    0    0  501    0  0.00000000000E+00 -0.00000000000E+00 -0.71657458101E+03  0.71657458101E+03  0.00000000000E+00 0. -1.
         25    2    1    2    0    0 -0.13110342663E+03  0.51906300127E+02 -0.48293873630E+03  0.51842001069E+03  0.12508841675E+03 0.  0.
          5    1    3    3  502    0 -0.14403952848E+03  0.66289998851E+02 -0.46638009671E+03  0.49261507967E+03  0.41800000000E+01 0.  1.
         -5    1    3    3    0  502  0.12936101851E+02 -0.14383698724E+02 -0.16558639590E+02  0.25804931024E+02  0.41800000000E+01 0.  1.
        -11    1    1    2    0    0  0.11432615823E+03 -0.27367411635E+02 -0.78549405656E+02  0.14138406843E+03  0.00000000000E+00 0.  1.
         11    1    1    2    0    0  0.16777268398E+02 -0.24538888492E+02 -0.10384302126E+03  0.10801391969E+03  0.00000000000E+00 0. -1.
</event>
<event>
 7    1  0.2869898E-009  0.1049031E+03  0.7561462E-02  0.1270311E+00
          2   -1    0    0  501    0  0.00000000000E+00  0.00000000000E+00  0.16491345360E+04  0.16491345360E+04  0.00000000000E+00 0. -1.
         -2   -1    0    0    0  501 -0.00000000000E+00 -0.00000000000E+00 -0.13243180093E+02  0.13243180093E+02  0.00000000000E+00 0.  1.
         25    2    1    2    0    0  0.33341584736E+02  0.46320972860E+02  0.13476029147E+04  0.13545991237E+04  0.12509147207E+03 0.  0.
          5    1    3    3  502    0 -0.19116217482E+02 -0.19640682122E+02  0.90120007184E+02  0.94288250911E+02  0.41800000000E+01 0.  1.
         -5    1    3    3    0  502  0.52457802218E+02  0.65961654981E+02  0.12574829075E+04  0.12603108728E+04  0.41800000000E+01 0.  1.
        -11    1    1    2    0    0  0.11568878914E+02 -0.51231948981E+02  0.21788769424E+03  0.22412853200E+03  0.00000000000E+00 0. -1.
         11    1    1    2    0    0 -0.44910463650E+02  0.49109761211E+01  0.70400746946E+02  0.83650060384E+02  0.00000000000E+00 0.  1.
</event>
<event>
 7    1  0.2844572E-009  0.1015587E+03  0.7561462E-02  0.1277052E+00
          1   -1    0    0  501    0  0.00000000000E+00  0.00000000000E+00  0.32998418956E+02  0.32998418956E+02  0.00000000000E+00 0. -1.
         -1   -1    0    0    0  501 -0.00000000000E+00 -0.00000000000E+00 -0.40055255656E+03  0.40055255656E+03  0.00000000000E+00 0.  1.
         25    2    1    2    0    0 -0.16575585446E+02 -0.17985598621E+02 -0.15144096281E+03  0.19794099000E+03  0.12509212011E+03 0.  0.
          5    1    3    3  502    0  0.47471281389E+02 -0.30164208353E+02 -0.99931545885E+02  0.11474836942E+03  0.41800000000E+01 0.  1.
         -5    1    3    3    0  502 -0.64046866835E+02  0.12178609732E+02 -0.51509416926E+02  0.83192620577E+02  0.41800000000E+01 0.  1.
        -11    1    1    2    0    0  0.62637781589E+01 -0.30848968091E+02 -0.14715587472E+03  0.15048503319E+03  0.00000000000E+00 0.  1.
         11    1    1    2    0    0  0.10311807287E+02  0.48834566712E+02 -0.68957300071E+02  0.85124952326E+02  0.00000000000E+00 0. -1.
</event>
<event>
 7    1  0.2844572E-009  0.1102531E+03  0.7561462E-02  0.1260102E+00
          2   -1    0    0  501    0  0.00000000000E+00  0.00000000000E+00  0.25498683603E+03  0.25498683603E+03  0.00000000000E+00 0. -1.
         -2   -1    0    0    0  501 -0.00000000000E+00 -0.00000000000E+00 -0.97094270681E+02  0.97094270681E+02  0.00000000000E+00 0.  1.
         25    2    1    2    0    0  0.38099574071E+02 -0.21269345085E+02  0.20267656269E+03  0.24213508606E+03  0.12509056020E+03 0.  0.
          5    1    3    3  502    0 -0.45882147900E+02 -0.27572353284E+01  0.77613861168E+02  0.90300374794E+02  0.41800000000E+01 0. -1.
         -5    1    3    3    0  502  0.83981721971E+02 -0.18512109756E+02  0.12506270152E+03  0.15183471126E+03  0.41800000000E+01 0. -1.
        -11    1    1    2    0    0  0.59000148337E+01  0.39999204429E+02 -0.47095008553E+02  0.62070011765E+02  0.00000000000E+00 0.  1.
         11    1    1    2    0    0 -0.43999588904E+02 -0.18729859344E+02  0.23110112199E+01  0.47876008894E+02  0.00000000000E+00 0. -1.
</event>
<event>
 7    1  0.2844572E-009  0.1281464E+03  0.7561462E-02  0.1230232E+00
         -1   -1    0    0    0  501 -0.00000000000E+00  0.00000000000E+00  0.14375788722E+03  0.14375788722E+03  0.00000000000E+00 0.  1.
          1   -1    0    0  501    0  0.00000000000E+00 -0.00000000000E+00 -0.16140714365E+03  0.16140714365E+03  0.00000000000E+00 0. -1.
         25    2    1    2    0    0  0.83334639308E+02 -0.12555234692E+02  0.54699400584E+02  0.16044227996E+03  0.12508958689E+03 0.  0.
          5    1    3    3  502    0  0.25940319929E+02  0.54904353490E+02  0.32651240514E+02  0.69072166154E+02  0.41800000000E+01 0. -1.
         -5    1    3    3    0  502  0.57394319379E+02 -0.67459588182E+02  0.22048160070E+02  0.91370113807E+02  0.41800000000E+01 0. -1.
        -11    1    1    2    0    0 -0.71755912461E+02 -0.18085261238E+02 -0.10507085844E+02  0.74742133366E+02  0.00000000000E+00 0.  1.
         11    1    1    2    0    0 -0.11578726847E+02  0.30640495929E+02 -0.61841571168E+02  0.69980617536E+02  0.00000000000E+00 0. -1.
</event>
<event>
 7    1  0.2844572E-009  0.1356601E+03  0.7561462E-02  0.1219291E+00
          2   -1    0    0  501    0  0.00000000000E+00  0.00000000000E+00  0.79085422913E+03  0.79085422913E+03  0.00000000000E+00 0. -1.
         -2   -1    0    0    0  501 -0.00000000000E+00 -0.00000000000E+00 -0.29846062732E+02  0.29846062732E+02  0.00000000000E+00 0.  1.
         25    2    1    2    0    0  0.99648009321E+02  0.34833187672E+01  0.54718969596E+03  0.57009571002E+03  0.12510274157E+03 0.  0.
          5    1    3    3  502    0  0.87401686972E+02  0.55834669381E+02  0.31240189183E+03  0.32919444043E+03  0.41800000000E+01 0.  1.
         -5    1    3    3    0  502  0.12246322348E+02 -0.52351350614E+02  0.23478780413E+03  0.24090126959E+03  0.41800000000E+01 0.  1.
        -11    1    1    2    0    0 -0.24702885894E+02  0.23349255393E+02  0.16399479925E+02  0.37740737151E+02  0.00000000000E+00 0.  1.
         11    1    1    2    0    0 -0.74945123426E+02 -0.26832574160E+02  0.19741899051E+03  0.21286384469E+03  0.00000000000E+00 0. -1.
</event>
<event>
 7    1  0.2844572E-009  0.1166747E+03  0.7561462E-02  0.1248686E+00
          2   -1    0    0  501    0  0.00000000000E+00  0.00000000000E+00  0.18974069346E+03  0.18974069346E+03  0.00000000000E+00 0. -1.
         -2   -1    0    0    0  501 -0.00000000000E+00 -0.00000000000E+00 -0.97778366335E+02  0.97778366335E+02  0.00000000000E+00 0.  1.
         25    2    1    2    0    0  0.84512746818E+01  0.81998846082E+02  0.61552531457E+02  0.16196268285E+03  0.12509181310E+03 0.  0.
          5    1    3    3  502    0 -0.28637023349E+02  0.64008051495E+02  0.88158295676E+02  0.11272296687E+03  0.41800000000E+01 0. -1.
         -5    1    3    3    0  502  0.37088298031E+02  0.17990794587E+02 -0.26605764219E+02  0.49239715986E+02  0.41800000000E+01 0. -1.
        -11    1    1    2    0    0 -0.12710586353E+02  0.17749236898E+02  0.78567643351E+01  0.23201792209E+02  0.00000000000E+00 0. -1.
         11    1    1    2    0    0  0.42593116713E+01 -0.99748082980E+02  0.22553031334E+02  0.10235458474E+03  0.00000000000E+00 0.  1.
</event>
<event>
 7    1  0.2844572E-009  0.1684489E+03  0.7561462E-02  0.1179475E+00
          2   -1    0    0  501    0  0.00000000000E+00  0.00000000000E+00  0.60752303546E+03  0.60752303546E+03  0.00000000000E+00 0. -1.
         -2   -1    0    0    0  501 -0.00000000000E+00 -0.00000000000E+00 -0.59783539235E+02  0.59783539235E+02  0.00000000000E+00 0.  1.
         25    2    1    2    0    0  0.11141154978E+03 -0.10545592059E+03  0.34123724981E+03  0.39449107329E+03  0.12508741596E+03 0.  0.
          5    1    3    3  502    0  0.11141075200E+03 -0.10941960086E+03  0.35041368962E+03  0.38365639703E+03  0.41800000000E+01 0. -1.
         -5    1    3    3    0  502  0.79778174818E-03  0.39636802747E+01 -0.91764398068E+01  0.10834676252E+02  0.41800000000E+01 0. -1.
        -11    1    1    2    0    0 -0.46869225344E+02 -0.48539755846E+01  0.33901731626E+02  0.58048365787E+02  0.00000000000E+00 0.  1.
         11    1    1    2    0    0 -0.64542324438E+02  0.11030989617E+03  0.17260051479E+03  0.21476713562E+03  0.00000000000E+00 0. -1.
</event>
<event>
 7    1  0.2844572E-009  0.9965992E+02  0.7561462E-02  0.1281013E+00
          2   -1    0    0  501    0  0.00000000000E+00  0.00000000000E+00  0.28154543318E+03  0.28154543318E+03  0.00000000000E+00 0. -1.
         -2   -1    0    0    0  501 -0.00000000000E+00 -0.00000000000E+00 -0.55772634930E+02  0.55772634930E+02  0.00000000000E+00 0.  1.
         25    2    1    2    0    0  0.37261123628E+02  0.48019367254E+02  0.11772512379E+03  0.18221590611E+03  0.12509668541E+03 0.  0.
          5    1    3    3  502    0  0.78983696026E+02  0.27655272451E+02  0.10413728025E+03  0.13366107837E+03  0.41800000000E+01 0. -1.
         -5    1    3    3    0  502 -0.41722572398E+02  0.20364094802E+02  0.13587843539E+02  0.48554827738E+02  0.41800000000E+01 0. -1.
        -11    1    1    2    0    0 -0.14648667997E+02  0.12528006234E+01 -0.14777054290E+02  0.20845007003E+02  0.00000000000E+00 0.  1.
         11    1    1    2    0    0 -0.22612455631E+02 -0.49272167877E+02  0.12282472874E+03  0.13425715500E+03  0.00000000000E+00 0. -1.
</event>
<event>
 7    1  0.2844572E-009  0.1778467E+03  0.7561462E-02  0.1169903E+00
         -1   -1    0    0    0  501 -0.00000000000E+00  0.00000000000E+00  0.30631107655E+02  0.30631107655E+02  0.00000000000E+00 0.  1.
          1   -1    0    0  501    0  0.00000000000E+00 -0.00000000000E+00 -0.13184648445E+04  0.13184648445E+04  0.00000000000E+00 0. -1.
         25    2    1    2    0    0 -0.11715203332E+02 -0.15418526069E+03 -0.44827284848E+03  0.49041364862E+03  0.12508660786E+03 0.  0.
          5    1    3    3  502    0  0.30097408700E+02 -0.11518370393E+03 -0.17838521592E+03  0.21450383987E+03  0.41800000000E+01 0. -1.
         -5    1    3    3    0  502 -0.41812612032E+02 -0.39001556767E+02 -0.26988763256E+03  0.27590980875E+03  0.41800000000E+01 0. -1.
        -11    1    1    2    0    0  0.50402742289E+02  0.66891155218E+02 -0.43687244824E+03  0.44482850528E+03  0.00000000000E+00 0. -1.
         11    1    1    2    0    0 -0.38687538957E+02  0.87294105475E+02 -0.40268844011E+03  0.41385379824E+03  0.00000000000E+00 0.  1.
</event>
<event>
 7    1  0.2844572E-009  0.1163573E+03  0.7561462E-02  0.1249230E+00
         -1   -1    0    0    0  501 -0.00000000000E+00  0.00000000000E+00  0.67809536317E+02  0.67809536317E+02  0.00000000000E+00 0.  1.
          1   -1    0    0  501    0  0.00000000000E+00 -0.00000000000E+00 -0.22727679893E+03  0.22727679893E+03  0.00000000000E+00 0. -1.
         25    2    1    2    0    0  0.59257560852E+02 -0.11600931637E+02 -0.95735728168E+02  0.16869613465E+03  0.12508803326E+03 0.  0.
          5    1    3    3  502    0 -0.18740113249E+02  0.31757581342E+02  0.86142981790E+00  0.37120752667E+02  0.41800000000E+01 0. -1.
         -5    1    3    3    0  502  0.77997674101E+02 -0.43358512979E+02 -0.96597157986E+02  0.13157538198E+03  0.41800000000E+01 0. -1.
        -11    1    1    2    0    0  0.17225779826E+01  0.39266816884E+02 -0.37951070930E+02  0.54636379527E+02  0.00000000000E+00 0. -1.
         11    1    1    2    0    0 -0.60980138834E+02 -0.27665885246E+02 -0.25780463509E+02  0.71753821065E+02  0.00000000000E+00 0.  1.
</event>
<event>
 7    1  0.3000762E-009  0.9662822E+02  0.7561462E-02  0.1287550E+00
          2   -1    0    0  501    0  0.00000000000E+00  0.00000000000E+00  0.15501227526E+03  0.15501227526E+03  0.00000000000E+00 0. -1.
         -2   -1    0    0    0  501 -0.00000000000E+00 -0.00000000000E+00 -0.10347267846E+03  0.10347267846E+03  0.00000000000E+00 0.  1.
         25    2    1    2    0    0 -0.50166413200E+02  0.29650290526E+02  0.59139237639E+02  0.15013545004E+03  0.12508954868E+03 0.  0.
          5    1    3    3  502    0 -0.62979019910E+02  0.13175255664E+02 -0.20533365535E+02  0.67668573288E+02  0.41800000000E+01 0.  1.
         -5    1    3    3    0  502  0.12812606710E+02  0.16475034862E+02  0.79672603173E+02  0.82466876749E+02  0.41800000000E+01 0.  1.
        -11    1    1    2    0    0  0.60248331698E+02  0.14696386068E+02  0.12059416981E+01  0.62026603415E+02  0.00000000000E+00 0.  1.
         11    1    1    2    0    0 -0.10081918498E+02 -0.44346676594E+02 -0.88055825417E+01  0.46322900270E+02  0.00000000000E+00 0. -1.
</event>
<event>
 6    1  0.2844572E-009  0.7461690E+02  0.7561462E-02  0.1345061E+00
         -1   -1    0    0    0  501 -0.00000000000E+00  0.00000000000E+00  0.89897033685E+02  0.89897033685E+02  0.00000000000E+00 0.  1.
          1   -1    0    0  501    0  0.00000000000E+00 -0.00000000000E+00 -0.14003463145E+03  0.14003463145E+03  0.00000000000E+00 0. -1.
          5    1    1    2  502    0  0.45152446957E+02 -0.52102930706E+01  0.41621981078E+02  0.61771776152E+02  0.41800000000E+01 0. -1.
         -5    1    1    2    0  502 -0.52796404903E+02 -0.15751363858E+02 -0.33581326607E+02  0.64658670963E+02  0.41800000000E+01 0. -1.
        -11    1    1    2    0    0  0.22977238746E+02  0.78082211174E+00 -0.71332451021E+02  0.74945858807E+02  0.00000000000E+00 0. -1.
         11    1    1    2    0    0 -0.15333280800E+02  0.20180834817E+02  0.13154198786E+02  0.28555359212E+02  0.00000000000E+00 0.  1.
</event>
<event>
 7    1  0.2844572E-009  0.2511766E+03  0.7561462E-02  0.1112564E+00
         -1   -1    0    0    0  501 -0.00000000000E+00  0.00000000000E+00  0.12357191178E+03  0.12357191178E+03  0.00000000000E+00 0.  1.
          1   -1    0    0  501    0  0.00000000000E+00 -0.00000000000E+00 -0.70786883674E+03  0.70786883674E+03  0.00000000000E+00 0. -1.
         25    2    1    2    0    0 -0.88623870598E+02  0.21716585932E+03 -0.96528986718E+02  0.28281042544E+03  0.12509472637E+03 0.  0.
          5    1    3    3  502    0 -0.11748976718E+03  0.18992330375E+03 -0.67112088135E+02  0.23322995406E+03  0.41800000000E+01 0. -1.
         -5    1    3    3    0  502  0.28865896581E+02  0.27242555568E+02 -0.29416898583E+02  0.49580471372E+02  0.41800000000E+01 0. -1.
        -11    1    1    2    0    0 -0.56785574723E+01 -0.12736733667E+02 -0.31858221985E+01  0.14304539928E+02  0.00000000000E+00 0.  1.
         11    1    1    2    0    0  0.94302428070E+02 -0.20442912565E+03 -0.48458211604E+03  0.53432578315E+03  0.00000000000E+00 0. -1.
</event>
<event>
 7    1  0.2844572E-009  0.1372927E+03  0.7561462E-02  0.1217019E+00
          3   -1    0    0  501    0  0.00000000000E+00  0.00000000000E+00  0.14983595371E+03  0.14983595371E+03  0.00000000000E+00 0. -1.
         -3   -1    0    0    0  501 -0.00000000000E+00 -0.00000000000E+00 -0.17239040171E+03  0.17239040171E+03  0.00000000000E+00 0.  1.
         25    2    1    2    0    0 -0.66519439741E+02  0.64046089005E+02  0.63967644337E+02  0.16812626520E+03  0.12509134322E+03 0.  0.
          5    1    3    3  502    0 -0.90976136658E+01  0.86107297095E+02  0.61747475365E+02  0.10643052335E+03  0.41800000000E+01 0. -1.
         -5    1    3    3    0  502 -0.57421826075E+02 -0.22061208090E+02  0.22201689720E+01  0.61695741850E+02  0.41800000000E+01 0. -1.
        -11    1    1    2    0    0 -0.28614968312E+01 -0.56364682554E+02 -0.27960347620E+02  0.62983701404E+02  0.00000000000E+00 0. -1.
         11    1    1    2    0    0  0.69380936572E+02 -0.76814064520E+01 -0.58561744722E+02  0.91116388809E+02  0.00000000000E+00 0.  1.
</event>
<event>
 7    1  0.2844572E-009  0.1423208E+03  0.7561462E-02  0.1210240E+00
          2   -1    0    0  501    0  0.00000000000E+00  0.00000000000E+00  0.61893099559E+03  0.61893099559E+03  0.00000000000E+00 0. -1.
         -2   -1    0    0    0  501 -0.00000000000E+00 -0.00000000000E+00 -0.38590779544E+02  0.38590779544E+02  0.00000000000E+00 0.  1.
         25    2    1    2    0    0 -0.19424381448E+02 -0.10873118687E+03  0.30001949321E+03  0.34330625485E+03  0.12509080989E+03 0.  0.
          5    1    3    3  502    0 -0.69792519370E+02 -0.85468339855E+02  0.18301846454E+03  0.21375000266E+03  0.41800000000E+01 0. -1.
         -5    1    3    3    0  502  0.50368137922E+02 -0.23262847015E+02  0.11700102867E+03  0.12955625218E+03  0.41800000000E+01 0. -1.
        -11    1    1    2    0    0  0.23237319260E+02  0.22767080640E+02  0.17601935730E+03  0.17900035506E+03  0.00000000000E+00 0. -1.
         11    1    1    2    0    0 -0.38129378117E+01  0.85964106230E+02  0.10430136553E+03  0.13521516522E+03  0.00000000000E+00 0.  1.
</event>
<event>
 7    1  0.2844572E-009  0.1083150E+03  0.7561462E-02  0.1263722E+00
         -2   -1    0    0    0  501 -0.00000000000E+00  0.00000000000E+00  0.10827147285E+04  0.10827147285E+04  0.00000000000E+00 0.  1.
          2   -1    0    0  501    0  0.00000000000E+00 -0.00000000000E+00 -0.12955987637E+02  0.12955987637E+02  0.00000000000E+00 0. -1.
         25    2    1    2    0    0 -0.16980735600E+01  0.30678323119E+02  0.77748380029E+03  0.78808144856E+03  0.12508903580E+03 0.  0.
          5    1    3    3  502    0  0.24400817524E+02 -0.42689885820E+02  0.36127142062E+03  0.36462629911E+03  0.41800000000E+01 0.  1.
         -5    1    3    3    0  502 -0.26098891084E+02  0.73368208939E+02  0.41621237968E+03  0.42345514945E+03  0.41800000000E+01 0.  1.
        -11    1    1    2    0    0  0.43776753028E+01  0.29115809712E+02  0.15592485750E+03  0.15868035670E+03  0.00000000000E+00 0.  1.
         11    1    1    2    0    0 -0.26796017428E+01 -0.59794132831E+02  0.13635008309E+03  0.14890891090E+03  0.00000000000E+00 0. -1.
</event>
<event>
 7    1  0.2844572E-009  0.9182739E+02  0.7561462E-02  0.1298486E+00
          2   -1    0    0  501    0  0.00000000000E+00  0.00000000000E+00  0.28445116719E+03  0.28445116719E+03  0.00000000000E+00 0. -1.
         -2   -1    0    0    0  501 -0.00000000000E+00 -0.00000000000E+00 -0.47576608849E+02  0.47576608849E+02  0.00000000000E+00 0.  1.
         25    2    1    2    0    0  0.12638102162E+02 -0.37748316279E+01  0.78129505927E+02  0.14807311424E+03  0.12508979368E+03 0.  0.
          5    1    3    3  502    0  0.33154106515E+02 -0.37991990762E+02 -0.96980769524E+01  0.51518067097E+02  0.41800000000E+01 0. -1.
         -5    1    3    3    0  502 -0.20516004354E+02  0.34217159134E+02  0.87827582880E+02  0.96555047141E+02  0.41800000000E+01 0. -1.
        -11    1    1    2    0    0 -0.35921185591E+02 -0.33418912118E+02  0.84745957340E+02  0.97923605667E+02  0.00000000000E+00 0.  1.
         11    1    1    2    0    0  0.23283083429E+02  0.37193743746E+02  0.73999095070E+02  0.86031056131E+02  0.00000000000E+00 0. -1.
</event>
<event>
 7    1  0.2844572E-009  0.1212118E+03  0.7561462E-02  0.1241111E+00
          2   -1    0    0  501    0  0.00000000000E+00  0.00000000000E+00  0.82909384747E+03  0.82909384747E+03  0.00000000000E+00 0. -1.
         -2   -1    0    0    0  501 -0.00000000000E+00 -0.00000000000E+00 -0.17863885670E+02  0.17863885670E+02  0.00000000000E+00 0.  1.
         25    2    1    2    0    0  0.29815079492E+02 -0.47233975173E+02  0.45140374242E+03  0.47173361260E+03  0.12508906912E+03 0.  0.
          5    1    3    3  502    0 -0.37637743310E+02 -0.57202549167E+02  0.23415659230E+03  0.24399900301E+03  0.41800000000E+01 0.  1.
         -5    1    3    3    0  502  0.67452822802E+02  0.99685739936E+01  0.21724715012E+03  0.22773460959E+03  0.41800000000E+01 0.  1.
        -11    1    1    2    0    0  0.32203184940E+02  0.13604233970E+02  0.97543249127E+02  0.10361855892E+03  0.00000000000E+00 0. -1.
         11    1    1    2    0    0 -0.62018264432E+02  0.33629741204E+02  0.26228297025E+03  0.27160556162E+03  0.00000000000E+00 0.  1.
</event>
<event>
 7    1  0.2844572E-009  0.7761153E+02  0.7561462E-02  0.1335970E+00
          2   -1    0    0  501    0  0.00000000000E+00  0.00000000000E+00  0.10809193136E+03  0.10809193136E+03  0.00000000000E+00 0. -1.
         -2   -1    0    0    0  501 -0.00000000000E+00 -0.00000000000E+00 -0.11152219578E+03  0.11152219578E+03  0.00000000000E+00 0.  1.
         25    2    1    2    0    0 -0.37686093193E+01  0.28125447030E+02  0.33568781972E+01  0.12831172304E+03  0.12508951375E+03 0.  0.
          5    1    3    3  502    0  0.13968466981E+02 -0.25023946591E+02  0.48329650304E+02  0.56343087166E+02  0.41800000000E+01 0. -1.
         -5    1    3    3    0  502 -0.17737076301E+02  0.53149393622E+02 -0.44972772107E+02  0.71968635870E+02  0.41800000000E+01 0. -1.
        -11    1    1    2    0    0 -0.29601956233E+02 -0.64926094102E+01  0.25867882643E+02  0.39844411681E+02  0.00000000000E+00 0. -1.
         11    1    1    2    0    0  0.33370565553E+02 -0.21632837620E+02 -0.32655025267E+02  0.51457992421E+02  0.00000000000E+00 0.  1.
</event>
<event>
 7    1  0.2844572E-009  0.1094837E+03  0.7561462E-02  0.1261529E+00
         -2   -1    0    0    0  501 -0.00000000000E+00  0.00000000000E+00  0.46414061890E+03  0.46414061890E+03  0.00000000000E+00 0.  1.
          2   -1    0    0  501    0  0.00000000000E+00 -0.00000000000E+00 -0.37506187774E+02  0.37506187774E+02  0.00000000000E+00 0. -1.
         25    2    1    2    0    0  0.21200712907E+01  0.61262771687E+02  0.32404868332E+03  0.35272126772E+03  0.12508845526E+03 0.  0.
          5    1    3    3  502    0 -0.64282852102E+01  0.85451698067E+02  0.31288055270E+03  0.32443031333E+03  0.41800000000E+01 0. -1.
         -5    1    3    3    0  502  0.85483565009E+01 -0.24188926380E+02  0.11168130626E+02  0.28290954384E+02  0.41800000000E+01 0. -1.
        -11    1    1    2    0    0  0.35987656701E+02 -0.11511175748E+01  0.43147499653E+02  0.56197359661E+02  0.00000000000E+00 0.  1.
         11    1    1    2    0    0 -0.38107727992E+02 -0.60111654112E+02  0.59438248151E+02  0.92728179299E+02  0.00000000000E+00 0. -1.
</event>
<event>
 7    1  0.2844572E-009  0.3712118E+03  0.7561462E-02  0.1054231E+00
          2   -1    0    0  501    0  0.00000000000E+00  0.00000000000E+00  0.24883533982E+04  0.24883533982E+04  0.00000000000E+00 0. -1.
         -2   -1    0    0    0  501 -0.00000000000E+00 -0.00000000000E+00 -0.63980060141E+02  0.63980060141E+02  0.00000000000E+00 0.  1.
         25    2    1    2    0    0 -0.16217590344E+03  0.31729980332E+03  0.16871623706E+04  0.17289145084E+04  0.12509326037E+03 0.  0.
          5    1    3    3  502    0 -0.24530372602E+02  0.18094484175E+03  0.74938788786E+03  0.77132512847E+03  0.41800000000E+01 0. -1.
         -5    1    3    3    0  502 -0.13764553084E+03  0.13635496157E+03  0.93777448278E+03  0.95758937998E+03  0.41800000000E+01 0. -1.
        -11    1    1    2    0    0  0.16200679928E+03 -0.24523352185E+03  0.61288904675E+03  0.67971955017E+03  0.00000000000E+00 0. -1.
         11    1    1    2    0    0  0.16910416047E+00 -0.72066281470E+02  0.12432192068E+03  0.14369939973E+03  0.00000000000E+00 0.  1.
</event>
<event>
 7    1  0.2844572E-009  0.1197002E+03  0.7561462E-02  0.1243592E+00
         -3   -1    0    0    0  501 -0.00000000000E+00  0.00000000000E+00  0.26924047411E+03  0.26924047411E+03  0.00000000000E+00 0.  1.
          3   -1    0    0  501    0  0.00000000000E+00 -0.00000000000E+00 -0.10930153845E+03  0.10930153845E+03  0.00000000000E+00 0. -1.
         25    2    1    2    0    0  0.53527139797E+02 -0.74565778819E+01 -0.45966240331E+02  0.14381777118E+03  0.12509956358E+03 0.  0.
          5    1    3    3  502    0  0.93066365943E+02  0.67570024984E+01 -0.38053022905E+02  0.10085886428E+03  0.41800000000E+01 0.  1.
         -5    1    3    3    0  502 -0.39539226146E+02 -0.14213580380E+02 -0.79132174265E+01  0.42958906893E+02  0.41800000000E+01 0.  1.
        -11    1    1    2    0    0  0.23014768235E+02 -0.10272631927E+02  0.98353302564E+02  0.10153117082E+03  0.00000000000E+00 0.  1.
         11    1    1    2    0    0 -0.76541908032E+02  0.17729209809E+02  0.10755187343E+03  0.13319307056E+03  0.00000000000E+00 0. -1.
</event>
<event>
 7    1  0.2844572E-009  0.1432164E+03  0.7561462E-02  0.1209065E+00
         -1   -1    0    0    0  501 -0.00000000000E+00  0.00000000000E+00  0.31437538013E+02  0.31437538013E+02  0.00000000000E+00 0.  1.
          1   -1    0    0  501    0  0.00000000000E+00 -0.00000000000E+00 -0.87472024335E+03  0.87472024335E+03  0.00000000000E+00 0. -1.
         25    2    1    2    0    0 -0.93644199457E+02 -0.33100583193E+02 -0.65810179700E+03  0.67720853722E+03  0.12509413642E+03 0.  0.
          5    1    3    3  502    0 -0.14545919991E+02  0.42034239838E+02 -0.28433008475E+03  0.28781857237E+03  0.41800000000E+01 0. -1.
         -5    1    3    3    0  502 -0.79098279466E+02 -0.75134823031E+02 -0.37377171225E+03  0.38938996485E+03  0.41800000000E+01 0. -1.
        -11    1    1    2    0    0 -0.39266850213E+01  0.34775430405E+02 -0.32580793089E+02  0.47814825038E+02  0.00000000000E+00 0.  1.
         11    1    1    2    0    0  0.97570884478E+02 -0.16748472121E+01 -0.15260011524E+03  0.18113441910E+03  0.00000000000E+00 0. -1.
</event>
<event>
 7    1  0.2844572E-009  0.1165171E+03  0.7561462E-02  0.1248956E+00
          2   -1    0    0  501    0  0.00000000000E+00  0.00000000000E+00  0.32577626444E+03  0.32577626444E+03  0.00000000000E+00 0. -1.
         -2   -1    0    0    0  501 -0.00000000000E+00 -0.00000000000E+00 -0.44602427077E+02  0.44602427077E+02  0.00000000000E+00 0.  1.
         25    2    1    2    0    0 -0.34713306672E+02 -0.38315994568E+02  0.14395483915E+03  0.19758789536E+03  0.12507938111E+03 0.  0.
          5    1    3    3  502    0 -0.17868661696E+01 -0.77018860977E+02  0.53947628176E+02  0.94143065718E+02  0.41800000000E+01 0. -1.
         -5    1    3    3    0  502 -0.32926440503E+02  0.38702866409E+02  0.90007210975E+02  0.10344482964E+03  0.41800000000E+01 0. -1.
        -11    1    1    2    0    0  0.61053132106E+02  0.33850156945E+01  0.83979212836E+02  0.10388191113E+03  0.00000000000E+00 0.  1.
         11    1    1    2    0    0 -0.26339825434E+02  0.34930978874E+02  0.53239785378E+02  0.68908885030E+02  0.00000000000E+00 0. -1.
</event>
<event>
 7    1  0.2844572E-009  0.1135979E+03  0.7561462E-02  0.1254048E+00
         -1   -1    0    0    0  501 -0.00000000000E+00  0.00000000000E+00  0.25712661681E+03  0.25712661681E+03  0.00000000000E+00 0.  1.
          1   -1    0    0  501    0  0.00000000000E+00 -0.00000000000E+00 -0.72649889409E+02  0.72649889409E+02  0.00000000000E+00 0. -1.
         25    2    1    2    0    0 -0.10475517976E+02 -0.42150154925E+02  0.13970880058E+02  0.13314981213E+03  0.12508922793E+03 0.  0.
          5    1    3    3  502    0 -0.26318723429E+02  0.40042649143E+02  0.10703514463E+02  0.49276024344E+02  0.41800000000E+01 0.  1.
         -5    1    3    3    0  502  0.15843205453E+02 -0.82192804068E+02  0.32673655956E+01  0.83873787786E+02  0.41800000000E+01 0.  1.
        -11    1    1    2    0    0 -0.22423441871E+02  0.55441043746E+02  0.12782477252E+03  0.14112296960E+03  0.00000000000E+00 0.  1.
         11    1    1    2    0    0  0.32898959847E+02 -0.13290888821E+02  0.42681074818E+02  0.55503724490E+02  0.00000000000E+00 0. -1.
</event>
<event>
 7    1  0.2844572E-009  0.9889408E+02  0.7561462E-02  0.1282639E+00
          2   -1    0    0  501    0  0.00000000000E+00  0.00000000000E+00  0.34860746312E+02  0.34860746312E+02  0.00000000000E+00 0.  1.
         -2   -1    0    0    0  501 -0.00000000000E+00 -0.00000000000E+00 -0.54540277919E+03  0.54540277919E+03  0.00000000000E+00 0. -1.
         25    2    1    2    0    0  0.67144775393E+01 -0.79449817332E+02 -0.33775949231E+03  0.36889413067E+03  0.12507616604E+03 0.  0.
          5    1    3    3  502    0  0.41845483608E+02 -0.51995751746E+02 -0.67746278029E+02  0.95192611503E+02  0.41800000000E+01 0. -1.
         -5    1    3    3    0  502 -0.35131006069E+02 -0.27454065586E+02 -0.27001321428E+03  0.27370151916E+03  0.41800000000E+01 0. -1.
        -11    1    1    2    0    0 -0.17822992465E+02  0.25879117053E+02 -0.13865639991E+01  0.31453303794E+02  0.00000000000E+00 0.  1.
         11    1    1    2    0    0  0.11108514925E+02  0.53570700279E+02 -0.17139597656E+03  0.17991609104E+03  0.00000000000E+00 0. -1.
</event>
<event>
 7    1  0.4700590E-009  0.8985716E+02  0.7561462E-02  0.1303198E+00
         -2   -1    0    0    0  501 -0.00000000000E+00  0.00000000000E+00  0.18121844989E+02  0.18121844989E+02  0.00000000000E+00 0.  1.
          2   -1    0    0  501    0  0.00000000000E+00 -0.00000000000E+00 -0.96091493759E+03  0.96091493759E+03  0.00000000000E+00 0. -1.
         25    2    1    2    0    0  0.21785119534E+02  0.68750064269E+02 -0.59521401300E+03  0.61247659144E+03  0.12508673399E+03 0.  0.
          5    1    3    3  502    0  0.42668522580E+01  0.25333855796E+02 -0.14365985943E+02  0.29729854184E+02  0.41800000000E+01 0. -1.
         -5    1    3    3    0  502  0.17518267276E+02  0.43416208473E+02 -0.58084802706E+03  0.58274673726E+03  0.41800000000E+01 0. -1.
        -11    1    1    2    0    0 -0.51612647895E+02 -0.46498334675E+02 -0.14738117371E+03  0.16293302586E+03  0.00000000000E+00 0.  1.
         11    1    1    2    0    0  0.29827528361E+02 -0.22251729594E+02 -0.20019790589E+03  0.20362716528E+03  0.00000000000E+00 0. -1.
</event>
<event>
 7    1  0.2844572E-009  0.1327419E+03  0.7561462E-02  0.1223443E+00
         -1   -1    0    0    0  501 -0.00000000000E+00  0.00000000000E+00  0.22123663886E+02  0.22123663886E+02  0.00000000000E+00 0.  1.
          1   -1    0    0  501    0  0.00000000000E+00 -0.00000000000E+00 -0.10277318637E+04  0.10277318637E+04  0.00000000000E+00 0. -1.
         25    2    1    2    0    0  0.92129588963E+02 -0.22340400491E+02 -0.69635005952E+03  0.71381665803E+03  0.12507542213E+03 0.  0.
          5    1    3    3  502    0  0.11978136795E+03 -0.12216511214E+01 -0.58212725523E+03  0.59433886144E+03  0.41800000000E+01 0.  1.
         -5    1    3    3    0  502 -0.27651778986E+02 -0.21118749370E+02 -0.11422280429E+03  0.11947779658E+03  0.41800000000E+01 0.  1.
        -11    1    1    2    0    0 -0.14254692981E+02  0.29107704233E+02 -0.19453442606E+03  0.19721586559E+03  0.00000000000E+00 0. -1.
         11    1    1    2    0    0 -0.77874895982E+02 -0.67673037418E+01 -0.11472371423E+03  0.13882300397E+03  0.00000000000E+00 0.  1.
</event>
<event>
 7    1  0.2844572E-009  0.8295860E+02  0.7561462E-02  0.1320859E+00
         -1   -1    0    0    0  501 -0.00000000000E+00  0.00000000000E+00  0.18878788853E+02  0.18878788853E+02  0.00000000000E+00 0.  1.
          1   -1    0    0  501    0  0.00000000000E+00 -0.00000000000E+00 -0.76834419063E+03  0.76834419063E+03  0.00000000000E+00 0. -1.
         25    2    1    2    0    0  0.37858867140E+02 -0.38780533580E+02 -0.40024663069E+03  0.42282858618E+03  0.12509765910E+03 0.  0.
          5    1    3    3  502    0  0.34629664891E+02 -0.60426690669E+02 -0.10101463320E+03  0.12276818463E+03  0.41800000000E+01 0. -1.
         -5    1    3    3    0  502  0.32292022486E+01  0.21646157090E+02 -0.29923199748E+03  0.30006040155E+03  0.41800000000E+01 0. -1.
        -11    1    1    2    0    0 -0.50323600426E+02  0.29597570359E+02 -0.34263027541E+03  0.34756867891E+03  0.00000000000E+00 0. -1.
         11    1    1    2    0    0  0.12464733286E+02  0.91829632208E+01 -0.65884956794E+01  0.16825714390E+02  0.00000000000E+00 0.  1.
</event>
<event>
 7    1  0.2844572E-009  0.1147603E+03  0.7561462E-02  0.1252000E+00
         -2   -1    0    0    0  501 -0.00000000000E+00  0.00000000000E+00  0.25948614922E+02  0.25948614922E+02  0.00000000000E+00 0.  1.
          2   -1    0    0  501    0  0.00000000000E+00 -0.00000000000E+00 -0.57988232197E+03  0.57988232197E+03  0.00000000000E+00 0. -1.
         25    2    1    2    0    0 -0.34334222214E+02  0.23237518499E+02 -0.38269682972E+03  0.40475037085E+03  0.12508868110E+03 0.  0.
          5    1    3    3  502    0  0.42871826250E+02 -0.24564667151E+01 -0.75765587817E+02  0.87189015432E+02  0.41800000000E+01 0. -1.
         -5    1    3    3    0  502 -0.77206048464E+02  0.25693985214E+02 -0.30693124190E+03  0.31756135541E+03  0.41800000000E+01 0. -1.
        -11    1    1    2    0    0 -0.33129101091E+02 -0.16754400106E+02 -0.51380292588E+02  0.63389129419E+02  0.00000000000E+00 0.  1.
         11    1    1    2    0    0  0.67463323305E+02 -0.64831183934E+01 -0.11985658474E+03  0.13769143663E+03  0.00000000000E+00 0. -1.
</event>
<event>
 7    1  0.2844572E-009  0.1304588E+03  0.7561462E-02  0.1226777E+00
         -2   -1    0    0    0  501 -0.00000000000E+00  0.00000000000E+00  0.10933211511E+03  0.10933211511E+03  0.00000000000E+00 0. -1.
          2   -1    0    0  501    0  0.00000000000E+00 -0.00000000000E+00 -0.19811743357E+03  0.19811743357E+03  0.00000000000E+00 0.  1.
         25    2    1    2    0    0  0.80038592800E+02  0.20233009245E+02 -0.10520801153E+03  0.18311798600E+03  0.12509164683E+03 0.  0.
          5    1    3    3  502    0 -0.24027360796E+02  0.36746674654E+02 -0.36608190930E+02  0.57317224358E+02  0.41800000000E+01 0.  1.
         -5    1    3    3    0  502  0.10406595360E+03 -0.16513665410E+02 -0.68599820604E+02  0.12580076164E+03  0.41800000000E+01 0.  1.
        -11    1    1    2    0    0 -0.25959288220E+02  0.28510936086E+02 -0.19430333295E+02  0.43177493829E+02  0.00000000000E+00 0.  1.
         11    1    1    2    0    0 -0.54079304580E+02 -0.48743945330E+02  0.35853026374E+02  0.81154068847E+02  0.00000000000E+00 0. -1.
</event>
<event>
 7    1  0.3607572E-009  0.8532887E+02  0.7561462E-02  0.1314575E+00
         -2   -1    0    0    0  501 -0.00000000000E+00  0.00000000000E+00  0.12214270986E+03  0.12214270986E+03  0.00000000000E+00 0. -1.
          2   -1    0    0  501    0  0.00000000000E+00 -0.00000000000E+00 -0.11542666558E+03  0.11542666558E+03  0.00000000000E+00 0.  1.
         25    2    1    2    0    0  0.16524569674E+01 -0.39500859337E+02  0.33689401305E+02  0.13544438629E+03  0.12508859866E+03 0.  0.
          5    1    3    3  502    0 -0.98718261018E+00 -0.85122668307E+02  0.19816294766E+02  0.87504292052E+02  0.41800000000E+01 0.  1.
         -5    1    3    3    0  502  0.26396395775E+01  0.45621808970E+02  0.13873106539E+02  0.47940094241E+02  0.41800000000E+01 0.  1.
        -11    1    1    2    0    0 -0.70268049648E+00  0.22064204343E+02 -0.60457042916E+02  0.64361299795E+02  0.00000000000E+00 0.  1.
         11    1    1    2    0    0 -0.94977647088E+00  0.17436654995E+02  0.33483685890E+02  0.37763689353E+02  0.00000000000E+00 0. -1.
</event>
<event>
 7    1  0.2844572E-009  0.1080293E+03  0.7561462E-02  0.1264263E+00
         -2   -1    0    0    0  501 -0.00000000000E+00  0.00000000000E+00  0.22185072910E+02  0.22185072910E+02  0.00000000000E+00 0. -1.
          2   -1    0    0  501    0  0.00000000000E+00 -0.00000000000E+00 -0.59945139749E+03  0.59945139749E+03  0.00000000000E+00 0.  1.
         25    2    1    2    0    0 -0.12014165135E+02 -0.13347391182E+02 -0.23874902498E+03  0.27013651576E+03  0.12510054836E+03 0.  0.
          5    1    3    3  502    0 -0.50612899260E+02  0.36392319253E+02 -0.13402705740E+03  0.14787424044E+03  0.41800000000E+01 0.  1.
         -5    1    3    3    0  502  0.38598734125E+02 -0.49739710434E+02 -0.10472196758E+03  0.12226227531E+03  0.41800000000E+01 0.  1.
        -11    1    1    2    0    0  0.36207227695E+02 -0.25802364822E+02 -0.11502889370E+03  0.12332222733E+03  0.00000000000E+00 0.  1.
         11    1    1    2    0    0 -0.24193062560E+02  0.39149756003E+02 -0.22348840590E+03  0.22817772731E+03  0.00000000000E+00 0. -1.
</event>
<event>
 7    1  0.2844572E-009  0.1878753E+03  0.7561462E-02  0.1160392E+00
         -1   -1    0    0    0  501 -0.00000000000E+00  0.00000000000E+00  0.76830187273E+03  0.76830187273E+03  0.00000000000E+00 0.  1.
          1   -1    0    0  501    0  0.00000000000E+00 -0.00000000000E+00 -0.48794510483E+02  0.48794510483E+02  0.00000000000E+00 0. -1.
         25    2    1    2    0    0 -0.11414995481E+03  0.11304849826E+03  0.36266918046E+03  0.41591777378E+03  0.12509390453E+03 0.  0.
          5    1    3    3  502    0 -0.86732056011E+02  0.13828621230E+03  0.26464855334E+03  0.31096921912E+03  0.41800000000E+01 0.  1.
         -5    1    3    3    0  502 -0.27417898798E+02 -0.25237714048E+02  0.98020627121E+02  0.10494855466E+03  0.41800000000E+01 0.  1.
        -11    1    1    2    0    0  0.32820249878E+02 -0.81268298322E+02  0.23863537995E+03  0.25422145794E+03  0.00000000000E+00 0.  1.
         11    1    1    2    0    0  0.81329704932E+02 -0.31780199934E+02  0.11820280184E+03  0.14695715149E+03  0.00000000000E+00 0. -1.
</event>
<event>
 7    1  0.2844572E-009  0.6425847E+02  0.7561462E-02  0.1380783E+00
         -1   -1    0    0    0  501 -0.00000000000E+00  0.00000000000E+00  0.48033481393E+02  0.48033481393E+02  0.00000000000E+00 0.  1.
          1   -1    0    0  501    0  0.00000000000E+00 -0.00000000000E+00 -0.26380281505E+03  0.26380281505E+03  0.00000000000E+00 0. -1.
         25    2    1    2    0    0 -0.16183910888E+02  0.21415072566E+02 -0.10716171635E+03  0.16688932529E+03  0.12509152305E+03 0.  0.
          5    1    3    3  502    0 -0.25579591011E+02 -0.11706426201E+02 -0.12478673133E+03  0.12798654854E+03  0.41800000000E+01 0.  1.
         -5    1    3    3    0  502  0.93956801226E+01  0.33121498768E+02  0.17625014979E+02  0.38902776747E+02  0.41800000000E+01 0.  1.
        -11    1    1    2    0    0 -0.18850423858E+02  0.71817426357E+01 -0.95862138674E+02  0.97961551325E+02  0.00000000000E+00 0. -1.
         11    1    1    2    0    0  0.35034334746E+02 -0.28596815202E+02 -0.12745478625E+02  0.46985419826E+02  0.00000000000E+00 0.  1.
</event>
<event>
 7    1  0.2844572E-009  0.1117970E+03  0.7561462E-02  0.1257278E+00
          4   -1    0    0  501    0  0.00000000000E+00  0.00000000000E+00  0.22083703821E+03  0.22083703821E+03  0.00000000000E+00 0. -1.
         -4   -1    0    0    0  501 -0.00000000000E+00 -0.00000000000E+00 -0.60187637627E+02  0.60187637627E+02  0.00000000000E+00 0.  1.
         25    2    1    2    0    0  0.26287138181E+02 -0.59540579535E+01  0.12093578036E+03  0.17607138418E+03  0.12509678219E+03 0.  0.
          5    1    3    3  502    0 -0.24474180738E+02  0.47685369955E+02  0.56222649679E+02  0.77790351378E+02  0.41800000000E+01 0.  1.
         -5    1    3    3    0  502  0.50761318919E+02 -0.53639427909E+02  0.64713130685E+02  0.98281032798E+02  0.41800000000E+01 0.  1.
        -11    1    1    2    0    0 -0.25090484704E+02  0.47808096112E+02  0.30745953285E+02  0.62132601104E+02  0.00000000000E+00 0.  1.
         11    1    1    2    0    0 -0.11966534765E+01 -0.41854038158E+02  0.89676669344E+01  0.42820690559E+02  0.00000000000E+00 0. -1.
</event>
<event>
 7    1  0.2844572E-009  0.1287892E+03  0.7561462E-02  0.1229263E+00
          1   -1    0    0  501    0  0.00000000000E+00  0.00000000000E+00  0.29796073904E+03  0.29796073904E+03  0.00000000000E+00 0. -1.
         -1   -1    0    0    0  501 -0.00000000000E+00 -0.00000000000E+00 -0.66581386748E+02  0.66581386748E+02  0.00000000000E+00 0.  1.
         25    2    1    2    0    0 -0.74994342404E+02 -0.49374107055E+02  0.10560686892E+03  0.18671864409E+03  0.12509631269E+03 0.  0.
          5    1    3    3  502    0 -0.30833277315E+02  0.35359716749E+02  0.70602747460E+02  0.84871790999E+02  0.41800000000E+01 0. -1.
         -5    1    3    3    0  502 -0.44161065089E+02 -0.84733823804E+02  0.35004121456E+02  0.10184685309E+03  0.41800000000E+01 0. -1.
        -11    1    1    2    0    0  0.71911114761E+02  0.66191847077E+02  0.12748564142E+03  0.16063983882E+03  0.00000000000E+00 0. -1.
         11    1    1    2    0    0  0.30832276434E+01 -0.16817740022E+02 -0.17131580463E+01  0.17183642881E+02  0.00000000000E+00 0.  1.
</event>
<event>
 7    1  0.2844572E-009  0.1509361E+03  0.7561462E-02  0.1199327E+00
         -2   -1    0    0    0  501 -0.00000000000E+00  0.00000000000E+00  0.70741915912E+02  0.70741915912E+02  0.00000000000E+00 0.  1.
          2   -1    0    0  501    0  0.00000000000E+00 -0.00000000000E+00 -0.48626103392E+03  0.48626103392E+03  0.00000000000E+00 0. -1.
         25    2    1    2    0    0  0.60265227184E+02 -0.12827699392E+03 -0.29078018642E+03  0.34682368132E+03  0.12508662730E+03 0.  0.
          5    1    3    3  502    0  0.58626074725E+01 -0.37773002133E+02 -0.10999947615E+01  0.38468847721E+02  0.41800000000E+01 0. -1.
         -5    1    3    3    0  502  0.54402619711E+02 -0.90503991791E+02 -0.28968019166E+03  0.30835483360E+03  0.41800000000E+01 0. -1.
        -11    1    1    2    0    0  0.11632272940E+02  0.50500133161E+02 -0.79738119189E+02  0.95098585031E+02  0.00000000000E+00 0. -1.
         11    1    1    2    0    0 -0.71897500124E+02  0.77776860763E+02 -0.45000812391E+02  0.11508068348E+03  0.00000000000E+00 0.  1.
</event>
<event>
 7    1  0.2844572E-009  0.1157870E+03  0.7561462E-02  0.1250214E+00
          2   -1    0    0  501    0  0.00000000000E+00  0.00000000000E+00  0.56788424900E+03  0.56788424900E+03  0.00000000000E+00 0. -1.
         -2   -1    0    0    0  501 -0.00000000000E+00 -0.00000000000E+00 -0.13975906394E+03  0.13975906394E+03  0.00000000000E+00 0.  1.
         25    2    1    2    0    0 -0.98844534014E+02 -0.29656575238E+02  0.51935770987E+03  0.54408490462E+03  0.12508476435E+03 0.  0.
          5    1    3    3  502    0 -0.30405740928E+02  0.22407140435E+02  0.36798755612E+03  0.36994445919E+03  0.41800000000E+01 0. -1.
         -5    1    3    3    0  502 -0.68438793086E+02 -0.52063715673E+02  0.15137015375E+03  0.17414044543E+03  0.41800000000E+01 0. -1.
        -11    1    1    2    0    0  0.50306550529E+02 -0.55199474423E+00 -0.93681021779E+02  0.10633526022E+03  0.00000000000E+00 0.  1.
         11    1    1    2    0    0  0.48537983485E+02  0.30208569982E+02  0.24484969712E+01  0.57223148101E+02  0.00000000000E+00 0. -1.
</event>
<event>
 7    1  0.2844572E-009  0.8745104E+02  0.7561462E-02  0.1309144E+00
          1   -1    0    0  501    0  0.00000000000E+00  0.00000000000E+00  0.28447971764E+03  0.28447971764E+03  0.00000000000E+00 0. -1.
         -1   -1    0    0    0  501 -0.00000000000E+00 -0.00000000000E+00 -0.63444415905E+02  0.63444415905E+02  0.00000000000E+00 0.  1.
         25    2    1    2    0    0 -0.35321009286E+02  0.16491235084E+02  0.21725050195E+03  0.25370137436E+03  0.12508825773E+03 0.  0.
          5    1    3    3  502    0 -0.19026342611E+02 -0.28547015226E+02  0.36446222498E+01  0.34751826755E+02  0.41800000000E+01 0. -1.
         -5    1    3    3    0  502 -0.16294666676E+02  0.45038250310E+02  0.21360587970E+03  0.21894954760E+03  0.41800000000E+01 0. -1.
        -11    1    1    2    0    0 -0.24870936337E+02  0.96021156598E+01 -0.74084283439E+01  0.27670361579E+02  0.00000000000E+00 0. -1.
         11    1    1    2    0    0  0.60191945623E+02 -0.26093350744E+02  0.11193228125E+02  0.66552397604E+02  0.00000000000E+00 0.  1.
</event>
<event>
 7    1  0.2844572E-009  0.1150666E+03  0.7561462E-02  0.1251465E+00
          3   -1    0    0  501    0  0.00000000000E+00  0.00000000000E+00  0.18692686106E+03  0.18692686106E+03  0.00000000000E+00 0. -1.
         -3   -1    0    0    0  501 -0.00000000000E+00 -0.00000000000E+00 -0.10769469819E+03  0.10769469819E+03  0.00000000000E+00 0.  1.
         25    2    1    2    0    0 -0.69211874284E+02 -0.55733599285E+02  0.65583116406E+02  0.16687233531E+03  0.12509481806E+03 0.  0.
          5    1    3    3  502    0 -0.34991889795E+02  0.31205974968E+02  0.55548386303E+02  0.72810307279E+02  0.41800000000E+01 0.  1.
         -5    1    3    3    0  502 -0.34219984489E+02 -0.86939574254E+02  0.10034730103E+02  0.94062028035E+02  0.41800000000E+01 0.  1.
        -11    1    1    2    0    0  0.42494324967E+02  0.40889543814E+02  0.52058738666E+02  0.78662791199E+02  0.00000000000E+00 0. -1.
         11    1    1    2    0    0  0.26717549316E+02  0.14844055472E+02 -0.38409692201E+02  0.49086432741E+02  0.00000000000E+00 0.  1.
</event>
<event>
 7    1  0.2844572E-009  0.8129660E+02  0.7561462E-02  0.1325412E+00
         -2   -1    0    0    0  501 -0.00000000000E+00  0.00000000000E+00  0.35028035615E+02  0.35028035615E+02  0.00000000000E+00 0.  1.
          2   -1    0    0  501    0  0.00000000000E+00 -0.00000000000E+00 -0.66390687009E+03  0.66390687009E+03  0.00000000000E+00 0. -1.
         25    2    1    2    0    0  0.36106893080E+02  0.22198199869E+02 -0.56986845715E+03  0.58497434293E+03  0.12509378731E+03 0.  0.
          5    1    3    3  502    0  0.38975238354E+02  0.37702717364E+02 -0.92335598388E+02  0.10716295643E+03  0.41800000000E+01 0.  1.
         -5    1    3    3    0  502 -0.28683452742E+01 -0.15504517494E+02 -0.47753285876E+03  0.47781138650E+03  0.41800000000E+01 0.  1.
        -11    1    1    2    0    0 -0.43447708688E+02  0.20872519979E+02 -0.11779395506E+02  0.49619750493E+02  0.00000000000E+00 0.  1.
         11    1    1    2    0    0  0.73408156079E+01 -0.43070719849E+02 -0.47230981824E+02  0.64340812290E+02  0.00000000000E+00 0. -1.
</event>
<event>
 7    1  0.2844572E-009  0.6154033E+02  0.7561462E-02  0.1391479E+00
          3   -1    0    0  501    0  0.00000000000E+00  0.00000000000E+00  0.45241534714E+03  0.45241534714E+03  0.00000000000E+00 0. -1.
         -3   -1    0    0    0  501 -0.00000000000E+00 -0.00000000000E+00 -0.34771802122E+02  0.34771802122E+02  0.00000000000E+00 0.  1.
         25    2    1    2    0    0  0.17725803243E+02  0.46990749930E+02  0.18036101648E+03  0.22516735578E+03  0.12509159510E+03 0.  0.
          5    1    3    3  502    0 -0.77152860949E+01  0.11596810014E+02  0.18079256729E+03  0.18137650462E+03  0.41800000000E+01 0. -1.
         -5    1    3    3    0  502  0.25441089338E+02  0.35393939916E+02 -0.43155080872E+00  0.43790851163E+02  0.41800000000E+01 0. -1.
        -11    1    1    2    0    0 -0.21188619214E+02 -0.39303767090E+01  0.73775398264E+00  0.21562692926E+02  0.00000000000E+00 0.  1.
         11    1    1    2    0    0  0.34628159712E+01 -0.43060373221E+02  0.23654477456E+03  0.24045710055E+03  0.00000000000E+00 0. -1.
</event>
<event>
 7    1  0.2844572E-009  0.1146287E+03  0.7561462E-02  0.1252231E+00
         -1   -1    0    0    0  501 -0.00000000000E+00  0.00000000000E+00  0.22506527969E+02  0.22506527969E+02  0.00000000000E+00 0.  1.
          1   -1    0    0  501    0  0.00000000000E+00 -0.00000000000E+00 -0.75250935921E+03  0.75250935921E+03  0.00000000000E+00 0. -1.
         25    2    1    2    0    0  0.31369041313E+02 -0.31420351629E+02 -0.57460516043E+03  0.58973682142E+03  0.12508866010E+03 0.  0.
          5    1    3    3  502    0  0.44818580421E+02  0.39376363515E+02 -0.22959652300E+03  0.23725774788E+03  0.41800000000E+01 0.  1.
         -5    1    3    3    0  502 -0.13449539108E+02 -0.70796715144E+02 -0.34500863744E+03  0.35247907354E+03  0.41800000000E+01 0.  1.
        -11    1    1    2    0    0 -0.56998804429E+02  0.40669375651E+02 -0.13174931164E+03  0.14920034497E+03  0.00000000000E+00 0. -1.
         11    1    1    2    0    0  0.25629763115E+02 -0.92490240213E+01 -0.23648359167E+02  0.36078720792E+02  0.00000000000E+00 0.  1.
</event>
<event>
 7    1  0.2844572E-009  0.8543580E+02  0.7561462E-02  0.1314297E+00
         -1   -1    0    0    0  501 -0.00000000000E+00  0.00000000000E+00  0.79477745336E+02  0.79477745336E+02  0.00000000000E+00 0.  1.
          1   -1    0    0  501    0  0.00000000000E+00 -0.00000000000E+00 -0.17444161224E+03  0.17444161224E+03  0.00000000000E+00 0. -1.
         25    2    1    2    0    0  0.44567049017E+02  0.12118765295E+02 -0.53046463233E+02  0.14350705347E+03  0.12508901153E+03 0.  0.
          5    1    3    3  502    0  0.24069343867E+02  0.63529405889E+02 -0.55684311376E+02  0.87940512053E+02  0.41800000000E+01 0. -1.
         -5    1    3    3    0  502  0.20497705150E+02 -0.51410640594E+02  0.26378481429E+01  0.55566541421E+02  0.41800000000E+01 0. -1.
        -11    1    1    2    0    0 -0.26530620007E+02 -0.19609264268E+01 -0.70367568806E+02  0.75228410657E+02  0.00000000000E+00 0. -1.
         11    1    1    2    0    0 -0.18036429009E+02 -0.10157838868E+02  0.28450165133E+02  0.35183893446E+02  0.00000000000E+00 0.  1.
</event>
<event>
 7    1  0.2844572E-009  0.9641248E+02  0.7561462E-02  0.1288026E+00
          1   -1    0    0  501    0  0.00000000000E+00  0.00000000000E+00  0.30113598449E+03  0.30113598449E+03  0.00000000000E+00 0. -1.
         -1   -1    0    0    0  501 -0.00000000000E+00 -0.00000000000E+00 -0.45015193742E+02  0.45015193742E+02  0.00000000000E+00 0.  1.
         25    2    1    2    0    0 -0.94902227332E+01  0.48612067298E+02  0.16396984695E+03  0.21209964098E+03  0.12508776751E+03 0.  0.
          5    1    3    3  502    0  0.84714534066E+01 -0.23884002660E+02  0.12527204344E+03  0.12787794327E+03  0.41800000000E+01 0.  1.
         -5    1    3    3    0  502 -0.17961676140E+02  0.72496069957E+02  0.38697803502E+02  0.84221697708E+02  0.41800000000E+01 0.  1.
        -11    1    1    2    0    0  0.25666188182E+02  0.12904702522E+02  0.50252201588E+02  0.57884093907E+02  0.00000000000E+00 0. -1.
         11    1    1    2    0    0 -0.16175965449E+02 -0.61516769820E+02  0.41898742216E+02  0.76167443350E+02  0.00000000000E+00 0.  1.
</event>
<event>
 7    1  0.2844572E-009  0.5445499E+02  0.7561462E-02  0.1422694E+00
         -2   -1    0    0    0  501 -0.00000000000E+00  0.00000000000E+00  0.14784086056E+03  0.14784086056E+03  0.00000000000E+00 0.  1.
          2   -1    0    0  501    0  0.00000000000E+00 -0.00000000000E+00 -0.17575079531E+03  0.17575079531E+03  0.00000000000E+00 0. -1.
         25    2    1    2    0    0 -0.32397842542E+02 -0.25643941651E+02  0.97024758963E+02  0.16361449495E+03  0.12509463282E+03 0.  0.
          5    1    3    3  502    0  0.37215381644E+01  0.43662858289E+01 -0.28582566837E+02  0.29450803474E+02  0.41800000000E+01 0.  1.
         -5    1    3    3    0  502 -0.36119380707E+02 -0.30010227480E+02  0.12560732580E+03  0.13416369148E+03  0.41800000000E+01 0.  1.
        -11    1    1    2    0    0  0.17706087396E+02 -0.68659048522E+01  0.92551975231E+01  0.21125928654E+02  0.00000000000E+00 0.  1.
         11    1    1    2    0    0  0.14691755147E+02  0.32509846503E+02 -0.13418989124E+03  0.13885123226E+03  0.00000000000E+00 0. -1.
</event>
<event>
 7    1  0.2844572E-009  0.1531940E+03  0.7561462E-02  0.1196602E+00
         -1   -1    0    0    0  501 -0.00000000000E+00  0.00000000000E+00  0.38735759382E+02  0.38735759382E+02  0.00000000000E+00 0.  1.
          1   -1    0    0  501    0  0.00000000000E+00 -0.00000000000E+00 -0.10094036571E+04  0.10094036571E+04  0.00000000000E+00 0. -1.
         25    2    1    2    0    0 -0.61214826202E+02  0.12237651585E+03 -0.75047300766E+03  0.77303545741E+03  0.12510322379E+03 0.  0.
          5    1    3    3  502    0  0.12116440436E+02 -0.22021941510E+01 -0.54414544090E+01  0.14097503822E+02  0.41800000000E+01 0. -1.
         -5    1    3    3    0  502 -0.73331266638E+02  0.12457871000E+03 -0.74503155325E+03  0.75893795359E+03  0.41800000000E+01 0. -1.
        -11    1    1    2    0    0  0.72894704047E+02 -0.10626009156E+03 -0.22027760119E+03  0.25520005196E+03  0.00000000000E+00 0. -1.
         11    1    1    2    0    0 -0.11679877844E+02 -0.16116424285E+02  0.82711105372E-01  0.19903907137E+02  0.00000000000E+00 0.  1.
</event>
<event>
 7    1  0.2844572E-009  0.9838318E+02  0.7561462E-02  0.1283733E+00
          2   -1    0    0  501    0  0.00000000000E+00  0.00000000000E+00  0.43155913976E+03  0.43155913976E+03  0.00000000000E+00 0.  1.
         -2   -1    0    0    0  501 -0.00000000000E+00 -0.00000000000E+00 -0.31623424689E+02  0.31623424689E+02  0.00000000000E+00 0. -1.
         25    2    1    2    0    0  0.26252625286E+02  0.39374891859E+02  0.17376268567E+03  0.21927178524E+03  0.12508821859E+03 0.  0.
          5    1    3    3  502    0 -0.35793933228E+02 -0.12468112062E+02  0.10936143178E+03  0.11581905990E+03  0.41800000000E+01 0. -1.
         -5    1    3    3    0  502  0.62046558514E+02  0.51843003921E+02  0.64401253886E+02  0.10345272534E+03  0.41800000000E+01 0. -1.
        -11    1    1    2    0    0  0.54466077611E+01 -0.45126375613E+02  0.19048093410E+03  0.19582911317E+03  0.00000000000E+00 0.  1.
         11    1    1    2    0    0 -0.31699233047E+02  0.57514837540E+01  0.35692095307E+02  0.48081666033E+02  0.00000000000E+00 0. -1.
</event>
<event>
 7    1  0.2844572E-009  0.2030499E+03  0.7561462E-02  0.1147191E+00
         -2   -1    0    0    0  501 -0.00000000000E+00  0.00000000000E+00  0.23741371382E+03  0.23741371382E+03  0.00000000000E+00 0.  1.
          2   -1    0    0  501    0  0.00000000000E+00 -0.00000000000E+00 -0.20434782608E+03  0.20434782608E+03  0.00000000000E+00 0. -1.
         25    2    1    2    0    0  0.64799880260E+01  0.17162017724E+03  0.10063216952E+03  0.23509395872E+03  0.12508741105E+03 0.  0.
          5    1    3    3  502    0  0.24113934357E+02 -0.12295910615E+02  0.90931097049E+01  0.28858764564E+02  0.41800000000E+01 0.  1.
         -5    1    3    3    0  502 -0.17633946331E+02  0.18391608786E+03  0.91539059812E+02  0.20623519415E+03  0.41800000000E+01 0.  1.
        -11    1    1    2    0    0  0.41818023903E+02 -0.84962467707E+02 -0.20633161903E+02  0.96917982914E+02  0.00000000000E+00 0.  1.
         11    1    1    2    0    0 -0.48298011929E+02 -0.86657709535E+02 -0.46933119873E+02  0.10974959826E+03  0.00000000000E+00 0. -1.
</event>
<event>
 7    1  0.2844572E-009  0.1059414E+03  0.7561462E-02  0.1268276E+00
         -3   -1    0    0    0  501 -0.00000000000E+00  0.00000000000E+00  0.13770815589E+04  0.13770815589E+04  0.00000000000E+00 0.  1.
          3   -1    0    0  501    0  0.00000000000E+00 -0.00000000000E+00 -0.15936600349E+02  0.15936600349E+02  0.00000000000E+00 0. -1.
         25    2    1    2    0    0 -0.59039921058E+02 -0.17825853966E+02  0.11100164173E+04  0.11187439562E+04  0.12509244422E+03 0.  0.
          5    1    3    3  502    0 -0.62543164085E+01 -0.55885204339E+02  0.25100899789E+03  0.25726496450E+03  0.41800000000E+01 0.  1.
         -5    1    3    3    0  502 -0.52785604649E+02  0.38059350373E+02  0.85900741937E+03  0.86147899170E+03  0.41800000000E+01 0.  1.
        -11    1    1    2    0    0  0.17491591184E+02  0.39661348868E+02  0.43514378839E+02  0.61420513853E+02  0.00000000000E+00 0. -1.
         11    1    1    2    0    0  0.41548329874E+02 -0.21835494902E+02  0.20761416245E+03  0.21285368919E+03  0.00000000000E+00 0.  1.
</event>
<event>
 7    1  0.2844572E-009  0.1508523E+03  0.7561462E-02  0.1199430E+00
          2   -1    0    0  501    0  0.00000000000E+00  0.00000000000E+00  0.10756667826E+04  0.10756667826E+04  0.00000000000E+00 0. -1.
         -2   -1    0    0    0  501 -0.00000000000E+00 -0.00000000000E+00 -0.32856389239E+02  0.32856389239E+02  0.00000000000E+00 0.  1.
         25    2    1    2    0    0 -0.14335224036E+03 -0.33222200993E+02  0.42825531652E+03  0.46979029814E+03  0.12508688438E+03 0.  0.
          5    1    3    3  502    0 -0.11440580003E+03 -0.24177822265E+02  0.42280370091E+03  0.43869544797E+03  0.41800000000E+01 0. -1.
         -5    1    3    3    0  502 -0.28946440331E+02 -0.90443787278E+01  0.54516156177E+01  0.31094850173E+02  0.41800000000E+01 0. -1.
        -11    1    1    2    0    0  0.10373505312E+03  0.44523840351E+02  0.55469962433E+03  0.56606978973E+03  0.00000000000E+00 0. -1.
         11    1    1    2    0    0  0.39617187240E+02 -0.11301639357E+02  0.59855452493E+02  0.72663083957E+02  0.00000000000E+00 0.  1.
</event>
<event>
 7    1  0.2970702E-009  0.2088235E+03  0.7561462E-02  0.1142501E+00
         -2   -1    0    0    0  501 -0.00000000000E+00  0.00000000000E+00  0.39062675058E+02  0.39062675058E+02  0.00000000000E+00 0.  1.
          2   -1    0    0  501    0  0.00000000000E+00 -0.00000000000E+00 -0.13977204090E+04  0.13977204090E+04  0.00000000000E+00 0. -1.
         25    2    1    2    0    0 -0.17798227884E+03 -0.93099683950E+02 -0.55377380178E+03  0.60221133807E+03  0.12509128440E+03 0.  0.
          5    1    3    3  502    0 -0.16292428727E+02 -0.44995798863E+02 -0.43666539187E+02  0.64917672430E+02  0.41800000000E+01 0.  1.
         -5    1    3    3    0  502 -0.16168985011E+03 -0.48103885088E+02 -0.51010726259E+03  0.53729366564E+03  0.41800000000E+01 0.  1.
        -11    1    1    2    0    0  0.68332444450E+02  0.36381027258E+02 -0.15719981642E+03  0.17522752179E+03  0.00000000000E+00 0.  1.
         11    1    1    2    0    0  0.10964983439E+03  0.56718656692E+02 -0.64768411571E+03  0.65934422416E+03  0.00000000000E+00 0. -1.
</event>
<event>
 7    1  0.2844572E-009  0.8625391E+02  0.7561462E-02  0.1312186E+00
          1   -1    0    0  501    0  0.00000000000E+00  0.00000000000E+00  0.27209473865E+03  0.27209473865E+03  0.00000000000E+00 0. -1.
         -1   -1    0    0    0  501 -0.00000000000E+00 -0.00000000000E+00 -0.47869908593E+02  0.47869908593E+02  0.00000000000E+00 0.  1.
         25    2    1    2    0    0 -0.23566694738E+02 -0.23004162357E+02  0.11064835077E+03  0.17021639657E+03  0.12508390603E+03 0.  0.
          5    1    3    3  502    0 -0.60960923881E+02  0.25494505458E+02  0.43401890839E+02  0.79166915927E+02  0.41800000000E+01 0. -1.
         -5    1    3    3    0  502  0.37394229143E+02 -0.48498667815E+02  0.67246459930E+02  0.91049480648E+02  0.41800000000E+01 0. -1.
        -11    1    1    2    0    0  0.99243822794E+01 -0.68721277412E+01 -0.13724964549E+02  0.18278242673E+02  0.00000000000E+00 0.  1.
         11    1    1    2    0    0  0.13642312458E+02  0.29876290098E+02  0.12730144383E+03  0.13147000799E+03  0.00000000000E+00 0. -1.
</event>
<event>
 7    1  0.2844572E-009  0.1177011E+03  0.7561462E-02  0.1246938E+00
         -3   -1    0    0    0  501 -0.00000000000E+00  0.00000000000E+00  0.16237454462E+03  0.16237454462E+03  0.00000000000E+00 0.  1.
          3   -1    0    0  501    0  0.00000000000E+00 -0.00000000000E+00 -0.90449618074E+02  0.90449618074E+02  0.00000000000E+00 0. -1.
         25    2    1    2    0    0 -0.10628206785E+02  0.58495220104E+02  0.26644786789E+02  0.14104094905E+03  0.12509178667E+03 0.  0.
          5    1    3    3  502    0  0.18086258808E+01 -0.39412424195E+02  0.60365226284E+01  0.40131313384E+02  0.41800000000E+01 0. -1.
         -5    1    3    3    0  502 -0.12436832666E+02  0.97907644299E+02  0.20608264161E+02  0.10090963567E+03  0.41800000000E+01 0. -1.
        -11    1    1    2    0    0 -0.33338123367E+02 -0.25696616119E+02  0.37515377382E+02  0.56383952413E+02  0.00000000000E+00 0. -1.
         11    1    1    2    0    0  0.43966330152E+02 -0.32798603986E+02  0.77647623807E+01  0.55399261234E+02  0.00000000000E+00 0.  1.
</event>
<event>
 7    1  0.3859650E-009  0.1404806E+03  0.7561462E-02  0.1212684E+00
          2   -1    0    0  501    0  0.00000000000E+00  0.00000000000E+00  0.42762064435E+03  0.42762064435E+03  0.00000000000E+00 0. -1.
         -2   -1    0    0    0  501 -0.00000000000E+00 -0.00000000000E+00 -0.56987995249E+02  0.56987995249E+02  0.00000000000E+00 0.  1.
         25    2    1    2    0    0 -0.61255390934E+02  0.75843665369E+02  0.11331359933E+03  0.19491516246E+03  0.12508982480E+03 0.  0.
          5    1    3    3  502    0 -0.14455153374E+02  0.10291051791E+03  0.80664147986E+02  0.13161954006E+03  0.41800000000E+01 0.  1.
         -5    1    3    3    0  502 -0.46800237559E+02 -0.27066852539E+02  0.32649451347E+02  0.63295622402E+02  0.41800000000E+01 0.  1.
        -11    1    1    2    0    0  0.34339020672E+02  0.75005836582E+01  0.30444370649E+02  0.46500395699E+02  0.00000000000E+00 0.  1.
         11    1    1    2    0    0  0.26916370261E+02 -0.83344249027E+02  0.22687467912E+03  0.24319308144E+03  0.00000000000E+00 0. -1.
</event>
<event>
 7    1  0.2844572E-009  0.1996195E+03  0.7561462E-02  0.1150060E+00
         -2   -1    0    0    0  501 -0.00000000000E+00  0.00000000000E+00  0.26445014285E+03  0.26445014285E+03  0.00000000000E+00 0.  1.
          2   -1    0    0  501    0  0.00000000000E+00 -0.00000000000E+00 -0.16981484246E+03  0.16981484246E+03  0.00000000000E+00 0. -1.
         25    2    1    2    0    0  0.18033758202E+03  0.12773840479E+00  0.78076489818E+02  0.23294963665E+03  0.12509170694E+03 0.  0.
          5    1    3    3  502    0 -0.90509470332E+01 -0.21464112444E+02  0.26305286961E+02  0.35384576970E+02  0.41800000000E+01 0. -1.
         -5    1    3    3    0  502  0.18938852905E+03  0.21591850849E+02  0.51771202856E+02  0.19756505968E+03  0.41800000000E+01 0. -1.
        -11    1    1    2    0    0 -0.90012749656E+02  0.20372324822E+02 -0.30793289895E+02  0.97291075757E+02  0.00000000000E+00 0. -1.
         11    1    1    2    0    0 -0.90324832366E+02 -0.20500063227E+02  0.47352100467E+02  0.10402427290E+03  0.00000000000E+00 0.  1.
</event>
<event>
 7    1  0.2920259E-009  0.2027916E+03  0.7561462E-02  0.1147405E+00
          2   -1    0    0  501    0  0.00000000000E+00  0.00000000000E+00  0.62589009153E+03  0.62589009153E+03  0.00000000000E+00 0.  1.
         -2   -1    0    0    0  501 -0.00000000000E+00 -0.00000000000E+00 -0.72338182888E+02  0.72338182888E+02  0.00000000000E+00 0. -1.
         25    2    1    2    0    0 -0.12420052305E+03  0.13144129569E+03  0.24610247007E+03  0.33002360929E+03  0.12508626134E+03 0.  0.
          5    1    3    3  502    0 -0.11207418641E+03  0.15484442453E+03  0.22901961192E+03  0.29833684672E+03  0.41800000000E+01 0.  1.
         -5    1    3    3    0  502 -0.12126336639E+02 -0.23403128837E+02  0.17082858149E+02  0.31686762570E+02  0.41800000000E+01 0.  1.
        -11    1    1    2    0    0  0.81929989723E+00 -0.24243005265E+02  0.10624874553E+03  0.10898252375E+03  0.00000000000E+00 0.  1.
         11    1    1    2    0    0  0.12338122315E+03 -0.10719829043E+03  0.20120069305E+03  0.25922214138E+03  0.00000000000E+00 0. -1.
</event>
<event>
 7    1  0.2844572E-009  0.1378634E+03  0.7561462E-02  0.1216233E+00
          2   -1    0    0  501    0  0.00000000000E+00  0.00000000000E+00  0.28970988689E+03  0.28970988689E+03  0.00000000000E+00 0. -1.
         -2   -1    0    0    0  501 -0.00000000000E+00 -0.00000000000E+00 -0.10763704613E+03  0.10763704613E+03  0.00000000000E+00 0.  1.
         25    2    1    2    0    0  0.93408351817E+02 -0.79763208855E+02  0.23865604105E+02  0.17695061351E+03  0.12511859528E+03 0.  0.
          5    1    3    3  502    0  0.54991461959E+02  0.74731248297E+01 -0.34138717745E+02  0.65290373964E+02  0.41800000000E+01 0. -1.
         -5    1    3    3    0  502  0.38416889858E+02 -0.87236333685E+02  0.58004321850E+02  0.11166023954E+03  0.41800000000E+01 0. -1.
        -11    1    1    2    0    0 -0.75961108464E+02  0.74595484487E+02  0.16863029567E+03  0.19942605879E+03  0.00000000000E+00 0. -1.
         11    1    1    2    0    0 -0.17447243353E+02  0.51677243688E+01 -0.10423059011E+02  0.20970260726E+02  0.00000000000E+00 0.  1.
</event>
<event>
 7    1  0.2844572E-009  0.9480457E+02  0.7561462E-02  0.1291617E+00
          1   -1    0    0  501    0  0.00000000000E+00  0.00000000000E+00  0.40324090669E+02  0.40324090669E+02  0.00000000000E+00 0. -1.
         -1   -1    0    0    0  501 -0.00000000000E+00 -0.00000000000E+00 -0.32879224444E+03  0.32879224444E+03  0.00000000000E+00 0.  1.
         25    2    1    2    0    0 -0.34145877621E+02  0.13973990524E+02 -0.16902243695E+03  0.21348859715E+03  0.12509030159E+03 0.  0.
          5    1    3    3  502    0 -0.49327733422E+01 -0.53724854593E+02 -0.51588702046E+02  0.74763352204E+02  0.41800000000E+01 0.  1.
         -5    1    3    3    0  502 -0.29213104279E+02  0.67698845117E+02 -0.11743373491E+03  0.13872524495E+03  0.41800000000E+01 0.  1.
        -11    1    1    2    0    0 -0.11137181197E+02 -0.11923574300E+02  0.95458757610E+01  0.18903231818E+02  0.00000000000E+00 0. -1.
         11    1    1    2    0    0  0.45283058819E+02 -0.20504162231E+01 -0.12899159258E+03  0.13672450614E+03  0.00000000000E+00 0.  1.
</event>
<event>
 7    1  0.2844572E-009  0.1179272E+03  0.7561462E-02  0.1246556E+00
          1   -1    0    0  501    0  0.00000000000E+00  0.00000000000E+00  0.33712741027E+02  0.33712741027E+02  0.00000000000E+00 0. -1.
         -1   -1    0    0    0  501 -0.00000000000E+00 -0.00000000000E+00 -0.67614848113E+03  0.67614848113E+03  0.00000000000E+00 0.  1.
         25    2    1    2    0    0 -0.10149239945E+03  0.14977632305E+02 -0.39151379631E+03  0.42362167235E+03  0.12508889626E+03 0.  0.
          5    1    3    3  502    0 -0.39495256461E+01 -0.11694638414E+02 -0.24614716400E+03  0.24649191075E+03  0.41800000000E+01 0.  1.
         -5    1    3    3    0  502 -0.97542873800E+02  0.26672270719E+02 -0.14536663232E+03  0.17712976160E+03  0.41800000000E+01 0.  1.
        -11    1    1    2    0    0  0.61253614089E+02 -0.40984818908E+02 -0.21220707434E+03  0.22464105373E+03  0.00000000000E+00 0.  1.
         11    1    1    2    0    0  0.40238785358E+02  0.26007186604E+02 -0.38714869440E+02  0.61598496068E+02  0.00000000000E+00 0. -1.
</event>
<event>
 7    1  0.2844572E-009  0.1029109E+03  0.7561462E-02  0.1274291E+00
          1   -1    0    0  501    0  0.00000000000E+00  0.00000000000E+00  0.73447265260E+02  0.73447265260E+02  0.00000000000E+00 0. -1.
         -1   -1    0    0    0  501 -0.00000000000E+00 -0.00000000000E+00 -0.19691722184E+03  0.19691722184E+03  0.00000000000E+00 0.  1.
         25    2    1    2    0    0  0.47038141838E+02  0.18693982877E+02 -0.60106643081E+02  0.14772323746E+03  0.12508914646E+03 0.  0.
          5    1    3    3  502    0  0.76899925921E+02 -0.12031864600E+02 -0.54350723367E+01  0.78136910508E+02  0.41800000000E+01 0.  1.
         -5    1    3    3    0  502 -0.29861784083E+02  0.30725847476E+02 -0.54671570744E+02  0.69586326957E+02  0.41800000000E+01 0.  1.
        -11    1    1    2    0    0 -0.65527549799E+01 -0.38989839463E+02 -0.66370091272E+02  0.77253706672E+02  0.00000000000E+00 0.  1.
         11    1    1    2    0    0 -0.40485386858E+02  0.20295856586E+02  0.30067777728E+01  0.45387542962E+02  0.00000000000E+00 0. -1.
</event>
<event>
 7    1  0.2844572E-009  0.1194261E+03  0.7561462E-02  0.1244047E+00
          1   -1    0    0  501    0  0.00000000000E+00  0.00000000000E+00  0.20954891254E+03  0.20954891254E+03  0.00000000000E+00 0. -1.
         -1   -1    0    0    0  501 -0.00000000000E+00 -0.00000000000E+00 -0.10695727176E+03  0.10695727176E+03  0.00000000000E+00 0.  1.
         25    2    1    2    0    0  0.41879834207E+02  0.52457124091E+02  0.14486538569E+03  0.20282705109E+03  0.12508861780E+03 0.  0.
          5    1    3    3  502    0  0.46270551236E+02  0.87977085961E+02  0.13034871917E+03  0.16397924428E+03  0.41800000000E+01 0.  1.
         -5    1    3    3    0  502 -0.43907170293E+01 -0.35519961870E+02  0.14516666514E+02  0.38847806810E+02  0.41800000000E+01 0.  1.
        -11    1    1    2    0    0  0.22498100067E+02 -0.42374083652E+01 -0.17602509423E+00  0.22894346925E+02  0.00000000000E+00 0. -1.
         11    1    1    2    0    0 -0.64377934274E+02 -0.48219715726E+02 -0.42097719809E+02  0.90784786276E+02  0.00000000000E+00 0.  1.
</event>
<event>
 7    1  0.2844572E-009  0.9551666E+02  0.7561462E-02  0.1290017E+00
         -1   -1    0    0    0  501 -0.00000000000E+00  0.00000000000E+00  0.30040774307E+03  0.30040774307E+03  0.00000000000E+00 0.  1.
          1   -1    0    0  501    0  0.00000000000E+00 -0.00000000000E+00 -0.65576320996E+02  0.65576320996E+02  0.00000000000E+00 0. -1.
         25    2    1    2    0    0 -0.63334082233E+02 -0.56451582644E+02  0.96285169139E+02  0.17920944218E+03  0.12508878133E+03 0.  0.
          5    1    3    3  502    0 -0.36197274858E+02 -0.22078770649E+02  0.12132596946E+03  0.12858918339E+03  0.41800000000E+01 0.  1.
         -5    1    3    3    0  502 -0.27136807376E+02 -0.34372811996E+02 -0.25040800319E+02  0.50620258787E+02  0.41800000000E+01 0.  1.
        -11    1    1    2    0    0 -0.63511779089E+01  0.28754760828E+02  0.96307809619E+02  0.10070932392E+03  0.00000000000E+00 0.  1.
         11    1    1    2    0    0  0.69685260142E+02  0.27696821816E+02  0.42238443311E+02  0.86065297961E+02  0.00000000000E+00 0. -1.
</event>
<event>
 7    1  0.2844572E-009  0.1491589E+03  0.7561462E-02  0.1201510E+00
          3   -1    0    0  501    0  0.00000000000E+00  0.00000000000E+00  0.10297144586E+03  0.10297144586E+03  0.00000000000E+00 0. -1.
         -3   -1    0    0    0  501 -0.00000000000E+00 -0.00000000000E+00 -0.32366621021E+03  0.32366621021E+03  0.00000000000E+00 0.  1.
         25    2    1    2    0    0 -0.13844312848E+03 -0.32243064109E+02 -0.15610720324E+03  0.24540025455E+03  0.12508281667E+03 0.  0.
          5    1    3    3  502    0 -0.64461876120E+02  0.16486875853E+02 -0.14027499003E+03  0.15531160863E+03  0.41800000000E+01 0.  1.
         -5    1    3    3    0  502 -0.73981252358E+02 -0.48729939962E+02 -0.15832213209E+02  0.90088645923E+02  0.41800000000E+01 0.  1.
        -11    1    1    2    0    0  0.11034667894E+03  0.31898593299E+02 -0.87971020245E+02  0.14468175494E+03  0.00000000000E+00 0.  1.
         11    1    1    2    0    0  0.28096449536E+02  0.34447080990E+00  0.23383459131E+02  0.36555646590E+02  0.00000000000E+00 0. -1.
</event>
<event>
 7    1  0.2844572E-009  0.1101659E+03  0.7561462E-02  0.1260263E+00
          1   -1    0    0  501    0  0.00000000000E+00  0.00000000000E+00  0.40121505692E+03  0.40121505692E+03  0.00000000000E+00 0. -1.
         -1   -1    0    0    0  501 -0.00000000000E+00 -0.00000000000E+00 -0.36982343648E+02  0.36982343648E+02  0.00000000000E+00 0.  1.
         25    2    1    2    0    0  0.28324858690E+02 -0.47890210449E+02  0.24106636838E+03  0.27722679110E+03  0.12508369142E+03 0.  0.
          5    1    3    3  502    0 -0.48963363046E+02 -0.98960966179E+01  0.76919952499E+02  0.91812282084E+02  0.41800000000E+01 0. -1.
         -5    1    3    3    0  502  0.77288221735E+02 -0.37994113831E+02  0.16414641588E+03  0.18541450901E+03  0.41800000000E+01 0. -1.
        -11    1    1    2    0    0 -0.21777696122E+01 -0.15373074955E+02  0.76652480137E+02  0.78209186322E+02  0.00000000000E+00 0. -1.
         11    1    1    2    0    0 -0.26147089078E+02  0.63263285404E+02  0.46513864750E+02  0.82761423147E+02  0.00000000000E+00 0.  1.
</event>
<event>
 7    1  0.2844572E-009  0.1357378E+03  0.7561462E-02  0.1219182E+00
         -2   -1    0    0    0  501 -0.00000000000E+00  0.00000000000E+00  0.28956624850E+02  0.28956624850E+02  0.00000000000E+00 0.  1.
          2   -1    0    0  501    0  0.00000000000E+00 -0.00000000000E+00 -0.69480075045E+03  0.69480075045E+03  0.00000000000E+00 0. -1.
         25    2    1    2    0    0  0.10455192506E+02 -0.84882475354E+02 -0.45888574710E+03  0.48325799829E+03  0.12509124011E+03 0.  0.
          5    1    3    3  502    0  0.58130393565E+02 -0.83660849338E+02 -0.34412811795E+03  0.35891491238E+03  0.41800000000E+01 0.  1.
         -5    1    3    3    0  502 -0.47675201058E+02 -0.12216260159E+01 -0.11475762915E+03  0.12434308591E+03  0.41800000000E+01 0.  1.
        -11    1    1    2    0    0  0.28682729707E+02  0.56958592388E+00 -0.37431363116E+02  0.47160686555E+02  0.00000000000E+00 0.  1.
         11    1    1    2    0    0 -0.39137922214E+02  0.84312889431E+02 -0.16952701539E+03  0.19333869045E+03  0.00000000000E+00 0. -1.
</event>
<event>
 7    1  0.2844572E-009  0.1452705E+03  0.7561462E-02  0.1206408E+00
         -1   -1    0    0    0  501 -0.00000000000E+00  0.00000000000E+00  0.15836069134E+03  0.15836069134E+03  0.00000000000E+00 0.  1.
          1   -1    0    0  501    0  0.00000000000E+00 -0.00000000000E+00 -0.27981471743E+03  0.27981471743E+03  0.00000000000E+00 0. -1.
         25    2    1    2    0    0 -0.10100403409E+03  0.77240035926E+01  0.91136432981E+02  0.18497084302E+03  0.12508752223E+03 0.  0.
          5    1    3    3  502    0 -0.77607139258E+02  0.63478463602E+02  0.56261006970E+02  0.11504415114E+03  0.41800000000E+01 0.  1.
         -5    1    3    3    0  502 -0.23396894828E+02 -0.55754460009E+02  0.34875426011E+02  0.69926691885E+02  0.41800000000E+01 0.  1.
        -11    1    1    2    0    0  0.61790256360E+02 -0.44244322322E+02 -0.16448712152E+03  0.18119494746E+03  0.00000000000E+00 0. -1.
         11    1    1    2    0    0  0.39213777727E+02  0.36520318729E+02 -0.48103337552E+02  0.72009618298E+02  0.00000000000E+00 0.  1.
</event>
<event>
 7    1  0.2844572E-009  0.8580545E+02  0.7561462E-02  0.1313340E+00
         -2   -1    0    0    0  501 -0.00000000000E+00  0.00000000000E+00  0.51619209490E+02  0.51619209490E+02  0.00000000000E+00 0.  1.
          2   -1    0    0  501    0  0.00000000000E+00 -0.00000000000E+00 -0.36937885619E+03  0.36937885619E+03  0.00000000000E+00 0. -1.
         25    2    1    2    0    0  0.83661309887E+01 -0.28337777715E+01 -0.30380320528E+03  0.32866370046E+03  0.12508164539E+03 0.  0.
          5    1    3    3  502    0  0.27202090205E+02  0.54018377375E+02 -0.10787389295E+03  0.12374242597E+03  0.41800000000E+01 0. -1.
         -5    1    3    3    0  502 -0.18835959216E+02 -0.56852155147E+02 -0.19592931234E+03  0.20492127449E+03  0.41800000000E+01 0. -1.
        -11    1    1    2    0    0 -0.84220083438E+01 -0.23320392709E+02 -0.45221175598E+02  0.51572528182E+02  0.00000000000E+00 0. -1.
         11    1    1    2    0    0  0.55877355151E-01  0.26154170481E+02  0.31264734179E+02  0.40761837043E+02  0.00000000000E+00 0.  1.
</event>
<event>
 7    1  0.2844572E-009  0.4203249E+02  0.7561462E-02  0.1493766E+00
         -4   -1    0    0    0  501 -0.00000000000E+00  0.00000000000E+00  0.20422693919E+03  0.20422693919E+03  0.00000000000E+00 0. -1.
          4   -1    0    0  501    0  0.00000000000E+00 -0.00000000000E+00 -0.99613820844E+02  0.99613820844E+02  0.00000000000E+00 0.  1.
         25    2    1    2    0    0 -0.32079690786E+02  0.39019997859E+01 -0.35011919735E+02  0.13385600651E+03  0.12508902346E+03 0.  0.
          5    1    3    3  502    0 -0.38844963842E+01 -0.22614648455E+00 -0.80127777713E+02  0.80331025237E+02  0.41800000000E+01 0. -1.
         -5    1    3    3    0  502 -0.28195194402E+02  0.41281462704E+01  0.45115857978E+02  0.53524981271E+02  0.41800000000E+01 0. -1.
        -11    1    1    2    0    0  0.16455194292E+01  0.14098695654E+02 -0.92670638833E+01  0.16951679160E+02  0.00000000000E+00 0.  1.
         11    1    1    2    0    0  0.30434171357E+02 -0.18000695440E+02  0.14889210197E+03  0.15303307437E+03  0.00000000000E+00 0. -1.
</event>
<event>
 7    1  0.2844572E-009  0.2059903E+03  0.7561462E-02  0.1144781E+00
          2   -1    0    0  501    0  0.00000000000E+00  0.00000000000E+00  0.25540574199E+03  0.25540574199E+03  0.00000000000E+00 0. -1.
         -2   -1    0    0    0  501 -0.00000000000E+00 -0.00000000000E+00 -0.18801559439E+03  0.18801559439E+03  0.00000000000E+00 0.  1.
         25    2    1    2    0    0 -0.16149993669E+03 -0.86084327986E+02 -0.15922901188E+02  0.22225555232E+03  0.12510495864E+03 0.  0.
          5    1    3    3  502    0 -0.13078264952E+03 -0.10882833567E+03 -0.42619905287E+02  0.17544696289E+03  0.41800000000E+01 0.  1.
         -5    1    3    3    0  502 -0.30717287175E+02  0.22744007681E+02  0.26697004099E+02  0.46808589432E+02  0.41800000000E+01 0.  1.
        -11    1    1    2    0    0  0.85384427775E+02 -0.39094720532E+01  0.21784307959E+02  0.88206238733E+02  0.00000000000E+00 0. -1.
         11    1    1    2    0    0  0.76115508920E+02  0.89993800040E+02  0.61528740830E+02  0.13295954532E+03  0.00000000000E+00 0.  1.
</event>
<event>
 7    1  0.2844572E-009  0.1075509E+03  0.7561462E-02  0.1265174E+00
          2   -1    0    0  501    0  0.00000000000E+00  0.00000000000E+00  0.19976101296E+03  0.19976101296E+03  0.00000000000E+00 0. -1.
         -2   -1    0    0    0  501 -0.00000000000E+00 -0.00000000000E+00 -0.81354357097E+02  0.81354357097E+02  0.00000000000E+00 0.  1.
         25    2    1    2    0    0  0.28705865348E+02 -0.43269405084E+02  0.11204426815E+03  0.17578077191E+03  0.12509473861E+03 0.  0.
          5    1    3    3  502    0  0.40881544018E+02 -0.79889480241E+02  0.50618596754E+02  0.10311810914E+03  0.41800000000E+01 0.  1.
         -5    1    3    3    0  502 -0.12175678670E+02  0.36620075156E+02  0.61425671396E+02  0.72662662778E+02  0.41800000000E+01 0.  1.
        -11    1    1    2    0    0  0.16301292691E+02 -0.80547806477E+01  0.28296083042E+02  0.33634505351E+02  0.00000000000E+00 0. -1.
         11    1    1    2    0    0 -0.45007158039E+02  0.51324185732E+02 -0.21933695327E+02  0.71700092793E+02  0.00000000000E+00 0.  1.
</event>
<event>
 7    1  0.2844572E-009  0.9152580E+02  0.7561462E-02  0.1299198E+00
         -1   -1    0    0    0  501 -0.00000000000E+00  0.00000000000E+00  0.42941052199E+02  0.42941052199E+02  0.00000000000E+00 0.  1.
          1   -1    0    0  501    0  0.00000000000E+00 -0.00000000000E+00 -0.26855153059E+03  0.26855153059E+03  0.00000000000E+00 0. -1.
         25    2    1    2    0    0 -0.69530243207E+01  0.43905045891E+00 -0.12986390614E+03  0.18044480223E+03  0.12508858949E+03 0.  0.
          5    1    3    3  502    0  0.32819492127E+02  0.42509817929E+02 -0.10352948965E+03  0.11670488984E+03  0.41800000000E+01 0.  1.
         -5    1    3    3    0  502 -0.39772516448E+02 -0.42070767470E+02 -0.26334416491E+02  0.63739912394E+02  0.41800000000E+01 0.  1.
        -11    1    1    2    0    0  0.14220118650E+02 -0.33971730077E+02 -0.92167968060E+01  0.37963661075E+02  0.00000000000E+00 0.  1.
         11    1    1    2    0    0 -0.72670943295E+01  0.33532679618E+02 -0.86529775442E+02  0.93084119485E+02  0.00000000000E+00 0. -1.
</event>
<event>
 7    1  0.2844572E-009  0.1676900E+03  0.7561462E-02  0.1180278E+00
         -1   -1    0    0    0  501 -0.00000000000E+00  0.00000000000E+00  0.74869451448E+03  0.74869451448E+03  0.00000000000E+00 0.  1.
          1   -1    0    0  501    0  0.00000000000E+00 -0.00000000000E+00 -0.44800363686E+02  0.44800363686E+02  0.00000000000E+00 0. -1.
         25    2    1    2    0    0 -0.13784948893E+03 -0.41216642223E+02  0.29250943710E+03  0.34915639555E+03  0.12508846695E+03 0.  0.
          5    1    3    3  502    0 -0.13333488763E+02 -0.43254619805E+02  0.16389739095E+03  0.17008401223E+03  0.41800000000E+01 0.  1.
         -5    1    3    3    0  502 -0.12451600017E+03  0.20379775816E+01  0.12861204615E+03  0.17907238331E+03  0.41800000000E+01 0.  1.
        -11    1    1    2    0    0  0.74613488260E+02  0.63802635101E+02  0.20479520016E+03  0.22711015584E+03  0.00000000000E+00 0. -1.
         11    1    1    2    0    0  0.63236000670E+02 -0.22585992878E+02  0.20658951354E+03  0.21722832678E+03  0.00000000000E+00 0.  1.
</event>
<event>
 7    1  0.3271695E-009  0.1424358E+03  0.7561462E-02  0.1210089E+00
          1   -1    0    0  501    0  0.00000000000E+00  0.00000000000E+00  0.65827756968E+03  0.65827756968E+03  0.00000000000E+00 0. -1.
         -1   -1    0    0    0  501 -0.00000000000E+00 -0.00000000000E+00 -0.37837350084E+02  0.37837350084E+02  0.00000000000E+00 0.  1.
         25    2    1    2    0    0 -0.28154268920E+02 -0.10934151653E+03  0.29805061000E+03  0.34238857221E+03  0.12509012017E+03 0.  0.
          5    1    3    3  502    0 -0.22292341109E+02  0.18895590818E+02  0.18751522544E+02  0.34972615319E+02  0.41800000000E+01 0.  1.
         -5    1    3    3    0  502 -0.58619278105E+01 -0.12823710735E+03  0.27929908745E+03  0.30741595689E+03  0.41800000000E+01 0.  1.
        -11    1    1    2    0    0  0.32279333263E+02  0.21077377635E+02  0.31721586540E+02  0.49924645782E+02  0.00000000000E+00 0.  1.
         11    1    1    2    0    0 -0.41250643433E+01  0.88264138895E+02  0.29066802306E+03  0.30380170177E+03  0.00000000000E+00 0. -1.
</event>
<event>
 7    1  0.2844572E-009  0.9335499E+02  0.7561462E-02  0.1294925E+00
          2   -1    0    0  501    0  0.00000000000E+00  0.00000000000E+00  0.30105958704E+03  0.30105958704E+03  0.00000000000E+00 0. -1.
         -2   -1    0    0    0  501 -0.00000000000E+00 -0.00000000000E+00 -0.55630879090E+02  0.55630879090E+02  0.00000000000E+00 0.  1.
         25    2    1    2    0    0  0.49029296355E+02  0.10684971610E+02  0.68827063680E+02  0.15133728792E+03  0.12509104485E+03 0.  0.
          5    1    3    3  502    0 -0.34570345553E+02 -0.17716071032E+02 -0.38704073338E+00  0.39071603051E+02  0.41800000000E+01 0.  1.
         -5    1    3    3    0  502  0.83599641908E+02  0.28401042642E+02  0.69214104413E+02  0.11226568487E+03  0.41800000000E+01 0.  1.
        -11    1    1    2    0    0 -0.14240601269E+02  0.11227770090E+02 -0.52759655185E+01  0.18886327273E+02  0.00000000000E+00 0.  1.
         11    1    1    2    0    0 -0.34788695086E+02 -0.21912741700E+02  0.18187760979E+03  0.18646685094E+03  0.00000000000E+00 0. -1.
</event>
<event>
 7    1  0.2844572E-009  0.1183573E+03  0.7561462E-02  0.1245832E+00
          1   -1    0    0  501    0  0.00000000000E+00  0.00000000000E+00  0.82814449983E+02  0.82814449983E+02  0.00000000000E+00 0. -1.
         -1   -1    0    0    0  501 -0.00000000000E+00 -0.00000000000E+00 -0.27012317680E+03  0.27012317680E+03  0.00000000000E+00 0.  1.
         25    2    1    2    0    0 -0.88092044254E+02  0.35354850375E+02 -0.14515412817E+03  0.21384187630E+03  0.12509377854E+03 0.  0.
          5    1    3    3  502    0 -0.23887838841E+02  0.36795551747E+02 -0.14279719486E+03  0.14944247298E+03  0.41800000000E+01 0. -1.
         -5    1    3    3    0  502 -0.64204205413E+02 -0.14407013725E+01 -0.23569333172E+01  0.64399403319E+02  0.41800000000E+01 0. -1.
        -11    1    1    2    0    0  0.12390799076E+02  0.27327950077E+02  0.44285547075E+01  0.30330856466E+02  0.00000000000E+00 0. -1.
         11    1    1    2    0    0  0.75701245177E+02 -0.62682800452E+02 -0.46583153353E+02  0.10876489402E+03  0.00000000000E+00 0.  1.
</event>
<event>
 7    1  0.2844572E-009  0.1040741E+03  0.7561462E-02  0.1271955E+00
          2   -1    0    0  501    0  0.00000000000E+00  0.00000000000E+00  0.21714162902E+03  0.21714162902E+03  0.00000000000E+00 0. -1.
         -2   -1    0    0    0  501 -0.00000000000E+00 -0.00000000000E+00 -0.57736028766E+02  0.57736028766E+02  0.00000000000E+00 0.  1.
         25    2    1    2    0    0  0.21100378131E+02 -0.54271188594E+01  0.11731683020E+03  0.17287393160E+03  0.12508987970E+03 0.  0.
          5    1    3    3  502    0 -0.40827497279E+02 -0.37987027829E+02  0.41622133489E+02  0.69712073657E+02  0.41800000000E+01 0.  1.
         -5    1    3    3    0  502  0.61927875410E+02  0.32559908969E+02  0.75694696712E+02  0.10316185795E+03  0.41800000000E+01 0.  1.
        -11    1    1    2    0    0 -0.40016285206E+02  0.30792855907E+02  0.48167816524E+02  0.69782817407E+02  0.00000000000E+00 0. -1.
         11    1    1    2    0    0  0.18915907075E+02 -0.25365737048E+02 -0.60790464683E+01  0.32220908777E+02  0.00000000000E+00 0.  1.
</event>
<event>
 7    1  0.2844572E-009  0.1875906E+03  0.7561462E-02  0.1160653E+00
         -2   -1    0    0    0  501 -0.00000000000E+00  0.00000000000E+00  0.20886504842E+03  0.20886504842E+03  0.00000000000E+00 0.  1.
          2   -1    0    0  501    0  0.00000000000E+00 -0.00000000000E+00 -0.22685678218E+03  0.22685678218E+03  0.00000000000E+00 0. -1.
         25    2    1    2    0    0  0.18638000048E+03 -0.32463142405E+01 -0.37949045908E+02  0.22767233453E+03  0.12508604514E+03 0.  0.
          5    1    3    3  502    0  0.11857299510E+03 -0.15416232295E+02 -0.82675244851E+02  0.14542999655E+03  0.41800000000E+01 0. -1.
         -5    1    3    3    0  502  0.67807005384E+02  0.12169918055E+02  0.44726198942E+02  0.82242337980E+02  0.41800000000E+01 0. -1.
        -11    1    1    2    0    0 -0.88905030555E+02 -0.16758020191E+01  0.54761290121E+02  0.10443041543E+03  0.00000000000E+00 0. -1.
         11    1    1    2    0    0 -0.97474969925E+02  0.49221162596E+01 -0.34803977978E+02  0.10361908064E+03  0.00000000000E+00 0.  1.
</event>
<event>
 7    1  0.2844572E-009  0.1013793E+03  0.7561462E-02  0.1277422E+00
          2   -1    0    0  501    0  0.00000000000E+00  0.00000000000E+00  0.16234553095E+03  0.16234553095E+03  0.00000000000E+00 0.  1.
         -2   -1    0    0    0  501 -0.00000000000E+00 -0.00000000000E+00 -0.97946652647E+02  0.97946652647E+02  0.00000000000E+00 0. -1.
         25    2    1    2    0    0  0.15760307605E+02 -0.42299692688E+02  0.36642107969E+02  0.13794238478E+03  0.12509119132E+03 0.  0.
          5    1    3    3  502    0  0.24405702722E+02 -0.73334490495E+02 -0.13128727182E+02  0.78507462696E+02  0.41800000000E+01 0. -1.
         -5    1    3    3    0  502 -0.86453951173E+01  0.31034797807E+02  0.49770835152E+02  0.59434922086E+02  0.41800000000E+01 0. -1.
        -11    1    1    2    0    0  0.11189823810E+02 -0.21153608494E+02 -0.25697311970E+02  0.35114657220E+02  0.00000000000E+00 0. -1.
         11    1    1    2    0    0 -0.26950131414E+02  0.63453301183E+02  0.53454082304E+02  0.87235141596E+02  0.00000000000E+00 0.  1.
</event>
<event>
 7    1  0.2844572E-009  0.1038698E+03  0.7561462E-02  0.1272362E+00
          3   -1    0    0  501    0  0.00000000000E+00  0.00000000000E+00  0.15368225274E+02  0.15368225274E+02  0.00000000000E+00 0. -1.
         -3   -1    0    0    0  501 -0.00000000000E+00 -0.00000000000E+00 -0.10211569340E+04  0.10211569340E+04  0.00000000000E+00 0.  1.
         25    2    1    2    0    0 -0.28968932965E+02 -0.25586077860E+02 -0.75681163369E+03  0.76805262959E+03  0.12508855456E+03 0.  0.
          5    1    3    3  502    0 -0.69061384310E+02 -0.22773510494E+02 -0.27279014373E+03  0.28234737913E+03  0.41800000000E+01 0. -1.
         -5    1    3    3    0  502  0.40092451345E+02 -0.28125673657E+01 -0.48402148995E+03  0.48570525046E+03  0.41800000000E+01 0. -1.
        -11    1    1    2    0    0 -0.16039355857E+02 -0.23143117541E+02 -0.12205829368E+03  0.12526408855E+03  0.00000000000E+00 0.  1.
         11    1    1    2    0    0  0.45008288822E+02  0.48729195401E+02 -0.12691878134E+03  0.14320844110E+03  0.00000000000E+00 0. -1.
</event>
<event>
 7    1  0.2844572E-009  0.1028290E+03  0.7561462E-02  0.1274457E+00
          2   -1    0    0  501    0  0.00000000000E+00  0.00000000000E+00  0.16851639170E+03  0.16851639170E+03  0.00000000000E+00 0. -1.
         -2   -1    0    0    0  501 -0.00000000000E+00 -0.00000000000E+00 -0.94432542071E+02  0.94432542071E+02  0.00000000000E+00 0.  1.
         25    2    1    2    0    0  0.55095327352E+02  0.30179651497E+02  0.22761805064E+02  0.14181669846E+03  0.12509024635E+03 0.  0.
          5    1    3    3  502    0 -0.29805188135E+02  0.14075140673E+02 -0.26285153329E+02  0.42365558066E+02  0.41800000000E+01 0.  1.
         -5    1    3    3    0  502  0.84900515487E+02  0.16104510824E+02  0.49046958393E+02  0.99451140398E+02  0.41800000000E+01 0.  1.
        -11    1    1    2    0    0 -0.18256944569E+02 -0.43156895652E+02 -0.10485280075E+02  0.48018483582E+02  0.00000000000E+00 0.  1.
         11    1    1    2    0    0 -0.36838382783E+02  0.12977244154E+02  0.61807324636E+02  0.73113751720E+02  0.00000000000E+00 0. -1.
</event>
<event>
 7    1  0.2844572E-009  0.1093445E+03  0.7561462E-02  0.1261789E+00
          2   -1    0    0  501    0  0.00000000000E+00  0.00000000000E+00  0.66449219952E+03  0.66449219952E+03  0.00000000000E+00 0. -1.
         -2   -1    0    0    0  501 -0.00000000000E+00 -0.00000000000E+00 -0.31719281684E+02  0.31719281684E+02  0.00000000000E+00 0.  1.
         25    2    1    2    0    0  0.65344864943E+02  0.73073130919E+02  0.35600688283E+03  0.38986880911E+03  0.12508858406E+03 0.  0.
          5    1    3    3  502    0  0.36900117938E+02  0.45474293052E+01  0.28379240550E+03  0.28624796879E+03  0.41800000000E+01 0. -1.
         -5    1    3    3    0  502  0.28444747005E+02  0.68525701613E+02  0.72214477333E+02  0.10362084033E+03  0.41800000000E+01 0. -1.
        -11    1    1    2    0    0 -0.28179848375E+01 -0.32064144162E+02  0.18589630446E+03  0.18866236082E+03  0.00000000000E+00 0. -1.
         11    1    1    2    0    0 -0.62526880105E+02 -0.41008986757E+02  0.90869730552E+02  0.11768031127E+03  0.00000000000E+00 0.  1.
</event>
<event>
 7    1  0.2844572E-009  0.8939151E+02  0.7561462E-02  0.1304332E+00
         -2   -1    0    0    0  501 -0.00000000000E+00  0.00000000000E+00  0.50387444477E+02  0.50387444477E+02  0.00000000000E+00 0.  1.
          2   -1    0    0  501    0  0.00000000000E+00 -0.00000000000E+00 -0.31440616022E+03  0.31440616022E+03  0.00000000000E+00 0. -1.
         25    2    1    2    0    0  0.38185397435E+02  0.45177412522E+02 -0.11712032581E+03  0.18128353647E+03  0.12508967462E+03 0.  0.
          5    1    3    3  502    0  0.66138540955E+02  0.45615790410E+02 -0.12784281044E+03  0.15105086400E+03  0.41800000000E+01 0.  1.
         -5    1    3    3    0  502 -0.27953143521E+02 -0.43837788759E+00  0.10722484629E+02  0.30232672467E+02  0.41800000000E+01 0.  1.
        -11    1    1    2    0    0 -0.12773007943E+01 -0.30208109513E+02  0.10911188209E+01  0.30254783390E+02  0.00000000000E+00 0.  1.
         11    1    1    2    0    0 -0.36908096640E+02 -0.14969303009E+02 -0.14798950875E+03  0.15325528484E+03  0.00000000000E+00 0. -1.
</event>
<event>
 7    1  0.2844572E-009  0.1046760E+03  0.7561462E-02  0.1270759E+00
         -2   -1    0    0    0  501 -0.00000000000E+00  0.00000000000E+00  0.81644968566E+02  0.81644968566E+02  0.00000000000E+00 0.  1.
          2   -1    0    0  501    0  0.00000000000E+00 -0.00000000000E+00 -0.28677649019E+03  0.28677649019E+03  0.00000000000E+00 0. -1.
         25    2    1    2    0    0 -0.51946336072E+01 -0.12442490368E+02 -0.23954727014E+03  0.27057966085E+03  0.12509459799E+03 0.  0.
          5    1    3    3  502    0  0.59335950803E+02 -0.10594474862E+02 -0.13005063035E+03  0.14340026781E+03  0.41800000000E+01 0. -1.
         -5    1    3    3    0  502 -0.64530584410E+02 -0.18480155060E+01 -0.10949663980E+03  0.12717939303E+03  0.41800000000E+01 0. -1.
        -11    1    1    2    0    0 -0.24874222812E+02 -0.25636916929E+02  0.34007426104E+02  0.49320213913E+02  0.00000000000E+00 0.  1.
         11    1    1    2    0    0  0.30068856420E+02  0.38079407297E+02  0.40832241437E+00  0.48521583998E+02  0.00000000000E+00 0. -1.
</event>
<event>
 7    1  0.2844572E-009  0.9238472E+02  0.7561462E-02  0.1297177E+00
          2   -1    0    0  501    0  0.00000000000E+00  0.00000000000E+00  0.73733846130E+03  0.73733846130E+03  0.00000000000E+00 0. -1.
         -2   -1    0    0    0  501 -0.00000000000E+00 -0.00000000000E+00 -0.22740763239E+02  0.22740763239E+02  0.00000000000E+00 0.  1.
         25    2    1    2    0    0 -0.11429657411E+02 -0.68060078142E+02  0.42809191685E+03  0.45130152406E+03  0.12509022762E+03 0.  0.
          5    1    3    3  502    0 -0.42492576983E+01 -0.51014730638E+02  0.46638550099E+02  0.69377126550E+02  0.41800000000E+01 0. -1.
         -5    1    3    3    0  502 -0.71803997129E+01 -0.17045347504E+02  0.38145336675E+03  0.38192439751E+03  0.41800000000E+01 0. -1.
        -11    1    1    2    0    0 -0.71149620336E+00  0.89662191849E+02  0.23751607255E+03  0.25387733178E+03  0.00000000000E+00 0. -1.
         11    1    1    2    0    0  0.12141153615E+02 -0.21602113707E+02  0.48989708670E+02  0.54900368699E+02  0.00000000000E+00 0.  1.
</event>
<event>
 7    1  0.2844572E-009  0.1229951E+03  0.7561462E-02  0.1238236E+00
          3   -1    0    0  501    0  0.00000000000E+00  0.00000000000E+00  0.14249484162E+03  0.14249484162E+03  0.00000000000E+00 0. -1.
         -3   -1    0    0    0  501 -0.00000000000E+00 -0.00000000000E+00 -0.13432244224E+03  0.13432244224E+03  0.00000000000E+00 0.  1.
         25    2    1    2    0    0 -0.62150885297E+02 -0.58582117001E+02 -0.72041643621E+01  0.15163794799E+03  0.12509024867E+03 0.  0.
          5    1    3    3  502    0 -0.43574142425E+02  0.25054480497E+02  0.29396807844E+02  0.58378742642E+02  0.41800000000E+01 0.  1.
         -5    1    3    3    0  502 -0.18576742872E+02 -0.83636597497E+02 -0.36600972206E+02  0.93259205353E+02  0.41800000000E+01 0.  1.
        -11    1    1    2    0    0 -0.39470502034E+01 -0.12264314494E+02 -0.18492328262E+02  0.22537941784E+02  0.00000000000E+00 0.  1.
         11    1    1    2    0    0  0.66097935501E+02  0.70846431495E+02  0.33868891997E+02  0.10264139408E+03  0.00000000000E+00 0. -1.
</event>
<event>
 7    1  0.2844572E-009  0.1278958E+03  0.7561462E-02  0.1230612E+00
          1   -1    0    0  501    0  0.00000000000E+00  0.00000000000E+00  0.23808945841E+03  0.23808945841E+03  0.00000000000E+00 0. -1.
         -1   -1    0    0    0  501 -0.00000000000E+00 -0.00000000000E+00 -0.78516389695E+02  0.78516389695E+02  0.00000000000E+00 0.  1.
         25    2    1    2    0    0  0.51996307127E+02  0.63077157732E+02  0.69106298170E+02  0.16464222418E+03  0.12509611407E+03 0.  0.
          5    1    3    3  502    0  0.88749534818E+02  0.47679630877E+02  0.22745187125E+02  0.10336654714E+03  0.41800000000E+01 0.  1.
         -5    1    3    3    0  502 -0.36753227692E+02  0.15397526854E+02  0.46361111046E+02  0.61275677037E+02  0.41800000000E+01 0.  1.
        -11    1    1    2    0    0 -0.60095354517E+02 -0.77668589032E+02  0.92799024123E+02  0.13511299062E+03  0.00000000000E+00 0. -1.
         11    1    1    2    0    0  0.80990473903E+01  0.14591431300E+02 -0.23322535751E+01  0.16850633304E+02  0.00000000000E+00 0.  1.
</event>
<event>
 7    1  0.2844572E-009  0.7446093E+02  0.7561462E-02  0.1345549E+00
          1   -1    0    0  501    0  0.00000000000E+00  0.00000000000E+00  0.38399493993E+03  0.38399493993E+03  0.00000000000E+00 0. -1.
         -1   -1    0    0    0  501 -0.00000000000E+00 -0.00000000000E+00 -0.30508188258E+02  0.30508188258E+02  0.00000000000E+00 0.  1.
         25    2    1    2    0    0 -0.98809891000E+00  0.15345405396E+01  0.19461591651E+03  0.23135729581E+03  0.12509001644E+03 0.  0.
          5    1    3    3  502    0  0.28340633545E+02 -0.20532228720E+02  0.20767690002E+01  0.35306505002E+02  0.41800000000E+01 0. -1.
         -5    1    3    3    0  502 -0.29328732455E+02  0.22066769260E+02  0.19253914751E+03  0.19605079081E+03  0.41800000000E+01 0. -1.
        -11    1    1    2    0    0 -0.34666127888E+02 -0.16098921073E+02  0.29843013186E+02  0.48492485175E+02  0.00000000000E+00 0.  1.
         11    1    1    2    0    0  0.35654226798E+02  0.14564380533E+02  0.12902782197E+03  0.13465334720E+03  0.00000000000E+00 0. -1.
</event>
<event>
 7    1  0.2844572E-009  0.1349892E+03  0.7561462E-02  0.1220235E+00
          2   -1    0    0  501    0  0.00000000000E+00  0.00000000000E+00  0.14969401307E+04  0.14969401307E+04  0.00000000000E+00 0. -1.
         -2   -1    0    0    0  501 -0.00000000000E+00 -0.00000000000E+00 -0.16335473649E+02  0.16335473649E+02  0.00000000000E+00 0.  1.
         25    2    1    2    0    0 -0.13705908658E+01 -0.10470456601E+03  0.97785594188E+03  0.99136983779E+03  0.12508791929E+03 0.  0.
          5    1    3    3  502    0 -0.19159565039E+02 -0.12403967929E+03  0.62375610719E+03  0.63627202093E+03  0.41800000000E+01 0. -1.
         -5    1    3    3    0  502  0.17788974173E+02  0.19335113280E+02  0.35409983469E+03  0.35509781686E+03  0.41800000000E+01 0. -1.
        -11    1    1    2    0    0  0.14174109030E+02  0.20232900601E+01  0.78973446657E+01  0.16351364537E+02  0.00000000000E+00 0.  1.
         11    1    1    2    0    0 -0.12803518164E+02  0.10268127595E+03  0.49485137053E+03  0.50555440204E+03  0.00000000000E+00 0. -1.
</event>
<event>
 7    1  0.2844572E-009  0.1159856E+03  0.7561462E-02  0.1249870E+00
         -3   -1    0    0    0  501 -0.00000000000E+00  0.00000000000E+00  0.52858150723E+03  0.52858150723E+03  0.00000000000E+00 0.  1.
          3   -1    0    0  501    0  0.00000000000E+00 -0.00000000000E+00 -0.37980949227E+02  0.37980949227E+02  0.00000000000E+00 0. -1.
         25    2    1    2    0    0 -0.36912557130E+01 -0.45511877031E+02  0.42399511767E+03  0.44441457839E+03  0.12508997303E+03 0.  0.
          5    1    3    3  502    0  0.12295551433E+02 -0.86767879722E+02  0.25487467063E+03  0.26955225034E+03  0.41800000000E+01 0. -1.
         -5    1    3    3    0  502 -0.15986807146E+02  0.41256002691E+02  0.16912044704E+03  0.17486232804E+03  0.41800000000E+01 0. -1.
        -11    1    1    2    0    0  0.42347558669E+02  0.31775369100E+01  0.42111908814E+02  0.59806565944E+02  0.00000000000E+00 0.  1.
         11    1    1    2    0    0 -0.38656302956E+02  0.42334340121E+02  0.24493531519E+02  0.62341312130E+02  0.00000000000E+00 0. -1.
</event>
<event>
 7    1  0.2844572E-009  0.1023202E+03  0.7561462E-02  0.1275491E+00
         -1   -1    0    0    0  501 -0.00000000000E+00  0.00000000000E+00  0.33525121552E+03  0.33525121552E+03  0.00000000000E+00 0.  1.
          1   -1    0    0  501    0  0.00000000000E+00 -0.00000000000E+00 -0.61620286384E+02  0.61620286384E+02  0.00000000000E+00 0. -1.
         25    2    1    2    0    0  0.13901365182E+02  0.47634757097E+01  0.26699787503E+03  0.29521158704E+03  0.12508428037E+03 0.  0.
          5    1    3    3  502    0  0.28416105453E+02 -0.56141604167E+02  0.12706605725E+03  0.14185418595E+03  0.41800000000E+01 0. -1.
         -5    1    3    3    0  502 -0.14514740271E+02  0.60905079877E+02  0.13993181778E+03  0.15335740109E+03  0.41800000000E+01 0. -1.
        -11    1    1    2    0    0  0.28434311889E+02 -0.18959666734E+02 -0.28771883832E+02  0.44674381412E+02  0.00000000000E+00 0. -1.
         11    1    1    2    0    0 -0.42335677071E+02  0.14196191024E+02  0.35404937936E+02  0.56985533453E+02  0.00000000000E+00 0.  1.
</event>
<event>
 7    1  0.2844572E-009  0.2187850E+03  0.7561462E-02  0.1134792E+00
          2   -1    0    0  501    0  0.00000000000E+00  0.00000000000E+00  0.88506543444E+03  0.88506543444E+03  0.00000000000E+00 0. -1.
         -2   -1    0    0    0  501 -0.00000000000E+00 -0.00000000000E+00 -0.59769285974E+02  0.59769285974E+02  0.00000000000E+00 0.  1.
         25    2    1    2    0    0 -0.18977727360E+03  0.27383299025E+02  0.56171098401E+03  0.60657409345E+03  0.12509053779E+03 0.  0.
          5    1    3    3  502    0 -0.35210119192E+02 -0.44854885276E+02  0.11655405946E+03  0.12982308887E+03  0.41800000000E+01 0.  1.
         -5    1    3    3    0  502 -0.15456715441E+03  0.72238184301E+02  0.44515692455E+03  0.47675100458E+03  0.41800000000E+01 0.  1.
        -11    1    1    2    0    0  0.26683634109E+02 -0.37836265704E+02  0.80334112691E+02  0.92720919935E+02  0.00000000000E+00 0.  1.
         11    1    1    2    0    0  0.16309363949E+03  0.10452966679E+02  0.18325105177E+03  0.24553970703E+03  0.00000000000E+00 0. -1.
</event>
<event>
 7    1  0.2844572E-009  0.1006527E+03  0.7561462E-02  0.1278929E+00
         -1   -1    0    0    0  501 -0.00000000000E+00  0.00000000000E+00  0.53078027845E+02  0.53078027845E+02  0.00000000000E+00 0.  1.
          1   -1    0    0  501    0  0.00000000000E+00 -0.00000000000E+00 -0.29640926990E+03  0.29640926990E+03  0.00000000000E+00 0. -1.
         25    2    1    2    0    0 -0.19605478710E+02  0.11211110942E+02 -0.49136728024E+02  0.13627846253E+03  0.12508931811E+03 0.  0.
          5    1    3    3  502    0  0.11747190810E+02  0.61780949919E+02 -0.43040611900E+02  0.76320697962E+02  0.41800000000E+01 0.  1.
         -5    1    3    3    0  502 -0.31352669520E+02 -0.50569838977E+02 -0.60961161246E+01  0.59957764567E+02  0.41800000000E+01 0.  1.
        -11    1    1    2    0    0  0.47120955920E+02 -0.17744394257E+02 -0.16521356199E+03  0.17271586227E+03  0.00000000000E+00 0.  1.
         11    1    1    2    0    0 -0.27515477210E+02  0.65332833150E+01 -0.28980952049E+02  0.40492972954E+02  0.00000000000E+00 0. -1.
</event>
<event>
 7    1  0.2844572E-009  0.1931980E+03  0.7561462E-02  0.1155608E+00
         -1   -1    0    0    0  501 -0.00000000000E+00  0.00000000000E+00  0.37365348775E+03  0.37365348775E+03  0.00000000000E+00 0.  1.
          1   -1    0    0  501    0  0.00000000000E+00 -0.00000000000E+00 -0.13362159753E+03  0.13362159753E+03  0.00000000000E+00 0. -1.
         25    2    1    2    0    0  0.81315308464E+02 -0.15819711718E+03  0.34453227952E+02  0.22016628296E+03  0.12509060700E+03 0.  0.
          5    1    3    3  502    0  0.87063200394E+02 -0.55611672709E+02  0.52186759641E+02  0.11581705093E+03  0.41800000000E+01 0.  1.
         -5    1    3    3    0  502 -0.57478919295E+01 -0.10258544447E+03 -0.17733531688E+02  0.10434923203E+03  0.41800000000E+01 0.  1.
        -11    1    1    2    0    0 -0.58435985615E+02  0.82546402657E+02  0.50482510199E+02  0.11303608646E+03  0.00000000000E+00 0. -1.
         11    1    1    2    0    0 -0.22879322849E+02  0.75650714523E+02  0.15509615206E+03  0.17407271586E+03  0.00000000000E+00 0.  1.
</event>
<event>
 7    1  0.2844572E-009  0.1202666E+03  0.7561462E-02  0.1242658E+00
          2   -1    0    0  501    0  0.00000000000E+00  0.00000000000E+00  0.27980069308E+02  0.27980069308E+02  0.00000000000E+00 0. -1.
         -2   -1    0    0    0  501 -0.00000000000E+00 -0.00000000000E+00 -0.62281896676E+03  0.62281896676E+03  0.00000000000E+00 0.  1.
         25    2    1    2    0    0 -0.59627545535E+02  0.23730126124E+02 -0.23307403368E+03  0.27219418680E+03  0.12509039563E+03 0.  0.
          5    1    3    3  502    0 -0.45177900991E+02  0.74239244046E+02 -0.13000549222E+03  0.15643339957E+03  0.41800000000E+01 0. -1.
         -5    1    3    3    0  502 -0.14449644545E+02 -0.50509117923E+02 -0.10306854147E+03  0.11576078723E+03  0.41800000000E+01 0. -1.
        -11    1    1    2    0    0  0.35328590640E+02 -0.52429700586E+02 -0.29752472328E+03  0.30416762448E+03  0.00000000000E+00 0.  1.
         11    1    1    2    0    0  0.24298954896E+02  0.28699574463E+02 -0.64240140492E+02  0.74437224785E+02  0.00000000000E+00 0. -1.
</event>
<event>
 7    1  0.2844572E-009  0.1278681E+03  0.7561462E-02  0.1230654E+00
         -2   -1    0    0    0  501 -0.00000000000E+00  0.00000000000E+00  0.28844632037E+03  0.28844632037E+03  0.00000000000E+00 0.  1.
          2   -1    0    0  501    0  0.00000000000E+00 -0.00000000000E+00 -0.66769580132E+02  0.66769580132E+02  0.00000000000E+00 0. -1.
         25    2    1    2    0    0 -0.76015520981E+02 -0.25833619551E+02  0.88419332480E+02  0.17294742337E+03  0.12508835903E+03 0.  0.
          5    1    3    3  502    0  0.30809297323E+02  0.13685500353E+02  0.13513037367E+02  0.36559271058E+02  0.41800000000E+01 0.  1.
         -5    1    3    3    0  502 -0.10682481830E+03 -0.39519119905E+02  0.74906295114E+02  0.13638815231E+03  0.41800000000E+01 0.  1.
        -11    1    1    2    0    0  0.88959021691E+02  0.13625742687E+02  0.63159227883E+02  0.10994751689E+03  0.00000000000E+00 0.  1.
         11    1    1    2    0    0 -0.12943500710E+02  0.12207876864E+02  0.70098179873E+02  0.72320960238E+02  0.00000000000E+00 0. -1.
</event>
<event>
 7    1  0.2844572E-009  0.1022104E+03  0.7561462E-02  0.1275715E+00
         -2   -1    0    0    0  501 -0.00000000000E+00  0.00000000000E+00  0.29784944645E+02  0.29784944645E+02  0.00000000000E+00 0.  1.
          2   -1    0    0  501    0  0.00000000000E+00 -0.00000000000E+00 -0.55048161218E+03  0.55048161218E+03  0.00000000000E+00 0. -1.
         25    2    1    2    0    0 -0.57998757984E+02 -0.36498693086E+02 -0.28995598117E+03  0.32313283682E+03  0.12507737081E+03 0.  0.
          5    1    3    3  502    0 -0.90892162021E+02 -0.26062861187E+02 -0.26184986403E+03  0.27843038904E+03  0.41800000000E+01 0. -1.
         -5    1    3    3    0  502  0.32893404037E+02 -0.10435831899E+02 -0.28106117143E+02  0.44702447779E+02  0.41800000000E+01 0. -1.
        -11    1    1    2    0    0  0.23051164086E+02  0.32488086981E+02 -0.21488913873E+03  0.21855016336E+03  0.00000000000E+00 0. -1.
         11    1    1    2    0    0  0.34947593898E+02  0.40106061056E+01 -0.15851547627E+02  0.38583556637E+02  0.00000000000E+00 0.  1.
</event>
<event>
 7    1  0.2844572E-009  0.1147659E+03  0.7561462E-02  0.1251990E+00
          1   -1    0    0  501    0  0.00000000000E+00  0.00000000000E+00  0.86408682266E+02  0.86408682266E+02  0.00000000000E+00 0. -1.
         -1   -1    0    0    0  501 -0.00000000000E+00 -0.00000000000E+00 -0.20500393534E+03  0.20500393534E+03  0.00000000000E+00 0.  1.
         25    2    1    2    0    0 -0.17301640721E+02  0.71367611983E+02 -0.92159972486E+02  0.17185296621E+03  0.12508916282E+03 0.  0.
          5    1    3    3  502    0  0.30982963297E+02 -0.20625062143E+02 -0.42423943633E+02  0.56591524069E+02  0.41800000000E+01 0.  1.
         -5    1    3    3    0  502 -0.48284604017E+02  0.91992674126E+02 -0.49736028853E+02  0.11526144214E+03  0.41800000000E+01 0.  1.
        -11    1    1    2    0    0  0.28962129447E+02 -0.19447214242E+02 -0.50321285038E+02  0.61230962852E+02  0.00000000000E+00 0.  1.
         11    1    1    2    0    0 -0.11660488726E+02 -0.51920397741E+02  0.23886004449E+02  0.58328688546E+02  0.00000000000E+00 0. -1.
</event>
<event>
 7    1  0.3581604E-009  0.9059129E+02  0.7561462E-02  0.1301426E+00
         -3   -1    0    0    0  501 -0.00000000000E+00  0.00000000000E+00  0.11841793024E+03  0.11841793024E+03  0.00000000000E+00 0.  1.
          3   -1    0    0  501    0  0.00000000000E+00 -0.00000000000E+00 -0.11304413644E+03  0.11304413644E+03  0.00000000000E+00 0. -1.
         25    2    1    2    0    0 -0.88910302413E+01 -0.28945575159E+01 -0.37798566632E+02  0.13101165010E+03  0.12509153424E+03 0.  0.
          5    1    3    3  502    0 -0.25777735870E+02 -0.48992787434E+02 -0.55648308383E+02  0.78606561514E+02  0.41800000000E+01 0. -1.
         -5    1    3    3    0  502  0.16886705629E+02  0.46098229919E+02  0.17849741751E+02  0.52405088581E+02  0.41800000000E+01 0. -1.
        -11    1    1    2    0    0 -0.31602759594E+02 -0.11181395593E+02  0.46642878771E+02  0.57439674106E+02  0.00000000000E+00 0.  1.
         11    1    1    2    0    0  0.40493789835E+02  0.14075953109E+02 -0.34705183344E+01  0.43010742480E+02  0.00000000000E+00 0. -1.
</event>
<event>
 7    1  0.2844572E-009  0.9312320E+02  0.7561462E-02  0.1295460E+00
          1   -1    0    0  501    0  0.00000000000E+00  0.00000000000E+00  0.50361522246E+02  0.50361522246E+02  0.00000000000E+00 0. -1.
         -1   -1    0    0    0  501 -0.00000000000E+00 -0.00000000000E+00 -0.22608786637E+03  0.22608786637E+03  0.00000000000E+00 0.  1.
         25    2    1    2    0    0  0.51224294903E+01 -0.75475864580E+01 -0.12694750099E+03  0.17845845039E+03  0.12509414520E+03 0.  0.
          5    1    3    3  502    0 -0.40554584525E+02 -0.31096681140E+02 -0.11444176135E+03  0.12540361656E+03  0.41800000000E+01 0. -1.
         -5    1    3    3    0  502  0.45677014016E+02  0.23549094682E+02 -0.12505739638E+02  0.53054833838E+02  0.41800000000E+01 0. -1.
        -11    1    1    2    0    0 -0.68850694017E+01 -0.37602079032E+02 -0.31790460744E+02  0.49718748199E+02  0.00000000000E+00 0.  1.
         11    1    1    2    0    0  0.17626399114E+01  0.45149665489E+02 -0.16988382389E+02  0.48272190022E+02  0.00000000000E+00 0. -1.
</event>
<event>
 7    1  0.2844572E-009  0.1396830E+03  0.7561462E-02  0.1213756E+00
         -3   -1    0    0    0  501 -0.00000000000E+00  0.00000000000E+00  0.12830989939E+03  0.12830989939E+03  0.00000000000E+00 0.  1.
          3   -1    0    0  501    0  0.00000000000E+00 -0.00000000000E+00 -0.21176266210E+03  0.21176266210E+03  0.00000000000E+00 0. -1.
         25    2    1    2    0    0 -0.11303860516E+00  0.11327621066E+03  0.64602632876E+01  0.16887865563E+03  0.12508698032E+03 0.  0.
          5    1    3    3  502    0  0.51886257655E+02  0.92885873993E+02 -0.17594527563E+02  0.10792130986E+03  0.41800000000E+01 0. -1.
         -5    1    3    3    0  502 -0.51999296261E+02  0.20390336671E+02  0.24054790850E+02  0.60957345776E+02  0.41800000000E+01 0. -1.
        -11    1    1    2    0    0  0.13547294720E+02 -0.36449284543E+02 -0.84494904081E+02  0.93013269771E+02  0.00000000000E+00 0. -1.
         11    1    1    2    0    0 -0.13434256115E+02 -0.76826926121E+02 -0.54181219219E+01  0.78180636092E+02  0.00000000000E+00 0.  1.
</event>
<event>
 7    1  0.2844572E-009  0.1723709E+03  0.7561462E-02  0.1175398E+00
         -1   -1    0    0    0  501 -0.00000000000E+00  0.00000000000E+00  0.94642067513E+03  0.94642067513E+03  0.00000000000E+00 0.  1.
          1   -1    0    0  501    0  0.00000000000E+00 -0.00000000000E+00 -0.37578496541E+02  0.37578496541E+02  0.00000000000E+00 0. -1.
         25    2    1    2    0    0  0.10566331370E+03  0.98951894478E+02  0.33682661661E+03  0.38737086186E+03  0.12509117345E+03 0.  0.
          5    1    3    3  502    0 -0.13357071306E+02  0.66322979522E+02  0.11493698296E+03  0.13343587006E+03  0.41800000000E+01 0.  1.
         -5    1    3    3    0  502  0.11902038501E+03  0.32628914957E+02  0.22188963365E+03  0.25393499180E+03  0.41800000000E+01 0.  1.
        -11    1    1    2    0    0 -0.11114152960E+02 -0.41224695656E+02  0.65840325432E+02  0.78472596369E+02  0.00000000000E+00 0. -1.
         11    1    1    2    0    0 -0.94549160740E+02 -0.57727198822E+02  0.50617523655E+03  0.51815571345E+03  0.00000000000E+00 0.  1.
</event>
<event>
 7    1  0.2844572E-009  0.9018364E+02  0.7561462E-02  0.1302408E+00
          1   -1    0    0  501    0  0.00000000000E+00  0.00000000000E+00  0.16378757485E+04  0.16378757485E+04  0.00000000000E+00 0. -1.
         -1   -1    0    0    0  501 -0.00000000000E+00 -0.00000000000E+00 -0.86637951191E+01  0.86637951191E+01  0.00000000000E+00 0.  1.
         25    2    1    2    0    0 -0.18933918181E+01 -0.43978230359E+02  0.10888221789E+04  0.10968677271E+04  0.12508958260E+03 0.  0.
          5    1    3    3  502    0  0.29898606733E+01  0.17775183791E+02  0.84701060341E+03  0.84721268352E+03  0.41800000000E+01 0. -1.
         -5    1    3    3    0  502 -0.48832524914E+01 -0.61753414150E+02  0.24181157551E+03  0.24965504354E+03  0.41800000000E+01 0. -1.
        -11    1    1    2    0    0 -0.54575976943E+01  0.71287283503E+02  0.41679627737E+03  0.42288390722E+03  0.00000000000E+00 0. -1.
         11    1    1    2    0    0  0.73509895124E+01 -0.27309053144E+02  0.12359349712E+03  0.12678790937E+03  0.00000000000E+00 0.  1.
</event>
<event>
 7    1  0.2844572E-009  0.1125901E+03  0.7561462E-02  0.1255847E+00
         -1   -1    0    0    0  501 -0.00000000000E+00  0.00000000000E+00  0.16764809408E+03  0.16764809408E+03  0.00000000000E+00 0.  1.
          1   -1    0    0  501    0  0.00000000000E+00 -0.00000000000E+00 -0.96759302602E+02  0.96759302602E+02  0.00000000000E+00 0. -1.
         25    2    1    2    0    0  0.60545982602E+02 -0.11546067458E+01  0.66373155310E+02  0.15401321344E+03  0.12509006772E+03 0.  0.
          5    1    3    3  502    0  0.80189860820E+02  0.30558943220E+02  0.10296023933E+02  0.86531747341E+02  0.41800000000E+01 0. -1.
         -5    1    3    3    0  502 -0.19643878218E+02 -0.31713549966E+02  0.56077131377E+02  0.67481466095E+02  0.41800000000E+01 0. -1.
        -11    1    1    2    0    0 -0.33079938053E+02  0.41404808441E+02  0.23662184566E+02  0.58039119928E+02  0.00000000000E+00 0.  1.
         11    1    1    2    0    0 -0.27466044549E+02 -0.40250201695E+02 -0.19146548397E+02  0.52355063319E+02  0.00000000000E+00 0. -1.
</event>
<event>
 7    1  0.2844572E-009  0.1766462E+03  0.7561462E-02  0.1171089E+00
          1   -1    0    0  501    0  0.00000000000E+00  0.00000000000E+00  0.16613819150E+04  0.16613819150E+04  0.00000000000E+00 0. -1.
         -1   -1    0    0    0  501 -0.00000000000E+00 -0.00000000000E+00 -0.19922528859E+02  0.19922528859E+02  0.00000000000E+00 0.  1.
         25    2    1    2    0    0 -0.77046367320E+02  0.12021482639E+03  0.73647997978E+03  0.76055045152E+03  0.12508589648E+03 0.  0.
          5    1    3    3  502    0 -0.10182934115E+02  0.11642985566E+03  0.37216237358E+03  0.39010499631E+03  0.41800000000E+01 0. -1.
         -5    1    3    3    0  502 -0.66863433205E+02  0.37849707275E+01  0.36431760620E+03  0.37044545522E+03  0.41800000000E+01 0. -1.
        -11    1    1    2    0    0 -0.20944332553E+02 -0.24966615688E+02  0.14891376564E+03  0.15243787772E+03  0.00000000000E+00 0.  1.
         11    1    1    2    0    0  0.97990699873E+02 -0.95248210701E+02  0.75606564070E+03  0.76831611460E+03  0.00000000000E+00 0. -1.
</event>
<event>
 7    1  0.2844572E-009  0.1538488E+03  0.7561462E-02  0.1195822E+00
         -1   -1    0    0    0  501 -0.00000000000E+00  0.00000000000E+00  0.16545464777E+02  0.16545464777E+02  0.00000000000E+00 0.  1.
          1   -1    0    0  501    0  0.00000000000E+00 -0.00000000000E+00 -0.16214017889E+04  0.16214017889E+04  0.00000000000E+00 0. -1.
         25    2    1    2    0    0  0.12236816467E+03  0.94441913293E+01 -0.89012679449E+03  0.90721414383E+03  0.12509449236E+03 0.  0.
          5    1    3    3  502    0  0.12096249982E+03  0.38570051445E+02 -0.83594763637E+03  0.84554449817E+03  0.41800000000E+01 0.  1.
         -5    1    3    3    0  502  0.14056648495E+01 -0.29125860116E+02 -0.54179158119E+02  0.61669645658E+02  0.41800000000E+01 0.  1.
        -11    1    1    2    0    0 -0.97014092615E+02 -0.45480963162E+02 -0.46889582257E+03  0.48098185475E+03  0.00000000000E+00 0.  1.
         11    1    1    2    0    0 -0.25354072059E+02  0.36036771833E+02 -0.24583370708E+03  0.24975125511E+03  0.00000000000E+00 0. -1.
</event>
<event>
 7    1  0.2844572E-009  0.1353390E+03  0.7561462E-02  0.1219742E+00
         -1   -1    0    0    0  501 -0.00000000000E+00  0.00000000000E+00  0.33050737188E+02  0.33050737188E+02  0.00000000000E+00 0.  1.
          1   -1    0    0  501    0  0.00000000000E+00 -0.00000000000E+00 -0.72824744033E+03  0.72824744033E+03  0.00000000000E+00 0. -1.
         25    2    1    2    0    0  0.19526390791E+02 -0.87963620251E+02 -0.52946955178E+03  0.55145613224E+03  0.12508789347E+03 0.  0.
          5    1    3    3  502    0  0.54011534873E+02 -0.96108853433E+02 -0.30870249026E+03  0.32782443091E+03  0.41800000000E+01 0. -1.
         -5    1    3    3    0  502 -0.34485144082E+02  0.81452331817E+01 -0.22076706152E+03  0.22363170133E+03  0.41800000000E+01 0. -1.
        -11    1    1    2    0    0 -0.53639028565E+02  0.46569853454E+02 -0.11956502989E+03  0.13907441536E+03  0.00000000000E+00 0. -1.
         11    1    1    2    0    0  0.34112637773E+02  0.41393766798E+02 -0.46162121465E+02  0.70767629914E+02  0.00000000000E+00 0.  1.
</event>
<event>
 7    1  0.2844572E-009  0.1266978E+03  0.7561462E-02  0.1232440E+00
         -2   -1    0    0    0  501 -0.00000000000E+00  0.00000000000E+00  0.54009686949E+03  0.54009686949E+03  0.00000000000E+00 0.  1.
          2   -1    0    0  501    0  0.00000000000E+00 -0.00000000000E+00 -0.37717725953E+02  0.37717725953E+02  0.00000000000E+00 0. -1.
         25    2    1    2    0    0 -0.66667283740E+02  0.27514200621E+02  0.39560516172E+03  0.42113265522E+03  0.12509081244E+03 0.  0.
          5    1    3    3  502    0 -0.10356832007E+03  0.27454428811E+02  0.29012540333E+03  0.30930626350E+03  0.41800000000E+01 0.  1.
         -5    1    3    3    0  502  0.36901036331E+02  0.59771809981E-01  0.10547975839E+03  0.11182639172E+03  0.41800000000E+01 0.  1.
        -11    1    1    2    0    0  0.39281409933E+02 -0.56720237683E+02  0.89677874943E+02  0.11314740732E+03  0.00000000000E+00 0.  1.
         11    1    1    2    0    0  0.27385873807E+02  0.29206037061E+02  0.17096106879E+02  0.43534532907E+02  0.00000000000E+00 0. -1.
</event>
<event>
 7    1  0.2844572E-009  0.2446929E+03  0.7561462E-02  0.1116705E+00
         -2   -1    0    0    0  501 -0.00000000000E+00  0.00000000000E+00  0.41887569971E+02  0.41887569971E+02  0.00000000000E+00 0.  1.
          2   -1    0    0  501    0  0.00000000000E+00 -0.00000000000E+00 -0.14964776468E+04  0.14964776468E+04  0.00000000000E+00 0. -1.
         25    2    1    2    0    0 -0.18540649841E+03 -0.12345049266E+03 -0.62560200047E+03  0.67575269420E+03  0.12509295318E+03 0.  0.
          5    1    3    3  502    0 -0.47689899470E+02 -0.10062517652E+03 -0.34073142399E+03  0.35849006730E+03  0.41800000000E+01 0.  1.
         -5    1    3    3    0  502 -0.13771659894E+03 -0.22825316142E+02 -0.28487057648E+03  0.31726262690E+03  0.41800000000E+01 0.  1.
        -11    1    1    2    0    0  0.14589823841E+03  0.48815153039E+02 -0.51819078853E+03  0.54054686056E+03  0.00000000000E+00 0.  1.
         11    1    1    2    0    0  0.39508260006E+02  0.74635339623E+02 -0.31079728781E+03  0.32206566200E+03  0.00000000000E+00 0. -1.
</event>
<event>
 7    1  0.4371776E-009  0.1535951E+03  0.7561462E-02  0.1196124E+00
         -2   -1    0    0    0  501 -0.00000000000E+00  0.00000000000E+00  0.12700045671E+02  0.12700045671E+02  0.00000000000E+00 0.  1.
          2   -1    0    0  501    0  0.00000000000E+00 -0.00000000000E+00 -0.24992942832E+04  0.24992942832E+04  0.00000000000E+00 0. -1.
         25    2    1    2    0    0 -0.76225065484E+02  0.11032938426E+03 -0.16078818853E+04  0.16183058246E+04  0.12508697532E+03 0.  0.
          5    1    3    3  502    0 -0.36245740669E+02  0.10929517318E+02 -0.10659948928E+03  0.11319952112E+03  0.41800000000E+01 0.  1.
         -5    1    3    3    0  502 -0.39979324815E+02  0.99399866942E+02 -0.15012823960E+04  0.15051063035E+04  0.41800000000E+01 0.  1.
        -11    1    1    2    0    0 -0.16620320071E+02 -0.46048860723E+02 -0.22158509075E+03  0.22692881054E+03  0.00000000000E+00 0.  1.
         11    1    1    2    0    0  0.92845385555E+02 -0.64280523538E+02 -0.65712726156E+03  0.66675969375E+03  0.00000000000E+00 0. -1.
</event>
<event>
 7    1  0.2844572E-009  0.9076230E+02  0.7561462E-02  0.1301016E+00
          1   -1    0    0  501    0  0.00000000000E+00  0.00000000000E+00  0.21403071217E+03  0.21403071217E+03  0.00000000000E+00 0. -1.
         -1   -1    0    0    0  501 -0.00000000000E+00 -0.00000000000E+00 -0.81815511448E+02  0.81815511448E+02  0.00000000000E+00 0.  1.
         25    2    1    2    0    0 -0.49745927428E+02  0.49564390776E+02  0.36237559784E+02  0.14796425981E+03  0.12509586449E+03 0.  0.
          5    1    3    3  502    0 -0.84207473323E+01  0.25793521145E+02 -0.45561908816E+02  0.53193746377E+02  0.41800000000E+01 0. -1.
         -5    1    3    3    0  502 -0.41325180096E+02  0.23770869631E+02  0.81799468599E+02  0.94770513432E+02  0.41800000000E+01 0. -1.
        -11    1    1    2    0    0 -0.15597109404E+02 -0.36340897052E+02  0.60726880025E+02  0.72468507490E+02  0.00000000000E+00 0.  1.
         11    1    1    2    0    0  0.65343036832E+02 -0.13223493724E+02  0.35250760909E+02  0.75413456315E+02  0.00000000000E+00 0. -1.
</event>
<event>
 7    1  0.2844572E-009  0.1224592E+03  0.7561462E-02  0.1239094E+00
         -2   -1    0    0    0  501 -0.00000000000E+00  0.00000000000E+00  0.44658541057E+02  0.44658541057E+02  0.00000000000E+00 0.  1.
          2   -1    0    0  501    0  0.00000000000E+00 -0.00000000000E+00 -0.35437066544E+03  0.35437066544E+03  0.00000000000E+00 0. -1.
         25    2    1    2    0    0 -0.18222143596E+02 -0.58141056696E+02 -0.21629342939E+03  0.25717973720E+03  0.12508453397E+03 0.  0.
          5    1    3    3  502    0 -0.70134400986E+02 -0.15827435501E+02 -0.11023517051E+03  0.13167614489E+03  0.41800000000E+01 0. -1.
         -5    1    3    3    0  502  0.51912257390E+02 -0.42313621195E+02 -0.10605825888E+03  0.12550359231E+03  0.41800000000E+01 0. -1.
        -11    1    1    2    0    0  0.51355377525E+02  0.50003627296E+02 -0.71826636146E+02  0.10147316494E+03  0.00000000000E+00 0. -1.
         11    1    1    2    0    0 -0.33133233929E+02  0.81374294004E+01 -0.21592058847E+02  0.40376304352E+02  0.00000000000E+00 0.  1.
</event>
<event>
 7    1  0.2844572E-009  0.8080786E+02  0.7561462E-02  0.1326774E+00
         -2   -1    0    0    0  501 -0.00000000000E+00  0.00000000000E+00  0.90980785945E+02  0.90980785945E+02  0.00000000000E+00 0. -1.
          2   -1    0    0  501    0  0.00000000000E+00 -0.00000000000E+00 -0.25197563429E+03  0.25197563429E+03  0.00000000000E+00 0.  1.
         25    2    1    2    0    0  0.64401702287E+02 -0.47978266862E+02 -0.10203266616E+02  0.14899808969E+03  0.12508729245E+03 0.  0.
          5    1    3    3  502    0  0.26281144924E+02 -0.24664312886E+02 -0.67249860436E+02  0.76413631227E+02  0.41800000000E+01 0.  1.
         -5    1    3    3    0  502  0.38120557363E+02 -0.23313953977E+02  0.57046593820E+02  0.72584458462E+02  0.41800000000E+01 0.  1.
        -11    1    1    2    0    0 -0.27293482703E+02  0.23312104666E+02  0.85161609072E+00  0.35904229166E+02  0.00000000000E+00 0. -1.
         11    1    1    2    0    0 -0.37108219584E+02  0.24666162196E+02 -0.15164319782E+03  0.15805410138E+03  0.00000000000E+00 0.  1.
</event>
<event>
 7    1  0.2844572E-009  0.3112154E+03  0.7561462E-02  0.1079765E+00
         -2   -1    0    0    0  501 -0.00000000000E+00  0.00000000000E+00  0.11083868949E+03  0.11083868949E+03  0.00000000000E+00 0.  1.
          2   -1    0    0  501    0  0.00000000000E+00 -0.00000000000E+00 -0.11556711475E+04  0.11556711475E+04  0.00000000000E+00 0. -1.
         25    2    1    2    0    0 -0.14458501715E+03  0.27036048041E+03 -0.26688950903E+03  0.42530269648E+03  0.12511097893E+03 0.  0.
          5    1    3    3  502    0 -0.83973319204E+02  0.22444482429E+03 -0.14072318420E+03  0.27793431681E+03  0.41800000000E+01 0.  1.
         -5    1    3    3    0  502 -0.60611697944E+02  0.45915656119E+02 -0.12616632483E+03  0.14736837967E+03  0.41800000000E+01 0.  1.
        -11    1    1    2    0    0  0.72271755063E+02 -0.13293580539E+03 -0.50499316229E+03  0.52717476125E+03  0.00000000000E+00 0. -1.
         11    1    1    2    0    0  0.72313262085E+02 -0.13742467502E+03 -0.27294978672E+03  0.31403237930E+03  0.00000000000E+00 0.  1.
</event>
<event>
 7    1  0.2844572E-009  0.1039669E+03  0.7561462E-02  0.1272169E+00
          1   -1    0    0  501    0  0.00000000000E+00  0.00000000000E+00  0.13249926746E+03  0.13249926746E+03  0.00000000000E+00 0. -1.
         -1   -1    0    0    0  501 -0.00000000000E+00 -0.00000000000E+00 -0.11781104447E+03  0.11781104447E+03  0.00000000000E+00 0.  1.
         25    2    1    2    0    0  0.57156737511E+02  0.21202847281E+02  0.10927547157E+01  0.13916146637E+03  0.12509303032E+03 0.  0.
          5    1    3    3  502    0 -0.30278482939E+02  0.28654439649E+02 -0.23361534877E+02  0.47969752475E+02  0.41800000000E+01 0.  1.
         -5    1    3    3    0  502  0.87435220450E+02 -0.74515923679E+01  0.24454289592E+02  0.91191713897E+02  0.41800000000E+01 0.  1.
        -11    1    1    2    0    0 -0.31960188556E+02 -0.36652117982E+02  0.46245733269E+02  0.67108116132E+02  0.00000000000E+00 0. -1.
         11    1    1    2    0    0 -0.25196548955E+02  0.15449270702E+02 -0.32650264991E+02  0.44040729427E+02  0.00000000000E+00 0.  1.
</event>
<event>
 7    1  0.2844572E-009  0.7265983E+02  0.7561462E-02  0.1351275E+00
          2   -1    0    0  501    0  0.00000000000E+00  0.00000000000E+00  0.90667724449E+02  0.90667724449E+02  0.00000000000E+00 0. -1.
         -2   -1    0    0    0  501 -0.00000000000E+00 -0.00000000000E+00 -0.14051502774E+03  0.14051502774E+03  0.00000000000E+00 0.  1.
         25    2    1    2    0    0 -0.14770623772E+02  0.18157896930E+02 -0.52567142390E+01  0.12736219812E+03  0.12508243649E+03 0.  0.
          5    1    3    3  502    0  0.34099042746E+02  0.26824802660E+02  0.40668455081E+02  0.59613005231E+02  0.41800000000E+01 0. -1.
         -5    1    3    3    0  502 -0.48869666518E+02 -0.86669057302E+01 -0.45925169320E+02  0.67749192893E+02  0.41800000000E+01 0. -1.
        -11    1    1    2    0    0 -0.43749933860E+01 -0.29399456335E+02 -0.66368691569E+02  0.72720504815E+02  0.00000000000E+00 0.  1.
         11    1    1    2    0    0  0.19145617158E+02  0.11241559405E+02  0.21778102516E+02  0.31100049251E+02  0.00000000000E+00 0. -1.
</event>
<event>
 7    1  0.2844572E-009  0.8293609E+02  0.7561462E-02  0.1320920E+00
          3   -1    0    0  501    0  0.00000000000E+00  0.00000000000E+00  0.21500956126E+03  0.21500956126E+03  0.00000000000E+00 0. -1.
         -3   -1    0    0    0  501 -0.00000000000E+00 -0.00000000000E+00 -0.69808232567E+02  0.69808232567E+02  0.00000000000E+00 0.  1.
         25    2    1    2    0    0 -0.35323979580E+02  0.21887457002E+02  0.12601198735E+03  0.18234919443E+03  0.12508142725E+03 0.  0.
          5    1    3    3  502    0 -0.79444540944E+01  0.36504485972E+02 -0.13058937065E+02  0.39795729472E+02  0.41800000000E+01 0.  1.
         -5    1    3    3    0  502 -0.27379525486E+02 -0.14617028970E+02  0.13907092442E+03  0.14255346495E+03  0.41800000000E+01 0.  1.
        -11    1    1    2    0    0  0.23585700193E+02  0.33151864439E+02 -0.54215465581E+01  0.41045396045E+02  0.00000000000E+00 0.  1.
         11    1    1    2    0    0  0.11738279387E+02 -0.55039321441E+02  0.24610887902E+02  0.61423203360E+02  0.00000000000E+00 0. -1.
</event>
<event>
 7    1  0.2844572E-009  0.1123758E+03  0.7561462E-02  0.1256233E+00
         -2   -1    0    0    0  501 -0.00000000000E+00  0.00000000000E+00  0.24455103807E+03  0.24455103807E+03  0.00000000000E+00 0.  1.
          2   -1    0    0  501    0  0.00000000000E+00 -0.00000000000E+00 -0.94254883394E+02  0.94254883394E+02  0.00000000000E+00 0. -1.
         25    2    1    2    0    0  0.48758222146E+02  0.83518081491E+02  0.33442374604E+02  0.16161111612E+03  0.12508847378E+03 0.  0.
          5    1    3    3  502    0  0.24502108118E+02 -0.90431976200E+01 -0.35015746846E+02  0.43882885646E+02  0.41800000000E+01 0. -1.
         -5    1    3    3    0  502  0.24256114028E+02  0.92561279111E+02  0.68458121450E+02  0.11772823047E+03  0.41800000000E+01 0. -1.
        -11    1    1    2    0    0 -0.41438178694E+02 -0.37374763147E+02  0.11792534943E+03  0.13046219227E+03  0.00000000000E+00 0.  1.
         11    1    1    2    0    0 -0.73200434515E+01 -0.46143318343E+02 -0.10715693575E+01  0.46732613074E+02  0.00000000000E+00 0. -1.
</event>
<event>
 7    1  0.2844572E-009  0.1377177E+03  0.7561462E-02  0.1216433E+00
          1   -1    0    0  501    0  0.00000000000E+00  0.00000000000E+00  0.38289672018E+03  0.38289672018E+03  0.00000000000E+00 0. -1.
         -1   -1    0    0    0  501 -0.00000000000E+00 -0.00000000000E+00 -0.65043302233E+02  0.65043302233E+02  0.00000000000E+00 0.  1.
         25    2    1    2    0    0  0.10383057526E+03 -0.30770044710E+02  0.11944174534E+03  0.20406564133E+03  0.12509544927E+03 0.  0.
          5    1    3    3  502    0  0.72287354963E+02 -0.79290966509E+02  0.80085259441E+02  0.13395387354E+03  0.41800000000E+01 0. -1.
         -5    1    3    3    0  502  0.31543220302E+02  0.48520921799E+02  0.39356485904E+02  0.70111767785E+02  0.41800000000E+01 0. -1.
        -11    1    1    2    0    0 -0.40041780995E+02  0.21876882596E+02  0.12775700051E+02  0.47383127051E+02  0.00000000000E+00 0.  1.
         11    1    1    2    0    0 -0.63788794270E+02  0.88931621139E+01  0.18563597255E+03  0.19649125403E+03  0.00000000000E+00 0. -1.
</event>
<event>
 7    1  0.2844572E-009  0.1800457E+03  0.7561462E-02  0.1167759E+00
          1   -1    0    0  501    0  0.00000000000E+00  0.00000000000E+00  0.51023453996E+02  0.51023453996E+02  0.00000000000E+00 0. -1.
         -1   -1    0    0    0  501 -0.00000000000E+00 -0.00000000000E+00 -0.64972923986E+03  0.64972923986E+03  0.00000000000E+00 0.  1.
         25    2    1    2    0    0 -0.12419670848E+03 -0.79395964033E+02 -0.29804598660E+03  0.35525822448E+03  0.12509378254E+03 0.  0.
          5    1    3    3  502    0  0.23990574947E+02 -0.11174711201E+02 -0.22382118682E+02  0.34912082341E+02  0.41800000000E+01 0.  1.
         -5    1    3    3    0  502 -0.14818728343E+03 -0.68221252832E+02 -0.27566386792E+03  0.32034614214E+03  0.41800000000E+01 0.  1.
        -11    1    1    2    0    0  0.11815627064E+03  0.32115813265E+02 -0.21105997491E+03  0.24400541543E+03  0.00000000000E+00 0. -1.
         11    1    1    2    0    0  0.60404378439E+01  0.47280150768E+02 -0.89599824362E+02  0.10148905395E+03  0.00000000000E+00 0.  1.
</event>
<event>
 7    1  0.2844572E-009  0.7798829E+02  0.7561462E-02  0.1334859E+00
          1   -1    0    0  501    0  0.00000000000E+00  0.00000000000E+00  0.10093676452E+03  0.10093676452E+03  0.00000000000E+00 0. -1.
         -1   -1    0    0    0  501 -0.00000000000E+00 -0.00000000000E+00 -0.12917796781E+03  0.12917796781E+03  0.00000000000E+00 0.  1.
         25    2    1    2    0    0 -0.18332300359E+02  0.22527236582E+02 -0.38729155128E+02  0.13412884833E+03  0.12508817240E+03 0.  0.
          5    1    3    3  502    0  0.29455600631E+02 -0.36351091382E+02  0.37271156067E+01  0.47121099774E+02  0.41800000000E+01 0.  1.
         -5    1    3    3    0  502 -0.47787900989E+02  0.58878327964E+02 -0.42456270734E+02  0.87007748560E+02  0.41800000000E+01 0.  1.
        -11    1    1    2    0    0  0.43087600850E+01 -0.17713887335E+02  0.50300466917E+02  0.53502188648E+02  0.00000000000E+00 0. -1.
         11    1    1    2    0    0  0.14023540274E+02 -0.48133492469E+01 -0.39812515082E+02  0.42483695343E+02  0.00000000000E+00 0.  1.
</event>
<event>
 7    1  0.2844572E-009  0.1245255E+03  0.7561462E-02  0.1235813E+00
          2   -1    0    0  501    0  0.00000000000E+00  0.00000000000E+00  0.71179809527E+03  0.71179809527E+03  0.00000000000E+00 0. -1.
         -2   -1    0    0    0  501 -0.00000000000E+00 -0.00000000000E+00 -0.27455207510E+02  0.27455207510E+02  0.00000000000E+00 0.  1.
         25    2    1    2    0    0  0.81169317458E+02 -0.18793910085E+02  0.30140996940E+03  0.33680297354E+03  0.12508638686E+03 0.  0.
          5    1    3    3  502    0 -0.72157210457E+01  0.40895834433E+02  0.10989202032E+03  0.11755111414E+03  0.41800000000E+01 0. -1.
         -5    1    3    3    0  502  0.88385038504E+02 -0.59689744518E+02  0.19151794908E+03  0.21925185940E+03  0.41800000000E+01 0. -1.
        -11    1    1    2    0    0 -0.61062814365E+02 -0.13500072577E+02  0.33726290563E+03  0.34301193386E+03  0.00000000000E+00 0. -1.
         11    1    1    2    0    0 -0.20106503093E+02  0.32293982662E+02  0.45670012735E+02  0.59438395385E+02  0.00000000000E+00 0.  1.
</event>
<event>
 7    1  0.2844572E-009  0.8639461E+02  0.7561462E-02  0.1311825E+00
         -1   -1    0    0    0  501 -0.00000000000E+00  0.00000000000E+00  0.73316277043E+03  0.73316277043E+03  0.00000000000E+00 0.  1.
          1   -1    0    0  501    0  0.00000000000E+00 -0.00000000000E+00 -0.25880626454E+02  0.25880626454E+02  0.00000000000E+00 0. -1.
         25    2    1    2    0    0 -0.73615338846E+02  0.22488077947E+02  0.48291115324E+03  0.50475095369E+03  0.12508161961E+03 0.  0.
          5    1    3    3  502    0 -0.43651841633E+02 -0.14193665092E+02  0.43434614058E+03  0.43678482762E+03  0.41800000000E+01 0.  1.
         -5    1    3    3    0  502 -0.29963497213E+02  0.36681743038E+02  0.48565012663E+02  0.67966126066E+02  0.41800000000E+01 0.  1.
        -11    1    1    2    0    0  0.52097192166E+02 -0.24436277440E+02  0.22543190585E+03  0.23266025286E+03  0.00000000000E+00 0.  1.
         11    1    1    2    0    0  0.21518146680E+02  0.19481994931E+01 -0.10609151123E+01  0.21632190335E+02  0.00000000000E+00 0. -1.
</event>
<event>
 7    1  0.2844572E-009  0.2423271E+03  0.7561462E-02  0.1118252E+00
          4   -1    0    0  501    0  0.00000000000E+00  0.00000000000E+00  0.33525664049E+03  0.33525664049E+03  0.00000000000E+00 0. -1.
         -4   -1    0    0    0  501 -0.00000000000E+00 -0.00000000000E+00 -0.20786445914E+03  0.20786445914E+03  0.00000000000E+00 0.  1.
         25    2    1    2    0    0 -0.16824408207E+03 -0.16822379218E+03  0.32430952302E+02  0.27075089793E+03  0.12509582990E+03 0.  0.
          5    1    3    3  502    0 -0.11491934926E+03 -0.83924465485E+02  0.76505894327E+02  0.16161805904E+03  0.41800000000E+01 0.  1.
         -5    1    3    3    0  502 -0.53324732815E+02 -0.84299326695E+02 -0.44074942025E+02  0.10913283890E+03  0.41800000000E+01 0.  1.
        -11    1    1    2    0    0  0.76642364369E+02  0.44877593576E+02  0.77255799613E+02  0.11771367378E+03  0.00000000000E+00 0.  1.
         11    1    1    2    0    0  0.91601717702E+02  0.12334619860E+03  0.17705429438E+02  0.15465652792E+03  0.00000000000E+00 0. -1.
</event>
<event>
 7    1  0.2844572E-009  0.1548030E+03  0.7561462E-02  0.1194692E+00
         -2   -1    0    0    0  501 -0.00000000000E+00  0.00000000000E+00  0.66896864281E+02  0.66896864281E+02  0.00000000000E+00 0.  1.
          2   -1    0    0  501    0  0.00000000000E+00 -0.00000000000E+00 -0.43469986709E+03  0.43469986709E+03  0.00000000000E+00 0. -1.
         25    2    1    2    0    0  0.93571136047E+02  0.89544882340E+02 -0.24177274257E+03  0.30145592372E+03  0.12509105262E+03 0.  0.
          5    1    3    3  502    0  0.15476004908E+02  0.98281743342E+02 -0.15580458366E+03  0.18490902761E+03  0.41800000000E+01 0.  1.
         -5    1    3    3    0  502  0.78095131139E+02 -0.87368610020E+01 -0.85968158904E+02  0.11654689611E+03  0.41800000000E+01 0.  1.
        -11    1    1    2    0    0 -0.29934502000E+02 -0.15535683283E+02 -0.89974927674E+02  0.96088081857E+02  0.00000000000E+00 0. -1.
         11    1    1    2    0    0 -0.63636634047E+02 -0.74009199057E+02 -0.36055332568E+02  0.10405272579E+03  0.00000000000E+00 0.  1.
</event>
<event>
 7    1  0.2844572E-009  0.1513742E+03  0.7561462E-02  0.1198794E+00
         -2   -1    0    0    0  501 -0.00000000000E+00  0.00000000000E+00  0.13364324434E+03  0.13364324434E+03  0.00000000000E+00 0.  1.
          2   -1    0    0  501    0  0.00000000000E+00 -0.00000000000E+00 -0.27988424566E+03  0.27988424566E+03  0.00000000000E+00 0. -1.
         25    2    1    2    0    0 -0.65736321661E+02  0.10564936315E+03 -0.18154031811E+03  0.25315713078E+03  0.12509433978E+03 0.  0.
          5    1    3    3  502    0 -0.57114975621E+01 -0.13265036547E+02  0.11256502478E+02  0.18782003275E+02  0.41800000000E+01 0.  1.
         -5    1    3    3    0  502 -0.60024824099E+02  0.11891439970E+03 -0.19279682059E+03  0.23437512751E+03  0.41800000000E+01 0.  1.
        -11    1    1    2    0    0  0.22968023025E+02 -0.10914140034E+03  0.13822545489E+02  0.11238522196E+03  0.00000000000E+00 0. -1.
         11    1    1    2    0    0  0.42768298636E+02  0.34920371905E+01  0.21476771304E+02  0.47985137257E+02  0.00000000000E+00 0.  1.
</event>
<event>
 7    1  0.2844572E-009  0.1280926E+03  0.7561462E-02  0.1230314E+00
          2   -1    0    0  501    0  0.00000000000E+00  0.00000000000E+00  0.61737603172E+03  0.61737603172E+03  0.00000000000E+00 0. -1.
         -2   -1    0    0    0  501 -0.00000000000E+00 -0.00000000000E+00 -0.34450037975E+02  0.34450037975E+02  0.00000000000E+00 0.  1.
         25    2    1    2    0    0 -0.92904806298E+02 -0.22545281667E+02  0.27149384051E+03  0.31384147736E+03  0.12509186511E+03 0.  0.
          5    1    3    3  502    0 -0.47286244165E+02 -0.57573220580E+02  0.23262020055E+03  0.24429550696E+03  0.41800000000E+01 0. -1.
         -5    1    3    3    0  502 -0.45618562134E+02  0.35027938913E+02  0.38873639962E+02  0.69545970405E+02  0.41800000000E+01 0. -1.
        -11    1    1    2    0    0  0.45253603833E+02 -0.28963433731E+02  0.19286980296E+03  0.20021371094E+03  0.00000000000E+00 0.  1.
         11    1    1    2    0    0  0.47651202466E+02  0.51508715399E+02  0.11856235028E+03  0.13777088140E+03  0.00000000000E+00 0. -1.
</event>
<event>
 7    1  0.2844572E-009  0.7177725E+02  0.7561462E-02  0.1354152E+00
          3   -1    0    0  501    0  0.00000000000E+00  0.00000000000E+00  0.35369347489E+03  0.35369347489E+03  0.00000000000E+00 0. -1.
         -3   -1    0    0    0  501 -0.00000000000E+00 -0.00000000000E+00 -0.45773920630E+02  0.45773920630E+02  0.00000000000E+00 0.  1.
         25    2    1    2    0    0  0.21312494001E+02  0.48086042245E+02  0.25356784743E+03  0.28759478959E+03  0.12509044683E+03 0.  0.
          5    1    3    3  502    0 -0.17894253605E+02  0.15200173511E+02  0.22977041587E+03  0.23100468826E+03  0.41800000000E+01 0.  1.
         -5    1    3    3    0  502  0.39206747606E+02  0.32885868734E+02  0.23797431563E+02  0.56590101336E+02  0.41800000000E+01 0.  1.
        -11    1    1    2    0    0 -0.34952116228E+02 -0.34355681661E+02  0.71048136157E+02  0.86312229392E+02  0.00000000000E+00 0. -1.
         11    1    1    2    0    0  0.13639622227E+02 -0.13730360584E+02 -0.16696429331E+02  0.25560376536E+02  0.00000000000E+00 0.  1.
</event>
<event>
 7    1  0.2844572E-009  0.8362765E+02  0.7561462E-02  0.1319061E+00
         -2   -1    0    0    0  501 -0.00000000000E+00  0.00000000000E+00  0.27557066904E+03  0.27557066904E+03  0.00000000000E+00 0.  1.
          2   -1    0    0  501    0  0.00000000000E+00 -0.00000000000E+00 -0.55269680845E+02  0.55269680845E+02  0.00000000000E+00 0. -1.
         25    2    1    2    0    0  0.26093640116E+02 -0.43149544744E+02  0.77902953796E+02  0.15576225506E+03  0.12510095373E+03 0.  0.
          5    1    3    3  502    0 -0.19225087494E+02 -0.14185071323E+02  0.95879376723E+02  0.98899684116E+02  0.41800000000E+01 0.  1.
         -5    1    3    3    0  502  0.45318727610E+02 -0.28964473420E+02 -0.17976422926E+02  0.56862570940E+02  0.41800000000E+01 0.  1.
        -11    1    1    2    0    0 -0.49665151715E+02  0.42669990195E+02  0.13553561248E+03  0.15052327929E+03  0.00000000000E+00 0.  1.
         11    1    1    2    0    0  0.23571511600E+02  0.47955454860E+00  0.68624219245E+01  0.24554815542E+02  0.00000000000E+00 0. -1.
</event>
<event>
 7    1  0.2844572E-009  0.1105235E+03  0.7561462E-02  0.1259603E+00
          1   -1    0    0  501    0  0.00000000000E+00  0.00000000000E+00  0.56518877694E+02  0.56518877694E+02  0.00000000000E+00 0. -1.
         -1   -1    0    0    0  501 -0.00000000000E+00 -0.00000000000E+00 -0.28814417099E+03  0.28814417099E+03  0.00000000000E+00 0.  1.
         25    2    1    2    0    0 -0.15545066347E+02  0.65217343775E+02 -0.13581570354E+03  0.19643796296E+03  0.12508803680E+03 0.  0.
          5    1    3    3  502    0  0.18045378545E+02 -0.33011770756E+02 -0.32076484843E+02  0.49616388171E+02  0.41800000000E+01 0. -1.
         -5    1    3    3    0  502 -0.33590444892E+02  0.98229114530E+02 -0.10373921869E+03  0.14682157479E+03  0.41800000000E+01 0. -1.
        -11    1    1    2    0    0 -0.76531921483E+01 -0.52073243022E+02 -0.10705021690E+03  0.11928932445E+03  0.00000000000E+00 0.  1.
         11    1    1    2    0    0  0.23198258496E+02 -0.13144100753E+02  0.11240627141E+02  0.28935761272E+02  0.00000000000E+00 0. -1.
</event>
<event>
 7    1  0.2844572E-009  0.1027209E+03  0.7561462E-02  0.1274676E+00
         -2   -1    0    0    0  501 -0.00000000000E+00  0.00000000000E+00  0.33195359299E+02  0.33195359299E+02  0.00000000000E+00 0.  1.
          2   -1    0    0  501    0  0.00000000000E+00 -0.00000000000E+00 -0.36783597004E+03  0.36783597004E+03  0.00000000000E+00 0. -1.
         25    2    1    2    0    0 -0.20549609116E+02 -0.29466668574E+01 -0.17513218831E+03  0.21621621326E+03  0.12508876134E+03 0.  0.
          5    1    3    3  502    0 -0.46787947420E+02  0.41048809196E+02 -0.14191432371E+03  0.15502020653E+03  0.41800000000E+01 0. -1.
         -5    1    3    3    0  502  0.26238338305E+02 -0.43995476054E+02 -0.33217864603E+02  0.61196006724E+02  0.41800000000E+01 0. -1.
        -11    1    1    2    0    0  0.44484794294E+02  0.31423276230E+02 -0.77068549014E+02  0.94370972548E+02  0.00000000000E+00 0.  1.
         11    1    1    2    0    0 -0.23935185179E+02 -0.28476609372E+02 -0.82439873413E+02  0.90444143532E+02  0.00000000000E+00 0. -1.
</event>
<event>
 7    1  0.2844572E-009  0.1898509E+03  0.7561462E-02  0.1158596E+00
          1   -1    0    0  501    0  0.00000000000E+00  0.00000000000E+00  0.91593562817E+02  0.91593562817E+02  0.00000000000E+00 0. -1.
         -1   -1    0    0    0  501 -0.00000000000E+00 -0.00000000000E+00 -0.48791917736E+03  0.48791917736E+03  0.00000000000E+00 0.  1.
         25    2    1    2    0    0  0.15583392437E+03  0.89389885370E+02 -0.17409167466E+03  0.27969665940E+03  0.12509015351E+03 0.  0.
          5    1    3    3  502    0  0.49924739399E+02  0.35767912829E+02  0.82191117187E+01  0.62103537658E+02  0.41800000000E+01 0.  1.
         -5    1    3    3    0  502  0.10590918497E+03  0.53621972541E+02 -0.18231078638E+03  0.21759312174E+03  0.41800000000E+01 0.  1.
        -11    1    1    2    0    0 -0.12433623794E+03 -0.23790892702E+02 -0.16030296051E+03  0.20426097471E+03  0.00000000000E+00 0. -1.
         11    1    1    2    0    0 -0.31497686428E+02 -0.65598992668E+02 -0.61930979367E+02  0.95555106063E+02  0.00000000000E+00 0.  1.
</event>
<event>
 7    1  0.2844572E-009  0.6430816E+02  0.7561462E-02  0.1380593E+00
          2   -1    0    0  501    0  0.00000000000E+00  0.00000000000E+00  0.27912977949E+02  0.27912977949E+02  0.00000000000E+00 0. -1.
         -2   -1    0    0    0  501 -0.00000000000E+00 -0.00000000000E+00 -0.43328330124E+03  0.43328330124E+03  0.00000000000E+00 0.  1.
         25    2    1    2    0    0 -0.32448302377E+01  0.14343162058E+02 -0.28304094245E+03  0.30979959634E+03  0.12508940630E+03 0.  0.
          5    1    3    3  502    0 -0.95870580749E+01 -0.11236118885E+02 -0.28269768413E+03  0.28311413787E+03  0.41800000000E+01 0.  1.
         -5    1    3    3    0  502  0.63422278372E+01  0.25579280943E+02 -0.34325832337E+00  0.26685458470E+02  0.41800000000E+01 0.  1.
        -11    1    1    2    0    0 -0.38098576796E+02  0.89407185189E+01 -0.37509421963E+02  0.54206962076E+02  0.00000000000E+00 0.  1.
         11    1    1    2    0    0  0.41343407034E+02 -0.23283880577E+02 -0.84819958873E+02  0.97189720769E+02  0.00000000000E+00 0. -1.
</event>
<event>
 6    1  0.2844572E-009  0.9974905E+02  0.7561462E-02  0.1280825E+00
          1   -1    0    0  501    0  0.00000000000E+00  0.00000000000E+00  0.46861215901E+02  0.46861215901E+02  0.00000000000E+00 0. -1.
         -1   -1    0    0    0  501 -0.00000000000E+00 -0.00000000000E+00 -0.30213237314E+03  0.30213237314E+03  0.00000000000E+00 0.  1.
          5    1    1    2  502    0  0.40075129056E+02 -0.57854015383E+02 -0.50550509029E+02  0.86752114832E+02  0.41800000000E+01 0.  1.
         -5    1    1    2    0  502 -0.15349290310E+02  0.27122655867E+02 -0.14385746947E+03  0.14725380503E+03  0.41800000000E+01 0.  1.
        -11    1    1    2    0    0 -0.19472150855E+02 -0.30450969890E+02 -0.23236189368E+02  0.42969136860E+02  0.00000000000E+00 0. -1.
         11    1    1    2    0    0 -0.52536878905E+01  0.61182329405E+02 -0.37626989375E+02  0.72018532319E+02  0.00000000000E+00 0.  1.
</event>
<event>
 7    1  0.2844572E-009  0.1581383E+03  0.7561462E-02  0.1190815E+00
         -1   -1    0    0    0  501 -0.00000000000E+00  0.00000000000E+00  0.14399181253E+02  0.14399181253E+02  0.00000000000E+00 0.  1.
          1   -1    0    0  501    0  0.00000000000E+00 -0.00000000000E+00 -0.17537788728E+04  0.17537788728E+04  0.00000000000E+00 0. -1.
         25    2    1    2    0    0 -0.90075424748E+02 -0.71732399226E+02 -0.99584314215E+03  0.10102527584E+04  0.12509177734E+03 0.  0.
          5    1    3    3  502    0 -0.49617182812E+02 -0.10535590074E+03 -0.72687123016E+03  0.73615282944E+03  0.41800000000E+01 0. -1.
         -5    1    3    3    0  502 -0.40458241936E+02  0.33623501518E+02 -0.26897191199E+03  0.27409992892E+03  0.41800000000E+01 0. -1.
        -11    1    1    2    0    0  0.41100093953E+02  0.86544962223E+02 -0.48073035016E+03  0.49018457521E+03  0.00000000000E+00 0.  1.
         11    1    1    2    0    0  0.48975330795E+02 -0.14812562997E+02 -0.26280619923E+03  0.26774072048E+03  0.00000000000E+00 0. -1.
</event>
<event>
 7    1  0.2844572E-009  0.9422152E+02  0.7561462E-02  0.1292939E+00
          1   -1    0    0  501    0  0.00000000000E+00  0.00000000000E+00  0.67631391181E+02  0.67631391181E+02  0.00000000000E+00 0. -1.
         -1   -1    0    0    0  501 -0.00000000000E+00 -0.00000000000E+00 -0.19277367580E+03  0.19277367580E+03  0.00000000000E+00 0.  1.
         25    2    1    2    0    0 -0.21212979538E+02  0.15513639374E+02 -0.99756854098E+02  0.16213607723E+03  0.12508402812E+03 0.  0.
          5    1    3    3  502    0  0.38026177132E+02  0.19061224975E+02  0.35871806930E+01  0.42891266129E+02  0.41800000000E+01 0.  1.
         -5    1    3    3    0  502 -0.59239156670E+02 -0.35475856003E+01 -0.10334403479E+03  0.11924481110E+03  0.41800000000E+01 0.  1.
        -11    1    1    2    0    0  0.41853117483E+02 -0.37398007866E+02  0.39301230992E+01  0.56264911827E+02  0.00000000000E+00 0. -1.
         11    1    1    2    0    0 -0.20640137945E+02  0.21884368491E+02 -0.29315553623E+02  0.42004077931E+02  0.00000000000E+00 0.  1.
</event>
<event>
 7    1  0.2844572E-009  0.1975050E+03  0.7561462E-02  0.1151861E+00
         -2   -1    0    0    0  501 -0.00000000000E+00  0.00000000000E+00  0.19954854101E+03  0.19954854101E+03  0.00000000000E+00 0.  1.
          2   -1    0    0  501    0  0.00000000000E+00 -0.00000000000E+00 -0.22626803897E+03  0.22626803897E+03  0.00000000000E+00 0. -1.
         25    2    1    2    0    0  0.17140592781E+03  0.55008762573E+02 -0.44128746592E+02  0.22360813937E+03  0.12508915887E+03 0.  0.
          5    1    3    3  502    0  0.37400076269E+02  0.56731983771E+02 -0.57161303696E+02  0.88894154631E+02  0.41800000000E+01 0.  1.
         -5    1    3    3    0  502  0.13400585154E+03 -0.17232211980E+01  0.13032557104E+02  0.13471398474E+03  0.41800000000E+01 0.  1.
        -11    1    1    2    0    0 -0.15023989191E+03 -0.71144790502E+02 -0.65993588404E+01  0.16636453310E+03  0.00000000000E+00 0. -1.
         11    1    1    2    0    0 -0.21166035898E+02  0.16136027929E+02  0.24008607470E+02  0.35843907510E+02  0.00000000000E+00 0.  1.
</event>
<event>
 7    1  0.2844572E-009  0.9999478E+02  0.7561462E-02  0.1280307E+00
         -1   -1    0    0    0  501 -0.00000000000E+00  0.00000000000E+00  0.49377607306E+03  0.49377607306E+03  0.00000000000E+00 0.  1.
          1   -1    0    0  501    0  0.00000000000E+00 -0.00000000000E+00 -0.27770853363E+02  0.27770853363E+02  0.00000000000E+00 0. -1.
         25    2    1    2    0    0  0.21718574581E+02  0.32871642457E+02  0.31444081696E+03  0.34069429339E+03  0.12508929939E+03 0.  0.
          5    1    3    3  502    0  0.23908056385E+01  0.79869091483E+02  0.18417339282E+03  0.20080363231E+03  0.41800000000E+01 0. -1.
         -5    1    3    3    0  502  0.19327768943E+02 -0.46997449027E+02  0.13026742414E+03  0.13989066108E+03  0.41800000000E+01 0. -1.
        -11    1    1    2    0    0 -0.31054964983E+02 -0.44381014887E+02  0.15619919317E+03  0.16532475096E+03  0.00000000000E+00 0.  1.
         11    1    1    2    0    0  0.93363904013E+01  0.11509372431E+02 -0.46347904242E+01  0.15527882075E+02  0.00000000000E+00 0. -1.
</event>
<event>
 7    1  0.2844572E-009  0.1195419E+03  0.7561462E-02  0.1243855E+00
         -2   -1    0    0    0  501 -0.00000000000E+00  0.00000000000E+00  0.14780309136E+02  0.14780309136E+02  0.00000000000E+00 0.  1.
          2   -1    0    0  501    0  0.00000000000E+00 -0.00000000000E+00 -0.10370303726E+04  0.10370303726E+04  0.00000000000E+00 0. -1.
         25    2    1    2    0    0  0.40727351656E+02 -0.44130596809E+02 -0.61156948299E+03  0.62711252644E+03  0.12508661622E+03 0.  0.
          5    1    3    3  502    0 -0.38871790605E+02 -0.33250005200E+02 -0.14879472739E+03  0.15739733877E+03  0.41800000000E+01 0. -1.
         -5    1    3    3    0  502  0.79599142262E+02 -0.10880591609E+02 -0.46277475559E+03  0.46971518768E+03  0.41800000000E+01 0. -1.
        -11    1    1    2    0    0 -0.58048405404E+02 -0.19532406207E+01 -0.19475592662E+03  0.20323214183E+03  0.00000000000E+00 0. -1.
         11    1    1    2    0    0  0.17321053747E+02  0.46083837430E+02 -0.21592465390E+03  0.22146601350E+03  0.00000000000E+00 0.  1.
</event>
<event>
 7    1  0.2844572E-009  0.8906553E+02  0.7561462E-02  0.1305131E+00
          4   -1    0    0  501    0  0.00000000000E+00  0.00000000000E+00  0.82915037255E+03  0.82915037255E+03  0.00000000000E+00 0. -1.
         -4   -1    0    0    0  501 -0.00000000000E+00 -0.00000000000E+00 -0.15675479528E+02  0.15675479528E+02  0.00000000000E+00 0.  1.
         25    2    1    2    0    0  0.13981954226E+02  0.37376102765E+02  0.46824792009E+03  0.48630787408E+03  0.12508703219E+03 0.  0.
          5    1    3    3  502    0  0.27203426985E+01 -0.23717644668E+02  0.36453983194E+03  0.36534461595E+03  0.41800000000E+01 0.  1.
         -5    1    3    3    0  502  0.11261611528E+02  0.61093747433E+02  0.10370808814E+03  0.12096325812E+03  0.41800000000E+01 0.  1.
        -11    1    1    2    0    0  0.31157525924E+02  0.26922276698E+01  0.68741910835E+02  0.75521452692E+02  0.00000000000E+00 0.  1.
         11    1    1    2    0    0 -0.45139480151E+02 -0.40068330435E+02  0.27648506210E+03  0.28299652531E+03  0.00000000000E+00 0. -1.
</event>
<event>
 7    1  0.2844572E-009  0.1457807E+03  0.7561462E-02  0.1205756E+00
          2   -1    0    0  501    0  0.00000000000E+00  0.00000000000E+00  0.26704707538E+03  0.26704707538E+03  0.00000000000E+00 0. -1.
         -2   -1    0    0    0  501 -0.00000000000E+00 -0.00000000000E+00 -0.16250226870E+03  0.16250226870E+03  0.00000000000E+00 0.  1.
         25    2    1    2    0    0  0.70150181015E+02 -0.10074583835E+03 -0.77316969120E+02  0.19156294857E+03  0.12509067795E+03 0.  0.
          5    1    3    3  502    0 -0.16886770198E+02 -0.10487115783E+02  0.23177352040E+02  0.30818900901E+02  0.41800000000E+01 0. -1.
         -5    1    3    3    0  502  0.87036951213E+02 -0.90258722570E+02 -0.10049432116E+03  0.16074404767E+03  0.41800000000E+01 0. -1.
        -11    1    1    2    0    0 -0.69340531457E+02  0.11350339334E+03  0.13541001360E+03  0.18980780117E+03  0.00000000000E+00 0. -1.
         11    1    1    2    0    0 -0.80964955812E+00 -0.12757554985E+02  0.46451762194E+02  0.48178594339E+02  0.00000000000E+00 0.  1.
</event>
<event>
 7    1  0.2844572E-009  0.1351211E+03  0.7561462E-02  0.1220049E+00
          1   -1    0    0  501    0  0.00000000000E+00  0.00000000000E+00  0.42965927549E+03  0.42965927549E+03  0.00000000000E+00 0. -1.
         -1   -1    0    0    0  501 -0.00000000000E+00 -0.00000000000E+00 -0.98606743194E+02  0.98606743194E+02  0.00000000000E+00 0.  1.
         25    2    1    2    0    0 -0.10512603317E+03  0.57830372882E+02  0.33389821461E+03  0.37620651416E+03  0.12508992245E+03 0.  0.
          5    1    3    3  502    0 -0.95568850283E+02  0.53536146766E+02  0.12202743747E+03  0.16403564262E+03  0.41800000000E+01 0.  1.
         -5    1    3    3    0  502 -0.95571828835E+01  0.42942261164E+01  0.21187077714E+03  0.21217087154E+03  0.41800000000E+01 0.  1.
        -11    1    1    2    0    0  0.30475491552E+02 -0.67504226095E+02  0.12835794717E+02  0.75168701945E+02  0.00000000000E+00 0. -1.
         11    1    1    2    0    0  0.74650541615E+02  0.96738532134E+01 -0.15681477033E+02  0.76890802580E+02  0.00000000000E+00 0.  1.
</event>
<event>
 7    1  0.2844572E-009  0.1301376E+03  0.7561462E-02  0.1227252E+00
          1   -1    0    0  501    0  0.00000000000E+00  0.00000000000E+00  0.20734055436E+03  0.20734055436E+03  0.00000000000E+00 0. -1.
         -1   -1    0    0    0  501 -0.00000000000E+00 -0.00000000000E+00 -0.86071536381E+02  0.86071536381E+02  0.00000000000E+00 0.  1.
         25    2    1    2    0    0  0.19622492760E+02 -0.75420817370E+02  0.43619677769E+02  0.15370046889E+03  0.12509123044E+03 0.  0.
          5    1    3    3  502    0 -0.39786222928E+02  0.88293566867E+01 -0.17183759426E+01  0.41003978956E+02  0.41800000000E+01 0. -1.
         -5    1    3    3    0  502  0.59408715688E+02 -0.84250174057E+02  0.45338053712E+02  0.11269648993E+03  0.41800000000E+01 0. -1.
        -11    1    1    2    0    0  0.34107260656E+02  0.35223926786E+02  0.33825246902E+02  0.59566581030E+02  0.00000000000E+00 0. -1.
         11    1    1    2    0    0 -0.53729753416E+02  0.40196890584E+02  0.43824093312E+02  0.80145040828E+02  0.00000000000E+00 0.  1.
</event>
<event>
 7    1  0.2844572E-009  0.1105523E+03  0.7561462E-02  0.1259550E+00
         -1   -1    0    0    0  501 -0.00000000000E+00  0.00000000000E+00  0.56438308352E+02  0.56438308352E+02  0.00000000000E+00 0.  1.
          1   -1    0    0  501    0  0.00000000000E+00 -0.00000000000E+00 -0.30121023810E+03  0.30121023810E+03  0.00000000000E+00 0. -1.
         25    2    1    2    0    0 -0.45167893608E+02  0.18226691622E+02 -0.61146094691E+02  0.14751896162E+03  0.12510255089E+03 0.  0.
          5    1    3    3  502    0 -0.10569062790E+02  0.65566636173E+02 -0.58617331546E+02  0.88680058778E+02  0.41800000000E+01 0.  1.
         -5    1    3    3    0  502 -0.34598830819E+02 -0.47339944551E+02 -0.25287631446E+01  0.58838902838E+02  0.41800000000E+01 0.  1.
        -11    1    1    2    0    0 -0.22072298338E+02 -0.18085398785E+02 -0.25374317137E+02  0.38185389527E+02  0.00000000000E+00 0. -1.
         11    1    1    2    0    0  0.67240191946E+02 -0.14129283678E+00 -0.15825151792E+03  0.17194419531E+03  0.00000000000E+00 0.  1.
</event>
<event>
 7    1  0.2844572E-009  0.1426574E+03  0.7561462E-02  0.1209797E+00
          2   -1    0    0  501    0  0.00000000000E+00  0.00000000000E+00  0.35755987820E+03  0.35755987820E+03  0.00000000000E+00 0. -1.
         -2   -1    0    0    0  501 -0.00000000000E+00 -0.00000000000E+00 -0.67012148381E+02  0.67012148381E+02  0.00000000000E+00 0.  1.
         25    2    1    2    0    0  0.77660819854E+02 -0.60751917560E+02  0.22715352423E+03  0.27743496767E+03  0.12509771895E+03 0.  0.
          5    1    3    3  502    0  0.13894068108E+02  0.34847952123E+02  0.26343485278E+02  0.46031255820E+02  0.41800000000E+01 0.  1.
         -5    1    3    3    0  502  0.63766751745E+02 -0.95599869683E+02  0.20081003895E+03  0.23140371185E+03  0.41800000000E+01 0.  1.
        -11    1    1    2    0    0  0.19842929402E+02  0.14981991229E+02  0.87626792276E+01  0.26362595770E+02  0.00000000000E+00 0. -1.
         11    1    1    2    0    0 -0.97503749256E+02  0.45769926331E+02  0.54631526358E+02  0.12077446314E+03  0.00000000000E+00 0.  1.
</event>
<event>
 7    1  0.2844572E-009  0.1380151E+03  0.7561462E-02  0.1216025E+00
          3   -1    0    0  501    0  0.00000000000E+00  0.00000000000E+00  0.16902968346E+03  0.16902968346E+03  0.00000000000E+00 0. -1.
         -3   -1    0    0    0  501 -0.00000000000E+00 -0.00000000000E+00 -0.14156205675E+03  0.14156205675E+03  0.00000000000E+00 0.  1.
         25    2    1    2    0    0 -0.75824353812E+01  0.10975193897E+03  0.25528129978E+02  0.16852073259E+03  0.12507825733E+03 0.  0.
          5    1    3    3  502    0  0.54560674557E+02  0.46093301019E+02 -0.10760711823E+02  0.72351398922E+02  0.41800000000E+01 0.  1.
         -5    1    3    3    0  502 -0.62143109939E+02  0.63658637947E+02  0.36288841801E+02  0.96169333664E+02  0.41800000000E+01 0.  1.
        -11    1    1    2    0    0  0.21090364611E+02 -0.52025721123E+02 -0.40447312926E+02  0.69191504253E+02  0.00000000000E+00 0.  1.
         11    1    1    2    0    0 -0.13507929229E+02 -0.57726217842E+02  0.42386809654E+02  0.72879503368E+02  0.00000000000E+00 0. -1.
</event>
<event>
 7    1  0.2844572E-009  0.1731221E+03  0.7561462E-02  0.1174631E+00
         -1   -1    0    0    0  501 -0.00000000000E+00  0.00000000000E+00  0.10010241887E+03  0.10010241887E+03  0.00000000000E+00 0.  1.
          1   -1    0    0  501    0  0.00000000000E+00 -0.00000000000E+00 -0.37499067150E+03  0.37499067150E+03  0.00000000000E+00 0. -1.
         25    2    1    2    0    0 -0.26682238850E+02  0.15133446556E+03 -0.19829325231E+03  0.28032495545E+03  0.12509118435E+03 0.  0.
          5    1    3    3  502    0 -0.67967108951E+02  0.56215723640E+02 -0.12595727918E+03  0.15382601880E+03  0.41800000000E+01 0. -1.
         -5    1    3    3    0  502  0.41284870101E+02  0.95118741922E+02 -0.72335973133E+02  0.12649893665E+03  0.41800000000E+01 0. -1.
        -11    1    1    2    0    0  0.72335916630E+01 -0.76664483351E+02  0.11277189650E+02  0.77826363542E+02  0.00000000000E+00 0.  1.
         11    1    1    2    0    0  0.19448647187E+02 -0.74669982211E+02 -0.87872189972E+02  0.11694177137E+03  0.00000000000E+00 0. -1.
</event>
<event>
 7    1  0.2844572E-009  0.2333953E+03  0.7561462E-02  0.1124273E+00
         -1   -1    0    0    0  501 -0.00000000000E+00  0.00000000000E+00  0.10386166057E+03  0.10386166057E+03  0.00000000000E+00 0.  1.
          1   -1    0    0  501    0  0.00000000000E+00 -0.00000000000E+00 -0.60566325286E+03  0.60566325286E+03  0.00000000000E+00 0. -1.
         25    2    1    2    0    0  0.15164440876E+03  0.16716932535E+03 -0.23991886301E+03  0.35234861727E+03  0.12508747827E+03 0.  0.
          5    1    3    3  502    0  0.14382339631E+03  0.10716774437E+03 -0.11394827126E+03  0.21253652787E+03  0.41800000000E+01 0.  1.
         -5    1    3    3    0  502  0.78210124580E+01  0.60001580979E+02 -0.12597059175E+03  0.13981208940E+03  0.41800000000E+01 0.  1.
        -11    1    1    2    0    0 -0.23718636489E+02 -0.15597351199E+02  0.34168426872E+00  0.28389572549E+02  0.00000000000E+00 0.  1.
         11    1    1    2    0    0 -0.12792577227E+03 -0.15157197415E+03 -0.26222441355E+03  0.32878672361E+03  0.00000000000E+00 0. -1.
</event>
<event>
 7    1  0.2844572E-009  0.1112312E+03  0.7561462E-02  0.1258307E+00
         -1   -1    0    0    0  501 -0.00000000000E+00  0.00000000000E+00  0.31240064532E+03  0.31240064532E+03  0.00000000000E+00 0.  1.
          1   -1    0    0  501    0  0.00000000000E+00 -0.00000000000E+00 -0.55359515695E+02  0.55359515695E+02  0.00000000000E+00 0. -1.
         25    2    1    2    0    0  0.57920314570E+02  0.44295798613E+02  0.12246172531E+03  0.18964976959E+03  0.12511307016E+03 0.  0.
          5    1    3    3  502    0  0.40535424266E+02  0.66500453046E+02  0.16236041374E+02  0.79665000567E+02  0.41800000000E+01 0. -1.
         -5    1    3    3    0  502  0.17384890304E+02 -0.22204654433E+02  0.10622568394E+03  0.10998476902E+03  0.41800000000E+01 0. -1.
        -11    1    1    2    0    0 -0.59428737246E+02 -0.69082974310E+02  0.97229053895E+02  0.13325809946E+03  0.00000000000E+00 0. -1.
         11    1    1    2    0    0  0.15084226752E+01  0.24787175697E+02  0.37350350417E+02  0.44852291962E+02  0.00000000000E+00 0.  1.
</event>
<event>
 7    1  0.2844572E-009  0.1768019E+03  0.7561462E-02  0.1170935E+00
         -2   -1    0    0    0  501 -0.00000000000E+00  0.00000000000E+00  0.88087591366E+02  0.88087591366E+02  0.00000000000E+00 0.  1.
          2   -1    0    0  501    0  0.00000000000E+00 -0.00000000000E+00 -0.48160172554E+03  0.48160172554E+03  0.00000000000E+00 0. -1.
         25    2    1    2    0    0  0.12950262426E+03  0.78220995116E+02 -0.32146066311E+03  0.37666111379E+03  0.12508870031E+03 0.  0.
          5    1    3    3  502    0  0.14676628256E+03  0.86174969694E+02 -0.24903406770E+03  0.30166522235E+03  0.41800000000E+01 0.  1.
         -5    1    3    3    0  502 -0.17263658306E+02 -0.79539745778E+01 -0.72426595415E+02  0.74995891442E+02  0.41800000000E+01 0.  1.
        -11    1    1    2    0    0 -0.38401203827E+02  0.71306454464E+01  0.13904989921E+02  0.41458983399E+02  0.00000000000E+00 0.  1.
         11    1    1    2    0    0 -0.91101420432E+02 -0.85351640562E+02 -0.85958460982E+02  0.15156921972E+03  0.00000000000E+00 0. -1.
</event>
<event>
 7    1  0.2844572E-009  0.2021402E+03  0.7561462E-02  0.1147946E+00
          1   -1    0    0  501    0  0.00000000000E+00  0.00000000000E+00  0.47229479039E+03  0.47229479039E+03  0.00000000000E+00 0. -1.
         -1   -1    0    0    0  501 -0.00000000000E+00 -0.00000000000E+00 -0.10182079089E+03  0.10182079089E+03  0.00000000000E+00 0.  1.
         25    2    1    2    0    0  0.28569302630E+02  0.18373927930E+03  0.14108337112E+03  0.26480005752E+03  0.12505288898E+03 0.  0.
          5    1    3    3  502    0  0.60858310165E+02  0.17371358679E+03  0.13895879263E+03  0.23066677828E+03  0.41800000000E+01 0. -1.
         -5    1    3    3    0  502 -0.32289007535E+02  0.10025692515E+02  0.21245784918E+01  0.34133279241E+02  0.41800000000E+01 0. -1.
        -11    1    1    2    0    0 -0.34084605976E+01 -0.42573362288E+02  0.49709439972E+01  0.42997896046E+02  0.00000000000E+00 0.  1.
         11    1    1    2    0    0 -0.25160842032E+02 -0.14116591702E+03  0.22441968437E+03  0.26631762772E+03  0.00000000000E+00 0. -1.
</event>
<event>
 7    1  0.2844572E-009  0.1071112E+03  0.7561462E-02  0.1266015E+00
          1   -1    0    0  501    0  0.00000000000E+00  0.00000000000E+00  0.23892991871E+03  0.23892991871E+03  0.00000000000E+00 0. -1.
         -1   -1    0    0    0  501 -0.00000000000E+00 -0.00000000000E+00 -0.82768221490E+02  0.82768221490E+02  0.00000000000E+00 0.  1.
         25    2    1    2    0    0 -0.30460411603E+01 -0.56487435522E+02  0.82537236776E+01  0.13753483712E+03  0.12509036226E+03 0.  0.
          5    1    3    3  502    0 -0.33512199338E+01  0.26871238269E+02  0.39790073432E+02  0.48311659720E+02  0.41800000000E+01 0.  1.
         -5    1    3    3    0  502  0.30517877354E+00 -0.83358673791E+02 -0.31536349755E+02  0.89223177405E+02  0.41800000000E+01 0.  1.
        -11    1    1    2    0    0  0.36402292451E+02  0.59620683793E+02  0.12619607662E+03  0.14424008661E+03  0.00000000000E+00 0. -1.
         11    1    1    2    0    0 -0.33356251290E+02 -0.31332482708E+01  0.21711896925E+02  0.39923216465E+02  0.00000000000E+00 0.  1.
</event>
<event>
 7    1  0.2844572E-009  0.1874944E+03  0.7561462E-02  0.1160741E+00
         -1   -1    0    0    0  501 -0.00000000000E+00  0.00000000000E+00  0.82402410368E+02  0.82402410368E+02  0.00000000000E+00 0.  1.
          1   -1    0    0  501    0  0.00000000000E+00 -0.00000000000E+00 -0.47062757096E+03  0.47062757096E+03  0.00000000000E+00 0. -1.
         25    2    1    2    0    0  0.15109904861E+03 -0.69283505148E+02 -0.19834160173E+03  0.28744296642E+03  0.12511171563E+03 0.  0.
          5    1    3    3  502    0  0.75527971489E+02 -0.83355154359E+02 -0.17300061747E+03  0.20639583881E+03  0.41800000000E+01 0.  1.
         -5    1    3    3    0  502  0.75571077126E+02  0.14071649210E+02 -0.25340984262E+02  0.81047127604E+02  0.41800000000E+01 0.  1.
        -11    1    1    2    0    0 -0.79135201340E+02  0.80185218019E+02 -0.12197427986E+03  0.16604148345E+03  0.00000000000E+00 0. -1.
         11    1    1    2    0    0 -0.71963847275E+02 -0.10901712870E+02 -0.67909278995E+02  0.99545531451E+02  0.00000000000E+00 0.  1.
</event>
<event>
 7    1  0.2844572E-009  0.1272037E+03  0.7561462E-02  0.1231665E+00
         -3   -1    0    0    0  501 -0.00000000000E+00  0.00000000000E+00  0.12776213303E+03  0.12776213303E+03  0.00000000000E+00 0.  1.
          3   -1    0    0  501    0  0.00000000000E+00 -0.00000000000E+00 -0.20203440555E+03  0.20203440555E+03  0.00000000000E+00 0. -1.
         25    2    1    2    0    0  0.23122805995E+02  0.11364516779E+03 -0.16300955695E+02  0.17135679094E+03  0.12509012880E+03 0.  0.
          5    1    3    3  502    0  0.17175166847E+02  0.11922665732E+03 -0.54351673445E+02  0.13221784667E+03  0.41800000000E+01 0. -1.
         -5    1    3    3    0  502  0.59476391477E+01 -0.55814895281E+01  0.38050717750E+02  0.39138944264E+02  0.41800000000E+01 0. -1.
        -11    1    1    2    0    0 -0.30867082161E+02 -0.39336879966E+02 -0.66546780081E+02  0.83238457612E+02  0.00000000000E+00 0. -1.
         11    1    1    2    0    0  0.77442761659E+01 -0.74308287828E+02  0.85754632568E+01  0.75201290037E+02  0.00000000000E+00 0.  1.
</event>
<event>
 7    1  0.2844572E-009  0.4955841E+02  0.7561462E-02  0.1447738E+00
          1   -1    0    0  501    0  0.00000000000E+00  0.00000000000E+00  0.11280790669E+03  0.11280790669E+03  0.00000000000E+00 0. -1.
         -1   -1    0    0    0  501 -0.00000000000E+00 -0.00000000000E+00 -0.12463724861E+03  0.12463724861E+03  0.00000000000E+00 0.  1.
         25    2    1    2    0    0 -0.13780862468E+02 -0.42546683175E+02  0.11599729116E+02  0.13334828407E+03  0.12508828374E+03 0.  0.
          5    1    3    3  502    0 -0.82921984415E+01 -0.34979882633E+02 -0.55069392389E+02  0.65897368097E+02  0.41800000000E+01 0.  1.
         -5    1    3    3    0  502 -0.54886640268E+01 -0.75668005421E+01  0.66669121505E+02  0.67450915972E+02  0.41800000000E+01 0.  1.
        -11    1    1    2    0    0  0.22247602184E+02  0.27021494701E+02 -0.56575938161E+02  0.66527841973E+02  0.00000000000E+00 0.  1.
         11    1    1    2    0    0 -0.84667397153E+01  0.15525188474E+02  0.33146867131E+02  0.37569029255E+02  0.00000000000E+00 0. -1.
</event>
<event>
 7    1  0.3311286E-009  0.1161651E+03  0.7561462E-02  0.1249561E+00
         -2   -1    0    0    0  501 -0.00000000000E+00  0.00000000000E+00  0.22805290073E+02  0.22805290073E+02  0.00000000000E+00 0.  1.
          2   -1    0    0  501    0  0.00000000000E+00 -0.00000000000E+00 -0.95668565897E+03  0.95668565897E+03  0.00000000000E+00 0. -1.
         25    2    1    2    0    0 -0.50549320532E+02 -0.79453196610E+02 -0.39893117537E+03  0.42855795711E+03  0.12509114942E+03 0.  0.
          5    1    3    3  502    0 -0.65564656825E+01 -0.42117529199E+02 -0.23811254932E+02  0.49003283253E+02  0.41800000000E+01 0.  1.
         -5    1    3    3    0  502 -0.43992854850E+02 -0.37335667411E+02 -0.37511992043E+03  0.37955467386E+03  0.41800000000E+01 0.  1.
        -11    1    1    2    0    0  0.19926808629E+02 -0.19612081602E+02 -0.10528190316E+03  0.10893112769E+03  0.00000000000E+00 0.  1.
         11    1    1    2    0    0  0.30622511903E+02  0.99065278211E+02 -0.42966729036E+03  0.44200186424E+03  0.00000000000E+00 0. -1.
</event>
<event>
 7    1  0.2844572E-009  0.1129285E+03  0.7561462E-02  0.1255241E+00
         -2   -1    0    0    0  501 -0.00000000000E+00  0.00000000000E+00  0.38364688017E+02  0.38364688017E+02  0.00000000000E+00 0.  1.
          2   -1    0    0  501    0  0.00000000000E+00 -0.00000000000E+00 -0.44516339669E+03  0.44516339669E+03  0.00000000000E+00 0. -1.
         25    2    1    2    0    0  0.42495116380E+02 -0.68568579777E+01 -0.34040330510E+03  0.36520619104E+03  0.12509316703E+03 0.  0.
          5    1    3    3  502    0 -0.31057406599E+02 -0.38120858930E+02 -0.16866750647E+03  0.17573833540E+03  0.41800000000E+01 0. -1.
         -5    1    3    3    0  502  0.73552522980E+02  0.31264000952E+02 -0.17173579862E+03  0.18946785564E+03  0.41800000000E+01 0. -1.
        -11    1    1    2    0    0  0.13935316913E+02 -0.27203777619E+02 -0.11906346914E+02  0.32802433919E+02  0.00000000000E+00 0. -1.
         11    1    1    2    0    0 -0.56430433293E+02  0.34060635597E+02 -0.54489056665E+02  0.85519459745E+02  0.00000000000E+00 0.  1.
</event>
<event>
 7    1  0.2844572E-009  0.1798202E+03  0.7561462E-02  0.1167977E+00
          2   -1    0    0  501    0  0.00000000000E+00  0.00000000000E+00  0.87351844892E+03  0.87351844892E+03  0.00000000000E+00 0. -1.
         -2   -1    0    0    0  501 -0.00000000000E+00 -0.00000000000E+00 -0.83933502990E+02  0.83933502990E+02  0.00000000000E+00 0.  1.
         25    2    1    2    0    0  0.99562624663E+02 -0.11244743361E+03  0.56517775125E+02  0.20346833151E+03  0.12509181216E+03 0.  0.
          5    1    3    3  502    0  0.12304797778E+03 -0.85125186139E+02  0.18327887623E+02  0.15079948944E+03  0.41800000000E+01 0. -1.
         -5    1    3    3    0  502 -0.23485353117E+02 -0.27322247467E+02  0.38189887503E+02  0.52668842071E+02  0.41800000000E+01 0. -1.
        -11    1    1    2    0    0 -0.72496017616E+00  0.63302707374E+02  0.33321246232E+03  0.33917296970E+03  0.00000000000E+00 0. -1.
         11    1    1    2    0    0 -0.98837664487E+02  0.49144726232E+02  0.39985470848E+03  0.41481065070E+03  0.00000000000E+00 0.  1.
</event>
<event>
 7    1  0.2844572E-009  0.1076569E+03  0.7561462E-02  0.1264972E+00
          1   -1    0    0  501    0  0.00000000000E+00  0.00000000000E+00  0.22312840402E+03  0.22312840402E+03  0.00000000000E+00 0. -1.
         -1   -1    0    0    0  501 -0.00000000000E+00 -0.00000000000E+00 -0.13133415291E+03  0.13133415291E+03  0.00000000000E+00 0.  1.
         25    2    1    2    0    0 -0.46690698443E+02  0.85225962600E+02  0.13564003954E+03  0.20853931703E+03  0.12508773081E+03 0.  0.
          5    1    3    3  502    0 -0.27996109357E+02  0.60844217630E+02 -0.23113174431E+01  0.67146225109E+02  0.41800000000E+01 0. -1.
         -5    1    3    3    0  502 -0.18694589086E+02  0.24381744970E+02  0.13795135698E+03  0.14139309192E+03  0.41800000000E+01 0. -1.
        -11    1    1    2    0    0  0.63546185870E+02 -0.65647951210E+02 -0.65332450334E+02  0.11232141516E+03  0.00000000000E+00 0.  1.
         11    1    1    2    0    0 -0.16855487428E+02 -0.19578011390E+02  0.21486661900E+02  0.33601824742E+02  0.00000000000E+00 0. -1.
</event>
<event>
 7    1  0.2844572E-009  0.1456407E+03  0.7561462E-02  0.1205934E+00
         -3   -1    0    0    0  501 -0.00000000000E+00  0.00000000000E+00  0.53006531082E+02  0.53006531082E+02  0.00000000000E+00 0.  1.
          3   -1    0    0  501    0  0.00000000000E+00 -0.00000000000E+00 -0.45786765416E+03  0.45786765416E+03  0.00000000000E+00 0. -1.
         25    2    1    2    0    0 -0.20330545089E+02 -0.10890647770E+03 -0.18473622929E+03  0.24909967290E+03  0.12509684521E+03 0.  0.
          5    1    3    3  502    0 -0.65429908181E+02 -0.22123803519E+02 -0.74820454309E+02  0.10191225809E+03  0.41800000000E+01 0. -1.
         -5    1    3    3    0  502  0.45099363092E+02 -0.86782674181E+02 -0.10991577498E+03  0.14718741481E+03  0.41800000000E+01 0. -1.
        -11    1    1    2    0    0 -0.99960480161E+01  0.84980903166E+02 -0.82610247147E+02  0.11893749540E+03  0.00000000000E+00 0.  1.
         11    1    1    2    0    0  0.30326593105E+02  0.23925574533E+02 -0.13751464664E+03  0.14283701694E+03  0.00000000000E+00 0. -1.
</event>
<event>
 7    1  0.2844572E-009  0.1923088E+03  0.7561462E-02  0.1156395E+00
         -2   -1    0    0    0  501 -0.00000000000E+00  0.00000000000E+00  0.11517525329E+03  0.11517525329E+03  0.00000000000E+00 0.  1.
          2   -1    0    0  501    0  0.00000000000E+00 -0.00000000000E+00 -0.41814105502E+03  0.41814105502E+03  0.00000000000E+00 0. -1.
         25    2    1    2    0    0 -0.14278163432E+03 -0.12427956244E+03 -0.12192060675E+03  0.25757830432E+03  0.12509973528E+03 0.  0.
          5    1    3    3  502    0 -0.50976634613E+02 -0.74237003247E+02 -0.12352575991E+03  0.15292428090E+03  0.41800000000E+01 0. -1.
         -5    1    3    3    0  502 -0.91804999704E+02 -0.50042559192E+02  0.16051531561E+01  0.10465402342E+03  0.41800000000E+01 0. -1.
        -11    1    1    2    0    0  0.97038776491E+02  0.75478271078E+02 -0.16703514240E+03  0.20739872792E+03  0.00000000000E+00 0. -1.
         11    1    1    2    0    0  0.45742857825E+02  0.48801291361E+02 -0.14010052584E+02  0.68339276071E+02  0.00000000000E+00 0.  1.
</event>
<event>
 7    1  0.2844572E-009  0.8294527E+02  0.7561462E-02  0.1320895E+00
         -2   -1    0    0    0  501 -0.00000000000E+00  0.00000000000E+00  0.60964675517E+02  0.60964675517E+02  0.00000000000E+00 0.  1.
          2   -1    0    0  501    0  0.00000000000E+00 -0.00000000000E+00 -0.21885734263E+03  0.21885734263E+03  0.00000000000E+00 0. -1.
         25    2    1    2    0    0 -0.39674762158E+02 -0.12641590434E+01 -0.10822219825E+03  0.17010403528E+03  0.12509058228E+03 0.  0.
          5    1    3    3  502    0 -0.36537651763E+02 -0.39060244199E+02  0.17740533687E+01  0.53677950208E+02  0.41800000000E+01 0. -1.
         -5    1    3    3    0  502 -0.31371103949E+01  0.37796085155E+02 -0.10999625162E+03  0.11642608507E+03  0.41800000000E+01 0. -1.
        -11    1    1    2    0    0 -0.27106168867E+01 -0.24391033013E+02 -0.54665793342E+02  0.59921773146E+02  0.00000000000E+00 0. -1.
         11    1    1    2    0    0  0.42385379044E+02  0.25655192057E+02  0.49953244772E+01  0.49796209723E+02  0.00000000000E+00 0.  1.
</event>
<event>
 7    1  0.2882497E-009  0.1139627E+03  0.7561462E-02  0.1253403E+00
          1   -1    0    0  501    0  0.00000000000E+00  0.00000000000E+00  0.16649219050E+03  0.16649219050E+03  0.00000000000E+00 0. -1.
         -1   -1    0    0    0  501 -0.00000000000E+00 -0.00000000000E+00 -0.10657193706E+03  0.10657193706E+03  0.00000000000E+00 0.  1.
         25    2    1    2    0    0 -0.60379766616E+02 -0.45047000701E+02  0.17521677576E+02  0.14704603848E+03  0.12506230351E+03 0.  0.
          5    1    3    3  502    0  0.10160272979E+02  0.20405583835E+02 -0.31390888667E+02  0.39018960647E+02  0.41800000000E+01 0. -1.
         -5    1    3    3    0  502 -0.70540039595E+02 -0.65452584537E+02  0.48912566243E+02  0.10802707783E+03  0.41800000000E+01 0. -1.
        -11    1    1    2    0    0  0.10883654072E+02  0.56573084139E+02 -0.32557429287E+01  0.57702405816E+02  0.00000000000E+00 0.  1.
         11    1    1    2    0    0  0.49496112545E+02 -0.11526083438E+02  0.45654318794E+02  0.68315683272E+02  0.00000000000E+00 0. -1.
</event>
<event>
 7    1  0.2844572E-009  0.1290027E+03  0.7561462E-02  0.1228943E+00
          1   -1    0    0  501    0  0.00000000000E+00  0.00000000000E+00  0.16663048291E+04  0.16663048291E+04  0.00000000000E+00 0. -1.
         -1   -1    0    0    0  501 -0.00000000000E+00 -0.00000000000E+00 -0.11236663293E+02  0.11236663293E+02  0.00000000000E+00 0.  1.
         25    2    1    2    0    0  0.43957155531E+02  0.65697936336E+02  0.10772075086E+04  0.10873233561E+04  0.12509042316E+03 0.  0.
          5    1    3    3  502    0  0.64363750914E+02 -0.11939936766E+02  0.39698931152E+03  0.40237201739E+03  0.41800000000E+01 0. -1.
         -5    1    3    3    0  502 -0.20406595383E+02  0.77637873101E+02  0.68021819704E+03  0.68495133875E+03  0.41800000000E+01 0. -1.
        -11    1    1    2    0    0  0.71421582111E+01  0.14941050777E+02  0.31581429939E+02  0.35659951475E+02  0.00000000000E+00 0.  1.
         11    1    1    2    0    0 -0.51099313742E+02 -0.80638987112E+02  0.54627922733E+03  0.55455818479E+03  0.00000000000E+00 0. -1.
</event>
<event>
 7    1  0.2844572E-009  0.1517429E+03  0.7561462E-02  0.1198348E+00
         -2   -1    0    0    0  501 -0.00000000000E+00  0.00000000000E+00  0.49489384964E+03  0.49489384964E+03  0.00000000000E+00 0.  1.
          2   -1    0    0  501    0  0.00000000000E+00 -0.00000000000E+00 -0.59806651934E+02  0.59806651934E+02  0.00000000000E+00 0. -1.
         25    2    1    2    0    0 -0.50653207279E+01 -0.11739530895E+03  0.33343201566E+03  0.37500901966E+03  0.12509012639E+03 0.  0.
          5    1    3    3  502    0 -0.30496401238E+02 -0.12954278171E+03  0.31241125262E+03  0.33960215833E+03  0.41800000000E+01 0.  1.
         -5    1    3    3    0  502  0.25431080510E+02  0.12147472753E+02  0.21020763038E+02  0.35406861325E+02  0.41800000000E+01 0.  1.
        -11    1    1    2    0    0 -0.37255373468E+02  0.52814657597E+02  0.20813271772E+02  0.67900980782E+02  0.00000000000E+00 0. -1.
         11    1    1    2    0    0  0.42320694196E+02  0.64580651355E+02  0.80841910274E+02  0.11179050113E+03  0.00000000000E+00 0.  1.
</event>
<event>
 7    1  0.2844572E-009  0.1341038E+03  0.7561462E-02  0.1221490E+00
         -2   -1    0    0    0  501 -0.00000000000E+00  0.00000000000E+00  0.42068186785E+02  0.42068186785E+02  0.00000000000E+00 0.  1.
          2   -1    0    0  501    0  0.00000000000E+00 -0.00000000000E+00 -0.60146364112E+03  0.60146364112E+03  0.00000000000E+00 0. -1.
         25    2    1    2    0    0 -0.81209083085E+02 -0.52270941372E+02 -0.42402615676E+03  0.45251809699E+03  0.12508908826E+03 0.  0.
          5    1    3    3  502    0 -0.18170343679E+02  0.27246667809E+02 -0.26827097731E+02  0.42540661358E+02  0.41800000000E+01 0.  1.
         -5    1    3    3    0  502 -0.63038739406E+02 -0.79517609181E+02 -0.39719905902E+03  0.40997743563E+03  0.41800000000E+01 0.  1.
        -11    1    1    2    0    0  0.98065014527E+02  0.60132502825E+02 -0.12433972750E+03  0.16939017919E+03  0.00000000000E+00 0.  1.
         11    1    1    2    0    0 -0.16855931442E+02 -0.78615614528E+01 -0.11029570076E+02  0.21623551727E+02  0.00000000000E+00 0. -1.
</event>
<event>
 7    1  0.2844572E-009  0.9923505E+02  0.7561462E-02  0.1281913E+00
         -1   -1    0    0    0  501 -0.00000000000E+00  0.00000000000E+00  0.13010116987E+03  0.13010116987E+03  0.00000000000E+00 0.  1.
          1   -1    0    0  501    0  0.00000000000E+00 -0.00000000000E+00 -0.16343450768E+03  0.16343450768E+03  0.00000000000E+00 0. -1.
         25    2    1    2    0    0 -0.41331049803E+02  0.68854049211E+02  0.37234648924E+02  0.15323341312E+03  0.12507967079E+03 0.  0.
          5    1    3    3  502    0 -0.28408882754E+02  0.49486696170E+02  0.83529402739E+02  0.10124540108E+03  0.41800000000E+01 0.  1.
         -5    1    3    3    0  502 -0.12922167049E+02  0.19367353041E+02 -0.46294753815E+02  0.51988012040E+02  0.41800000000E+01 0.  1.
        -11    1    1    2    0    0  0.56671016550E+02 -0.10975328236E+02 -0.51784805013E+02  0.77548230005E+02  0.00000000000E+00 0.  1.
         11    1    1    2    0    0 -0.15339966747E+02 -0.57878720975E+02 -0.18783181720E+02  0.62754034428E+02  0.00000000000E+00 0. -1.
</event>
<event>
 7    1  0.2844572E-009  0.7934577E+02  0.7561462E-02  0.1330918E+00
         -1   -1    0    0    0  501 -0.00000000000E+00  0.00000000000E+00  0.43461430906E+02  0.43461430906E+02  0.00000000000E+00 0.  1.
          1   -1    0    0  501    0  0.00000000000E+00 -0.00000000000E+00 -0.53024870683E+03  0.53024870683E+03  0.00000000000E+00 0. -1.
         25    2    1    2    0    0 -0.11132371480E+00 -0.32185448535E+02 -0.45236830704E+03  0.47044760419E+03  0.12509175668E+03 0.  0.
          5    1    3    3  502    0 -0.48976794149E+02  0.74444010216E+01 -0.91706117592E+02  0.10431505105E+03  0.41800000000E+01 0. -1.
         -5    1    3    3    0  502  0.48865470434E+02 -0.39629849557E+02 -0.36066218944E+03  0.36613255314E+03  0.41800000000E+01 0. -1.
        -11    1    1    2    0    0  0.16149630699E+02  0.11890589340E+02  0.28720708902E+02  0.35029641825E+02  0.00000000000E+00 0.  1.
         11    1    1    2    0    0 -0.16038306984E+02  0.20294859196E+02 -0.63139677786E+02  0.68232891714E+02  0.00000000000E+00 0. -1.
</event>
<event>
 7    1  0.2844572E-009  0.1252011E+03  0.7561462E-02  0.1234755E+00
          1   -1    0    0  501    0  0.00000000000E+00  0.00000000000E+00  0.69642659031E+02  0.69642659031E+02  0.00000000000E+00 0. -1.
         -1   -1    0    0    0  501 -0.00000000000E+00 -0.00000000000E+00 -0.44567197120E+03  0.44567197120E+03  0.00000000000E+00 0.  1.
         25    2    1    2    0    0  0.66475044676E+02 -0.56221767723E+02 -0.35538568120E+03  0.38668682765E+03  0.12509157264E+03 0.  0.
          5    1    3    3  502    0  0.74067735762E+02  0.60840951667E+01 -0.10622854044E+03  0.12971129827E+03  0.41800000000E+01 0.  1.
         -5    1    3    3    0  502 -0.75926910857E+01 -0.62305862889E+02 -0.24915714076E+03  0.25697552938E+03  0.41800000000E+01 0.  1.
        -11    1    1    2    0    0 -0.74531497815E+02  0.21720082618E+02  0.14217431649E+02  0.78923010068E+02  0.00000000000E+00 0. -1.
         11    1    1    2    0    0  0.80564531387E+01  0.34501685104E+02 -0.34861062622E+02  0.49704792519E+02  0.00000000000E+00 0.  1.
</event>
<event>
 7    1  0.2844572E-009  0.8201842E+02  0.7561462E-02  0.1323419E+00
         -1   -1    0    0    0  501 -0.00000000000E+00  0.00000000000E+00  0.20374315405E+03  0.20374315405E+03  0.00000000000E+00 0.  1.
          1   -1    0    0  501    0  0.00000000000E+00 -0.00000000000E+00 -0.66336203669E+02  0.66336203669E+02  0.00000000000E+00 0. -1.
         25    2    1    2    0    0 -0.23949943064E+01  0.15563130003E+02  0.12541735887E+03  0.17782929519E+03  0.12508316158E+03 0.  0.
          5    1    3    3  502    0  0.42749222083E+02  0.39046927785E+02  0.21239654903E+02  0.61812247156E+02  0.41800000000E+01 0.  1.
         -5    1    3    3    0  502 -0.45144216389E+02 -0.23483797781E+02  0.10417770396E+03  0.11601704803E+03  0.41800000000E+01 0.  1.
        -11    1    1    2    0    0  0.23279792901E+02 -0.23033839457E+02 -0.30223578005E+02  0.44564236615E+02  0.00000000000E+00 0. -1.
         11    1    1    2    0    0 -0.20884798594E+02  0.74707094534E+01  0.42213169520E+02  0.47685825913E+02  0.00000000000E+00 0.  1.
</event>
<event>
 7    1  0.2844572E-009  0.8368838E+02  0.7561462E-02  0.1318899E+00
         -2   -1    0    0    0  501 -0.00000000000E+00  0.00000000000E+00  0.46069750786E+02  0.46069750786E+02  0.00000000000E+00 0.  1.
          2   -1    0    0  501    0  0.00000000000E+00 -0.00000000000E+00 -0.30996973011E+03  0.30996973011E+03  0.00000000000E+00 0. -1.
         25    2    1    2    0    0 -0.37035224810E+02 -0.99570910690E+01 -0.10210190764E+03  0.16595677402E+03  0.12508437057E+03 0.  0.
          5    1    3    3  502    0  0.27057757195E+02  0.23135804217E+01 -0.96489811478E+02  0.10032562483E+03  0.41800000000E+01 0.  1.
         -5    1    3    3    0  502 -0.64092982004E+02 -0.12270671491E+02 -0.56120961626E+01  0.65631149193E+02  0.41800000000E+01 0.  1.
        -11    1    1    2    0    0  0.49149591708E+02 -0.10942442647E+02 -0.15774723197E+03  0.16558867296E+03  0.00000000000E+00 0. -1.
         11    1    1    2    0    0 -0.12114366898E+02  0.20899533716E+02 -0.40508397046E+01  0.24494033910E+02  0.00000000000E+00 0.  1.
</event>
<event>
 7    1  0.2844572E-009  0.1127641E+03  0.7561462E-02  0.1255535E+00
          2   -1    0    0  501    0  0.00000000000E+00  0.00000000000E+00  0.62200938086E+03  0.62200938086E+03  0.00000000000E+00 0. -1.
         -2   -1    0    0    0  501 -0.00000000000E+00 -0.00000000000E+00 -0.27257107038E+02  0.27257107038E+02  0.00000000000E+00 0.  1.
         25    2    1    2    0    0  0.21369679850E+01 -0.56953132401E+02  0.43471248980E+03  0.45593579422E+03  0.12511704015E+03 0.  0.
          5    1    3    3  502    0 -0.24146741224E+02 -0.86245451537E+02  0.36421771285E+03  0.37509113263E+03  0.41800000000E+01 0. -1.
         -5    1    3    3    0  502  0.26283709209E+02  0.29292319136E+02  0.70494776956E+02  0.80844661594E+02  0.41800000000E+01 0. -1.
        -11    1    1    2    0    0  0.27388324420E+02  0.60639004523E+02  0.62258779572E+02  0.91122800757E+02  0.00000000000E+00 0.  1.
         11    1    1    2    0    0 -0.29525292405E+02 -0.36858721219E+01  0.97781004442E+02  0.10220789292E+03  0.00000000000E+00 0. -1.
</event>
<event>
 7    1  0.2844572E-009  0.1088830E+03  0.7561462E-02  0.1262652E+00
         -2   -1    0    0    0  501 -0.00000000000E+00  0.00000000000E+00  0.34219251543E+02  0.34219251543E+02  0.00000000000E+00 0.  1.
          2   -1    0    0  501    0  0.00000000000E+00 -0.00000000000E+00 -0.45780028050E+03  0.45780028050E+03  0.00000000000E+00 0. -1.
         25    2    1    2    0    0  0.54594933951E+02 -0.39225055127E+02 -0.22251969811E+03  0.26397392758E+03  0.12509199268E+03 0.  0.
          5    1    3    3  502    0 -0.12039491083E+02 -0.41810026081E+02 -0.17894327613E+03  0.18420422389E+03  0.41800000000E+01 0.  1.
         -5    1    3    3    0  502  0.66634425034E+02  0.25849709543E+01 -0.43576421975E+02  0.79769703689E+02  0.41800000000E+01 0.  1.
        -11    1    1    2    0    0 -0.69416564366E+02  0.45899936612E+01 -0.12126442084E+03  0.13980267240E+03  0.00000000000E+00 0. -1.
         11    1    1    2    0    0  0.14821630416E+02  0.34635061465E+02 -0.79796910012E+02  0.88242932059E+02  0.00000000000E+00 0.  1.
</event>
<event>
 7    1  0.2844572E-009  0.1181526E+03  0.7561462E-02  0.1246176E+00
         -1   -1    0    0    0  501 -0.00000000000E+00  0.00000000000E+00  0.47142564246E+03  0.47142564246E+03  0.00000000000E+00 0.  1.
          1   -1    0    0  501    0  0.00000000000E+00 -0.00000000000E+00 -0.39533496365E+02  0.39533496365E+02  0.00000000000E+00 0. -1.
         25    2    1    2    0    0 -0.76976124911E+02 -0.24742918933E+02  0.20269837722E+03  0.25153979292E+03  0.12509236367E+03 0.  0.
          5    1    3    3  502    0 -0.10474208081E+03 -0.96279943587E+01  0.19000760470E+03  0.21721870088E+03  0.41800000000E+01 0.  1.
         -5    1    3    3    0  502  0.27765955896E+02 -0.15114924574E+02  0.12690772523E+02  0.34321092041E+02  0.41800000000E+01 0.  1.
        -11    1    1    2    0    0  0.82516091181E+02  0.33278701824E+02  0.23231922374E+03  0.24877419283E+03  0.00000000000E+00 0.  1.
         11    1    1    2    0    0 -0.55399662701E+01 -0.85357828916E+01 -0.31254548690E+01  0.10645153075E+02  0.00000000000E+00 0. -1.
</event>
<event>
 7    1  0.2844572E-009  0.1907587E+03  0.7561462E-02  0.1157779E+00
         -2   -1    0    0    0  501 -0.00000000000E+00  0.00000000000E+00  0.27815687144E+03  0.27815687144E+03  0.00000000000E+00 0.  1.
          2   -1    0    0  501    0  0.00000000000E+00 -0.00000000000E+00 -0.16219498014E+03  0.16219498014E+03  0.00000000000E+00 0. -1.
         25    2    1    2    0    0  0.11835063396E+03 -0.13287445319E+03  0.96342515584E+02  0.23789147991E+03  0.12509189836E+03 0.  0.
          5    1    3    3  502    0  0.66082028865E+02 -0.54098896446E+02  0.11310444786E+03  0.14178721261E+03  0.41800000000E+01 0.  1.
         -5    1    3    3    0  502  0.52268605092E+02 -0.78775556744E+02 -0.16761932272E+02  0.96104267294E+02  0.41800000000E+01 0.  1.
        -11    1    1    2    0    0 -0.20720337825E+02 -0.14008925950E+02  0.48070140827E+01  0.25469389279E+02  0.00000000000E+00 0. -1.
         11    1    1    2    0    0 -0.97630296132E+02  0.14688337914E+03  0.14812361636E+02  0.17699098239E+03  0.00000000000E+00 0.  1.
</event>
<event>
 7    1  0.2844572E-009  0.1043758E+03  0.7561462E-02  0.1271354E+00
         -1   -1    0    0    0  501 -0.00000000000E+00  0.00000000000E+00  0.20175030595E+02  0.20175030595E+02  0.00000000000E+00 0. -1.
          1   -1    0    0  501    0  0.00000000000E+00 -0.00000000000E+00 -0.83146488516E+03  0.83146488516E+03  0.00000000000E+00 0.  1.
         25    2    1    2    0    0  0.45770533712E+02  0.56148724606E+02 -0.46662498618E+03  0.48850098891E+03  0.12508683948E+03 0.  0.
          5    1    3    3  502    0  0.41003659098E+02 -0.71055508594E+01 -0.42463529564E+02  0.59602119556E+02  0.41800000000E+01 0.  1.
         -5    1    3    3    0  502  0.47668746142E+01  0.63254275465E+02 -0.42416145661E+03  0.42889886935E+03  0.41800000000E+01 0.  1.
        -11    1    1    2    0    0 -0.64106810513E+02 -0.28445336502E+02 -0.29613670251E+03  0.30432838661E+03  0.00000000000E+00 0.  1.
         11    1    1    2    0    0  0.18336276800E+02 -0.27703388104E+02 -0.48528165881E+02  0.58810540238E+02  0.00000000000E+00 0. -1.
</event>
<event>
 7    1  0.2844572E-009  0.1187067E+03  0.7561462E-02  0.1245246E+00
         -2   -1    0    0    0  501 -0.00000000000E+00  0.00000000000E+00  0.93753374558E+02  0.93753374558E+02  0.00000000000E+00 0.  1.
          2   -1    0    0  501    0  0.00000000000E+00 -0.00000000000E+00 -0.16285714493E+03  0.16285714493E+03  0.00000000000E+00 0. -1.
         25    2    1    2    0    0 -0.41544063183E+02 -0.35393626439E+02 -0.15447627908E+02  0.13734466378E+03  0.12508520889E+03 0.  0.
          5    1    3    3  502    0 -0.25238090086E+02  0.46101355325E+02 -0.87350109150E-01  0.52723582807E+02  0.41800000000E+01 0. -1.
         -5    1    3    3    0  502 -0.16305973096E+02 -0.81494981764E+02 -0.15360277799E+02  0.84621080975E+02  0.41800000000E+01 0. -1.
        -11    1    1    2    0    0 -0.26692071189E+02  0.72226836568E+01 -0.32084295533E+02  0.42356060291E+02  0.00000000000E+00 0. -1.
         11    1    1    2    0    0  0.68236134371E+02  0.28170942782E+02 -0.21571846935E+02  0.76909795419E+02  0.00000000000E+00 0.  1.
</event>
<event>
 7    1  0.2844572E-009  0.1133333E+03  0.7561462E-02  0.1254519E+00
          4   -1    0    0  501    0  0.00000000000E+00  0.00000000000E+00  0.29816645402E+02  0.29816645402E+02  0.00000000000E+00 0. -1.
         -4   -1    0    0    0  501 -0.00000000000E+00 -0.00000000000E+00 -0.59716546348E+03  0.59716546348E+03  0.00000000000E+00 0.  1.
         25    2    1    2    0    0  0.38704699429E+02  0.29141979951E+02 -0.45195109998E+03  0.47143726119E+03  0.12508391471E+03 0.  0.
          5    1    3    3  502    0  0.79831696685E+02  0.10862223475E+02 -0.36061149757E+03  0.36952565848E+03  0.41800000000E+01 0. -1.
         -5    1    3    3    0  502 -0.41126997256E+02  0.18279756476E+02 -0.91339602411E+02  0.10191160272E+03  0.41800000000E+01 0. -1.
        -11    1    1    2    0    0 -0.59406407719E+02 -0.45154271633E+02 -0.65896527509E+02  0.99550900862E+02  0.00000000000E+00 0. -1.
         11    1    1    2    0    0  0.20701708290E+02  0.16012291682E+02 -0.49501190590E+02  0.55993946823E+02  0.00000000000E+00 0.  1.
</event>
<event>
 7    1  0.2844572E-009  0.1543257E+03  0.7561462E-02  0.1195256E+00
          1   -1    0    0  501    0  0.00000000000E+00  0.00000000000E+00  0.13965388954E+03  0.13965388954E+03  0.00000000000E+00 0. -1.
         -1   -1    0    0    0  501 -0.00000000000E+00 -0.00000000000E+00 -0.24903624869E+03  0.24903624869E+03  0.00000000000E+00 0.  1.
         25    2    1    2    0    0  0.40986786610E+02  0.12172807942E+03 -0.14255115453E+03  0.22906141377E+03  0.12510258839E+03 0.  0.
          5    1    3    3  502    0  0.14806026632E+02  0.14145779162E+03 -0.13272406310E+03  0.19458333577E+03  0.41800000000E+01 0. -1.
         -5    1    3    3    0  502  0.26180759978E+02 -0.19729712197E+02 -0.98270914299E+01  0.34478077997E+02  0.41800000000E+01 0. -1.
        -11    1    1    2    0    0  0.45300439374E+01 -0.35680644120E+02  0.49229112685E+02  0.60968313071E+02  0.00000000000E+00 0. -1.
         11    1    1    2    0    0 -0.45516830547E+02 -0.86047435299E+02 -0.16060317305E+02  0.98660411395E+02  0.00000000000E+00 0.  1.
</event>
<event>
 7    1  0.2844572E-009  0.9081280E+02  0.7561462E-02  0.1300895E+00
         -1   -1    0    0    0  501 -0.00000000000E+00  0.00000000000E+00  0.14122962200E+02  0.14122962200E+02  0.00000000000E+00 0.  1.
          1   -1    0    0  501    0  0.00000000000E+00 -0.00000000000E+00 -0.10536628523E+04  0.10536628523E+04  0.00000000000E+00 0. -1.
         25    2    1    2    0    0  0.23193995741E+02 -0.40537149916E+02 -0.81352304726E+03  0.82440828009E+03  0.12509213361E+03 0.  0.
          5    1    3    3  502    0  0.26892932753E+01  0.28533626258E+02 -0.56172965827E+03  0.56247584971E+03  0.41800000000E+01 0. -1.
         -5    1    3    3    0  502  0.20504702465E+02 -0.69070776174E+02 -0.25179338899E+03  0.26193243038E+03  0.41800000000E+01 0. -1.
        -11    1    1    2    0    0  0.17567743533E+02  0.35253577266E+02 -0.56013493359E+02  0.68475921032E+02  0.00000000000E+00 0.  1.
         11    1    1    2    0    0 -0.40761739274E+02  0.52835726498E+01 -0.17000334948E+03  0.17490161338E+03  0.00000000000E+00 0. -1.
</event>
<event>
 7    1  0.2844572E-009  0.1214871E+03  0.7561462E-02  0.1240664E+00
          2   -1    0    0  501    0  0.00000000000E+00  0.00000000000E+00  0.86628339707E+03  0.86628339707E+03  0.00000000000E+00 0. -1.
         -2   -1    0    0    0  501 -0.00000000000E+00 -0.00000000000E+00 -0.17631783023E+02  0.17631783023E+02  0.00000000000E+00 0.  1.
         25    2    1    2    0    0 -0.51317168195E+02  0.18037390303E+02  0.53084337093E+03  0.54808886911E+03  0.12509166553E+03 0.  0.
          5    1    3    3  502    0 -0.22796468000E+02 -0.53240432592E+02  0.26872193198E+03  0.27492393811E+03  0.41800000000E+01 0.  1.
         -5    1    3    3    0  502 -0.28520700195E+02  0.71277822895E+02  0.26212143895E+03  0.27316493101E+03  0.41800000000E+01 0.  1.
        -11    1    1    2    0    0 -0.26201018832E+02  0.59677109053E+01  0.93749719783E+02  0.97524955374E+02  0.00000000000E+00 0.  1.
         11    1    1    2    0    0  0.77518187027E+02 -0.24005101209E+02  0.22405852334E+03  0.23830135561E+03  0.00000000000E+00 0. -1.
</event>
<event>
 7    1  0.2844572E-009  0.1128141E+03  0.7561462E-02  0.1255446E+00
         -3   -1    0    0    0  501 -0.00000000000E+00  0.00000000000E+00  0.26273779958E+03  0.26273779958E+03  0.00000000000E+00 0.  1.
          3   -1    0    0  501    0  0.00000000000E+00 -0.00000000000E+00 -0.51411779340E+02  0.51411779340E+02  0.00000000000E+00 0. -1.
         25    2    1    2    0    0 -0.40356306496E+02  0.31100989298E+01  0.13241221288E+03  0.18659874602E+03  0.12509114160E+03 0.  0.
          5    1    3    3  502    0  0.28897183200E+02 -0.36776699828E+02  0.73521117638E+02  0.87237606489E+02  0.41800000000E+01 0.  1.
         -5    1    3    3    0  502 -0.69253489696E+02  0.39886798758E+02  0.58891095242E+02  0.99361139532E+02  0.41800000000E+01 0.  1.
        -11    1    1    2    0    0 -0.38081953462E+01  0.38068677691E+02  0.19926122467E+02  0.43136723676E+02  0.00000000000E+00 0.  1.
         11    1    1    2    0    0  0.44164501842E+02 -0.41178776621E+02  0.58987684894E+02  0.84414109224E+02  0.00000000000E+00 0. -1.
</event>
<event>
 7    1  0.2844572E-009  0.1011982E+03  0.7561462E-02  0.1277796E+00
          1   -1    0    0  501    0  0.00000000000E+00  0.00000000000E+00  0.25635067825E+03  0.25635067825E+03  0.00000000000E+00 0. -1.
         -1   -1    0    0    0  501 -0.00000000000E+00 -0.00000000000E+00 -0.66958913289E+02  0.66958913289E+02  0.00000000000E+00 0.  1.
         25    2    1    2    0    0  0.41551763861E+02 -0.51568245306E+02  0.67100557961E+02  0.15664047444E+03  0.12509164780E+03 0.  0.
          5    1    3    3  502    0 -0.18668898389E+02 -0.13584307339E+02 -0.28786090681E+02  0.37137213003E+02  0.41800000000E+01 0.  1.
         -5    1    3    3    0  502  0.60220662250E+02 -0.37983937967E+02  0.95886648642E+02  0.11950326143E+03  0.41800000000E+01 0.  1.
        -11    1    1    2    0    0 -0.62688040755E+02  0.13584696644E+02  0.46242497065E+02  0.79074034748E+02  0.00000000000E+00 0.  1.
         11    1    1    2    0    0  0.21136276893E+02  0.37983548662E+02  0.76048709933E+02  0.87595082352E+02  0.00000000000E+00 0. -1.
</event>
<event>
 7    1  0.2844572E-009  0.1521997E+03  0.7561462E-02  0.1197796E+00
         -2   -1    0    0    0  501 -0.00000000000E+00  0.00000000000E+00  0.21370534672E+02  0.21370534672E+02  0.00000000000E+00 0.  1.
          2   -1    0    0  501    0  0.00000000000E+00 -0.00000000000E+00 -0.11023895610E+04  0.11023895610E+04  0.00000000000E+00 0. -1.
         25    2    1    2    0    0  0.74449663146E+02  0.78283363437E+02 -0.61045741352E+03  0.63243716807E+03  0.12508988969E+03 0.  0.
          5    1    3    3  502    0  0.10968117361E+03  0.59398356468E+02 -0.44514383968E+03  0.46230794391E+03  0.41800000000E+01 0. -1.
         -5    1    3    3    0  502 -0.35231510468E+02  0.18885006968E+02 -0.16531357383E+03  0.17012922415E+03  0.41800000000E+01 0. -1.
        -11    1    1    2    0    0 -0.62449105828E+02 -0.98069241234E+02 -0.41850628062E+03  0.43435581476E+03  0.00000000000E+00 0. -1.
         11    1    1    2    0    0 -0.12000557318E+02  0.19785877797E+02 -0.52055332153E+02  0.56967112809E+02  0.00000000000E+00 0.  1.
</event>
<event>
 7    1  0.2844572E-009  0.1094196E+03  0.7561462E-02  0.1261648E+00
          2   -1    0    0  501    0  0.00000000000E+00  0.00000000000E+00  0.36343006837E+03  0.36343006837E+03  0.00000000000E+00 0. -1.
         -2   -1    0    0    0  501 -0.00000000000E+00 -0.00000000000E+00 -0.64720585884E+02  0.64720585884E+02  0.00000000000E+00 0.  1.
         25    2    1    2    0    0 -0.63732483548E+02 -0.40212088861E+02  0.26735415427E+03  0.30463790561E+03  0.12508864128E+03 0.  0.
          5    1    3    3  502    0 -0.41953399102E+02 -0.83520941788E+02  0.14077681099E+03  0.16903082064E+03  0.41800000000E+01 0. -1.
         -5    1    3    3    0  502 -0.21779084447E+02  0.43308852927E+02  0.12657734329E+03  0.13560708497E+03  0.41800000000E+01 0. -1.
        -11    1    1    2    0    0  0.42991328872E+02  0.34465650701E+02 -0.26966827820E+02  0.61346110220E+02  0.00000000000E+00 0.  1.
         11    1    1    2    0    0  0.20741154676E+02  0.57464381598E+01  0.58322156034E+02  0.62166638427E+02  0.00000000000E+00 0. -1.
</event>
<event>
 7    1  0.2844572E-009  0.1093467E+03  0.7561462E-02  0.1261784E+00
         -2   -1    0    0    0  501 -0.00000000000E+00  0.00000000000E+00  0.11396322835E+03  0.11396322835E+03  0.00000000000E+00 0.  1.
          2   -1    0    0  501    0  0.00000000000E+00 -0.00000000000E+00 -0.26406761827E+03  0.26406761827E+03  0.00000000000E+00 0. -1.
         25    2    1    2    0    0  0.12024656062E+02  0.82136115366E+02  0.35538210689E+02  0.15427718316E+03  0.12509017157E+03 0.  0.
          5    1    3    3  502    0  0.40838115412E+02  0.86682317001E+02  0.62383327920E+02  0.11441471826E+03  0.41800000000E+01 0.  1.
         -5    1    3    3    0  502 -0.28813459350E+02 -0.45462016355E+01 -0.26845117231E+02  0.39862464903E+02  0.41800000000E+01 0.  1.
        -11    1    1    2    0    0 -0.27513154602E+02 -0.41165073146E+02 -0.17028676235E+03  0.17733899277E+03  0.00000000000E+00 0. -1.
         11    1    1    2    0    0  0.15488498540E+02 -0.40971042220E+02 -0.15355838253E+02  0.46414670699E+02  0.00000000000E+00 0.  1.
</event>
<event>
 7    1  0.2844572E-009  0.1737560E+03  0.7561462E-02  0.1173987E+00
         -2   -1    0    0    0  501 -0.00000000000E+00  0.00000000000E+00  0.41402990152E+03  0.41402990152E+03  0.00000000000E+00 0.  1.
          2   -1    0    0  501    0  0.00000000000E+00 -0.00000000000E+00 -0.12142879794E+03  0.12142879794E+03  0.00000000000E+00 0. -1.
         25    2    1    2    0    0  0.78401360969E+01  0.14457602009E+03 -0.55353634917E+01  0.19142075293E+03  0.12509025175E+03 0.  0.
          5    1    3    3  502    0  0.13480346602E+01 -0.22657578866E+02 -0.66039872297E+01  0.24005585284E+02  0.41800000000E+01 0.  1.
         -5    1    3    3    0  502  0.64921014367E+01  0.16723359896E+03  0.10686237380E+01  0.16741516765E+03  0.41800000000E+01 0.  1.
        -11    1    1    2    0    0 -0.34547469964E+02 -0.82935957826E+02  0.23602678529E+03  0.25254810266E+03  0.00000000000E+00 0. -1.
         11    1    1    2    0    0  0.26707333868E+02 -0.61640062268E+02  0.62109681783E+02  0.91489843862E+02  0.00000000000E+00 0.  1.
</event>
<event>
 7    1  0.2844572E-009  0.1222268E+03  0.7561462E-02  0.1239468E+00
         -2   -1    0    0    0  501 -0.00000000000E+00  0.00000000000E+00  0.49924707694E+02  0.49924707694E+02  0.00000000000E+00 0.  1.
          2   -1    0    0  501    0  0.00000000000E+00 -0.00000000000E+00 -0.39261271951E+03  0.39261271951E+03  0.00000000000E+00 0. -1.
         25    2    1    2    0    0 -0.41391748021E+02  0.71593646816E+02 -0.13400929758E+03  0.20111466070E+03  0.12509871240E+03 0.  0.
          5    1    3    3  502    0  0.14548206846E+01 -0.27767253155E+02 -0.69733789908E+02  0.75189166148E+02  0.41800000000E+01 0.  1.
         -5    1    3    3    0  502 -0.42846568705E+02  0.99360899972E+02 -0.64275507668E+02  0.12592549456E+03  0.41800000000E+01 0.  1.
        -11    1    1    2    0    0  0.26045808211E+02 -0.84233576952E+02 -0.11107326205E+03  0.14181307822E+03  0.00000000000E+00 0.  1.
         11    1    1    2    0    0  0.15345939810E+02  0.12639930135E+02 -0.97605452192E+02  0.99609688284E+02  0.00000000000E+00 0. -1.
</event>
<event>
 7    1  0.2844572E-009  0.4067997E+03  0.7561462E-02  0.1041450E+00
          2   -1    0    0  501    0  0.00000000000E+00  0.00000000000E+00  0.20399723143E+04  0.20399723143E+04  0.00000000000E+00 0.  1.
         -2   -1    0    0    0  501 -0.00000000000E+00 -0.00000000000E+00 -0.98200546797E+02  0.98200546797E+02  0.00000000000E+00 0. -1.
         25    2    1    2    0    0 -0.28010326251E+03 -0.27489688376E+03  0.53532826871E+03  0.67546245987E+03  0.12508814912E+03 0.  0.
          5    1    3    3  502    0 -0.24102106395E+03 -0.28302790463E+03  0.48207055734E+03  0.60877372046E+03  0.41800000000E+01 0.  1.
         -5    1    3    3    0  502 -0.39082198552E+02  0.81310208693E+01  0.53257711363E+02  0.66688739407E+02  0.41800000000E+01 0.  1.
        -11    1    1    2    0    0  0.18131683597E+03  0.23081566687E+03  0.10421838401E+04  0.10827274928E+04  0.00000000000E+00 0.  1.
         11    1    1    2    0    0  0.98786426540E+02  0.44081216899E+02  0.36425965871E+03  0.37998290845E+03  0.00000000000E+00 0. -1.
</event>
<event>
 7    1  0.2844572E-009  0.7285629E+02  0.7561462E-02  0.1350641E+00
          2   -1    0    0  501    0  0.00000000000E+00  0.00000000000E+00  0.55696995026E+02  0.55696995026E+02  0.00000000000E+00 0. -1.
         -2   -1    0    0    0  501 -0.00000000000E+00 -0.00000000000E+00 -0.27639984366E+03  0.27639984366E+03  0.00000000000E+00 0.  1.
         25    2    1    2    0    0 -0.51240167525E+02  0.21953127690E+02 -0.14670240448E+03  0.20069102488E+03  0.12509115638E+03 0.  0.
          5    1    3    3  502    0 -0.52054575578E+02  0.17547012722E+02 -0.16890284870E+03  0.17766040975E+03  0.41800000000E+01 0.  1.
         -5    1    3    3    0  502  0.81440805374E+00  0.44061149677E+01  0.22200444220E+02  0.23030615128E+02  0.41800000000E+01 0.  1.
        -11    1    1    2    0    0  0.26069319022E+02 -0.43927252730E+02 -0.82404430094E+02  0.96952065609E+02  0.00000000000E+00 0.  1.
         11    1    1    2    0    0  0.25170848502E+02  0.21974125040E+02  0.84039859354E+01  0.34453748203E+02  0.00000000000E+00 0. -1.
</event>
<event>
 7    1  0.2844572E-009  0.7938315E+02  0.7561462E-02  0.1330811E+00
          1   -1    0    0  501    0  0.00000000000E+00  0.00000000000E+00  0.31267720191E+03  0.31267720191E+03  0.00000000000E+00 0. -1.
         -1   -1    0    0    0  501 -0.00000000000E+00 -0.00000000000E+00 -0.24477530809E+02  0.24477530809E+02  0.00000000000E+00 0.  1.
         25    2    1    2    0    0  0.11211130582E+02  0.18700219768E+00  0.20198833004E+03  0.23784859658E+03  0.12508774922E+03 0.  0.
          5    1    3    3  502    0 -0.40056795158E+02  0.42509385057E+02  0.84844148737E+02  0.10309023538E+03  0.41800000000E+01 0. -1.
         -5    1    3    3    0  502  0.51267925740E+02 -0.42322382859E+02  0.11714418130E+03  0.13475836120E+03  0.41800000000E+01 0. -1.
        -11    1    1    2    0    0 -0.19662619862E+01 -0.15546151548E+02  0.54679564445E+01  0.16596612963E+02  0.00000000000E+00 0.  1.
         11    1    1    2    0    0 -0.92448685957E+01  0.15359149350E+02  0.80743384621E+02  0.82709523177E+02  0.00000000000E+00 0. -1.
</event>
<event>
 7    1  0.2844572E-009  0.1799216E+03  0.7561462E-02  0.1167879E+00
          2   -1    0    0  501    0  0.00000000000E+00  0.00000000000E+00  0.38343568340E+03  0.38343568340E+03  0.00000000000E+00 0.  1.
         -2   -1    0    0    0  501 -0.00000000000E+00 -0.00000000000E+00 -0.91879803725E+02  0.91879803725E+02  0.00000000000E+00 0. -1.
         25    2    1    2    0    0  0.64282764519E+02  0.13572542776E+03  0.18770090887E+03  0.27098568002E+03  0.12509173446E+03 0.  0.
          5    1    3    3  502    0  0.30692394760E+02 -0.11766589368E+02  0.46129136067E+01  0.33454851567E+02  0.41800000000E+01 0. -1.
         -5    1    3    3    0  502  0.33590369759E+02  0.14749201713E+03  0.18308799526E+03  0.23753082845E+03  0.41800000000E+01 0. -1.
        -11    1    1    2    0    0 -0.25413979246E+02  0.78809261939E+01  0.99970886191E+01  0.28423953273E+02  0.00000000000E+00 0. -1.
         11    1    1    2    0    0 -0.38868785272E+02 -0.14360635395E+03  0.93857882192E+02  0.17590585384E+03  0.00000000000E+00 0.  1.
</event>
<event>
 7    1  0.2844572E-009  0.9210628E+02  0.7561462E-02  0.1297830E+00
          2   -1    0    0  501    0  0.00000000000E+00  0.00000000000E+00  0.55688950583E+03  0.55688950583E+03  0.00000000000E+00 0. -1.
         -2   -1    0    0    0  501 -0.00000000000E+00 -0.00000000000E+00 -0.22100651274E+02  0.22100651274E+02  0.00000000000E+00 0.  1.
         25    2    1    2    0    0  0.13900046699E+02  0.18540330207E+02  0.31615253306E+03  0.34078830052E+03  0.12508911411E+03 0.  0.
          5    1    3    3  502    0  0.47156514287E+02 -0.95314578389E+01  0.27977706760E+03  0.28391418683E+03  0.41800000000E+01 0.  1.
         -5    1    3    3    0  502 -0.33256467588E+02  0.28071788046E+02  0.36375465453E+02  0.56874113685E+02  0.41800000000E+01 0.  1.
        -11    1    1    2    0    0 -0.37818971597E+02  0.23001737664E+02  0.13150314256E+03  0.13875312988E+03  0.00000000000E+00 0. -1.
         11    1    1    2    0    0  0.23918924898E+02 -0.41542067871E+02  0.87133178936E+02  0.99448726703E+02  0.00000000000E+00 0.  1.
</event>
<event>
 7    1  0.2844572E-009  0.1226342E+03  0.7561462E-02  0.1238814E+00
         -2   -1    0    0    0  501 -0.00000000000E+00  0.00000000000E+00  0.35224287462E+03  0.35224287462E+03  0.00000000000E+00 0.  1.
          2   -1    0    0  501    0  0.00000000000E+00 -0.00000000000E+00 -0.63156872924E+02  0.63156872924E+02  0.00000000000E+00 0. -1.
         25    2    1    2    0    0  0.66720204444E+02  0.42694820864E+02  0.67447314712E+02  0.16269839781E+03  0.12508874841E+03 0.  0.
          5    1    3    3  502    0  0.79422657608E+02  0.63192343924E+02  0.85104534425E+02  0.13251975344E+03  0.41800000000E+01 0. -1.
         -5    1    3    3    0  502 -0.12702453164E+02 -0.20497523060E+02 -0.17657219713E+02  0.30178644369E+02  0.41800000000E+01 0. -1.
        -11    1    1    2    0    0  0.70613785372E+01 -0.44847992897E+02  0.62213537781E+02  0.77017724044E+02  0.00000000000E+00 0. -1.
         11    1    1    2    0    0 -0.73781582981E+02  0.21531720330E+01  0.15942514920E+03  0.17568362569E+03  0.00000000000E+00 0.  1.
</event>
<event>
 7    1  0.2844572E-009  0.8484698E+02  0.7561462E-02  0.1315833E+00
         -1   -1    0    0    0  501 -0.00000000000E+00  0.00000000000E+00  0.10849024003E+03  0.10849024003E+03  0.00000000000E+00 0.  1.
          1   -1    0    0  501    0  0.00000000000E+00 -0.00000000000E+00 -0.13463577074E+03  0.13463577074E+03  0.00000000000E+00 0. -1.
         25    2    1    2    0    0 -0.24824607706E+02  0.46526954313E+02 -0.22865134331E+02  0.13766731739E+03  0.12509379395E+03 0.  0.
          5    1    3    3  502    0  0.13257016930E+02 -0.70412931777E+01 -0.60048778469E+02  0.62037541079E+02  0.41800000000E+01 0. -1.
         -5    1    3    3    0  502 -0.38081624636E+02  0.53568247490E+02  0.37183644138E+02  0.75629776315E+02  0.41800000000E+01 0. -1.
        -11    1    1    2    0    0  0.37797061264E+02 -0.59123189178E+02  0.22746687389E+02  0.73767073453E+02  0.00000000000E+00 0.  1.
         11    1    1    2    0    0 -0.12972453558E+02  0.12596234865E+02 -0.26027083761E+02  0.31691619920E+02  0.00000000000E+00 0. -1.
</event>
<event>
 7    1  0.2844572E-009  0.1293246E+03  0.7561462E-02  0.1228461E+00
          2   -1    0    0  501    0  0.00000000000E+00  0.00000000000E+00  0.78197354316E+03  0.78197354316E+03  0.00000000000E+00 0.  1.
         -2   -1    0    0    0  501 -0.00000000000E+00 -0.00000000000E+00 -0.28299429102E+02  0.28299429102E+02  0.00000000000E+00 0. -1.
         25    2    1    2    0    0 -0.26668991398E+02 -0.91981953605E+02  0.31798974796E+03  0.35485841494E+03  0.12504039329E+03 0.  0.
          5    1    3    3  502    0 -0.54613834285E+02 -0.88896501523E+02  0.30719199888E+03  0.32445285552E+03  0.41800000000E+01 0.  1.
         -5    1    3    3    0  502  0.27944842887E+02 -0.30854520814E+01  0.10797749081E+02  0.30405559421E+02  0.41800000000E+01 0.  1.
        -11    1    1    2    0    0  0.81558251980E+01  0.10362102961E+03  0.40226172075E+03  0.41547361798E+03  0.00000000000E+00 0.  1.
         11    1    1    2    0    0  0.18513166200E+02 -0.11639076003E+02  0.33422645344E+02  0.39940939332E+02  0.00000000000E+00 0. -1.
</event>
<event>
 7    1  0.2844572E-009  0.2766491E+03  0.7561462E-02  0.1097533E+00
         -1   -1    0    0    0  501 -0.00000000000E+00  0.00000000000E+00  0.35755898013E+02  0.35755898013E+02  0.00000000000E+00 0.  1.
          1   -1    0    0  501    0  0.00000000000E+00 -0.00000000000E+00 -0.23507071674E+04  0.23507071674E+04  0.00000000000E+00 0. -1.
         25    2    1    2    0    0  0.89552072900E+02  0.24328530954E+03 -0.13549971862E+04  0.13852334954E+04  0.12508855497E+03 0.  0.
          5    1    3    3  502    0  0.68145733706E+02  0.69676055919E+02 -0.71969831842E+03  0.72627937856E+03  0.41800000000E+01 0. -1.
         -5    1    3    3    0  502  0.21406339194E+02  0.17360925362E+03 -0.63529886781E+03  0.65895411687E+03  0.41800000000E+01 0. -1.
        -11    1    1    2    0    0 -0.17038256859E+02  0.82961156142E+01 -0.33492064318E+02  0.38481763257E+02  0.00000000000E+00 0.  1.
         11    1    1    2    0    0 -0.72513816041E+02 -0.25158142515E+03 -0.92646201887E+03  0.96274780676E+03  0.00000000000E+00 0. -1.
</event>
<event>
 7    1  0.2844572E-009  0.1155108E+03  0.7561462E-02  0.1250692E+00
          2   -1    0    0  501    0  0.00000000000E+00  0.00000000000E+00  0.30083646301E+03  0.30083646301E+03  0.00000000000E+00 0.  1.
         -2   -1    0    0    0  501 -0.00000000000E+00 -0.00000000000E+00 -0.59225038857E+02  0.59225038857E+02  0.00000000000E+00 0. -1.
         25    2    1    2    0    0 -0.74856395199E+02 -0.20315424634E+02  0.12905448524E+03  0.19574162953E+03  0.12507409401E+03 0.  0.
          5    1    3    3  502    0  0.33750538143E+02 -0.90698745794E+01  0.16500434364E+02  0.38872846359E+02  0.41800000000E+01 0.  1.
         -5    1    3    3    0  502 -0.10860693334E+03 -0.11245550055E+02  0.11255405087E+03  0.15686878317E+03  0.41800000000E+01 0.  1.
        -11    1    1    2    0    0  0.37409304873E+02 -0.96071797235E+01  0.10970041981E+03  0.11630105804E+03  0.00000000000E+00 0.  1.
         11    1    1    2    0    0  0.37447090326E+02  0.29922604358E+02  0.28565191048E+01  0.48018814301E+02  0.00000000000E+00 0. -1.
</event>
<event>
 7    1  0.2844572E-009  0.1207812E+03  0.7561462E-02  0.1241814E+00
          2   -1    0    0  501    0  0.00000000000E+00  0.00000000000E+00  0.52816709920E+03  0.52816709920E+03  0.00000000000E+00 0.  1.
         -2   -1    0    0    0  501 -0.00000000000E+00 -0.00000000000E+00 -0.41251585831E+02  0.41251585831E+02  0.00000000000E+00 0. -1.
         25    2    1    2    0    0 -0.96464109283E+01 -0.72602245118E+02  0.40568366633E+03  0.43080161685E+03  0.12508659685E+03 0.  0.
          5    1    3    3  502    0 -0.23961487767E+02  0.22916481016E+02  0.37923861334E+02  0.50547103346E+02  0.41800000000E+01 0.  1.
         -5    1    3    3    0  502  0.14315076838E+02 -0.95518726134E+02  0.36775980500E+03  0.38025451350E+03  0.41800000000E+01 0.  1.
        -11    1    1    2    0    0  0.45564069230E+02  0.55142643183E+02  0.43772273800E+02  0.83861835513E+02  0.00000000000E+00 0. -1.
         11    1    1    2    0    0 -0.35917658302E+02  0.17459601934E+02  0.37459573241E+02  0.54755232672E+02  0.00000000000E+00 0.  1.
</event>
<event>
 7    1  0.2844572E-009  0.6984833E+02  0.7561462E-02  0.1360610E+00
          1   -1    0    0  501    0  0.00000000000E+00  0.00000000000E+00  0.15020782148E+03  0.15020782148E+03  0.00000000000E+00 0. -1.
         -1   -1    0    0    0  501 -0.00000000000E+00 -0.00000000000E+00 -0.83939616524E+02  0.83939616524E+02  0.00000000000E+00 0.  1.
         25    2    1    2    0    0 -0.69250827667E+01 -0.19686298106E+02  0.57896289758E+02  0.13941219050E+03  0.12509305092E+03 0.  0.
          5    1    3    3  502    0  0.30241850170E+02  0.76419592156E+01  0.81541984188E+02  0.87404442837E+02  0.41800000000E+01 0. -1.
         -5    1    3    3    0  502 -0.37166932936E+02 -0.27328257322E+02 -0.23645694430E+02  0.52007747665E+02  0.41800000000E+01 0. -1.
        -11    1    1    2    0    0 -0.17498554548E+02  0.30523693362E+02 -0.31174608584E+02  0.47007993874E+02  0.00000000000E+00 0.  1.
         11    1    1    2    0    0  0.24423637315E+02 -0.10837395256E+02  0.39546523787E+02  0.47727253632E+02  0.00000000000E+00 0. -1.
</event>
<event>
 7    1  0.2844572E-009  0.1338907E+03  0.7561462E-02  0.1221794E+00
         -1   -1    0    0    0  501 -0.00000000000E+00  0.00000000000E+00  0.11270980274E+03  0.11270980274E+03  0.00000000000E+00 0.  1.
          1   -1    0    0  501    0  0.00000000000E+00 -0.00000000000E+00 -0.19767724794E+03  0.19767724794E+03  0.00000000000E+00 0. -1.
         25    2    1    2    0    0  0.90345388563E+02 -0.90567331557E+01 -0.94937783215E+02  0.18139823226E+03  0.12509125602E+03 0.  0.
          5    1    3    3  502    0  0.11612451719E+03 -0.74523726584E+01 -0.10145049101E+03  0.15443482728E+03  0.41800000000E+01 0. -1.
         -5    1    3    3    0  502 -0.25779128623E+02 -0.16043604973E+01  0.65127077952E+01  0.26963404978E+02  0.41800000000E+01 0. -1.
        -11    1    1    2    0    0 -0.24289554272E+02 -0.37277012867E+02  0.17807102615E+02  0.47923387177E+02  0.00000000000E+00 0.  1.
         11    1    1    2    0    0 -0.66055834291E+02  0.46333746023E+02 -0.78367646068E+01  0.81065431251E+02  0.00000000000E+00 0. -1.
</event>
<event>
 7    1  0.2844572E-009  0.1156647E+03  0.7561462E-02  0.1250425E+00
          1   -1    0    0  501    0  0.00000000000E+00  0.00000000000E+00  0.49228027996E+02  0.49228027996E+02  0.00000000000E+00 0. -1.
         -1   -1    0    0    0  501 -0.00000000000E+00 -0.00000000000E+00 -0.36685070233E+03  0.36685070233E+03  0.00000000000E+00 0.  1.
         25    2    1    2    0    0  0.21312670312E+02 -0.76899818693E+02 -0.17800418994E+03  0.23173591695E+03  0.12509289165E+03 0.  0.
          5    1    3    3  502    0 -0.41545961176E+02 -0.27238309754E+02 -0.12760784559E+03  0.13700082870E+03  0.41800000000E+01 0.  1.
         -5    1    3    3    0  502  0.62858631488E+02 -0.49661508940E+02 -0.50396344344E+02  0.94735088251E+02  0.41800000000E+01 0.  1.
        -11    1    1    2    0    0 -0.13467288789E+02  0.87242238088E+02 -0.67659336655E+02  0.11122212824E+03  0.00000000000E+00 0. -1.
         11    1    1    2    0    0 -0.78453815223E+01 -0.10342419395E+02 -0.71959147744E+02  0.73120685132E+02  0.00000000000E+00 0.  1.
</event>
<event>
 7    1  0.2844572E-009  0.1033192E+03  0.7561462E-02  0.1273467E+00
         -1   -1    0    0    0  501 -0.00000000000E+00  0.00000000000E+00  0.28960962944E+02  0.28960962944E+02  0.00000000000E+00 0.  1.
          1   -1    0    0  501    0  0.00000000000E+00 -0.00000000000E+00 -0.48302093351E+03  0.48302093351E+03  0.00000000000E+00 0. -1.
         25    2    1    2    0    0  0.37381666330E+02 -0.58328374351E+02 -0.25548300798E+03  0.29277602463E+03  0.12508655002E+03 0.  0.
          5    1    3    3  502    0  0.50681504488E+02 -0.89239927218E+02 -0.14859978699E+03  0.18064259907E+03  0.41800000000E+01 0.  1.
         -5    1    3    3    0  502 -0.13299838158E+02  0.30911552867E+02 -0.10688322099E+03  0.11213342555E+03  0.41800000000E+01 0.  1.
        -11    1    1    2    0    0 -0.15103627065E+02  0.32950008786E+02 -0.29341694743E+02  0.46634297249E+02  0.00000000000E+00 0.  1.
         11    1    1    2    0    0 -0.22278039265E+02  0.25378365565E+02 -0.16923526784E+03  0.17257157458E+03  0.00000000000E+00 0. -1.
</event>
<event>
 7    1  0.2844572E-009  0.1135493E+03  0.7561462E-02  0.1254135E+00
         -2   -1    0    0    0  501 -0.00000000000E+00  0.00000000000E+00  0.54610988739E+02  0.54610988739E+02  0.00000000000E+00 0.  1.
          2   -1    0    0  501    0  0.00000000000E+00 -0.00000000000E+00 -0.43219336400E+03  0.43219336400E+03  0.00000000000E+00 0. -1.
         25    2    1    2    0    0  0.87081959226E+02  0.43360764537E+02 -0.13068957658E+03  0.20538568350E+03  0.12506034557E+03 0.  0.
          5    1    3    3  502    0  0.38617077354E+02  0.24160143019E+02  0.16930256668E+02  0.48775989636E+02  0.41800000000E+01 0.  1.
         -5    1    3    3    0  502  0.48464881872E+02  0.19200621518E+02 -0.14761983325E+03  0.15660969386E+03  0.41800000000E+01 0.  1.
        -11    1    1    2    0    0 -0.51286953572E+02 -0.68314361335E+02 -0.19938191150E+03  0.21691092689E+03  0.00000000000E+00 0.  1.
         11    1    1    2    0    0 -0.35795005654E+02  0.24953596797E+02 -0.47510887175E+02  0.64507742350E+02  0.00000000000E+00 0. -1.
</event>
<event>
 7    1  0.2844572E-009  0.1045202E+03  0.7561462E-02  0.1271068E+00
         -2   -1    0    0    0  501 -0.00000000000E+00  0.00000000000E+00  0.24011534220E+03  0.24011534220E+03  0.00000000000E+00 0.  1.
          2   -1    0    0  501    0  0.00000000000E+00 -0.00000000000E+00 -0.53801557190E+02  0.53801557190E+02  0.00000000000E+00 0. -1.
         25    2    1    2    0    0 -0.23649028662E+01  0.23048344325E+02  0.13508342983E+03  0.18555837281E+03  0.12509019850E+03 0.  0.
          5    1    3    3  502    0  0.26921886709E+02 -0.43103330544E+02  0.34407382776E+02  0.61514433082E+02  0.41800000000E+01 0.  1.
         -5    1    3    3    0  502 -0.29286789575E+02  0.66151674869E+02  0.10067604706E+03  0.12404393973E+03  0.41800000000E+01 0.  1.
        -11    1    1    2    0    0  0.84488088648E+01 -0.53686308753E+02  0.54481678503E+02  0.76953592582E+02  0.00000000000E+00 0. -1.
         11    1    1    2    0    0 -0.60839059986E+01  0.30637964428E+02 -0.32513233215E+01  0.31404934005E+02  0.00000000000E+00 0.  1.
</event>
<event>
 7    1  0.2844572E-009  0.2072350E+03  0.7561462E-02  0.1143774E+00
         -2   -1    0    0    0  501 -0.00000000000E+00  0.00000000000E+00  0.92329238580E+02  0.92329238580E+02  0.00000000000E+00 0.  1.
          2   -1    0    0  501    0  0.00000000000E+00 -0.00000000000E+00 -0.60156754043E+03  0.60156754043E+03  0.00000000000E+00 0. -1.
         25    2    1    2    0    0  0.19547887309E+03 -0.26785375437E+02 -0.16084251882E+03  0.28363173804E+03  0.12508877168E+03 0.  0.
          5    1    3    3  502    0  0.21198511592E+02  0.18891621877E+02  0.14530579297E+02  0.32169557124E+02  0.41800000000E+01 0.  1.
         -5    1    3    3    0  502  0.17428036150E+03 -0.45676997314E+02 -0.17537309811E+03  0.25146218091E+03  0.41800000000E+01 0.  1.
        -11    1    1    2    0    0 -0.47813218086E+02 -0.18243194330E+02 -0.38483228284E+02  0.64030280510E+02  0.00000000000E+00 0. -1.
         11    1    1    2    0    0 -0.14766565500E+03  0.45028569767E+02 -0.30991255475E+03  0.34623476046E+03  0.00000000000E+00 0.  1.
</event>
<event>
 7    1  0.2844572E-009  0.1801366E+03  0.7561462E-02  0.1167671E+00
         -1   -1    0    0    0  501 -0.00000000000E+00  0.00000000000E+00  0.25916546106E+02  0.25916546106E+02  0.00000000000E+00 0.  1.
          1   -1    0    0  501    0  0.00000000000E+00 -0.00000000000E+00 -0.14415758452E+04  0.14415758452E+04  0.00000000000E+00 0. -1.
         25    2    1    2    0    0  0.83713216233E+02  0.13459196093E+03 -0.67733694877E+03  0.70679286677E+03  0.12509162974E+03 0.  0.
          5    1    3    3  502    0  0.48130728105E+01 -0.12118093096E+02 -0.57647093520E+01  0.14856585209E+02  0.41800000000E+01 0. -1.
         -5    1    3    3    0  502  0.78900143423E+02  0.14671005403E+03 -0.67157223942E+03  0.69193628156E+03  0.41800000000E+01 0. -1.
        -11    1    1    2    0    0 -0.60500723901E+02 -0.14299013672E+03 -0.67740924425E+03  0.69497467651E+03  0.00000000000E+00 0.  1.
         11    1    1    2    0    0 -0.23212492332E+02  0.83981757841E+01 -0.60913106109E+02  0.65724848061E+02  0.00000000000E+00 0. -1.
</event>
<event>
 7    1  0.2844572E-009  0.9693092E+02  0.7561462E-02  0.1286885E+00
         -4   -1    0    0    0  501 -0.00000000000E+00  0.00000000000E+00  0.12351200183E+03  0.12351200183E+03  0.00000000000E+00 0.  1.
          4   -1    0    0  501    0  0.00000000000E+00 -0.00000000000E+00 -0.11786699566E+03  0.11786699566E+03  0.00000000000E+00 0. -1.
         25    2    1    2    0    0 -0.25191584300E+02 -0.32942329711E+02 -0.28675529129E+02  0.13486994942E+03  0.12509118386E+03 0.  0.
          5    1    3    3  502    0 -0.27655196900E+02  0.45376525466E+02 -0.12540510707E+02  0.54759252987E+02  0.41800000000E+01 0. -1.
         -5    1    3    3    0  502  0.24636125997E+01 -0.78318855177E+02 -0.16135018422E+02  0.80110696431E+02  0.41800000000E+01 0. -1.
        -11    1    1    2    0    0 -0.56243009166E+01  0.30678683808E+02 -0.24768828232E+02  0.39828498000E+02  0.00000000000E+00 0. -1.
         11    1    1    2    0    0  0.30815885216E+02  0.22636459025E+01  0.59089363530E+02  0.66680550064E+02  0.00000000000E+00 0.  1.
</event>
<event>
 7    1  0.2844572E-009  0.1124197E+03  0.7561462E-02  0.1256153E+00
          3   -1    0    0  501    0  0.00000000000E+00  0.00000000000E+00  0.54571635825E+02  0.54571635825E+02  0.00000000000E+00 0. -1.
         -3   -1    0    0    0  501 -0.00000000000E+00 -0.00000000000E+00 -0.36784326242E+03  0.36784326242E+03  0.00000000000E+00 0.  1.
         25    2    1    2    0    0 -0.26830373545E+02 -0.62440423767E+02 -0.81688031086E+02  0.16413045044E+03  0.12508874799E+03 0.  0.
          5    1    3    3  502    0  0.15355342440E+02 -0.81831183931E+02 -0.82805513345E+02  0.11750044530E+03  0.41800000000E+01 0.  1.
         -5    1    3    3    0  502 -0.42185715985E+02  0.19390760164E+02  0.11174822591E+01  0.46630005142E+02  0.41800000000E+01 0.  1.
        -11    1    1    2    0    0  0.48181607597E+02  0.52653236246E+02 -0.22151664243E+03  0.23273043091E+03  0.00000000000E+00 0.  1.
         11    1    1    2    0    0 -0.21351234051E+02  0.97871875202E+01 -0.10066953077E+02  0.25554016892E+02  0.00000000000E+00 0. -1.
</event>
<event>
 7    1  0.2844572E-009  0.8614565E+02  0.7561462E-02  0.1312463E+00
         -2   -1    0    0    0  501 -0.00000000000E+00  0.00000000000E+00  0.26307302213E+03  0.26307302213E+03  0.00000000000E+00 0.  1.
          2   -1    0    0  501    0  0.00000000000E+00 -0.00000000000E+00 -0.66581227551E+02  0.66581227551E+02  0.00000000000E+00 0. -1.
         25    2    1    2    0    0 -0.24775554203E+02  0.12575248297E+02  0.19072170623E+03  0.22976845030E+03  0.12508719587E+03 0.  0.
          5    1    3    3  502    0  0.25714934779E+02  0.23173732628E+02  0.17077486821E+03  0.17429804292E+03  0.41800000000E+01 0. -1.
         -5    1    3    3    0  502 -0.50490488981E+02 -0.10598484330E+02  0.19946838020E+02  0.55470407378E+02  0.41800000000E+01 0. -1.
        -11    1    1    2    0    0  0.54131036460E+02 -0.10916783691E+01  0.28346059008E+02  0.61113500400E+02  0.00000000000E+00 0.  1.
         11    1    1    2    0    0 -0.29355482257E+02 -0.11483569928E+02 -0.22575970659E+02  0.38772298978E+02  0.00000000000E+00 0. -1.
</event>
<event>
 7    1  0.2844572E-009  0.1054690E+03  0.7561462E-02  0.1269198E+00
         -1   -1    0    0    0  501 -0.00000000000E+00  0.00000000000E+00  0.59790794374E+03  0.59790794374E+03  0.00000000000E+00 0.  1.
          1   -1    0    0  501    0  0.00000000000E+00 -0.00000000000E+00 -0.23414750550E+02  0.23414750550E+02  0.00000000000E+00 0. -1.
         25    2    1    2    0    0  0.28204884855E+02 -0.34620952860E+02  0.36619339310E+03  0.38953702064E+03  0.12508942160E+03 0.  0.
          5    1    3    3  502    0  0.12798227085E+02 -0.75548467991E+02  0.30305042021E+03  0.31261541104E+03  0.41800000000E+01 0. -1.
         -5    1    3    3    0  502  0.15406657770E+02  0.40927515131E+02  0.63142972889E+02  0.76921609602E+02  0.41800000000E+01 0. -1.
        -11    1    1    2    0    0 -0.30041135796E+02  0.58794832000E+02  0.19075870704E+03  0.20186180031E+03  0.00000000000E+00 0.  1.
         11    1    1    2    0    0  0.18362509405E+01 -0.24173879140E+02  0.17541093044E+02  0.29923873335E+02  0.00000000000E+00 0. -1.
</event>
<event>
 7    1  0.2844572E-009  0.1504489E+03  0.7561462E-02  0.1199923E+00
         -1   -1    0    0    0  501 -0.00000000000E+00  0.00000000000E+00  0.71169572904E+03  0.71169572904E+03  0.00000000000E+00 0.  1.
          1   -1    0    0  501    0  0.00000000000E+00 -0.00000000000E+00 -0.38190380911E+02  0.38190380911E+02  0.00000000000E+00 0. -1.
         25    2    1    2    0    0 -0.94299612744E+02  0.79236348003E+02  0.37045779312E+03  0.40994837424E+03  0.12509147552E+03 0.  0.
          5    1    3    3  502    0 -0.10643871176E+03  0.47076153046E+02  0.16719615213E+03  0.20375816360E+03  0.41800000000E+01 0. -1.
         -5    1    3    3    0  502  0.12139099018E+02  0.32160194957E+02  0.20326164099E+03  0.20619021064E+03  0.41800000000E+01 0. -1.
        -11    1    1    2    0    0  0.40776898609E+02 -0.86660585180E+02  0.22942715657E+03  0.24861543125E+03  0.00000000000E+00 0.  1.
         11    1    1    2    0    0  0.53522714135E+02  0.74242371760E+01  0.73620398433E+02  0.91322304457E+02  0.00000000000E+00 0. -1.
</event>
<event>
 7    1  0.2844572E-009  0.1316382E+03  0.7561462E-02  0.1225045E+00
          1   -1    0    0  501    0  0.00000000000E+00  0.00000000000E+00  0.12860371245E+03  0.12860371245E+03  0.00000000000E+00 0. -1.
         -1   -1    0    0    0  501 -0.00000000000E+00 -0.00000000000E+00 -0.25076727413E+03  0.25076727413E+03  0.00000000000E+00 0.  1.
         25    2    1    2    0    0 -0.68436906567E+02 -0.88332872551E+02  0.28443194902E+02  0.17012436714E+03  0.12508788272E+03 0.  0.
          5    1    3    3  502    0 -0.83269188053E+02 -0.74672615123E+02 -0.23396397231E+02  0.11434430870E+03  0.41800000000E+01 0. -1.
         -5    1    3    3    0  502  0.14832281486E+02 -0.13660257428E+02  0.51839592132E+02  0.55780058440E+02  0.41800000000E+01 0. -1.
        -11    1    1    2    0    0  0.36549390233E+02  0.91678720573E+02 -0.14689248961E+03  0.17696962800E+03  0.00000000000E+00 0.  1.
         11    1    1    2    0    0  0.31887516334E+02 -0.33458480222E+01 -0.37142669757E+01  0.32276991436E+02  0.00000000000E+00 0. -1.
</event>
<event>
 7    1  0.2844572E-009  0.1431273E+03  0.7561462E-02  0.1209182E+00
          1   -1    0    0  501    0  0.00000000000E+00  0.00000000000E+00  0.11386733681E+03  0.11386733681E+03  0.00000000000E+00 0. -1.
         -1   -1    0    0    0  501 -0.00000000000E+00 -0.00000000000E+00 -0.34681461387E+03  0.34681461387E+03  0.00000000000E+00 0.  1.
         25    2    1    2    0    0 -0.90154460352E+02 -0.77392905791E+02  0.12323967815E+02  0.17296579402E+03  0.12509115528E+03 0.  0.
          5    1    3    3  502    0 -0.11887770369E+02 -0.53540570104E+02 -0.46567142931E+02  0.72068598794E+02  0.41800000000E+01 0.  1.
         -5    1    3    3    0  502 -0.78266689983E+02 -0.23852335688E+02  0.58891110746E+02  0.10089719522E+03  0.41800000000E+01 0.  1.
        -11    1    1    2    0    0  0.24562950919E+02 -0.20155640371E+02 -0.67365917026E+02  0.74483254315E+02  0.00000000000E+00 0.  1.
         11    1    1    2    0    0  0.65591509433E+02  0.97548546162E+02 -0.17790532785E+03  0.21323290235E+03  0.00000000000E+00 0. -1.
</event>
<event>
 7    1  0.2844572E-009  0.1854175E+03  0.7561462E-02  0.1162661E+00
         -2   -1    0    0    0  501 -0.00000000000E+00  0.00000000000E+00  0.26106525306E+03  0.26106525306E+03  0.00000000000E+00 0.  1.
          2   -1    0    0  501    0  0.00000000000E+00 -0.00000000000E+00 -0.18149653576E+03  0.18149653576E+03  0.00000000000E+00 0. -1.
         25    2    1    2    0    0 -0.12993808763E+03 -0.87701335211E+02 -0.66313438800E+02  0.21123420840E+03  0.12508792035E+03 0.  0.
          5    1    3    3  502    0 -0.15593110550E+02  0.30256168541E+02 -0.74771349850E+00  0.34301782852E+02  0.41800000000E+01 0.  1.
         -5    1    3    3    0  502 -0.11434497708E+03 -0.11795750375E+03 -0.65565725301E+02  0.17693242555E+03  0.41800000000E+01 0.  1.
        -11    1    1    2    0    0  0.13878386313E+03  0.78520251425E+02  0.11126780567E+03  0.19444000393E+03  0.00000000000E+00 0. -1.
         11    1    1    2    0    0 -0.88457754944E+01  0.91810837868E+01  0.34614350436E+02  0.36887576496E+02  0.00000000000E+00 0.  1.
</event>
<event>
 7    1  0.2844572E-009  0.5999510E+02  0.7561462E-02  0.1397852E+00
          2   -1    0    0  501    0  0.00000000000E+00  0.00000000000E+00  0.18324641067E+03  0.18324641067E+03  0.00000000000E+00 0. -1.
         -2   -1    0    0    0  501 -0.00000000000E+00 -0.00000000000E+00 -0.95842083255E+02  0.95842083255E+02  0.00000000000E+00 0.  1.
         25    2    1    2    0    0  0.32234270536E+00  0.14846368816E+02  0.12804244105E+03  0.17961333533E+03  0.12508223273E+03 0.  0.
          5    1    3    3  502    0 -0.18729709696E+02  0.10797015822E+01  0.14754150209E+03  0.14878822205E+03  0.41800000000E+01 0. -1.
         -5    1    3    3    0  502  0.19052052401E+02  0.13766667234E+02 -0.19499061036E+02  0.30825113280E+02  0.41800000000E+01 0. -1.
        -11    1    1    2    0    0  0.37480509253E+02 -0.48497839381E+01  0.63740556577E+01  0.38326721274E+02  0.00000000000E+00 0.  1.
         11    1    1    2    0    0 -0.37802851958E+02 -0.99965848779E+01 -0.47012169296E+02  0.61148437325E+02  0.00000000000E+00 0. -1.
</event>
<event>
 6    1  0.2844572E-009  0.8112001E+02  0.7561462E-02  0.1325903E+00
         -2   -1    0    0    0  501 -0.00000000000E+00  0.00000000000E+00  0.60995078699E+02  0.60995078699E+02  0.00000000000E+00 0.  1.
          2   -1    0    0  501    0  0.00000000000E+00 -0.00000000000E+00 -0.19960691813E+03  0.19960691813E+03  0.00000000000E+00 0. -1.
          5    1    1    2  502    0 -0.63263226123E+02  0.53159217399E+01 -0.58582675865E+02  0.86486398439E+02  0.41800000000E+01 0.  1.
         -5    1    1    2    0  502  0.57012760005E+02 -0.22491526714E+02 -0.36056907199E+02  0.71231289010E+02  0.41800000000E+01 0.  1.
        -11    1    1    2    0    0  0.84830737675E+00  0.26443841313E+02 -0.69945870147E+02  0.74782492065E+02  0.00000000000E+00 0. -1.
         11    1    1    2    0    0  0.54021587409E+01 -0.92682363384E+01  0.25973613778E+02  0.28101817318E+02  0.00000000000E+00 0.  1.
</event>
<event>
 7    1  0.2844572E-009  0.1385145E+03  0.7561462E-02  0.1215342E+00
          1   -1    0    0  501    0  0.00000000000E+00  0.00000000000E+00  0.24370359009E+03  0.24370359009E+03  0.00000000000E+00 0. -1.
         -1   -1    0    0    0  501 -0.00000000000E+00 -0.00000000000E+00 -0.13703210395E+03  0.13703210395E+03  0.00000000000E+00 0.  1.
         25    2    1    2    0    0 -0.42730357269E+00 -0.11122814050E+03  0.15642692712E+03  0.22907726051E+03  0.12504049715E+03 0.  0.
          5    1    3    3  502    0  0.40866889170E+02 -0.59058065006E+01  0.86699123068E+02  0.96120713281E+02  0.41800000000E+01 0. -1.
         -5    1    3    3    0  502 -0.41294192742E+02 -0.10532233400E+03  0.69727804052E+02  0.13295654723E+03  0.41800000000E+01 0. -1.
        -11    1    1    2    0    0  0.23191279575E+02  0.82328693102E+02 -0.69224735034E+02  0.11003596274E+03  0.00000000000E+00 0.  1.
         11    1    1    2    0    0 -0.22763976002E+02  0.28899447397E+02  0.19469294056E+02  0.41622470786E+02  0.00000000000E+00 0. -1.
</event>
<event>
 7    1  0.2844572E-009  0.1353890E+03  0.7561462E-02  0.1219672E+00
          2   -1    0    0  501    0  0.00000000000E+00  0.00000000000E+00  0.48232463752E+03  0.48232463752E+03  0.00000000000E+00 0.  1.
         -2   -1    0    0    0  501 -0.00000000000E+00 -0.00000000000E+00 -0.48847783438E+02  0.48847783438E+02  0.00000000000E+00 0. -1.
         25    2    1    2    0    0 -0.86035082043E+02 -0.44061016111E+02  0.30702552335E+03  0.34533412655E+03  0.12509028135E+03 0.  0.
          5    1    3    3  502    0 -0.12708001004E+02 -0.72609435991E+02  0.10391221310E+03  0.12747095323E+03  0.41800000000E+01 0.  1.
         -5    1    3    3    0  502 -0.73327081039E+02  0.28548419880E+02  0.20311331025E+03  0.21786317333E+03  0.41800000000E+01 0.  1.
        -11    1    1    2    0    0  0.87441653324E+02  0.14599492312E+02  0.12867710316E+03  0.15625935104E+03  0.00000000000E+00 0.  1.
         11    1    1    2    0    0 -0.14065712815E+01  0.29461523799E+02 -0.22257724304E+01  0.29578943359E+02  0.00000000000E+00 0. -1.
</event>
<event>
 7    1  0.2844572E-009  0.1732626E+03  0.7561462E-02  0.1174488E+00
         -1   -1    0    0    0  501 -0.00000000000E+00  0.00000000000E+00  0.15028618915E+03  0.15028618915E+03  0.00000000000E+00 0.  1.
          1   -1    0    0  501    0  0.00000000000E+00 -0.00000000000E+00 -0.25158082476E+03  0.25158082476E+03  0.00000000000E+00 0. -1.
         25    2    1    2    0    0 -0.57252819868E+02  0.15005179015E+03 -0.42035638703E+02  0.20786975163E+03  0.12509761634E+03 0.  0.
          5    1    3    3  502    0  0.48160327592E+01  0.11244816292E+03 -0.66952635024E+02  0.13102637617E+03  0.41800000000E+01 0. -1.
         -5    1    3    3    0  502 -0.62068852627E+02  0.37603627229E+02  0.24916996321E+02  0.76843375465E+02  0.41800000000E+01 0. -1.
        -11    1    1    2    0    0  0.49890671035E+01 -0.27890308440E+02  0.24053671395E+02  0.37166371938E+02  0.00000000000E+00 0.  1.
         11    1    1    2    0    0  0.52263752764E+02 -0.12216148171E+03 -0.83312668304E+02  0.15683089034E+03  0.00000000000E+00 0. -1.
</event>
<event>
 7    1  0.2844572E-009  0.1136355E+03  0.7561462E-02  0.1253982E+00
          1   -1    0    0  501    0  0.00000000000E+00  0.00000000000E+00  0.11923671101E+03  0.11923671101E+03  0.00000000000E+00 0. -1.
         -1   -1    0    0    0  501 -0.00000000000E+00 -0.00000000000E+00 -0.12781129351E+03  0.12781129351E+03  0.00000000000E+00 0.  1.
         25    2    1    2    0    0 -0.42268229721E+02  0.35443997020E+02  0.25852666249E+01  0.13673895476E+03  0.12509187814E+03 0.  0.
          5    1    3    3  502    0  0.35550414704E+02 -0.34093406238E+01 -0.26788235812E+02  0.44839018355E+02  0.41800000000E+01 0.  1.
         -5    1    3    3    0  502 -0.77818644425E+02  0.38853337643E+02  0.29373502437E+02  0.91899936407E+02  0.41800000000E+01 0.  1.
        -11    1    1    2    0    0 -0.25921682285E+02  0.27659051130E+01  0.12122649017E+02  0.28749651524E+02  0.00000000000E+00 0. -1.
         11    1    1    2    0    0  0.68189912006E+02 -0.38209902133E+02 -0.23282498139E+02  0.81559398232E+02  0.00000000000E+00 0.  1.
</event>
<event>
 7    1  0.2844572E-009  0.1008928E+03  0.7561462E-02  0.1278430E+00
          2   -1    0    0  501    0  0.00000000000E+00  0.00000000000E+00  0.38638035818E+03  0.38638035818E+03  0.00000000000E+00 0. -1.
         -2   -1    0    0    0  501 -0.00000000000E+00 -0.00000000000E+00 -0.51886053650E+02  0.51886053650E+02  0.00000000000E+00 0.  1.
         25    2    1    2    0    0  0.33335616521E+02 -0.47828686018E+02  0.26038678841E+03  0.29469961905E+03  0.12509092434E+03 0.  0.
          5    1    3    3  502    0  0.17018579047E+02 -0.89997509643E+02  0.15762085012E+03  0.18234853596E+03  0.41800000000E+01 0.  1.
         -5    1    3    3    0  502  0.16317037473E+02  0.42168823625E+02  0.10276593829E+03  0.11235108309E+03  0.41800000000E+01 0.  1.
        -11    1    1    2    0    0  0.24946914172E+01  0.17701018154E+02 -0.26865771858E+02  0.32269478249E+02  0.00000000000E+00 0.  1.
         11    1    1    2    0    0 -0.35830307938E+02  0.30127667864E+02  0.10097328798E+03  0.11129731454E+03  0.00000000000E+00 0. -1.
</event>
<event>
 7    1  0.2844572E-009  0.1399656E+03  0.7561462E-02  0.1213375E+00
         -1   -1    0    0    0  501 -0.00000000000E+00  0.00000000000E+00  0.56099989320E+03  0.56099989320E+03  0.00000000000E+00 0. -1.
          1   -1    0    0  501    0  0.00000000000E+00 -0.00000000000E+00 -0.39512366841E+02  0.39512366841E+02  0.00000000000E+00 0.  1.
         25    2    1    2    0    0 -0.41592971113E+01 -0.93206200063E+02  0.21001759153E+03  0.26164764773E+03  0.12508959719E+03 0.  0.
          5    1    3    3  502    0  0.43061350835E+02 -0.15698480676E+01  0.10888259534E+03  0.11717353082E+03  0.41800000000E+01 0.  1.
         -5    1    3    3    0  502 -0.47220647946E+02 -0.91636351996E+02  0.10113499619E+03  0.14447411690E+03  0.41800000000E+01 0.  1.
        -11    1    1    2    0    0  0.39277504682E+02  0.63602120416E+01  0.91099489313E+02  0.99409715945E+02  0.00000000000E+00 0.  1.
         11    1    1    2    0    0 -0.35118207570E+02  0.86845988022E+02  0.22037044552E+03  0.23945489637E+03  0.00000000000E+00 0. -1.
</event>
<event>
 7    1  0.2844572E-009  0.1378218E+03  0.7561462E-02  0.1216290E+00
         -1   -1    0    0    0  501 -0.00000000000E+00  0.00000000000E+00  0.28566120697E+03  0.28566120697E+03  0.00000000000E+00 0.  1.
          1   -1    0    0  501    0  0.00000000000E+00 -0.00000000000E+00 -0.10910216130E+03  0.10910216130E+03  0.00000000000E+00 0. -1.
         25    2    1    2    0    0 -0.48663037835E+01 -0.10548821437E+03  0.19377993394E+03  0.25366973157E+03  0.12508487372E+03 0.  0.
          5    1    3    3  502    0 -0.31278975618E+02  0.15825842979E+02  0.69483438958E+02  0.77937489767E+02  0.41800000000E+01 0. -1.
         -5    1    3    3    0  502  0.26412671834E+02 -0.12131405735E+03  0.12429649498E+03  0.17573224180E+03  0.41800000000E+01 0. -1.
        -11    1    1    2    0    0  0.25059184536E+02  0.36820269037E+02  0.31462762763E+02  0.54530728789E+02  0.00000000000E+00 0.  1.
         11    1    1    2    0    0 -0.20192880753E+02  0.68667945330E+02 -0.48683651027E+02  0.86562907913E+02  0.00000000000E+00 0. -1.
</event>
<event>
 7    1  0.2844572E-009  0.8469953E+02  0.7561462E-02  0.1316220E+00
          2   -1    0    0  501    0  0.00000000000E+00  0.00000000000E+00  0.48396143085E+02  0.48396143085E+02  0.00000000000E+00 0. -1.
         -2   -1    0    0    0  501 -0.00000000000E+00 -0.00000000000E+00 -0.37301732118E+03  0.37301732118E+03  0.00000000000E+00 0.  1.
         25    2    1    2    0    0 -0.12475987350E+01 -0.74823637168E+02 -0.14612208404E+03  0.20638432859E+03  0.12507075782E+03 0.  0.
          5    1    3    3  502    0 -0.59359373236E+01 -0.26717234299E+02  0.19460210910E+02  0.33841072223E+02  0.41800000000E+01 0. -1.
         -5    1    3    3    0  502  0.46883385886E+01 -0.48106402869E+02 -0.16558229495E+03  0.17254325637E+03  0.41800000000E+01 0. -1.
        -11    1    1    2    0    0 -0.25648600727E+02  0.21469958438E+02 -0.14002319816E+03  0.14396286278E+03  0.00000000000E+00 0.  1.
         11    1    1    2    0    0  0.26896199462E+02  0.53353678730E+02 -0.38475895890E+02  0.71066272901E+02  0.00000000000E+00 0. -1.
</event>
<event>
 7    1  0.2844572E-009  0.1361563E+03  0.7561462E-02  0.1218597E+00
          2   -1    0    0  501    0  0.00000000000E+00  0.00000000000E+00  0.69565164048E+03  0.69565164048E+03  0.00000000000E+00 0. -1.
         -2   -1    0    0    0  501 -0.00000000000E+00 -0.00000000000E+00 -0.35156621281E+02  0.35156621281E+02  0.00000000000E+00 0.  1.
         25    2    1    2    0    0 -0.24426093710E+02  0.10901030422E+03  0.38396631221E+03  0.41899690218E+03  0.12509354358E+03 0.  0.
          5    1    3    3  502    0 -0.44665090510E+02  0.12440480187E+03  0.36106447537E+03  0.38452119943E+03  0.41800000000E+01 0. -1.
         -5    1    3    3    0  502  0.20238996800E+02 -0.15394497649E+02  0.22901836838E+02  0.34475702747E+02  0.41800000000E+01 0. -1.
        -11    1    1    2    0    0  0.26305205414E+02 -0.63303069345E+02  0.61903050876E+02  0.92364658437E+02  0.00000000000E+00 0.  1.
         11    1    1    2    0    0 -0.18791117049E+01 -0.45707234877E+02  0.21462565612E+03  0.21944670115E+03  0.00000000000E+00 0. -1.
</event>
<event>
 7    1  0.2844572E-009  0.1117285E+03  0.7561462E-02  0.1257402E+00
          1   -1    0    0  501    0  0.00000000000E+00  0.00000000000E+00  0.96144656277E+03  0.96144656277E+03  0.00000000000E+00 0. -1.
         -1   -1    0    0    0  501 -0.00000000000E+00 -0.00000000000E+00 -0.40695241553E+02  0.40695241553E+02  0.00000000000E+00 0.  1.
         25    2    1    2    0    0 -0.45804442050E+00  0.46981779109E+02  0.88409014063E+03  0.89413080090E+03  0.12508802893E+03 0.  0.
          5    1    3    3  502    0 -0.89128051761E+01  0.87283356841E+02  0.48403748397E+03  0.49194266003E+03  0.41800000000E+01 0. -1.
         -5    1    3    3    0  502  0.84547607556E+01 -0.40301577732E+02  0.40005265666E+03  0.40218814086E+03  0.41800000000E+01 0. -1.
        -11    1    1    2    0    0  0.10465074520E+02  0.22086495150E+02 -0.73274502354E+01  0.25515144124E+02  0.00000000000E+00 0. -1.
         11    1    1    2    0    0 -0.10007030100E+02 -0.69068274259E+02  0.43988630825E+02  0.82495859305E+02  0.00000000000E+00 0.  1.
</event>
<event>
 7    1  0.2844572E-009  0.1191960E+03  0.7561462E-02  0.1244429E+00
         -2   -1    0    0    0  501 -0.00000000000E+00  0.00000000000E+00  0.46992204475E+02  0.46992204475E+02  0.00000000000E+00 0.  1.
          2   -1    0    0  501    0  0.00000000000E+00 -0.00000000000E+00 -0.32460383841E+03  0.32460383841E+03  0.00000000000E+00 0. -1.
         25    2    1    2    0    0  0.49251719669E+02  0.21374562982E+02 -0.16231462569E+03  0.21184111879E+03  0.12509203837E+03 0.  0.
          5    1    3    3  502    0  0.89836211046E+02  0.19598321392E+02 -0.89656127666E+02  0.12849253926E+03  0.41800000000E+01 0. -1.
         -5    1    3    3    0  502 -0.40584491377E+02  0.17762415901E+01 -0.72658498023E+02  0.83348579529E+02  0.41800000000E+01 0. -1.
        -11    1    1    2    0    0  0.26203120588E+02 -0.13965457525E+02 -0.12972479213E+02  0.32402511467E+02  0.00000000000E+00 0. -1.
         11    1    1    2    0    0 -0.75454840257E+02 -0.74091054565E+01 -0.10232452904E+03  0.12735241264E+03  0.00000000000E+00 0.  1.
</event>
<event>
 7    1  0.2844572E-009  0.9148947E+02  0.7561462E-02  0.1299284E+00
         -2   -1    0    0    0  501 -0.00000000000E+00  0.00000000000E+00  0.81211281137E+02  0.81211281137E+02  0.00000000000E+00 0.  1.
          2   -1    0    0  501    0  0.00000000000E+00 -0.00000000000E+00 -0.19096178176E+03  0.19096178176E+03  0.00000000000E+00 0. -1.
         25    2    1    2    0    0  0.27868917468E+02 -0.80222373445E+01 -0.12247887844E+03  0.17745829552E+03  0.12509731464E+03 0.  0.
          5    1    3    3  502    0  0.58889600913E+02  0.39751524708E+02 -0.71856114243E+02  0.10113823395E+03  0.41800000000E+01 0.  1.
         -5    1    3    3    0  502 -0.31020683445E+02 -0.47773762052E+02 -0.50622764201E+02  0.76320061566E+02  0.41800000000E+01 0.  1.
        -11    1    1    2    0    0 -0.64285814812E+01  0.25955259838E+02 -0.32166774177E+02  0.41829457732E+02  0.00000000000E+00 0. -1.
         11    1    1    2    0    0 -0.21440335987E+02 -0.17933022494E+02  0.44895152002E+02  0.52885309646E+02  0.00000000000E+00 0.  1.
</event>
<event>
 7    1  0.2844572E-009  0.5293747E+02  0.7561462E-02  0.1430112E+00
         -1   -1    0    0    0  501 -0.00000000000E+00  0.00000000000E+00  0.57846978832E+02  0.57846978832E+02  0.00000000000E+00 0.  1.
          1   -1    0    0  501    0  0.00000000000E+00 -0.00000000000E+00 -0.21860443202E+03  0.21860443202E+03  0.00000000000E+00 0. -1.
         25    2    1    2    0    0  0.16249004556E+02 -0.25124996232E+02 -0.97002133059E+02  0.16109650841E+03  0.12508947046E+03 0.  0.
          5    1    3    3  502    0  0.19892122585E+02 -0.10823652679E+02  0.27377326914E+02  0.35774829520E+02  0.41800000000E+01 0.  1.
         -5    1    3    3    0  502 -0.36431180287E+01 -0.14301343554E+02 -0.12437945997E+03  0.12532167889E+03  0.41800000000E+01 0.  1.
        -11    1    1    2    0    0 -0.23038867786E+02 -0.14554688156E+02  0.11837461323E+02  0.29711174106E+02  0.00000000000E+00 0.  1.
         11    1    1    2    0    0  0.67898632297E+01  0.39679684388E+02 -0.75592781455E+02  0.85643728340E+02  0.00000000000E+00 0. -1.
</event>
<event>
 7    1  0.2844572E-009  0.1293208E+03  0.7561462E-02  0.1228467E+00
         -1   -1    0    0    0  501 -0.00000000000E+00  0.00000000000E+00  0.27698565502E+02  0.27698565502E+02  0.00000000000E+00 0.  1.
          1   -1    0    0  501    0  0.00000000000E+00 -0.00000000000E+00 -0.78500438783E+03  0.78500438783E+03  0.00000000000E+00 0. -1.
         25    2    1    2    0    0  0.95456401973E+02  0.11110050693E+02 -0.36323254082E+03  0.39600577063E+03  0.12508930314E+03 0.  0.
          5    1    3    3  502    0 -0.60656096506E+01  0.46096291791E+02 -0.15203727543E+03  0.15904233794E+03  0.41800000000E+01 0.  1.
         -5    1    3    3    0  502  0.10152201162E+03 -0.34986241098E+02 -0.21119526539E+03  0.23696343269E+03  0.41800000000E+01 0.  1.
        -11    1    1    2    0    0 -0.15065844091E+02  0.13702550846E+02 -0.85273068155E+01  0.22078372209E+02  0.00000000000E+00 0.  1.
         11    1    1    2    0    0 -0.80390557882E+02 -0.24812601540E+02 -0.38554597469E+03  0.39461881049E+03  0.00000000000E+00 0. -1.
</event>
<event>
 7    1  0.2970889E-009  0.1076809E+03  0.7561462E-02  0.1264926E+00
         -1   -1    0    0    0  501 -0.00000000000E+00  0.00000000000E+00  0.28095844787E+02  0.28095844787E+02  0.00000000000E+00 0.  1.
          1   -1    0    0  501    0  0.00000000000E+00 -0.00000000000E+00 -0.46654518489E+03  0.46654518489E+03  0.00000000000E+00 0. -1.
         25    2    1    2    0    0 -0.19589089342E+02  0.26455474478E+02 -0.28744348098E+03  0.31520552564E+03  0.12508854497E+03 0.  0.
          5    1    3    3  502    0 -0.31849608184E+02  0.72747674255E+02 -0.15311490027E+03  0.17253482760E+03  0.41800000000E+01 0. -1.
         -5    1    3    3    0  502  0.12260518841E+02 -0.46292199778E+02 -0.13432858071E+03  0.14267069804E+03  0.41800000000E+01 0. -1.
        -11    1    1    2    0    0  0.38190209616E+02  0.16007058467E+02 -0.33994622374E+02  0.53575669680E+02  0.00000000000E+00 0. -1.
         11    1    1    2    0    0 -0.18601120274E+02 -0.42462532944E+02 -0.11701123675E+03  0.12585983436E+03  0.00000000000E+00 0.  1.
</event>
<event>
 7    1  0.2844572E-009  0.5482814E+02  0.7561462E-02  0.1420913E+00
         -2   -1    0    0    0  501 -0.00000000000E+00  0.00000000000E+00  0.19769330626E+03  0.19769330626E+03  0.00000000000E+00 0.  1.
          2   -1    0    0  501    0  0.00000000000E+00 -0.00000000000E+00 -0.70651812859E+02  0.70651812859E+02  0.00000000000E+00 0. -1.
         25    2    1    2    0    0 -0.19463730024E+02  0.12292822760E+02  0.28747537422E+02  0.13039787063E+03  0.12508890231E+03 0.  0.
          5    1    3    3  502    0 -0.34223034290E+02  0.14675560716E+02 -0.42973731741E+02  0.57015806389E+02  0.41800000000E+01 0. -1.
         -5    1    3    3    0  502  0.14759304266E+02 -0.23827379564E+01  0.71721269163E+02  0.73382064246E+02  0.41800000000E+01 0. -1.
        -11    1    1    2    0    0 -0.17816349120E+02 -0.16519686219E+01 -0.11661327603E+02  0.21357384151E+02  0.00000000000E+00 0. -1.
         11    1    1    2    0    0  0.37280079144E+02 -0.10640854138E+02  0.10995528358E+03  0.11658986433E+03  0.00000000000E+00 0.  1.
</event>
<event>
 7    1  0.2844572E-009  0.1312052E+03  0.7561462E-02  0.1225678E+00
          3   -1    0    0  501    0  0.00000000000E+00  0.00000000000E+00  0.12083725953E+04  0.12083725953E+04  0.00000000000E+00 0. -1.
         -3   -1    0    0    0  501 -0.00000000000E+00 -0.00000000000E+00 -0.21213464238E+02  0.21213464238E+02  0.00000000000E+00 0.  1.
         25    2    1    2    0    0 -0.69423842958E+02  0.96504452296E+02  0.70854886574E+03  0.72926154059E+03  0.12509244644E+03 0.  0.
          5    1    3    3  502    0 -0.32317203867E+02  0.35423246186E+02  0.58103501696E+03  0.58302518931E+03  0.41800000000E+01 0. -1.
         -5    1    3    3    0  502 -0.37106639091E+02  0.61081206111E+02  0.12751384878E+03  0.14623635128E+03  0.41800000000E+01 0. -1.
        -11    1    1    2    0    0 -0.74543624415E+01  0.92893238633E+01  0.18604748207E+02  0.22090625004E+02  0.00000000000E+00 0.  1.
         11    1    1    2    0    0  0.76878205399E+02 -0.10579377616E+03  0.46000551707E+03  0.47823389390E+03  0.00000000000E+00 0. -1.
</event>
<event>
 7    1  0.2844572E-009  0.1035691E+03  0.7561462E-02  0.1272965E+00
          2   -1    0    0  501    0  0.00000000000E+00  0.00000000000E+00  0.49588081961E+03  0.49588081961E+03  0.00000000000E+00 0. -1.
         -2   -1    0    0    0  501 -0.00000000000E+00 -0.00000000000E+00 -0.35333102162E+02  0.35333102162E+02  0.00000000000E+00 0.  1.
         25    2    1    2    0    0 -0.69152775524E+02  0.25322574603E+02  0.27826066302E+03  0.31384551756E+03  0.12508666261E+03 0.  0.
          5    1    3    3  502    0  0.20007822948E+02  0.37438338077E+02  0.37532194549E+02  0.56816196324E+02  0.41800000000E+01 0. -1.
         -5    1    3    3    0  502 -0.89160598471E+02 -0.12115763474E+02  0.24072846847E+03  0.25702932124E+03  0.41800000000E+01 0. -1.
        -11    1    1    2    0    0  0.26459592208E+02 -0.15255499178E+02  0.16870833528E+03  0.17145070040E+03  0.00000000000E+00 0. -1.
         11    1    1    2    0    0  0.42693183316E+02 -0.10067075425E+02  0.13578719147E+02  0.45917703807E+02  0.00000000000E+00 0.  1.
</event>
<event>
 7    1  0.2844572E-009  0.1062705E+03  0.7561462E-02  0.1267636E+00
          1   -1    0    0  501    0  0.00000000000E+00  0.00000000000E+00  0.17563906737E+03  0.17563906737E+03  0.00000000000E+00 0. -1.
         -1   -1    0    0    0  501 -0.00000000000E+00 -0.00000000000E+00 -0.71860895694E+02  0.71860895694E+02  0.00000000000E+00 0.  1.
         25    2    1    2    0    0 -0.73555816810E+01 -0.29670094260E+02  0.69577137213E+02  0.14636461722E+03  0.12508878477E+03 0.  0.
          5    1    3    3  502    0  0.56109740557E+02 -0.24299077610E+02  0.51424426107E+02  0.80004325874E+02  0.41800000000E+01 0. -1.
         -5    1    3    3    0  502 -0.63465322238E+02 -0.53710166504E+01  0.18152711106E+02  0.66360291343E+02  0.41800000000E+01 0. -1.
        -11    1    1    2    0    0  0.37407006288E+02 -0.89757638707E+01  0.35239088953E+02  0.52169357354E+02  0.00000000000E+00 0. -1.
         11    1    1    2    0    0 -0.30051424607E+02  0.38645858131E+02 -0.10380544939E+01  0.48965988489E+02  0.00000000000E+00 0.  1.
</event>
<event>
 7    1  0.2844572E-009  0.1065470E+03  0.7561462E-02  0.1267101E+00
         -1   -1    0    0    0  501 -0.00000000000E+00  0.00000000000E+00  0.21612855589E+02  0.21612855589E+02  0.00000000000E+00 0.  1.
          1   -1    0    0  501    0  0.00000000000E+00 -0.00000000000E+00 -0.59015356952E+03  0.59015356952E+03  0.00000000000E+00 0. -1.
         25    2    1    2    0    0  0.62502050688E+01  0.21616985092E+02 -0.37536017648E+03  0.39629280337E+03  0.12508543002E+03 0.  0.
          5    1    3    3  502    0  0.61249691742E+02  0.27453987211E+02 -0.15315790014E+03  0.16727241532E+03  0.41800000000E+01 0. -1.
         -5    1    3    3    0  502 -0.54999486673E+02 -0.58370021193E+01 -0.22220227635E+03  0.22902038805E+03  0.41800000000E+01 0. -1.
        -11    1    1    2    0    0 -0.37416738683E+02  0.16709002434E+02 -0.12303381099E+03  0.12967853232E+03  0.00000000000E+00 0. -1.
         11    1    1    2    0    0  0.31166533614E+02 -0.38325987525E+02 -0.70146726452E+02  0.85795089424E+02  0.00000000000E+00 0.  1.
</event>
<event>
 7    1  0.2844572E-009  0.8035335E+02  0.7561462E-02  0.1328052E+00
         -1   -1    0    0    0  501 -0.00000000000E+00  0.00000000000E+00  0.86976318076E+02  0.86976318076E+02  0.00000000000E+00 0.  1.
          1   -1    0    0  501    0  0.00000000000E+00 -0.00000000000E+00 -0.20165893657E+03  0.20165893657E+03  0.00000000000E+00 0. -1.
         25    2    1    2    0    0 -0.26997223017E+02 -0.83088574058E+01  0.13367852564E+02  0.12893660455E+03  0.12509221138E+03 0.  0.
          5    1    3    3  502    0 -0.34799130006E+02  0.31715886039E+02  0.53623916631E+02  0.71483380664E+02  0.41800000000E+01 0.  1.
         -5    1    3    3    0  502  0.78019069888E+01 -0.40024743445E+02 -0.40256064067E+02  0.57453223883E+02  0.41800000000E+01 0.  1.
        -11    1    1    2    0    0 -0.83880309520E+01 -0.23446118708E+02 -0.20022909389E+01  0.24981767646E+02  0.00000000000E+00 0.  1.
         11    1    1    2    0    0  0.35385253969E+02  0.31754976113E+02 -0.12604818012E+03  0.13471688245E+03  0.00000000000E+00 0. -1.
</event>
<event>
 7    1  0.2844572E-009  0.8844142E+02  0.7561462E-02  0.1306671E+00
         -3   -1    0    0    0  501 -0.00000000000E+00  0.00000000000E+00  0.90545080569E+02  0.90545080569E+02  0.00000000000E+00 0.  1.
          3   -1    0    0  501    0  0.00000000000E+00 -0.00000000000E+00 -0.18068110127E+03  0.18068110127E+03  0.00000000000E+00 0. -1.
         25    2    1    2    0    0 -0.57733339006E+02  0.31033318530E+02 -0.79536130772E+02  0.16207965542E+03  0.12509042054E+03 0.  0.
          5    1    3    3  502    0 -0.46442318288E+02 -0.10322427991E+02 -0.10263603240E+03  0.11320366157E+03  0.41800000000E+01 0. -1.
         -5    1    3    3    0  502 -0.11291020718E+02  0.41355746521E+02  0.23099901624E+02  0.48875993844E+02  0.41800000000E+01 0. -1.
        -11    1    1    2    0    0  0.35692368966E+02 -0.46868375235E+02  0.25323473420E+02  0.64123849741E+02  0.00000000000E+00 0.  1.
         11    1    1    2    0    0  0.22040970040E+02  0.15835056705E+02 -0.35923363348E+02  0.45022676679E+02  0.00000000000E+00 0. -1.
</event>
<event>
 7    1  0.2844572E-009  0.6994291E+02  0.7561462E-02  0.1360287E+00
          1   -1    0    0  501    0  0.00000000000E+00  0.00000000000E+00  0.79878917229E+02  0.79878917229E+02  0.00000000000E+00 0. -1.
         -1   -1    0    0    0  501 -0.00000000000E+00 -0.00000000000E+00 -0.17070005214E+03  0.17070005214E+03  0.00000000000E+00 0.  1.
         25    2    1    2    0    0  0.31680235819E+02 -0.30390888842E+02 -0.56334856643E+02  0.14404454306E+03  0.12509184964E+03 0.  0.
          5    1    3    3  502    0  0.32200139249E+02 -0.18413286626E+02  0.35394497799E+02  0.51440654802E+02  0.41800000000E+01 0.  1.
         -5    1    3    3    0  502 -0.51990342969E+00 -0.11977602216E+02 -0.91729354441E+02  0.92603888259E+02  0.41800000000E+01 0.  1.
        -11    1    1    2    0    0  0.22555711061E+02  0.27474072102E+02 -0.38090579955E+02  0.52100643188E+02  0.00000000000E+00 0.  1.
         11    1    1    2    0    0 -0.54235946881E+02  0.29168167403E+01  0.36043016885E+01  0.54433783119E+02  0.00000000000E+00 0. -1.
</event>
<event>
 7    1  0.2844572E-009  0.1151525E+03  0.7561462E-02  0.1251315E+00
          4   -1    0    0  501    0  0.00000000000E+00  0.00000000000E+00  0.16472235240E+03  0.16472235240E+03  0.00000000000E+00 0.  1.
         -4   -1    0    0    0  501 -0.00000000000E+00 -0.00000000000E+00 -0.20729930131E+03  0.20729930131E+03  0.00000000000E+00 0. -1.
         25    2    1    2    0    0 -0.64880117851E+02  0.74059451745E+02  0.90405194114E+02  0.18307013833E+03  0.12508934542E+03 0.  0.
          5    1    3    3  502    0 -0.63732524172E+02  0.31305538722E+02 -0.11889295238E+02  0.72115872964E+02  0.41800000000E+01 0. -1.
         -5    1    3    3    0  502 -0.11475936781E+01  0.42753913024E+02  0.10229448935E+03  0.11095426536E+03  0.41800000000E+01 0. -1.
        -11    1    1    2    0    0  0.30793453554E+02  0.39745555274E+01 -0.83477381058E-02  0.31048896004E+02  0.00000000000E+00 0.  1.
         11    1    1    2    0    0  0.34086664297E+02 -0.78034007273E+02 -0.13297379529E+03  0.15790261938E+03  0.00000000000E+00 0. -1.
</event>
<event>
 7    1  0.2844572E-009  0.1069821E+03  0.7561462E-02  0.1266263E+00
         -2   -1    0    0    0  501 -0.00000000000E+00  0.00000000000E+00  0.14973203275E+03  0.14973203275E+03  0.00000000000E+00 0.  1.
          2   -1    0    0  501    0  0.00000000000E+00 -0.00000000000E+00 -0.99609608623E+02  0.99609608623E+02  0.00000000000E+00 0. -1.
         25    2    1    2    0    0 -0.44654766372E+02 -0.78333090075E+01 -0.11603672070E+02  0.13354329787E+03  0.12507501073E+03 0.  0.
          5    1    3    3  502    0 -0.27975255581E+02 -0.63527520530E+02  0.12163070010E+02  0.70595845923E+02  0.41800000000E+01 0. -1.
         -5    1    3    3    0  502 -0.16679510792E+02  0.55694211522E+02 -0.23766742080E+02  0.62947451945E+02  0.41800000000E+01 0. -1.
        -11    1    1    2    0    0  0.87632073675E+00  0.34739184159E+02  0.53445982688E+02  0.63749917016E+02  0.00000000000E+00 0.  1.
         11    1    1    2    0    0  0.43778445636E+02 -0.26905875151E+02  0.82801135053E+01  0.52048426485E+02  0.00000000000E+00 0. -1.
</event>
<event>
 7    1  0.2844572E-009  0.1574968E+03  0.7561462E-02  0.1191552E+00
          3   -1    0    0  501    0  0.00000000000E+00  0.00000000000E+00  0.30353053875E+03  0.30353053875E+03  0.00000000000E+00 0. -1.
         -3   -1    0    0    0  501 -0.00000000000E+00 -0.00000000000E+00 -0.11007717497E+03  0.11007717497E+03  0.00000000000E+00 0.  1.
         25    2    1    2    0    0 -0.32735119793E+02  0.13039288357E+03  0.35717108553E+02  0.18707289006E+03  0.12508661878E+03 0.  0.
          5    1    3    3  502    0 -0.63397407702E+02  0.90190352981E+02 -0.19560428023E+02  0.11204291061E+03  0.41800000000E+01 0. -1.
         -5    1    3    3    0  502  0.30662287909E+02  0.40202530593E+02  0.55277536576E+02  0.75029979447E+02  0.41800000000E+01 0. -1.
        -11    1    1    2    0    0 -0.60288703296E+01 -0.10994698645E+03  0.76009200669E+02  0.13379867598E+03  0.00000000000E+00 0.  1.
         11    1    1    2    0    0  0.38763990123E+02 -0.20445897122E+02  0.81727054562E+02  0.92736147681E+02  0.00000000000E+00 0. -1.
</event>
<event>
 7    1  0.2844572E-009  0.1947208E+03  0.7561462E-02  0.1154271E+00
         -1   -1    0    0    0  501 -0.00000000000E+00  0.00000000000E+00  0.25611883644E+03  0.25611883644E+03  0.00000000000E+00 0.  1.
          1   -1    0    0  501    0  0.00000000000E+00 -0.00000000000E+00 -0.17440789790E+03  0.17440789790E+03  0.00000000000E+00 0. -1.
         25    2    1    2    0    0 -0.14304419251E+03  0.98173411174E+02 -0.99894579288E+01  0.21411656995E+03  0.12508579690E+03 0.  0.
          5    1    3    3  502    0 -0.16035662328E+03  0.79964766391E+02  0.13130392794E+02  0.17971780687E+03  0.41800000000E+01 0. -1.
         -5    1    3    3    0  502  0.17312430766E+02  0.18208644783E+02 -0.23119850722E+02  0.34398763078E+02  0.41800000000E+01 0. -1.
        -11    1    1    2    0    0  0.12471946563E+03 -0.10705990123E+03  0.10214632799E+03  0.19352167807E+03  0.00000000000E+00 0.  1.
         11    1    1    2    0    0  0.18324726875E+02  0.88864900530E+01 -0.10445931527E+02  0.22888486319E+02  0.00000000000E+00 0. -1.
</event>
<event>
 7    1  0.2844572E-009  0.1750610E+03  0.7561462E-02  0.1172671E+00
         -3   -1    0    0    0  501 -0.00000000000E+00  0.00000000000E+00  0.31437788801E+03  0.31437788801E+03  0.00000000000E+00 0.  1.
          3   -1    0    0  501    0  0.00000000000E+00 -0.00000000000E+00 -0.14216780621E+03  0.14216780621E+03  0.00000000000E+00 0. -1.
         25    2    1    2    0    0  0.55522404734E+02 -0.15096404069E+03  0.18221013997E+03  0.27336445813E+03  0.12511879496E+03 0.  0.
          5    1    3    3  502    0  0.57177545924E+02 -0.93881929996E+02  0.35040948483E+02  0.11544881553E+03  0.41800000000E+01 0.  1.
         -5    1    3    3    0  502 -0.16551411904E+01 -0.57082110697E+02  0.14716919149E+03  0.15791564260E+03  0.41800000000E+01 0.  1.
        -11    1    1    2    0    0  0.20515664404E+02  0.64666645877E+02 -0.16920643710E+01  0.67864060126E+02  0.00000000000E+00 0.  1.
         11    1    1    2    0    0 -0.76038069138E+02  0.86297394816E+02 -0.83079938095E+01  0.11531717596E+03  0.00000000000E+00 0. -1.
</event>
<event>
 7    1  0.2844572E-009  0.2284435E+03  0.7561462E-02  0.1127740E+00
         -2   -1    0    0    0  501 -0.00000000000E+00  0.00000000000E+00  0.16250935307E+03  0.16250935307E+03  0.00000000000E+00 0.  1.
          2   -1    0    0  501    0  0.00000000000E+00 -0.00000000000E+00 -0.57558030180E+03  0.57558030180E+03  0.00000000000E+00 0. -1.
         25    2    1    2    0    0 -0.14073806641E+03 -0.15710009904E+03  0.22102892944E+02  0.24621954352E+03  0.12509149164E+03 0.  0.
          5    1    3    3  502    0  0.22985652596E+02 -0.28129918866E+02 -0.21143263952E+00  0.36567057093E+02  0.41800000000E+01 0. -1.
         -5    1    3    3    0  502 -0.16372371901E+03 -0.12897018017E+03  0.22314325584E+02  0.20965248643E+03  0.41800000000E+01 0. -1.
        -11    1    1    2    0    0  0.69943830486E+02  0.92925167271E+02 -0.32938735815E+03  0.34931827585E+03  0.00000000000E+00 0.  1.
         11    1    1    2    0    0  0.70794235928E+02  0.64174931769E+02 -0.10578648352E+03  0.14255183550E+03  0.00000000000E+00 0. -1.
</event>
<event>
 7    1  0.2844572E-009  0.1324116E+03  0.7561462E-02  0.1223921E+00
          1   -1    0    0  501    0  0.00000000000E+00  0.00000000000E+00  0.13804370048E+03  0.13804370048E+03  0.00000000000E+00 0. -1.
         -1   -1    0    0    0  501 -0.00000000000E+00 -0.00000000000E+00 -0.17372371943E+03  0.17372371943E+03  0.00000000000E+00 0.  1.
         25    2    1    2    0    0  0.71770003364E+02 -0.82483564205E+02 -0.27581233857E+02  0.16841079193E+03  0.12508796357E+03 0.  0.
          5    1    3    3  502    0  0.95196929671E+02 -0.86708975270E+02  0.36908077729E+01  0.12888753343E+03  0.41800000000E+01 0.  1.
         -5    1    3    3    0  502 -0.23426926307E+02  0.42254110641E+01 -0.31272041630E+02  0.39523258501E+02  0.41800000000E+01 0.  1.
        -11    1    1    2    0    0 -0.68066754826E+01  0.22107969355E+02  0.37172944606E+02  0.43782655822E+02  0.00000000000E+00 0. -1.
         11    1    1    2    0    0 -0.64963327881E+02  0.60375594850E+02 -0.45271729698E+02  0.99573972165E+02  0.00000000000E+00 0.  1.
</event>
<event>
 7    1  0.2844572E-009  0.1600676E+03  0.7561462E-02  0.1188620E+00
          2   -1    0    0  501    0  0.00000000000E+00  0.00000000000E+00  0.13221175367E+03  0.13221175367E+03  0.00000000000E+00 0. -1.
         -2   -1    0    0    0  501 -0.00000000000E+00 -0.00000000000E+00 -0.20709544665E+03  0.20709544665E+03  0.00000000000E+00 0.  1.
         25    2    1    2    0    0  0.23095639802E+02 -0.12252782951E+03 -0.33591902768E+02  0.17978238341E+03  0.12508721706E+03 0.  0.
          5    1    3    3  502    0  0.67440116900E+02 -0.58799799513E+02  0.10850425505E+02  0.90226326113E+02  0.41800000000E+01 0.  1.
         -5    1    3    3    0  502 -0.44344477098E+02 -0.63728029999E+02 -0.44442328273E+02  0.89556057299E+02  0.41800000000E+01 0.  1.
        -11    1    1    2    0    0 -0.32784890928E+02  0.30317254224E+01 -0.63700575344E+00  0.32930930878E+02  0.00000000000E+00 0.  1.
         11    1    1    2    0    0  0.96892511256E+01  0.11949610409E+03 -0.40654784462E+02  0.12659388603E+03  0.00000000000E+00 0. -1.
</event>
<event>
 7    1  0.2844572E-009  0.1410404E+03  0.7561462E-02  0.1211936E+00
         -3   -1    0    0    0  501 -0.00000000000E+00  0.00000000000E+00  0.13941736325E+04  0.13941736325E+04  0.00000000000E+00 0.  1.
          3   -1    0    0  501    0  0.00000000000E+00 -0.00000000000E+00 -0.19439970515E+02  0.19439970515E+02  0.00000000000E+00 0. -1.
         25    2    1    2    0    0 -0.47931372481E+02  0.11424641911E+03  0.71702988333E+03  0.73832869716E+03  0.12509096975E+03 0.  0.
          5    1    3    3  502    0 -0.36174647709E+02  0.11037142818E+03  0.30971061727E+03  0.33079993371E+03  0.41800000000E+01 0.  1.
         -5    1    3    3    0  502 -0.11756724772E+02  0.38749909352E+01  0.40731926606E+03  0.40752876345E+03  0.41800000000E+01 0.  1.
        -11    1    1    2    0    0 -0.23962346455E+02 -0.53682861426E+02  0.23296751461E+03  0.24027048616E+03  0.00000000000E+00 0.  1.
         11    1    1    2    0    0  0.71893718936E+02 -0.60563557688E+02  0.42473626402E+03  0.43501441967E+03  0.00000000000E+00 0. -1.
</event>
<event>
 7    1  0.2844572E-009  0.2322184E+03  0.7561462E-02  0.1125088E+00
          1   -1    0    0  501    0  0.00000000000E+00  0.00000000000E+00  0.29927003392E+03  0.29927003392E+03  0.00000000000E+00 0. -1.
         -1   -1    0    0    0  501 -0.00000000000E+00 -0.00000000000E+00 -0.21447016967E+03  0.21447016967E+03  0.00000000000E+00 0.  1.
         25    2    1    2    0    0  0.21166562867E+03  0.57326694981E+02 -0.21235583934E+02  0.25335282575E+03  0.12509203001E+03 0.  0.
          5    1    3    3  502    0  0.41186508098E+02  0.61424388843E+02  0.22203980095E+02  0.77328992791E+02  0.41800000000E+01 0. -1.
         -5    1    3    3    0  502  0.17047912057E+03 -0.40976938613E+01 -0.43439564029E+02  0.17602383296E+03  0.41800000000E+01 0. -1.
        -11    1    1    2    0    0 -0.11374253703E+03 -0.23194352255E+02  0.10523417091E+03  0.15668303492E+03  0.00000000000E+00 0. -1.
         11    1    1    2    0    0 -0.97923091644E+02 -0.34132342727E+02  0.80127727369E+00  0.10370434293E+03  0.00000000000E+00 0.  1.
</event>
<event>
 7    1  0.2844572E-009  0.1097809E+03  0.7561462E-02  0.1260976E+00
         -1   -1    0    0    0  501 -0.00000000000E+00  0.00000000000E+00  0.30735302424E+03  0.30735302424E+03  0.00000000000E+00 0.  1.
          1   -1    0    0  501    0  0.00000000000E+00 -0.00000000000E+00 -0.75619200754E+02  0.75619200754E+02  0.00000000000E+00 0. -1.
         25    2    1    2    0    0 -0.63526990947E+02 -0.41812358830E+01  0.17174144457E+02  0.14139702637E+03  0.12508000046E+03 0.  0.
          5    1    3    3  502    0 -0.10004374264E+03  0.50168712279E+01  0.23525241270E+02  0.10297974954E+03  0.41800000000E+01 0. -1.
         -5    1    3    3    0  502  0.36516751690E+02 -0.91981071109E+01 -0.63510968136E+01  0.38417276832E+02  0.41800000000E+01 0. -1.
        -11    1    1    2    0    0 -0.81113154855E+00  0.15984145214E+02 -0.12661415530E+01  0.16054717283E+02  0.00000000000E+00 0. -1.
         11    1    1    2    0    0  0.64338122495E+02 -0.11802909331E+02  0.21582582058E+03  0.22552048134E+03  0.00000000000E+00 0.  1.
</event>
<event>
 7    1  0.2844572E-009  0.1118087E+03  0.7561462E-02  0.1257257E+00
         -2   -1    0    0    0  501 -0.00000000000E+00  0.00000000000E+00  0.10808466642E+03  0.10808466642E+03  0.00000000000E+00 0.  1.
          2   -1    0    0  501    0  0.00000000000E+00 -0.00000000000E+00 -0.12937705748E+03  0.12937705748E+03  0.00000000000E+00 0. -1.
         25    2    1    2    0    0 -0.16643998867E+01 -0.31948546709E+02  0.24324672103E+02  0.13138748619E+03  0.12508997558E+03 0.  0.
          5    1    3    3  502    0  0.88629891018E+01  0.47666480569E+02  0.10677911165E+02  0.49821041062E+02  0.41800000000E+01 0.  1.
         -5    1    3    3    0  502 -0.10527388989E+02 -0.79615027277E+02  0.13646760938E+02  0.81566445131E+02  0.41800000000E+01 0.  1.
        -11    1    1    2    0    0 -0.17774813832E+02  0.58777390331E+02 -0.37542563361E+02  0.71973395672E+02  0.00000000000E+00 0. -1.
         11    1    1    2    0    0  0.19439213719E+02 -0.26828843622E+02 -0.80744998073E+01  0.34100842031E+02  0.00000000000E+00 0.  1.
</event>
<event>
 7    1  0.2844572E-009  0.1630238E+03  0.7561462E-02  0.1185325E+00
          2   -1    0    0  501    0  0.00000000000E+00  0.00000000000E+00  0.30006635764E+02  0.30006635764E+02  0.00000000000E+00 0. -1.
         -2   -1    0    0    0  501 -0.00000000000E+00 -0.00000000000E+00 -0.11418017965E+04  0.11418017965E+04  0.00000000000E+00 0.  1.
         25    2    1    2    0    0 -0.12473426692E+03 -0.69452437571E+02 -0.44002822209E+03  0.47922247374E+03  0.12508822757E+03 0.  0.
          5    1    3    3  502    0 -0.10008802179E+03  0.93273821007E+01 -0.17796692631E+03  0.20443657066E+03  0.41800000000E+01 0.  1.
         -5    1    3    3    0  502 -0.24646245128E+02 -0.78779819672E+02 -0.26206129578E+03  0.27478590309E+03  0.41800000000E+01 0.  1.
        -11    1    1    2    0    0  0.18423197856E+02  0.92600757177E+01 -0.17601321796E+02  0.27110325533E+02  0.00000000000E+00 0. -1.
         11    1    1    2    0    0  0.10631106907E+03  0.60192361853E+02 -0.65416561690E+03  0.66547563304E+03  0.00000000000E+00 0.  1.
</event>
<event>
 7    1  0.2844572E-009  0.8743224E+02  0.7561462E-02  0.1309192E+00
          2   -1    0    0  501    0  0.00000000000E+00  0.00000000000E+00  0.57373258075E+03  0.57373258075E+03  0.00000000000E+00 0. -1.
         -2   -1    0    0    0  501 -0.00000000000E+00 -0.00000000000E+00 -0.51271312855E+02  0.51271312855E+02  0.00000000000E+00 0.  1.
         25    2    1    2    0    0  0.37088831545E+02 -0.16958938431E+02  0.50944671690E+03  0.52616274258E+03  0.12509231512E+03 0.  0.
          5    1    3    3  502    0 -0.19828305852E+02 -0.54203983230E+01  0.41279619081E+03  0.41332881581E+03  0.41800000000E+01 0. -1.
         -5    1    3    3    0  502  0.56917137397E+02 -0.11538540108E+02  0.96650526094E+02  0.11283392678E+03  0.41800000000E+01 0. -1.
        -11    1    1    2    0    0  0.25057549647E+02  0.21955938950E+02 -0.55811697552E+01  0.33780075567E+02  0.00000000000E+00 0.  1.
         11    1    1    2    0    0 -0.62146381192E+02 -0.49970005188E+01  0.18595720750E+02  0.65061075457E+02  0.00000000000E+00 0. -1.
</event>
<event>
 6    1  0.2844572E-009  0.8693787E+02  0.7561462E-02  0.1310441E+00
         -1   -1    0    0    0  501 -0.00000000000E+00  0.00000000000E+00  0.16751780374E+03  0.16751780374E+03  0.00000000000E+00 0.  1.
          1   -1    0    0  501    0  0.00000000000E+00 -0.00000000000E+00 -0.76412085338E+02  0.76412085338E+02  0.00000000000E+00 0. -1.
          5    1    1    2  502    0 -0.35487612129E+02 -0.12623397593E+02 -0.25210424503E+02  0.45516575936E+02  0.41800000000E+01 0. -1.
         -5    1    1    2    0  502  0.45999783785E+02  0.40587737878E+02  0.64607239290E+02  0.89190315298E+02  0.41800000000E+01 0. -1.
        -11    1    1    2    0    0  0.13121677357E+02 -0.44009777039E+02  0.63460395089E+02  0.78334287745E+02  0.00000000000E+00 0.  1.
         11    1    1    2    0    0 -0.23633849014E+02  0.16045436754E+02 -0.11751491472E+02  0.30888710100E+02  0.00000000000E+00 0. -1.
</event>
<event>
 7    1  0.2844572E-009  0.1464292E+03  0.7561462E-02  0.1204931E+00
          2   -1    0    0  501    0  0.00000000000E+00  0.00000000000E+00  0.13962493683E+04  0.13962493683E+04  0.00000000000E+00 0. -1.
         -2   -1    0    0    0  501 -0.00000000000E+00 -0.00000000000E+00 -0.16983616273E+02  0.16983616273E+02  0.00000000000E+00 0.  1.
         25    2    1    2    0    0  0.16133153510E+02  0.93148947616E+02  0.85204429615E+03  0.86635138149E+03  0.12509287961E+03 0.  0.
          5    1    3    3  502    0 -0.16142669831E+02 -0.22283609248E+02  0.72930607605E+02  0.78060815753E+02  0.41800000000E+01 0. -1.
         -5    1    3    3    0  502  0.32275823341E+02  0.11543255686E+03  0.77911368854E+03  0.78829056574E+03  0.41800000000E+01 0. -1.
        -11    1    1    2    0    0  0.19364028316E+02  0.19200691365E+02  0.87740903593E+02  0.91880891946E+02  0.00000000000E+00 0.  1.
         11    1    1    2    0    0 -0.35497181826E+02 -0.11234963898E+03  0.43948055230E+03  0.45500071115E+03  0.00000000000E+00 0. -1.
</event>
<event>
 7    1  0.2844572E-009  0.1565599E+03  0.7561462E-02  0.1192636E+00
          2   -1    0    0  501    0  0.00000000000E+00  0.00000000000E+00  0.11259986732E+04  0.11259986732E+04  0.00000000000E+00 0. -1.
         -2   -1    0    0    0  501 -0.00000000000E+00 -0.00000000000E+00 -0.27869997754E+02  0.27869997754E+02  0.00000000000E+00 0.  1.
         25    2    1    2    0    0  0.12906861733E+03 -0.33701878919E+02  0.70629496394E+03  0.72958469811E+03  0.12508689382E+03 0.  0.
          5    1    3    3  502    0  0.59541050851E+01 -0.47623009318E+02  0.10334425158E+03  0.11402152919E+03  0.41800000000E+01 0. -1.
         -5    1    3    3    0  502  0.12311451224E+03  0.13921130399E+02  0.60295071236E+03  0.61556316892E+03  0.41800000000E+01 0. -1.
        -11    1    1    2    0    0 -0.28825602969E+02  0.28593444302E+02  0.35009519130E+02  0.53611256964E+02  0.00000000000E+00 0.  1.
         11    1    1    2    0    0 -0.10024301436E+03  0.51084346163E+01  0.35682419237E+03  0.37067271587E+03  0.00000000000E+00 0. -1.
</event>
<event>
 7    1  0.2844572E-009  0.7713608E+02  0.7561462E-02  0.1337381E+00
         -1   -1    0    0    0  501 -0.00000000000E+00  0.00000000000E+00  0.39791692198E+02  0.39791692198E+02  0.00000000000E+00 0.  1.
          1   -1    0    0  501    0  0.00000000000E+00 -0.00000000000E+00 -0.36468431266E+03  0.36468431266E+03  0.00000000000E+00 0. -1.
         25    2    1    2    0    0 -0.38915062785E+01 -0.60882188012E+02 -0.17197570317E+03  0.22123468591E+03  0.12508940455E+03 0.  0.
          5    1    3    3  502    0  0.27165379479E+02 -0.48195671816E+02 -0.10764340396E+02  0.56516582064E+02  0.41800000000E+01 0.  1.
         -5    1    3    3    0  502 -0.31056885757E+02 -0.12686516195E+02 -0.16121136278E+03  0.16471810385E+03  0.41800000000E+01 0.  1.
        -11    1    1    2    0    0 -0.85137249747E+01  0.38123591696E+02 -0.15238908298E+03  0.15731600163E+03  0.00000000000E+00 0. -1.
         11    1    1    2    0    0  0.12405231253E+02  0.22758596316E+02 -0.52783430133E+00  0.25925317313E+02  0.00000000000E+00 0.  1.
</event>
<event>
 7    1  0.2844572E-009  0.1079976E+03  0.7561462E-02  0.1264324E+00
          1   -1    0    0  501    0  0.00000000000E+00  0.00000000000E+00  0.46502514829E+02  0.46502514829E+02  0.00000000000E+00 0. -1.
         -1   -1    0    0    0  501 -0.00000000000E+00 -0.00000000000E+00 -0.44956159656E+03  0.44956159656E+03  0.00000000000E+00 0.  1.
         25    2    1    2    0    0  0.16901655669E+02 -0.76980096461E+02 -0.13055063175E+03  0.19723776990E+03  0.12509064398E+03 0.  0.
          5    1    3    3  502    0 -0.29001352769E+02 -0.65367186627E+01  0.11473235892E+02  0.32138990263E+02  0.41800000000E+01 0.  1.
         -5    1    3    3    0  502  0.45903008437E+02 -0.70443377798E+02 -0.14202386764E+03  0.16509877964E+03  0.41800000000E+01 0.  1.
        -11    1    1    2    0    0 -0.29353815690E+02  0.63003688808E+01 -0.17608378589E+03  0.17862486053E+03  0.00000000000E+00 0.  1.
         11    1    1    2    0    0  0.12452160021E+02  0.70679727580E+02 -0.96424664089E+02  0.12020148096E+03  0.00000000000E+00 0. -1.
</event>
<event>
 7    1  0.6251164E-009  0.1076777E+03  0.7561462E-02  0.1264932E+00
         -1   -1    0    0    0  501 -0.00000000000E+00  0.00000000000E+00  0.24359647156E+02  0.24359647156E+02  0.00000000000E+00 0. -1.
          1   -1    0    0  501    0  0.00000000000E+00 -0.00000000000E+00 -0.80098454311E+03  0.80098454311E+03  0.00000000000E+00 0.  1.
         25    2    1    2    0    0 -0.79065551368E+02  0.28844262700E+01 -0.53520710768E+03  0.55529575268E+03  0.12508814291E+03 0.  0.
          5    1    3    3  502    0 -0.96741363825E+02  0.11679349644E+02 -0.52232696175E+03  0.53135508471E+03  0.41800000000E+01 0.  1.
         -5    1    3    3    0  502  0.17675812457E+02 -0.87949233740E+01 -0.12880145936E+02  0.23940667963E+02  0.41800000000E+01 0.  1.
        -11    1    1    2    0    0  0.37462649054E+02 -0.29989470519E+02 -0.19912110100E+03  0.20482195019E+03  0.00000000000E+00 0.  1.
         11    1    1    2    0    0  0.41602902314E+02  0.27105044249E+02 -0.42296687280E+02  0.65226487408E+02  0.00000000000E+00 0. -1.
</event>
<event>
 7    1  0.2844572E-009  0.1498058E+03  0.7561462E-02  0.1200712E+00
         -2   -1    0    0    0  501 -0.00000000000E+00  0.00000000000E+00  0.23625433867E+03  0.23625433867E+03  0.00000000000E+00 0.  1.
          2   -1    0    0  501    0  0.00000000000E+00 -0.00000000000E+00 -0.22627827488E+03  0.22627827488E+03  0.00000000000E+00 0. -1.
         25    2    1    2    0    0  0.13238691495E+03  0.16088888467E+02 -0.14886671235E+03  0.23578463377E+03  0.12509175790E+03 0.  0.
          5    1    3    3  502    0  0.10496372367E+03 -0.39619972849E+01 -0.16678592231E+03  0.19714993530E+03  0.41800000000E+01 0.  1.
         -5    1    3    3    0  502  0.27423191281E+02  0.20050885752E+02  0.17919209967E+02  0.38634698463E+02  0.41800000000E+01 0.  1.
        -11    1    1    2    0    0  0.59177685878E+01 -0.21052641011E+02  0.11910396231E+02  0.24901630810E+02  0.00000000000E+00 0.  1.
         11    1    1    2    0    0 -0.13830468354E+03  0.49637525440E+01  0.14693237990E+03  0.20184634897E+03  0.00000000000E+00 0. -1.
</event>
<event>
 7    1  0.2844572E-009  0.1263951E+03  0.7561462E-02  0.1232905E+00
          1   -1    0    0  501    0  0.00000000000E+00  0.00000000000E+00  0.30620242357E+03  0.30620242357E+03  0.00000000000E+00 0. -1.
         -1   -1    0    0    0  501 -0.00000000000E+00 -0.00000000000E+00 -0.87500620984E+02  0.87500620984E+02  0.00000000000E+00 0.  1.
         25    2    1    2    0    0  0.88270366687E+02  0.18886532408E+02  0.21527610677E+03  0.26483789945E+03  0.12508777757E+03 0.  0.
          5    1    3    3  502    0  0.22785628027E+01  0.37423133368E+02  0.15144202020E+03  0.15606998635E+03  0.41800000000E+01 0.  1.
         -5    1    3    3    0  502  0.85991803884E+02 -0.18536600960E+02  0.63834086576E+02  0.10876791310E+03  0.41800000000E+01 0.  1.
        -11    1    1    2    0    0 -0.25990889255E+02 -0.50767562804E+02 -0.91959731748E+01  0.57770560668E+02  0.00000000000E+00 0.  1.
         11    1    1    2    0    0 -0.62279477432E+02  0.31881030396E+02  0.12621668991E+02  0.71094584438E+02  0.00000000000E+00 0. -1.
</event>
<event>
 7    1  0.2844572E-009  0.2156112E+03  0.7561462E-02  0.1137198E+00
          1   -1    0    0  501    0  0.00000000000E+00  0.00000000000E+00  0.50491639328E+03  0.50491639328E+03  0.00000000000E+00 0. -1.
         -1   -1    0    0    0  501 -0.00000000000E+00 -0.00000000000E+00 -0.95848610603E+02  0.95848610603E+02  0.00000000000E+00 0.  1.
         25    2    1    2    0    0  0.12232015493E+03 -0.15467922749E+03  0.17541521287E+03  0.29207369178E+03  0.12509460742E+03 0.  0.
          5    1    3    3  502    0 -0.43231973457E+01 -0.88214219905E+02  0.86013980423E+02  0.12335443185E+03  0.41800000000E+01 0. -1.
         -5    1    3    3    0  502  0.12664335227E+03 -0.66465007589E+02  0.89401232442E+02  0.16871925993E+03  0.41800000000E+01 0. -1.
        -11    1    1    2    0    0 -0.55944587214E+02  0.96056840418E+02  0.10815157268E+03  0.15509183120E+03  0.00000000000E+00 0.  1.
         11    1    1    2    0    0 -0.66375567712E+02  0.58622387076E+02  0.12550099713E+03  0.15359948091E+03  0.00000000000E+00 0. -1.
</event>
<event>
 7    1  0.2844572E-009  0.1070782E+03  0.7561462E-02  0.1266078E+00
         -1   -1    0    0    0  501 -0.00000000000E+00  0.00000000000E+00  0.11653992067E+03  0.11653992067E+03  0.00000000000E+00 0.  1.
          1   -1    0    0  501    0  0.00000000000E+00 -0.00000000000E+00 -0.11678082103E+03  0.11678082103E+03  0.00000000000E+00 0. -1.
         25    2    1    2    0    0  0.29876858010E+02  0.30703773344E+02 -0.19989961389E+01  0.13222844013E+03  0.12508003859E+03 0.  0.
          5    1    3    3  502    0  0.39463589281E+02 -0.40977901908E+02  0.12386081824E+02  0.58373373610E+02  0.41800000000E+01 0.  1.
         -5    1    3    3    0  502 -0.95867312713E+01  0.71681675252E+02 -0.14385077963E+02  0.73855066525E+02  0.41800000000E+01 0.  1.
        -11    1    1    2    0    0 -0.35793191071E+02  0.14838307169E+02 -0.26708719820E+02  0.47060424999E+02  0.00000000000E+00 0. -1.
         11    1    1    2    0    0  0.59163330612E+01 -0.45542080513E+02  0.28466815602E+02  0.54031876562E+02  0.00000000000E+00 0.  1.
</event>
<event>
 7    1  0.2844572E-009  0.2224237E+03  0.7561462E-02  0.1132089E+00
          2   -1    0    0  501    0  0.00000000000E+00  0.00000000000E+00  0.47466262198E+03  0.47466262198E+03  0.00000000000E+00 0. -1.
         -2   -1    0    0    0  501 -0.00000000000E+00 -0.00000000000E+00 -0.12940566300E+03  0.12940566300E+03  0.00000000000E+00 0.  1.
         25    2    1    2    0    0 -0.10343588368E+02  0.21886762604E+03  0.13478650093E+03  0.28605062686E+03  0.12509009853E+03 0.  0.
          5    1    3    3  502    0 -0.60481019076E+00  0.19211141884E+03  0.15823897847E+03  0.24892611303E+03  0.41800000000E+01 0. -1.
         -5    1    3    3    0  502 -0.97387781775E+01  0.26756207201E+02 -0.23452477543E+02  0.37124513830E+02  0.41800000000E+01 0. -1.
        -11    1    1    2    0    0  0.27969065181E+02 -0.10384036014E+03  0.47013563293E+02  0.11736849719E+03  0.00000000000E+00 0.  1.
         11    1    1    2    0    0 -0.17625476812E+02 -0.11502726590E+03  0.16345689476E+03  0.20064916092E+03  0.00000000000E+00 0. -1.
</event>
<event>
 7    1  0.2844572E-009  0.1090371E+03  0.7561462E-02  0.1262363E+00
         -3   -1    0    0    0  501 -0.00000000000E+00  0.00000000000E+00  0.52512948102E+03  0.52512948102E+03  0.00000000000E+00 0.  1.
          3   -1    0    0  501    0  0.00000000000E+00 -0.00000000000E+00 -0.47106496910E+02  0.47106496910E+02  0.00000000000E+00 0. -1.
         25    2    1    2    0    0 -0.98244642026E+02  0.41291318245E+01  0.15524953670E+03  0.22230237462E+03  0.12508744021E+03 0.  0.
          5    1    3    3  502    0 -0.57459958916E+02  0.24978557504E+02  0.16388537090E+03  0.17550345412E+03  0.41800000000E+01 0. -1.
         -5    1    3    3    0  502 -0.40784683110E+02 -0.20849425680E+02 -0.86358341952E+01  0.46798920498E+02  0.41800000000E+01 0. -1.
        -11    1    1    2    0    0  0.69383945819E+02 -0.24911677994E+02  0.29699786897E+03  0.30601055180E+03  0.00000000000E+00 0.  1.
         11    1    1    2    0    0  0.28860696207E+02  0.20782546170E+02  0.25775578441E+02  0.43923051520E+02  0.00000000000E+00 0. -1.
</event>
<event>
 7    1  0.2844572E-009  0.1673701E+03  0.7561462E-02  0.1180618E+00
          1   -1    0    0  501    0  0.00000000000E+00  0.00000000000E+00  0.49841552305E+03  0.49841552305E+03  0.00000000000E+00 0. -1.
         -1   -1    0    0    0  501 -0.00000000000E+00 -0.00000000000E+00 -0.77530636237E+02  0.77530636237E+02  0.00000000000E+00 0.  1.
         25    2    1    2    0    0  0.40236112904E+02  0.12706042346E+03  0.35836801314E+03  0.40230162168E+03  0.12512260376E+03 0.  0.
          5    1    3    3  502    0  0.72369970998E+02  0.34422257807E+02  0.20581365530E+03  0.22090504214E+03  0.41800000000E+01 0. -1.
         -5    1    3    3    0  502 -0.32133858095E+02  0.92638165656E+02  0.15255435784E+03  0.18139657953E+03  0.41800000000E+01 0. -1.
        -11    1    1    2    0    0  0.16798356883E+02 -0.81888988805E+02  0.55956151988E+02  0.10059364904E+03  0.00000000000E+00 0.  1.
         11    1    1    2    0    0 -0.57034469787E+02 -0.45171434659E+02  0.65607216923E+01  0.73050888578E+02  0.00000000000E+00 0. -1.
</event>
<event>
 7    1  0.2844572E-009  0.9950185E+02  0.7561462E-02  0.1281347E+00
          1   -1    0    0  501    0  0.00000000000E+00  0.00000000000E+00  0.12773011135E+03  0.12773011135E+03  0.00000000000E+00 0. -1.
         -1   -1    0    0    0  501 -0.00000000000E+00 -0.00000000000E+00 -0.12159344381E+03  0.12159344381E+03  0.00000000000E+00 0.  1.
         25    2    1    2    0    0  0.30620946365E+02 -0.39139334034E+02 -0.34926015007E+02  0.13905524871E+03  0.12508799241E+03 0.  0.
          5    1    3    3  502    0  0.37739377579E+02 -0.81575924672E+02 -0.32797766900E+02  0.95770862060E+02  0.41800000000E+01 0. -1.
         -5    1    3    3    0  502 -0.71184312142E+01  0.42436590638E+02 -0.21282481076E+01  0.43284386653E+02  0.41800000000E+01 0. -1.
        -11    1    1    2    0    0  0.56876065769E+01  0.26871458591E+02 -0.22861184646E+02  0.35735947151E+02  0.00000000000E+00 0.  1.
         11    1    1    2    0    0 -0.36308552942E+02  0.12267875444E+02  0.63923867194E+02  0.74532359293E+02  0.00000000000E+00 0. -1.
</event>
<event>
 7    1  0.2844572E-009  0.1363775E+03  0.7561462E-02  0.1218288E+00
          2   -1    0    0  501    0  0.00000000000E+00  0.00000000000E+00  0.30885368799E+03  0.30885368799E+03  0.00000000000E+00 0. -1.
         -2   -1    0    0    0  501 -0.00000000000E+00 -0.00000000000E+00 -0.65451083263E+02  0.65451083263E+02  0.00000000000E+00 0.  1.
         25    2    1    2    0    0  0.52734137752E+02 -0.73859528401E+02  0.17221300030E+03  0.23138935939E+03  0.12509036312E+03 0.  0.
          5    1    3    3  502    0  0.89831605981E+02 -0.38198971884E+02  0.82479160408E+02  0.12786384629E+03  0.41800000000E+01 0. -1.
         -5    1    3    3    0  502 -0.37097468229E+02 -0.35660556517E+02  0.89733839895E+02  0.10352551310E+03  0.41800000000E+01 0. -1.
        -11    1    1    2    0    0 -0.51436228345E+02  0.19209572258E+01  0.36063590974E+02  0.62848693359E+02  0.00000000000E+00 0. -1.
         11    1    1    2    0    0 -0.12979094068E+01  0.71938571175E+02  0.35126013451E+02  0.80066718507E+02  0.00000000000E+00 0.  1.
</event>
<event>
 7    1  0.2844572E-009  0.1141373E+03  0.7561462E-02  0.1253095E+00
         -2   -1    0    0    0  501 -0.00000000000E+00  0.00000000000E+00  0.73829414510E+03  0.73829414510E+03  0.00000000000E+00 0.  1.
          2   -1    0    0  501    0  0.00000000000E+00 -0.00000000000E+00 -0.38870185620E+02  0.38870185620E+02  0.00000000000E+00 0. -1.
         25    2    1    2    0    0  0.71374692623E+02 -0.68325670089E+02  0.57182491007E+03  0.59362808066E+03  0.12509127240E+03 0.  0.
          5    1    3    3  502    0  0.26957360610E+02 -0.18073270407E+02  0.21362296809E+02  0.39078926792E+02  0.41800000000E+01 0. -1.
         -5    1    3    3    0  502  0.44417332013E+02 -0.50252399682E+02  0.55046261326E+03  0.55454915387E+03  0.41800000000E+01 0. -1.
        -11    1    1    2    0    0 -0.88752194388E+02  0.66454452800E+02  0.12272337224E+03  0.16539096831E+03  0.00000000000E+00 0.  1.
         11    1    1    2    0    0  0.17377501765E+02  0.18712172894E+01  0.48756771652E+01  0.18145281744E+02  0.00000000000E+00 0. -1.
</event>
<event>
 7    1  0.2844572E-009  0.7655251E+02  0.7561462E-02  0.1339130E+00
          2   -1    0    0  501    0  0.00000000000E+00  0.00000000000E+00  0.10798981719E+03  0.10798981719E+03  0.00000000000E+00 0.  1.
         -2   -1    0    0    0  501 -0.00000000000E+00 -0.00000000000E+00 -0.12767583078E+03  0.12767583078E+03  0.00000000000E+00 0. -1.
         25    2    1    2    0    0  0.40370103011E+02 -0.30597286819E+01 -0.76564352278E+01  0.13169383754E+03  0.12508212777E+03 0.  0.
          5    1    3    3  502    0  0.27066221026E+02  0.45273330719E+02  0.36888268926E+02  0.64501717647E+02  0.41800000000E+01 0. -1.
         -5    1    3    3    0  502  0.13303881985E+02 -0.48333059401E+02 -0.44544704154E+02  0.67192119888E+02  0.41800000000E+01 0. -1.
        -11    1    1    2    0    0 -0.51219350228E+01  0.12406015285E+02  0.39003890082E+02  0.41248598463E+02  0.00000000000E+00 0.  1.
         11    1    1    2    0    0 -0.35248167988E+02 -0.93462866030E+01 -0.51033468442E+02  0.62723211979E+02  0.00000000000E+00 0. -1.
</event>
<event>
 7    1  0.2844572E-009  0.8860119E+02  0.7561462E-02  0.1306275E+00
         -3   -1    0    0    0  501 -0.00000000000E+00  0.00000000000E+00  0.16487728704E+03  0.16487728704E+03  0.00000000000E+00 0.  1.
          3   -1    0    0  501    0  0.00000000000E+00 -0.00000000000E+00 -0.10983867683E+03  0.10983867683E+03  0.00000000000E+00 0. -1.
         25    2    1    2    0    0 -0.39427184716E+02  0.61895319400E+02 -0.68848523705E-02  0.14501714173E+03  0.12507772739E+03 0.  0.
          5    1    3    3  502    0 -0.22530228367E+02  0.59338832174E+02 -0.56974487789E+02  0.85394805772E+02  0.41800000000E+01 0.  1.
         -5    1    3    3    0  502 -0.16896956349E+02  0.25564872260E+01  0.56967602937E+02  0.59622335959E+02  0.41800000000E+01 0.  1.
        -11    1    1    2    0    0 -0.34331460493E+01  0.10952881350E+02  0.42778741422E+02  0.44291904670E+02  0.00000000000E+00 0.  1.
         11    1    1    2    0    0  0.42860330765E+02 -0.72848200750E+02  0.12266753640E+02  0.85406917464E+02  0.00000000000E+00 0. -1.
</event>
<event>
 7    1  0.2844572E-009  0.1794546E+03  0.7561462E-02  0.1168332E+00
         -3   -1    0    0    0  501 -0.00000000000E+00  0.00000000000E+00  0.53712482464E+03  0.53712482464E+03  0.00000000000E+00 0.  1.
          3   -1    0    0  501    0  0.00000000000E+00 -0.00000000000E+00 -0.64015243502E+02  0.64015243502E+02  0.00000000000E+00 0. -1.
         25    2    1    2    0    0 -0.27423676936E+02  0.14160900926E+03  0.31289495493E+03  0.36653593866E+03  0.12506067308E+03 0.  0.
          5    1    3    3  502    0 -0.66411584822E+02  0.13192699975E+03  0.21749715447E+03  0.26294051887E+03  0.41800000000E+01 0. -1.
         -5    1    3    3    0  502  0.38987907886E+02  0.96820095139E+01  0.95397800464E+02  0.10359541980E+03  0.41800000000E+01 0. -1.
        -11    1    1    2    0    0  0.55429495117E+02 -0.48906287319E+02  0.59580272717E+02  0.94942418156E+02  0.00000000000E+00 0.  1.
         11    1    1    2    0    0 -0.28005818181E+02 -0.92702721941E+02  0.10063435349E+03  0.13966171132E+03  0.00000000000E+00 0. -1.
</event>
<event>
 7    1  0.2844572E-009  0.1152031E+03  0.7561462E-02  0.1251227E+00
          2   -1    0    0  501    0  0.00000000000E+00  0.00000000000E+00  0.21212490140E+03  0.21212490140E+03  0.00000000000E+00 0. -1.
         -2   -1    0    0    0  501 -0.00000000000E+00 -0.00000000000E+00 -0.65509965526E+02  0.65509965526E+02  0.00000000000E+00 0.  1.
         25    2    1    2    0    0 -0.11694811062E+02 -0.36112392827E+02  0.93305120336E+02  0.16060307576E+03  0.12508648585E+03 0.  0.
          5    1    3    3  502    0 -0.48290722356E+02 -0.66810445719E+02  0.63555386737E+02  0.10417480072E+03  0.41800000000E+01 0.  1.
         -5    1    3    3    0  502  0.36595911294E+02  0.30698052892E+02  0.29749733599E+02  0.56428275040E+02  0.41800000000E+01 0.  1.
        -11    1    1    2    0    0 -0.32560233972E+02 -0.11855569518E+02  0.34991056815E+02  0.49245278169E+02  0.00000000000E+00 0. -1.
         11    1    1    2    0    0  0.44255045034E+02  0.47967962345E+02  0.18318758722E+02  0.67786512992E+02  0.00000000000E+00 0.  1.
</event>
<event>
 7    1  0.2844572E-009  0.1055088E+03  0.7561462E-02  0.1269120E+00
         -4   -1    0    0    0  501 -0.00000000000E+00  0.00000000000E+00  0.18067249407E+03  0.18067249407E+03  0.00000000000E+00 0.  1.
          4   -1    0    0  501    0  0.00000000000E+00 -0.00000000000E+00 -0.77255260315E+02  0.77255260315E+02  0.00000000000E+00 0. -1.
         25    2    1    2    0    0  0.34482078499E+02 -0.47946172385E+01  0.98465138556E+02  0.16295707447E+03  0.12509045734E+03 0.  0.
          5    1    3    3  502    0 -0.42704955953E+02 -0.22296471639E+02  0.23108059920E+02  0.53593849869E+02  0.41800000000E+01 0.  1.
         -5    1    3    3    0  502  0.77187034452E+02  0.17501854401E+02  0.75357078636E+02  0.10936322460E+03  0.41800000000E+01 0.  1.
        -11    1    1    2    0    0 -0.14576465242E+02  0.40214473951E+02 -0.20074851366E+02  0.47251210688E+02  0.00000000000E+00 0. -1.
         11    1    1    2    0    0 -0.19905613257E+02 -0.35419856713E+02  0.25026946563E+02  0.47719469223E+02  0.00000000000E+00 0.  1.
</event>
<event>
 7    1  0.2844572E-009  0.6639115E+02  0.7561462E-02  0.1372814E+00
          1   -1    0    0  501    0  0.00000000000E+00  0.00000000000E+00  0.83191967016E+03  0.83191967016E+03  0.00000000000E+00 0. -1.
         -1   -1    0    0    0  501 -0.00000000000E+00 -0.00000000000E+00 -0.17379599521E+02  0.17379599521E+02  0.00000000000E+00 0.  1.
         25    2    1    2    0    0  0.27442798626E+02 -0.43023486524E+02  0.48398574652E+03  0.50248659708E+03  0.12508576986E+03 0.  0.
          5    1    3    3  502    0  0.54916222678E+01 -0.21670527227E+02  0.46634468088E+03  0.46689892209E+03  0.41800000000E+01 0.  1.
         -5    1    3    3    0  502  0.21951176358E+02 -0.21352959297E+02  0.17641065642E+02  0.35587674990E+02  0.41800000000E+01 0.  1.
        -11    1    1    2    0    0  0.20966671388E+00 -0.14923522012E+02  0.61951219235E+01  0.16159672182E+02  0.00000000000E+00 0.  1.
         11    1    1    2    0    0 -0.27652465340E+02  0.57947008536E+02  0.32435920220E+03  0.33065300042E+03  0.00000000000E+00 0. -1.
</event>
<event>
 7    1  0.2844572E-009  0.1264326E+03  0.7561462E-02  0.1232847E+00
          3   -1    0    0  501    0  0.00000000000E+00  0.00000000000E+00  0.37741542408E+02  0.37741542408E+02  0.00000000000E+00 0. -1.
         -3   -1    0    0    0  501 -0.00000000000E+00 -0.00000000000E+00 -0.44556960944E+03  0.44556960944E+03  0.00000000000E+00 0.  1.
         25    2    1    2    0    0 -0.45337781478E+02  0.47398739262E+02 -0.18163475853E+03  0.23008886214E+03  0.12509014374E+03 0.  0.
          5    1    3    3  502    0  0.39529390693E+02  0.36247971238E+02 -0.88141714103E+02  0.10326142703E+03  0.41800000000E+01 0.  1.
         -5    1    3    3    0  502 -0.84867172171E+02  0.11150768024E+02 -0.93493044425E+02  0.12682743511E+03  0.41800000000E+01 0.  1.
        -11    1    1    2    0    0  0.51784924006E+02  0.12381274731E+02 -0.11766849530E+03  0.12915436154E+03  0.00000000000E+00 0.  1.
         11    1    1    2    0    0 -0.64471425276E+01 -0.59780013993E+02 -0.10852481320E+03  0.12406792816E+03  0.00000000000E+00 0. -1.
</event>
<event>
 7    1  0.2844572E-009  0.7974325E+02  0.7561462E-02  0.1329782E+00
         -1   -1    0    0    0  501 -0.00000000000E+00  0.00000000000E+00  0.33696526718E+02  0.33696526718E+02  0.00000000000E+00 0.  1.
          1   -1    0    0  501    0  0.00000000000E+00 -0.00000000000E+00 -0.66995440743E+03  0.66995440743E+03  0.00000000000E+00 0. -1.
         25    2    1    2    0    0 -0.32801170126E+02  0.68732469834E+01 -0.57151000195E+03  0.58599763539E+03  0.12508552302E+03 0.  0.
          5    1    3    3  502    0 -0.56920363143E+02  0.30363562982E+02 -0.15277056702E+03  0.16588608214E+03  0.41800000000E+01 0. -1.
         -5    1    3    3    0  502  0.24119193017E+02 -0.23490315999E+02 -0.41873943492E+03  0.42011155325E+03  0.41800000000E+01 0. -1.
        -11    1    1    2    0    0  0.21023264823E+02  0.21573904293E+02 -0.78389104363E+02  0.83977751179E+02  0.00000000000E+00 0. -1.
         11    1    1    2    0    0  0.11777905303E+02 -0.28447151276E+02  0.13641225598E+02  0.33675547581E+02  0.00000000000E+00 0.  1.
</event>
<event>
 7    1  0.2844572E-009  0.9358666E+02  0.7561462E-02  0.1294391E+00
          2   -1    0    0  501    0  0.00000000000E+00  0.00000000000E+00  0.33263488295E+03  0.33263488295E+03  0.00000000000E+00 0. -1.
         -2   -1    0    0    0  501 -0.00000000000E+00 -0.00000000000E+00 -0.58824963206E+02  0.58824963206E+02  0.00000000000E+00 0.  1.
         25    2    1    2    0    0  0.14808512408E+01  0.53249162471E+02  0.24513999787E+03  0.28034633394E+03  0.12515103744E+03 0.  0.
          5    1    3    3  502    0 -0.27742242570E+02  0.92251580701E+01 -0.82622913077E-02  0.29533168345E+02  0.41800000000E+01 0. -1.
         -5    1    3    3    0  502  0.29223093811E+02  0.44024004401E+02  0.24514826016E+03  0.25081316559E+03  0.41800000000E+01 0. -1.
        -11    1    1    2    0    0 -0.29249860886E+02  0.13592847955E+02 -0.24061797788E+01  0.32343617276E+02  0.00000000000E+00 0.  1.
         11    1    1    2    0    0  0.27769009645E+02 -0.66842010426E+02  0.31076101648E+02  0.78769894935E+02  0.00000000000E+00 0. -1.
</event>
<event>
 7    1  0.2844572E-009  0.9039969E+02  0.7561462E-02  0.1301887E+00
          1   -1    0    0  501    0  0.00000000000E+00  0.00000000000E+00  0.47982943051E+02  0.47982943051E+02  0.00000000000E+00 0. -1.
         -1   -1    0    0    0  501 -0.00000000000E+00 -0.00000000000E+00 -0.25799593278E+03  0.25799593278E+03  0.00000000000E+00 0.  1.
         25    2    1    2    0    0  0.17222090964E+02 -0.80445951953E+01 -0.14180600032E+03  0.19003130810E+03  0.12506654390E+03 0.  0.
          5    1    3    3  502    0 -0.41572298499E+01 -0.61415090404E+02 -0.41548734808E+02  0.74383235030E+02  0.41800000000E+01 0.  1.
         -5    1    3    3    0  502  0.21379320814E+02  0.53370495209E+02 -0.10025726551E+03  0.11564807307E+03  0.41800000000E+01 0.  1.
        -11    1    1    2    0    0 -0.30978433915E+02 -0.15153986805E+02 -0.79538686905E+02  0.86693191189E+02  0.00000000000E+00 0.  1.
         11    1    1    2    0    0  0.13756342951E+02  0.23198582000E+02  0.11331697502E+02  0.29254376535E+02  0.00000000000E+00 0. -1.
</event>
<event>
 7    1  0.2844572E-009  0.1200323E+03  0.7561462E-02  0.1243044E+00
          3   -1    0    0  501    0  0.00000000000E+00  0.00000000000E+00  0.25788835277E+03  0.25788835277E+03  0.00000000000E+00 0. -1.
         -3   -1    0    0    0  501 -0.00000000000E+00 -0.00000000000E+00 -0.80508812824E+02  0.80508812824E+02  0.00000000000E+00 0.  1.
         25    2    1    2    0    0 -0.20568129802E+02  0.87825407846E+02  0.62763652324E+02  0.16650277511E+03  0.12509015885E+03 0.  0.
          5    1    3    3  502    0 -0.23470611279E+02 -0.39378105085E+01 -0.28239556060E+02  0.37166125328E+02  0.41800000000E+01 0. -1.
         -5    1    3    3    0  502  0.29024814771E+01  0.91763218354E+02  0.91003208384E+02  0.12933664979E+03  0.41800000000E+01 0. -1.
        -11    1    1    2    0    0 -0.28860607931E+02 -0.77296971202E+01  0.48169120027E+02  0.56682863653E+02  0.00000000000E+00 0.  1.
         11    1    1    2    0    0  0.49428737733E+02 -0.80095710726E+02  0.66446767601E+02  0.11521152683E+03  0.00000000000E+00 0. -1.
</event>
<event>
 7    1  0.2844572E-009  0.9386525E+02  0.7561462E-02  0.1293752E+00
         -2   -1    0    0    0  501 -0.00000000000E+00  0.00000000000E+00  0.21905852641E+02  0.21905852641E+02  0.00000000000E+00 0.  1.
          2   -1    0    0  501    0  0.00000000000E+00 -0.00000000000E+00 -0.58515034697E+03  0.58515034697E+03  0.00000000000E+00 0. -1.
         25    2    1    2    0    0 -0.19410097829E+02 -0.26367861476E+02 -0.30492341530E+03  0.33120953572E+03  0.12509776711E+03 0.  0.
          5    1    3    3  502    0 -0.91062922667E+01 -0.60967716219E+02 -0.28096969181E+03  0.28768285854E+03  0.41800000000E+01 0. -1.
         -5    1    3    3    0  502 -0.10303805562E+02  0.34599854744E+02 -0.23953723487E+02  0.43526677179E+02  0.41800000000E+01 0. -1.
        -11    1    1    2    0    0 -0.33111591252E+02  0.10443379888E+02 -0.53331112645E+02  0.63636854374E+02  0.00000000000E+00 0.  1.
         11    1    1    2    0    0  0.52521689080E+02  0.15924481588E+02 -0.20498996639E+03  0.21220980952E+03  0.00000000000E+00 0. -1.
</event>
<event>
 7    1  0.2844572E-009  0.1546950E+03  0.7561462E-02  0.1194820E+00
          3   -1    0    0  501    0  0.00000000000E+00  0.00000000000E+00  0.16824624368E+03  0.16824624368E+03  0.00000000000E+00 0. -1.
         -3   -1    0    0    0  501 -0.00000000000E+00 -0.00000000000E+00 -0.19023770036E+03  0.19023770036E+03  0.00000000000E+00 0.  1.
         25    2    1    2    0    0 -0.39214168757E+02 -0.12783730192E+03  0.37156992803E+02  0.18683633466E+03  0.12508815707E+03 0.  0.
          5    1    3    3  502    0 -0.53677959003E+02 -0.12070612459E+03 -0.14119531945E+02  0.13292150081E+03  0.41800000000E+01 0. -1.
         -5    1    3    3    0  502  0.14463790246E+02 -0.71311773348E+01  0.51276524748E+02  0.53914833846E+02  0.41800000000E+01 0. -1.
        -11    1    1    2    0    0  0.43830881062E+02  0.13121625094E+02 -0.23479903422E+02  0.51425956914E+02  0.00000000000E+00 0.  1.
         11    1    1    2    0    0 -0.46167123053E+01  0.11471567683E+03 -0.35668546069E+02  0.12022165247E+03  0.00000000000E+00 0. -1.
</event>
<event>
 7    1  0.2844572E-009  0.1630868E+03  0.7561462E-02  0.1185255E+00
          2   -1    0    0  501    0  0.00000000000E+00  0.00000000000E+00  0.24780801863E+03  0.24780801863E+03  0.00000000000E+00 0. -1.
         -2   -1    0    0    0  501 -0.00000000000E+00 -0.00000000000E+00 -0.23696529423E+03  0.23696529423E+03  0.00000000000E+00 0.  1.
         25    2    1    2    0    0  0.78560267106E+02 -0.12060289203E+03 -0.15521074756E+03  0.24588422163E+03  0.12510755835E+03 0.  0.
          5    1    3    3  502    0  0.81810871960E+02 -0.13625969138E+03 -0.16292560276E+03  0.22764434256E+03  0.41800000000E+01 0.  1.
         -5    1    3    3    0  502 -0.32506048539E+01  0.15656799344E+02  0.77148552078E+01  0.18239879070E+02  0.41800000000E+01 0.  1.
        -11    1    1    2    0    0  0.18247504409E+01  0.27886482459E+02 -0.49820756346E+01  0.28386734503E+02  0.00000000000E+00 0.  1.
         11    1    1    2    0    0 -0.80385017547E+02  0.92716409573E+02  0.17103554758E+03  0.21050235673E+03  0.00000000000E+00 0. -1.
</event>
<event>
 7    1  0.2844572E-009  0.1294556E+03  0.7561462E-02  0.1228266E+00
         -1   -1    0    0    0  501 -0.00000000000E+00  0.00000000000E+00  0.30773719444E+02  0.30773719444E+02  0.00000000000E+00 0.  1.
          1   -1    0    0  501    0  0.00000000000E+00 -0.00000000000E+00 -0.76060465175E+03  0.76060465175E+03  0.00000000000E+00 0. -1.
         25    2    1    2    0    0  0.69506288913E+02 -0.70492628199E+02 -0.49915124050E+03  0.52402396109E+03  0.12509522803E+03 0.  0.
          5    1    3    3  502    0  0.21986652724E+02 -0.82724208368E+02 -0.16176998601E+03  0.18306749663E+03  0.41800000000E+01 0.  1.
         -5    1    3    3    0  502  0.47519636189E+02  0.12231580169E+02 -0.33738125449E+03  0.34095646446E+03  0.41800000000E+01 0.  1.
        -11    1    1    2    0    0 -0.20791436422E+02  0.72288192039E+02 -0.18827268512E+03  0.20274237470E+03  0.00000000000E+00 0. -1.
         11    1    1    2    0    0 -0.48714852492E+02 -0.17955638398E+01 -0.42407006682E+02  0.64612035400E+02  0.00000000000E+00 0.  1.
</event>
<event>
 7    1  0.2844572E-009  0.1788112E+03  0.7561462E-02  0.1168959E+00
         -1   -1    0    0    0  501 -0.00000000000E+00  0.00000000000E+00  0.28803438008E+03  0.28803438008E+03  0.00000000000E+00 0.  1.
          1   -1    0    0  501    0  0.00000000000E+00 -0.00000000000E+00 -0.14254435324E+03  0.14254435324E+03  0.00000000000E+00 0. -1.
         25    2    1    2    0    0  0.35043050109E+01 -0.15702536645E+03  0.14573774984E+03  0.24810526373E+03  0.12508990487E+03 0.  0.
          5    1    3    3  502    0 -0.49381195053E+02 -0.87667838531E+02  0.12084571936E+03  0.15730642906E+03  0.41800000000E+01 0. -1.
         -5    1    3    3    0  502  0.52885500064E+02 -0.69357527916E+02  0.24892030485E+02  0.90798834669E+02  0.41800000000E+01 0. -1.
        -11    1    1    2    0    0 -0.33255895785E+02  0.98150194707E+02  0.32792991810E+02  0.10869588602E+03  0.00000000000E+00 0.  1.
         11    1    1    2    0    0  0.29751590774E+02  0.58875171740E+02 -0.33040714821E+02  0.73777583567E+02  0.00000000000E+00 0. -1.
</event>
<event>
 7    1  0.2844572E-009  0.2171580E+03  0.7561462E-02  0.1136020E+00
         -1   -1    0    0    0  501 -0.00000000000E+00  0.00000000000E+00  0.86115202945E+02  0.86115202945E+02  0.00000000000E+00 0.  1.
          1   -1    0    0  501    0  0.00000000000E+00 -0.00000000000E+00 -0.58871676569E+03  0.58871676569E+03  0.00000000000E+00 0. -1.
         25    2    1    2    0    0  0.15022703811E+03 -0.13002777912E+03 -0.26809106361E+03  0.35636489146E+03  0.12509089157E+03 0.  0.
          5    1    3    3  502    0  0.99011822983E+02 -0.13622315179E+03 -0.25015491326E+03  0.30158753489E+03  0.41800000000E+01 0. -1.
         -5    1    3    3    0  502  0.51215215130E+02  0.61953726621E+01 -0.17936150347E+02  0.54777356567E+02  0.41800000000E+01 0. -1.
        -11    1    1    2    0    0 -0.53389557213E+02  0.18045462221E+01 -0.74775304799E+02  0.91896939090E+02  0.00000000000E+00 0.  1.
         11    1    1    2    0    0 -0.96837480900E+02  0.12822323290E+03 -0.15973519434E+03  0.22657013809E+03  0.00000000000E+00 0. -1.
</event>
<event>
 7    1  0.2844572E-009  0.1555080E+03  0.7561462E-02  0.1193864E+00
         -3   -1    0    0    0  501 -0.00000000000E+00  0.00000000000E+00  0.58141789511E+02  0.58141789511E+02  0.00000000000E+00 0.  1.
          3   -1    0    0  501    0  0.00000000000E+00 -0.00000000000E+00 -0.62254315359E+03  0.62254315359E+03  0.00000000000E+00 0. -1.
         25    2    1    2    0    0  0.95951621659E+02  0.97816396862E+02 -0.16486363093E+03  0.24819791159E+03  0.12508966912E+03 0.  0.
          5    1    3    3  502    0  0.69317534111E+02  0.11783718256E+03 -0.16538060990E+03  0.21461300208E+03  0.41800000000E+01 0.  1.
         -5    1    3    3    0  502  0.26634087548E+02 -0.20020785697E+02  0.51697897961E+00  0.33584909509E+02  0.41800000000E+01 0.  1.
        -11    1    1    2    0    0 -0.30815608854E+02 -0.53941635634E+02 -0.69428498068E+02  0.93164468269E+02  0.00000000000E+00 0.  1.
         11    1    1    2    0    0 -0.65136012805E+02 -0.43874761229E+02 -0.33010923509E+03  0.33932256324E+03  0.00000000000E+00 0. -1.
</event>
<event>
 7    1  0.2844572E-009  0.1071077E+03  0.7561462E-02  0.1266022E+00
         -2   -1    0    0    0  501 -0.00000000000E+00  0.00000000000E+00  0.88265964864E+02  0.88265964864E+02  0.00000000000E+00 0.  1.
          2   -1    0    0  501    0  0.00000000000E+00 -0.00000000000E+00 -0.23920530212E+03  0.23920530212E+03  0.00000000000E+00 0. -1.
         25    2    1    2    0    0 -0.21954141308E+02 -0.26960976031E+02  0.20141811471E+02  0.13138095269E+03  0.12508550520E+03 0.  0.
          5    1    3    3  502    0  0.32083031919E+02  0.26832653800E+02  0.33636800458E+02  0.53835109289E+02  0.41800000000E+01 0.  1.
         -5    1    3    3    0  502 -0.54037173228E+02 -0.53793629831E+02 -0.13494988988E+02  0.77545843400E+02  0.41800000000E+01 0.  1.
        -11    1    1    2    0    0 -0.18040343638E+02  0.47535216201E+02 -0.91923082721E+02  0.10504715091E+03  0.00000000000E+00 0. -1.
         11    1    1    2    0    0  0.39994484946E+02 -0.20574240170E+02 -0.79158066002E+02  0.91043163378E+02  0.00000000000E+00 0.  1.
</event>
<event>
 7    1  0.2844572E-009  0.1444987E+03  0.7561462E-02  0.1207401E+00
         -1   -1    0    0    0  501 -0.00000000000E+00  0.00000000000E+00  0.15248379148E+03  0.15248379148E+03  0.00000000000E+00 0.  1.
          1   -1    0    0  501    0  0.00000000000E+00 -0.00000000000E+00 -0.17544941818E+03  0.17544941818E+03  0.00000000000E+00 0. -1.
         25    2    1    2    0    0  0.11874567692E+03  0.20945001701E+02 -0.22821750432E+02  0.17523365210E+03  0.12508705630E+03 0.  0.
          5    1    3    3  502    0  0.24345423663E+02  0.55711355769E+02  0.22307891297E+02  0.64896604141E+02  0.41800000000E+01 0. -1.
         -5    1    3    3    0  502  0.94400253259E+02 -0.34766354068E+02 -0.45129641729E+02  0.11033704796E+03  0.41800000000E+01 0. -1.
        -11    1    1    2    0    0 -0.15523506528E+02 -0.18457660913E+02  0.35975879621E+02  0.43311989285E+02  0.00000000000E+00 0.  1.
         11    1    1    2    0    0 -0.10322217039E+03 -0.24873407883E+01 -0.36119755889E+02  0.10938756826E+03  0.00000000000E+00 0. -1.
</event>
<event>
 7    1  0.2844572E-009  0.1212611E+03  0.7561462E-02  0.1241031E+00
          2   -1    0    0  501    0  0.00000000000E+00  0.00000000000E+00  0.90686487063E+03  0.90686487063E+03  0.00000000000E+00 0.  1.
         -2   -1    0    0    0  501 -0.00000000000E+00 -0.00000000000E+00 -0.24710011860E+02  0.24710011860E+02  0.00000000000E+00 0. -1.
         25    2    1    2    0    0  0.84476606384E+02  0.59900990515E+02  0.45558067422E+03  0.48365816564E+03  0.12508814803E+03 0.  0.
          5    1    3    3  502    0  0.40639543860E+02  0.53141813864E+02  0.42346576924E+03  0.42873809607E+03  0.41800000000E+01 0. -1.
         -5    1    3    3    0  502  0.43837062523E+02  0.67591766514E+01  0.32114904985E+02  0.54920069573E+02  0.41800000000E+01 0. -1.
        -11    1    1    2    0    0 -0.59925883242E+02 -0.79478784482E+02  0.37061573058E+03  0.38374992953E+03  0.00000000000E+00 0.  1.
         11    1    1    2    0    0 -0.24550723142E+02  0.19577793967E+02  0.55958453965E+02  0.64166787309E+02  0.00000000000E+00 0. -1.
</event>
<event>
 7    1  0.2844572E-009  0.1052127E+03  0.7561462E-02  0.1269701E+00
         -1   -1    0    0    0  501 -0.00000000000E+00  0.00000000000E+00  0.86629254709E+02  0.86629254709E+02  0.00000000000E+00 0.  1.
          1   -1    0    0  501    0  0.00000000000E+00 -0.00000000000E+00 -0.61856173995E+03  0.61856173995E+03  0.00000000000E+00 0. -1.
         25    2    1    2    0    0  0.56267559948E+02 -0.69989287272E+02 -0.55451315941E+03  0.57549662840E+03  0.12508791590E+03 0.  0.
          5    1    3    3  502    0  0.31603255272E+02  0.18820497592E+01 -0.41789279179E+03  0.41911116148E+03  0.41800000000E+01 0. -1.
         -5    1    3    3    0  502  0.24664304676E+02 -0.71871337031E+02 -0.13662036763E+03  0.15638546691E+03  0.41800000000E+01 0. -1.
        -11    1    1    2    0    0 -0.13375058205E+02  0.55543397722E+02 -0.26459341059E+02  0.62960765098E+02  0.00000000000E+00 0. -1.
         11    1    1    2    0    0 -0.42892501743E+02  0.14445889550E+02  0.49040015228E+02  0.66733601163E+02  0.00000000000E+00 0.  1.
</event>
<event>
 7    1  0.2844572E-009  0.1054553E+03  0.7561462E-02  0.1269225E+00
          1   -1    0    0  501    0  0.00000000000E+00  0.00000000000E+00  0.66519756915E+03  0.66519756915E+03  0.00000000000E+00 0. -1.
         -1   -1    0    0    0  501 -0.00000000000E+00 -0.00000000000E+00 -0.33393462421E+02  0.33393462421E+02  0.00000000000E+00 0.  1.
         25    2    1    2    0    0  0.67758254151E+02 -0.67079839415E+02  0.37470795004E+03  0.40637999592E+03  0.12509103642E+03 0.  0.
          5    1    3    3  502    0  0.18920446938E+02 -0.37261954088E+02  0.19038217898E+02  0.46112500209E+02  0.41800000000E+01 0. -1.
         -5    1    3    3    0  502  0.48837807213E+02 -0.29817885327E+02  0.35566973215E+03  0.36026749571E+03  0.41800000000E+01 0. -1.
        -11    1    1    2    0    0 -0.77159031157E+02  0.49703998350E+02  0.25652145923E+03  0.27244680690E+03  0.00000000000E+00 0. -1.
         11    1    1    2    0    0  0.94007770059E+01  0.17375841065E+02  0.57469744706E+00  0.19764228753E+02  0.00000000000E+00 0.  1.
</event>
<event>
 7    1  0.2844572E-009  0.2155171E+03  0.7561462E-02  0.1137270E+00
         -2   -1    0    0    0  501 -0.00000000000E+00  0.00000000000E+00  0.81501323462E+02  0.81501323462E+02  0.00000000000E+00 0. -1.
          2   -1    0    0  501    0  0.00000000000E+00 -0.00000000000E+00 -0.87681642786E+03  0.87681642786E+03  0.00000000000E+00 0.  1.
         25    2    1    2    0    0  0.82464575234E+02  0.18080905556E+03 -0.66160820431E+03  0.70204331591E+03  0.12508829147E+03 0.  0.
          5    1    3    3  502    0  0.74590685240E+02  0.60266802483E+02 -0.16454652381E+03  0.19049642701E+03  0.41800000000E+01 0. -1.
         -5    1    3    3    0  502  0.78738899947E+01  0.12054225307E+03 -0.49706168050E+03  0.51154688890E+03  0.41800000000E+01 0. -1.
        -11    1    1    2    0    0 -0.69094434394E+02 -0.56787172726E+02 -0.30884693075E+02  0.94618645714E+02  0.00000000000E+00 0. -1.
         11    1    1    2    0    0 -0.13370140840E+02 -0.12402188283E+03 -0.10282220701E+03  0.16165578969E+03  0.00000000000E+00 0.  1.
</event>
<event>
 7    1  0.2844572E-009  0.8764960E+02  0.7561462E-02  0.1308645E+00
         -2   -1    0    0    0  501 -0.00000000000E+00  0.00000000000E+00  0.60159066693E+02  0.60159066693E+02  0.00000000000E+00 0.  1.
          2   -1    0    0  501    0  0.00000000000E+00 -0.00000000000E+00 -0.26260506137E+03  0.26260506137E+03  0.00000000000E+00 0. -1.
         25    2    1    2    0    0  0.61270678814E+02 -0.12955659996E+02 -0.81720632193E+02  0.16200179761E+03  0.12507747796E+03 0.  0.
          5    1    3    3  502    0 -0.12151509649E+02 -0.31027380251E+02  0.16951606431E+02  0.37618969584E+02  0.41800000000E+01 0.  1.
         -5    1    3    3    0  502  0.73422188464E+02  0.18071720255E+02 -0.98672238624E+02  0.12438282802E+03  0.41800000000E+01 0.  1.
        -11    1    1    2    0    0 -0.34580299049E+02  0.17749534067E+02 -0.19367454102E+01  0.38917785455E+02  0.00000000000E+00 0.  1.
         11    1    1    2    0    0 -0.26690379765E+02 -0.47938740714E+01 -0.11878861708E+03  0.12184454500E+03  0.00000000000E+00 0. -1.
</event>
<event>
 7    1  0.2844572E-009  0.2570389E+03  0.7561462E-02  0.1108935E+00
         -2   -1    0    0    0  501 -0.00000000000E+00  0.00000000000E+00  0.58563035725E+02  0.58563035725E+02  0.00000000000E+00 0.  1.
          2   -1    0    0  501    0  0.00000000000E+00 -0.00000000000E+00 -0.12206676524E+04  0.12206676524E+04  0.00000000000E+00 0. -1.
         25    2    1    2    0    0 -0.11712392284E+03 -0.21302940942E+03 -0.62553505124E+03  0.68267146137E+03  0.12508669497E+03 0.  0.
          5    1    3    3  502    0 -0.12208037979E+03 -0.15428755938E+03 -0.56403414663E+03  0.59737782104E+03  0.41800000000E+01 0. -1.
         -5    1    3    3    0  502  0.49564569528E+01 -0.58741850044E+02 -0.61500904606E+02  0.85293640323E+02  0.41800000000E+01 0. -1.
        -11    1    1    2    0    0  0.10328127526E+03  0.98147720167E+02 -0.25431422634E+03  0.29150595622E+03  0.00000000000E+00 0.  1.
         11    1    1    2    0    0  0.13842647577E+02  0.11488168925E+03 -0.28225533914E+03  0.30505327058E+03  0.00000000000E+00 0. -1.
</event>
<event>
 7    1  0.2844572E-009  0.1240787E+03  0.7561462E-02  0.1236516E+00
          2   -1    0    0  501    0  0.00000000000E+00  0.00000000000E+00  0.80108932017E+03  0.80108932017E+03  0.00000000000E+00 0.  1.
         -2   -1    0    0    0  501 -0.00000000000E+00 -0.00000000000E+00 -0.24204726114E+02  0.24204726114E+02  0.00000000000E+00 0. -1.
         25    2    1    2    0    0 -0.16421632733E+02 -0.86735007429E+02  0.42031576430E+03  0.44732905896E+03  0.12508122856E+03 0.  0.
          5    1    3    3  502    0  0.12819016699E+02 -0.10955638621E+03  0.35858779150E+03  0.37519275787E+03  0.41800000000E+01 0.  1.
         -5    1    3    3    0  502 -0.29240649432E+02  0.22821378782E+02  0.61727972800E+02  0.72136301088E+02  0.41800000000E+01 0.  1.
        -11    1    1    2    0    0 -0.16956986090E+02  0.24008113649E+02  0.24163114494E+02  0.38049770043E+02  0.00000000000E+00 0. -1.
         11    1    1    2    0    0  0.33378618823E+02  0.62726893780E+02  0.33240571527E+03  0.33991521728E+03  0.00000000000E+00 0.  1.
</event>
<event>
 7    1  0.2844572E-009  0.1258779E+03  0.7561462E-02  0.1233704E+00
          4   -1    0    0  501    0  0.00000000000E+00  0.00000000000E+00  0.62529210044E+03  0.62529210044E+03  0.00000000000E+00 0. -1.
         -4   -1    0    0    0  501 -0.00000000000E+00 -0.00000000000E+00 -0.27799187160E+02  0.27799187160E+02  0.00000000000E+00 0.  1.
         25    2    1    2    0    0 -0.66065517970E+02  0.30490755600E+02  0.36292187623E+03  0.39071133027E+03  0.12509483006E+03 0.  0.
          5    1    3    3  502    0  0.21906131505E+02 -0.25973159261E+02  0.48676888148E+02  0.59509624762E+02  0.41800000000E+01 0. -1.
         -5    1    3    3    0  502 -0.87971649475E+02  0.56463914860E+02  0.31424498808E+03  0.33120170550E+03  0.41800000000E+01 0. -1.
        -11    1    1    2    0    0  0.59810495449E+02  0.19204341239E+02  0.93159395808E+02  0.11236002454E+03  0.00000000000E+00 0. -1.
         11    1    1    2    0    0  0.62550225209E+01 -0.49695096838E+02  0.14141164124E+03  0.15001993279E+03  0.00000000000E+00 0.  1.
</event>
<event>
 7    1  0.2844572E-009  0.9810088E+02  0.7561462E-02  0.1284341E+00
         -1   -1    0    0    0  501 -0.00000000000E+00  0.00000000000E+00  0.10701456567E+03  0.10701456567E+03  0.00000000000E+00 0.  1.
          1   -1    0    0  501    0  0.00000000000E+00 -0.00000000000E+00 -0.13913194172E+03  0.13913194172E+03  0.00000000000E+00 0. -1.
         25    2    1    2    0    0  0.31435929528E+02 -0.20254130096E+02  0.17572545033E+02  0.13173668043E+03  0.12508921288E+03 0.  0.
          5    1    3    3  502    0 -0.21995751565E+02  0.20076408655E+02 -0.35268238283E+02  0.46348638631E+02  0.41800000000E+01 0.  1.
         -5    1    3    3    0  502  0.53431681093E+02 -0.40330538751E+02  0.52840783317E+02  0.85388041797E+02  0.41800000000E+01 0.  1.
        -11    1    1    2    0    0 -0.53443205708E+02  0.42109249771E+02 -0.18693460421E+02  0.70560687462E+02  0.00000000000E+00 0. -1.
         11    1    1    2    0    0  0.22007276179E+02 -0.21855119675E+02 -0.30996460660E+02  0.43849139493E+02  0.00000000000E+00 0.  1.
</event>
<event>
 7    1  0.2844572E-009  0.1380228E+03  0.7561462E-02  0.1216015E+00
         -2   -1    0    0    0  501 -0.00000000000E+00  0.00000000000E+00  0.13840017197E+02  0.13840017197E+02  0.00000000000E+00 0.  1.
          2   -1    0    0  501    0  0.00000000000E+00 -0.00000000000E+00 -0.16530803070E+04  0.16530803070E+04  0.00000000000E+00 0. -1.
         25    2    1    2    0    0  0.73420262482E+02 -0.58545453047E+02 -0.11588326326E+04  0.11693418081E+04  0.12509631860E+03 0.  0.
          5    1    3    3  502    0  0.26434316452E+02 -0.87259048322E+02 -0.50503419717E+03  0.51321528359E+03  0.41800000000E+01 0.  1.
         -5    1    3    3    0  502  0.46985946030E+02  0.28713595275E+02 -0.65379843540E+03  0.65612652454E+03  0.41800000000E+01 0.  1.
        -11    1    1    2    0    0 -0.14216832239E+02  0.68111918162E+02 -0.26386506797E+03  0.27288482151E+03  0.00000000000E+00 0.  1.
         11    1    1    2    0    0 -0.59203430243E+02 -0.95664651153E+01 -0.21654258925E+03  0.22469369454E+03  0.00000000000E+00 0. -1.
</event>
<event>
 7    1  0.2844572E-009  0.1032561E+03  0.7561462E-02  0.1273594E+00
         -1   -1    0    0    0  501 -0.00000000000E+00  0.00000000000E+00  0.10360008453E+03  0.10360008453E+03  0.00000000000E+00 0.  1.
          1   -1    0    0  501    0  0.00000000000E+00 -0.00000000000E+00 -0.14535154712E+03  0.14535154712E+03  0.00000000000E+00 0. -1.
         25    2    1    2    0    0 -0.26161550887E+02 -0.43783248272E+02  0.25787136410E+01  0.13511435264E+03  0.12509132244E+03 0.  0.
          5    1    3    3  502    0 -0.65042732090E+02 -0.51584818348E+02  0.28133579711E+02  0.87752613574E+02  0.41800000000E+01 0.  1.
         -5    1    3    3    0  502  0.38881181202E+02  0.78015700763E+01 -0.25554866070E+02  0.47361739064E+02  0.41800000000E+01 0.  1.
        -11    1    1    2    0    0  0.36961389983E+02  0.56070490895E+02 -0.60823894651E+02  0.90606790359E+02  0.00000000000E+00 0. -1.
         11    1    1    2    0    0 -0.10799839095E+02 -0.12287242623E+02  0.16493718418E+02  0.23230488652E+02  0.00000000000E+00 0.  1.
</event>
<event>
 7    1  0.2844572E-009  0.1469918E+03  0.7561462E-02  0.1204219E+00
         -1   -1    0    0    0  501 -0.00000000000E+00  0.00000000000E+00  0.16220597489E+03  0.16220597489E+03  0.00000000000E+00 0.  1.
          1   -1    0    0  501    0  0.00000000000E+00 -0.00000000000E+00 -0.15121846277E+03  0.15121846277E+03  0.00000000000E+00 0. -1.
         25    2    1    2    0    0  0.45299624517E+02  0.10778645769E+03 -0.13716843007E+02  0.17177446108E+03  0.12509331419E+03 0.  0.
          5    1    3    3  502    0  0.67286268944E+02  0.25553760419E+02  0.27428950452E+02  0.77137904968E+02  0.41800000000E+01 0.  1.
         -5    1    3    3    0  502 -0.21986644427E+02  0.82232697274E+02 -0.41145793459E+02  0.94636556116E+02  0.41800000000E+01 0.  1.
        -11    1    1    2    0    0 -0.22206291070E+02  0.39590128625E+01 -0.62742733416E+01  0.23412809569E+02  0.00000000000E+00 0. -1.
         11    1    1    2    0    0 -0.23093333447E+02 -0.11174547056E+03  0.30978628475E+02  0.11823716701E+03  0.00000000000E+00 0.  1.
</event>
<event>
 7    1  0.3174233E-009  0.9625763E+02  0.7561462E-02  0.1288368E+00
          2   -1    0    0  501    0  0.00000000000E+00  0.00000000000E+00  0.86345716534E+03  0.86345716534E+03  0.00000000000E+00 0. -1.
         -2   -1    0    0    0  501 -0.00000000000E+00 -0.00000000000E+00 -0.16414028141E+02  0.16414028141E+02  0.00000000000E+00 0.  1.
         25    2    1    2    0    0 -0.52173845896E+01 -0.48463513907E+02  0.50415927663E+03  0.52172895260E+03  0.12509432634E+03 0.  0.
          5    1    3    3  502    0 -0.42296168371E+02 -0.16882303036E+02  0.43292912035E+03  0.43533788448E+03  0.41800000000E+01 0. -1.
         -5    1    3    3    0  502  0.37078783781E+02 -0.31581210871E+02  0.71230156282E+02  0.86391068119E+02  0.41800000000E+01 0. -1.
        -11    1    1    2    0    0  0.44272182765E+02  0.35503046644E+02  0.13883319686E+03  0.14998382926E+03  0.00000000000E+00 0.  1.
         11    1    1    2    0    0 -0.39054798176E+02  0.12960467263E+02  0.20405066370E+03  0.20815841162E+03  0.00000000000E+00 0. -1.
</event>
<event>
 7    1  0.2844572E-009  0.2442890E+03  0.7561462E-02  0.1116968E+00
         -1   -1    0    0    0  501 -0.00000000000E+00  0.00000000000E+00  0.68717622259E+03  0.68717622259E+03  0.00000000000E+00 0.  1.
          1   -1    0    0  501    0  0.00000000000E+00 -0.00000000000E+00 -0.34868944104E+03  0.34868944104E+03  0.00000000000E+00 0. -1.
         25    2    1    2    0    0 -0.35490672759E+02 -0.23819997049E+03 -0.26436953127E+03  0.37886336677E+03  0.12508951924E+03 0.  0.
          5    1    3    3  502    0 -0.76545408334E+01 -0.51325592896E+02 -0.14808642247E+03  0.15697123750E+03  0.41800000000E+01 0.  1.
         -5    1    3    3    0  502 -0.27836131926E+02 -0.18687437759E+03 -0.11628310880E+03  0.22189212927E+03  0.41800000000E+01 0.  1.
        -11    1    1    2    0    0 -0.15833795216E+02  0.48879278564E+02  0.23030452245E+03  0.23596623912E+03  0.00000000000E+00 0.  1.
         11    1    1    2    0    0  0.51324467976E+02  0.18932069193E+03  0.37255179038E+03  0.42103605774E+03  0.00000000000E+00 0. -1.
</event>
<event>
 7    1  0.2844572E-009  0.1286119E+03  0.7561462E-02  0.1229530E+00
          2   -1    0    0  501    0  0.00000000000E+00  0.00000000000E+00  0.62435990090E+03  0.62435990090E+03  0.00000000000E+00 0.  1.
         -2   -1    0    0    0  501 -0.00000000000E+00 -0.00000000000E+00 -0.40116317317E+02  0.40116317317E+02  0.00000000000E+00 0. -1.
         25    2    1    2    0    0 -0.37842045950E+02  0.76317168187E+02  0.15839723020E+03  0.21907173832E+03  0.12508562426E+03 0.  0.
          5    1    3    3  502    0  0.37674067394E+02  0.43971489909E+01  0.79681632676E+02  0.88347638674E+02  0.41800000000E+01 0.  1.
         -5    1    3    3    0  502 -0.75516113344E+02  0.71920019196E+02  0.78715597524E+02  0.13072409965E+03  0.41800000000E+01 0.  1.
        -11    1    1    2    0    0 -0.19717089658E+02 -0.45089546733E+02  0.84097836791E+02  0.97438580665E+02  0.00000000000E+00 0.  1.
         11    1    1    2    0    0  0.57559135608E+02 -0.31227621454E+02  0.34174851659E+03  0.34796589923E+03  0.00000000000E+00 0. -1.
</event>
<event>
 7    1  0.2844572E-009  0.9381105E+02  0.7561462E-02  0.1293877E+00
         -1   -1    0    0    0  501 -0.00000000000E+00  0.00000000000E+00  0.18045103519E+03  0.18045103519E+03  0.00000000000E+00 0.  1.
          1   -1    0    0  501    0  0.00000000000E+00 -0.00000000000E+00 -0.82074389035E+02  0.82074389035E+02  0.00000000000E+00 0. -1.
         25    2    1    2    0    0 -0.90676050822E+01  0.64150706502E+01  0.11682213816E+03  0.17151786085E+03  0.12509032750E+03 0.  0.
          5    1    3    3  502    0 -0.15014384311E+01 -0.45642883200E+02  0.10889224000E+03  0.11815464205E+03  0.41800000000E+01 0. -1.
         -5    1    3    3    0  502 -0.75661666511E+01  0.52057953850E+02  0.79298981544E+01  0.53363218808E+02  0.41800000000E+01 0. -1.
        -11    1    1    2    0    0  0.34088801953E+02  0.29595072564E+02 -0.69399367520E+01  0.45673596977E+02  0.00000000000E+00 0.  1.
         11    1    1    2    0    0 -0.25021196871E+02 -0.36010143215E+02 -0.11505555252E+02  0.45333966392E+02  0.00000000000E+00 0. -1.
</event>
<event>
 7    1  0.2844572E-009  0.1585774E+03  0.7561462E-02  0.1190312E+00
         -2   -1    0    0    0  501 -0.00000000000E+00  0.00000000000E+00  0.29508015406E+02  0.29508015406E+02  0.00000000000E+00 0.  1.
          2   -1    0    0  501    0  0.00000000000E+00 -0.00000000000E+00 -0.10470460906E+04  0.10470460906E+04  0.00000000000E+00 0. -1.
         25    2    1    2    0    0  0.90887093069E+02 -0.10152648035E+03 -0.48000658560E+03  0.51441506003E+03  0.12509373231E+03 0.  0.
          5    1    3    3  502    0 -0.97541272337E+01 -0.13859803193E+01  0.28714900677E+01  0.11080694687E+02  0.41800000000E+01 0.  1.
         -5    1    3    3    0  502  0.10064122030E+03 -0.10014050004E+03 -0.48287807567E+03  0.50333436534E+03  0.41800000000E+01 0.  1.
        -11    1    1    2    0    0 -0.10459245271E+03  0.59764556394E+02 -0.40162577071E+03  0.41930256744E+03  0.00000000000E+00 0. -1.
         11    1    1    2    0    0  0.13705359640E+02  0.41761923961E+02 -0.13590571891E+03  0.14283647856E+03  0.00000000000E+00 0.  1.
</event>
<event>
 7    1  0.2844572E-009  0.6968526E+02  0.7561462E-02  0.1361167E+00
         -1   -1    0    0    0  501 -0.00000000000E+00  0.00000000000E+00  0.35888028590E+02  0.35888028590E+02  0.00000000000E+00 0.  1.
          1   -1    0    0  501    0  0.00000000000E+00 -0.00000000000E+00 -0.37150756079E+03  0.37150756079E+03  0.00000000000E+00 0. -1.
         25    2    1    2    0    0 -0.39703669891E+02  0.12960672595E+02 -0.19633196829E+03  0.23651174613E+03  0.12508878385E+03 0.  0.
          5    1    3    3  502    0 -0.24095157640E+02  0.20426763251E+02 -0.21103349495E+03  0.21342548505E+03  0.41800000000E+01 0. -1.
         -5    1    3    3    0  502 -0.15608512251E+02 -0.74660906553E+01  0.14701526659E+02  0.23086261076E+02  0.41800000000E+01 0. -1.
        -11    1    1    2    0    0  0.37159069617E+02  0.29329920404E+02 -0.36723390667E+02  0.59913672127E+02  0.00000000000E+00 0. -1.
         11    1    1    2    0    0  0.25446002745E+01 -0.42290593000E+02 -0.10256417325E+03  0.11097017113E+03  0.00000000000E+00 0.  1.
</event>
<event>
 7    1  0.2844572E-009  0.1292430E+03  0.7561462E-02  0.1228583E+00
          1   -1    0    0  501    0  0.00000000000E+00  0.00000000000E+00  0.45166128577E+03  0.45166128577E+03  0.00000000000E+00 0. -1.
         -1   -1    0    0    0  501 -0.00000000000E+00 -0.00000000000E+00 -0.46339648085E+02  0.46339648085E+02  0.00000000000E+00 0.  1.
         25    2    1    2    0    0 -0.89740133922E+02 -0.25179648581E+02  0.25331681180E+03  0.29750240926E+03  0.12510383702E+03 0.  0.
          5    1    3    3  502    0  0.75371804231E+00 -0.54169466418E+02  0.13612589545E+03  0.14656954321E+03  0.41800000000E+01 0. -1.
         -5    1    3    3    0  502 -0.90493851965E+02  0.28989817837E+02  0.11719091635E+03  0.15093286606E+03  0.41800000000E+01 0. -1.
        -11    1    1    2    0    0  0.60641016125E+02 -0.12004331590E+02  0.13805647844E+03  0.15126476144E+03  0.00000000000E+00 0. -1.
         11    1    1    2    0    0  0.29099117797E+02  0.37183980170E+02  0.13948347444E+02  0.49233763154E+02  0.00000000000E+00 0.  1.
</event>
<event>
 7    1  0.2844572E-009  0.1255702E+03  0.7561462E-02  0.1234181E+00
         -4   -1    0    0    0  501 -0.00000000000E+00  0.00000000000E+00  0.67156237368E+02  0.67156237368E+02  0.00000000000E+00 0.  1.
          4   -1    0    0  501    0  0.00000000000E+00 -0.00000000000E+00 -0.32256725831E+03  0.32256725831E+03  0.00000000000E+00 0. -1.
         25    2    1    2    0    0 -0.57063911286E+02  0.29729353734E+02 -0.38460180716E+02  0.14582649421E+03  0.12508419751E+03 0.  0.
          5    1    3    3  502    0  0.36145894465E+02  0.28855138031E+02 -0.20698935099E+02  0.50843514746E+02  0.41800000000E+01 0.  1.
         -5    1    3    3    0  502 -0.93209805751E+02  0.87421570255E+00 -0.17761245617E+02  0.94982979460E+02  0.41800000000E+01 0.  1.
        -11    1    1    2    0    0 -0.24987412138E+02 -0.10592989542E+02 -0.49989706657E+02  0.56881921245E+02  0.00000000000E+00 0.  1.
         11    1    1    2    0    0  0.82051323424E+02 -0.19136364192E+02 -0.16696113357E+03  0.18701508023E+03  0.00000000000E+00 0. -1.
</event>
<event>
 7    1  0.2844572E-009  0.1813804E+03  0.7561462E-02  0.1166474E+00
          2   -1    0    0  501    0  0.00000000000E+00  0.00000000000E+00  0.38565405675E+02  0.38565405675E+02  0.00000000000E+00 0. -1.
         -2   -1    0    0    0  501 -0.00000000000E+00 -0.00000000000E+00 -0.10536226030E+04  0.10536226030E+04  0.00000000000E+00 0.  1.
         25    2    1    2    0    0  0.42006430089E+02 -0.15430905639E+03 -0.68875342303E+03  0.71805533630E+03  0.12508542364E+03 0.  0.
          5    1    3    3  502    0 -0.41189246429E+02 -0.36234391363E+02 -0.13552931614E+03  0.14627082099E+03  0.41800000000E+01 0.  1.
         -5    1    3    3    0  502  0.83195676518E+02 -0.11807466503E+03 -0.55322410689E+03  0.57178451532E+03  0.41800000000E+01 0.  1.
        -11    1    1    2    0    0  0.54008755105E+01  0.23333375398E+02 -0.13715177716E+03  0.13922724533E+03  0.00000000000E+00 0.  1.
         11    1    1    2    0    0 -0.47407305599E+02  0.13097568099E+03 -0.18915199715E+03  0.23490542706E+03  0.00000000000E+00 0. -1.
</event>
<event>
 7    1  0.2844572E-009  0.1086113E+03  0.7561462E-02  0.1263163E+00
          1   -1    0    0  501    0  0.00000000000E+00  0.00000000000E+00  0.53748835907E+02  0.53748835907E+02  0.00000000000E+00 0. -1.
         -1   -1    0    0    0  501 -0.00000000000E+00 -0.00000000000E+00 -0.34322939508E+03  0.34322939508E+03  0.00000000000E+00 0.  1.
         25    2    1    2    0    0  0.27464916478E+02  0.56727426980E+02 -0.72142465975E+02  0.15755538963E+03  0.12508734067E+03 0.  0.
          5    1    3    3  502    0  0.74360509293E+02  0.42394998179E+02 -0.65565141962E+02  0.10790311142E+03  0.41800000000E+01 0. -1.
         -5    1    3    3    0  502 -0.46895592815E+02  0.14332428800E+02 -0.65773240136E+01  0.49652278216E+02  0.41800000000E+01 0. -1.
        -11    1    1    2    0    0 -0.21456791982E+02  0.35366344893E+01 -0.10979794827E+02  0.24360985204E+02  0.00000000000E+00 0. -1.
         11    1    1    2    0    0 -0.60081244959E+01 -0.60264061469E+02 -0.20635829837E+03  0.21506185615E+03  0.00000000000E+00 0.  1.
</event>
<event>
 7    1  0.2844572E-009  0.1248067E+03  0.7561462E-02  0.1235372E+00
          2   -1    0    0  501    0  0.00000000000E+00  0.00000000000E+00  0.18856904805E+03  0.18856904805E+03  0.00000000000E+00 0. -1.
         -2   -1    0    0    0  501 -0.00000000000E+00 -0.00000000000E+00 -0.12240890359E+03  0.12240890359E+03  0.00000000000E+00 0.  1.
         25    2    1    2    0    0  0.55239852093E+02 -0.30722217306E+02 -0.51190207337E+02  0.14920216533E+03  0.12508218464E+03 0.  0.
          5    1    3    3  502    0  0.79873512237E+02 -0.60063813464E+02 -0.46744173364E+02  0.11040801505E+03  0.41800000000E+01 0.  1.
         -5    1    3    3    0  502 -0.24633660144E+02  0.29341596158E+02 -0.44460339721E+01  0.38794150271E+02  0.41800000000E+01 0.  1.
        -11    1    1    2    0    0  0.24069861152E+02  0.19444811261E+02  0.38220424820E+02  0.49175804765E+02  0.00000000000E+00 0. -1.
         11    1    1    2    0    0 -0.79309713245E+02  0.11277406044E+02  0.79129926971E+02  0.11259998155E+03  0.00000000000E+00 0.  1.
</event>
<event>
 7    1  0.2844572E-009  0.8540237E+02  0.7561462E-02  0.1314384E+00
          1   -1    0    0  501    0  0.00000000000E+00  0.00000000000E+00  0.23330568736E+03  0.23330568736E+03  0.00000000000E+00 0. -1.
         -1   -1    0    0    0  501 -0.00000000000E+00 -0.00000000000E+00 -0.10797617656E+03  0.10797617656E+03  0.00000000000E+00 0.  1.
         25    2    1    2    0    0  0.33294597026E+02  0.88710251125E-01 -0.52148856263E+02  0.13955393874E+03  0.12508901050E+03 0.  0.
          5    1    3    3  502    0  0.52759356815E+02 -0.79151229316E+01  0.25296477107E+02  0.59191072440E+02  0.41800000000E+01 0. -1.
         -5    1    3    3    0  502 -0.19464759790E+02  0.80038331828E+01 -0.77445333370E+02  0.80362866301E+02  0.41800000000E+01 0. -1.
        -11    1    1    2    0    0 -0.64468250361E+02  0.27854834220E+01  0.11613585776E+03  0.13285876591E+03  0.00000000000E+00 0.  1.
         11    1    1    2    0    0  0.31173653336E+02 -0.28741936731E+01  0.61342509296E+02  0.68869159268E+02  0.00000000000E+00 0. -1.
</event>
<event>
 7    1  0.3374624E-009  0.1278326E+03  0.7561462E-02  0.1230708E+00
         -2   -1    0    0    0  501 -0.00000000000E+00  0.00000000000E+00  0.18315887430E+02  0.18315887430E+02  0.00000000000E+00 0.  1.
          2   -1    0    0  501    0  0.00000000000E+00 -0.00000000000E+00 -0.15302034721E+04  0.15302034721E+04  0.00000000000E+00 0. -1.
         25    2    1    2    0    0 -0.60814132749E+01  0.95266010949E+02 -0.11903503124E+04  0.12007054068E+04  0.12508801495E+03 0.  0.
          5    1    3    3  502    0 -0.20655627581E+02  0.12241287768E+03 -0.10205733935E+04  0.10281046112E+04  0.41800000000E+01 0. -1.
         -5    1    3    3    0  502  0.14574214306E+02 -0.27146866731E+02 -0.16977691882E+03  0.17260079565E+03  0.41800000000E+01 0. -1.
        -11    1    1    2    0    0 -0.10154058670E+02 -0.12952635244E+02 -0.10112726197E+01  0.16489340179E+02  0.00000000000E+00 0.  1.
         11    1    1    2    0    0  0.16235471945E+02 -0.82313375705E+02 -0.32052599975E+03  0.33132461255E+03  0.00000000000E+00 0. -1.
</event>
<event>
 7    1  0.3606992E-009  0.3419144E+03  0.7561462E-02  0.1065983E+00
         -2   -1    0    0    0  501 -0.00000000000E+00  0.00000000000E+00  0.29141972598E+03  0.29141972598E+03  0.00000000000E+00 0. -1.
          2   -1    0    0  501    0  0.00000000000E+00 -0.00000000000E+00 -0.45268223721E+03  0.45268223721E+03  0.00000000000E+00 0.  1.
         25    2    1    2    0    0  0.57152995773E+02 -0.32372602780E+03  0.29851821225E+02  0.35299262963E+03  0.12509060453E+03 0.  0.
          5    1    3    3  502    0  0.17895858392E+00 -0.24823531114E+03 -0.13989076983E+02  0.24866436898E+03  0.41800000000E+01 0.  1.
         -5    1    3    3    0  502  0.56974037190E+02 -0.75490716653E+02  0.43840898207E+02  0.10432826065E+03  0.41800000000E+01 0.  1.
        -11    1    1    2    0    0 -0.77154465496E+02  0.18086434297E+03 -0.10149502530E+03  0.22128253945E+03  0.00000000000E+00 0. -1.
         11    1    1    2    0    0  0.20001469723E+02  0.14286168482E+03 -0.89619307151E+02  0.16982679410E+03  0.00000000000E+00 0.  1.
</event>
<event>
 7    1  0.2844572E-009  0.1870998E+03  0.7561462E-02  0.1161103E+00
          1   -1    0    0  501    0  0.00000000000E+00  0.00000000000E+00  0.28500147050E+03  0.28500147050E+03  0.00000000000E+00 0. -1.
         -1   -1    0    0    0  501 -0.00000000000E+00 -0.00000000000E+00 -0.13582233831E+03  0.13582233831E+03  0.00000000000E+00 0.  1.
         25    2    1    2    0    0  0.12076721067E+03  0.11119208641E+03  0.46967170182E+02  0.21169170360E+03  0.12513617800E+03 0.  0.
          5    1    3    3  502    0  0.24746994610E+01  0.65970232991E+02  0.53111371662E+02  0.84832104642E+02  0.41800000000E+01 0.  1.
         -5    1    3    3    0  502  0.11829251121E+03  0.45221853418E+02 -0.61442014794E+01  0.12685959896E+03  0.41800000000E+01 0.  1.
        -11    1    1    2    0    0 -0.61035259798E+02 -0.72593181531E+01  0.45768079939E+02  0.76633659576E+02  0.00000000000E+00 0. -1.
         11    1    1    2    0    0 -0.59731950874E+02 -0.10393276826E+03  0.56443882073E+02  0.13249844564E+03  0.00000000000E+00 0.  1.
</event>
<event>
 7    1  0.2844572E-009  0.1307474E+03  0.7561462E-02  0.1226351E+00
          1   -1    0    0  501    0  0.00000000000E+00  0.00000000000E+00  0.49925223883E+03  0.49925223883E+03  0.00000000000E+00 0. -1.
         -1   -1    0    0    0  501 -0.00000000000E+00 -0.00000000000E+00 -0.45223181593E+02  0.45223181593E+02  0.00000000000E+00 0.  1.
         25    2    1    2    0    0  0.76019180720E+02  0.34825475112E+02  0.13516604374E+03  0.20225608250E+03  0.12508370787E+03 0.  0.
          5    1    3    3  502    0  0.81599228621E+02 -0.19853071354E+02  0.11727618199E+03  0.14430437906E+03  0.41800000000E+01 0. -1.
         -5    1    3    3    0  502 -0.55800479014E+01  0.54678546465E+02  0.17889861749E+02  0.57951703440E+02  0.41800000000E+01 0. -1.
        -11    1    1    2    0    0 -0.53306480947E+01  0.27522613320E+02  0.10149012457E+03  0.10529081364E+03  0.00000000000E+00 0.  1.
         11    1    1    2    0    0 -0.70688532625E+02 -0.62348088432E+02  0.21737288893E+03  0.23692852428E+03  0.00000000000E+00 0. -1.
</event>
<event>
 7    1  0.2844572E-009  0.1251795E+03  0.7561462E-02  0.1234789E+00
          1   -1    0    0  501    0  0.00000000000E+00  0.00000000000E+00  0.58300723618E+02  0.58300723618E+02  0.00000000000E+00 0. -1.
         -1   -1    0    0    0  501 -0.00000000000E+00 -0.00000000000E+00 -0.59390072507E+03  0.59390072507E+03  0.00000000000E+00 0.  1.
         25    2    1    2    0    0 -0.49202542060E+01  0.75993104242E+02 -0.53478951692E+02  0.15590664639E+03  0.12509086026E+03 0.  0.
          5    1    3    3  502    0  0.47133248169E+02  0.84454298659E+01 -0.51582064361E+02  0.70505674469E+02  0.41800000000E+01 0.  1.
         -5    1    3    3    0  502 -0.52053502375E+02  0.67547674376E+02 -0.18968873307E+01  0.85400971919E+02  0.41800000000E+01 0.  1.
        -11    1    1    2    0    0  0.28731946845E+02  0.78248474497E+01 -0.15046971840E+03  0.15338803461E+03  0.00000000000E+00 0.  1.
         11    1    1    2    0    0 -0.23811692639E+02 -0.83817951691E+02 -0.33165133135E+03  0.34290676768E+03  0.00000000000E+00 0. -1.
</event>
<event>
 7    1  0.2844572E-009  0.1554562E+03  0.7561462E-02  0.1193924E+00
         -3   -1    0    0    0  501 -0.00000000000E+00  0.00000000000E+00  0.11623352027E+03  0.11623352027E+03  0.00000000000E+00 0.  1.
          3   -1    0    0  501    0  0.00000000000E+00 -0.00000000000E+00 -0.31468816805E+03  0.31468816805E+03  0.00000000000E+00 0. -1.
         25    2    1    2    0    0  0.40959901118E+02 -0.14541587426E+03 -0.56623825005E+02  0.20415124631E+03  0.12509190153E+03 0.  0.
          5    1    3    3  502    0  0.35901231570E+02 -0.14095724069E+03 -0.89161218982E+02  0.17066059153E+03  0.41800000000E+01 0. -1.
         -5    1    3    3    0  502  0.50586695475E+01 -0.44586335652E+01  0.32537393978E+02  0.33490654782E+02  0.41800000000E+01 0. -1.
        -11    1    1    2    0    0 -0.22844926704E+01  0.89183552503E+02 -0.27035023003E+02  0.93219190152E+02  0.00000000000E+00 0.  1.
         11    1    1    2    0    0 -0.38675408447E+02  0.56232321752E+02 -0.11479579977E+03  0.13355125186E+03  0.00000000000E+00 0. -1.
</event>
<event>
 7    1  0.2844572E-009  0.1237086E+03  0.7561462E-02  0.1237101E+00
          2   -1    0    0  501    0  0.00000000000E+00  0.00000000000E+00  0.52291015659E+03  0.52291015659E+03  0.00000000000E+00 0. -1.
         -2   -1    0    0    0  501 -0.00000000000E+00 -0.00000000000E+00 -0.45483163389E+02  0.45483163389E+02  0.00000000000E+00 0.  1.
         25    2    1    2    0    0 -0.68527826578E+02  0.26192141630E+02  0.40296700243E+03  0.42826786869E+03  0.12509544761E+03 0.  0.
          5    1    3    3  502    0  0.36209092462E+02  0.13007575966E+02  0.12718849126E+03  0.13294615496E+03  0.41800000000E+01 0.  1.
         -5    1    3    3    0  502 -0.10473691904E+03  0.13184565664E+02  0.27577851116E+03  0.29532171373E+03  0.41800000000E+01 0.  1.
        -11    1    1    2    0    0  0.65319107937E+02  0.10569347908E+02  0.78882726506E+02  0.10296009673E+03  0.00000000000E+00 0. -1.
         11    1    1    2    0    0  0.32087186405E+01 -0.36761489539E+02 -0.44227357273E+01  0.37165354562E+02  0.00000000000E+00 0.  1.
</event>
<event>
 7    1  0.5258386E-009  0.9740013E+02  0.7561462E-02  0.1285860E+00
          2   -1    0    0  501    0  0.00000000000E+00  0.00000000000E+00  0.24645681190E+04  0.24645681190E+04  0.00000000000E+00 0. -1.
         -2   -1    0    0    0  501 -0.00000000000E+00 -0.00000000000E+00 -0.10062569094E+02  0.10062569094E+02  0.00000000000E+00 0.  1.
         25    2    1    2    0    0 -0.40690337921E+02 -0.45261066734E+02  0.20730180291E+04  0.20776793939E+04  0.12507456599E+03 0.  0.
          5    1    3    3  502    0 -0.56330125808E+02 -0.39877970962E+02  0.20330139272E+04  0.20341893806E+04  0.41800000000E+01 0.  1.
         -5    1    3    3    0  502  0.15639787888E+02 -0.53830957723E+01  0.40004101895E+02  0.43490013264E+02  0.41800000000E+01 0.  1.
        -11    1    1    2    0    0  0.63870583485E+02  0.75286707002E+01  0.25301346429E+03  0.26105927570E+03  0.00000000000E+00 0.  1.
         11    1    1    2    0    0 -0.23180245564E+02  0.37732396034E+02  0.12847405649E+03  0.13589201848E+03  0.00000000000E+00 0. -1.
</event>
<event>
 7    1  0.2844572E-009  0.1708211E+03  0.7561462E-02  0.1176994E+00
         -2   -1    0    0    0  501 -0.00000000000E+00  0.00000000000E+00  0.16399353556E+03  0.16399353556E+03  0.00000000000E+00 0.  1.
          2   -1    0    0  501    0  0.00000000000E+00 -0.00000000000E+00 -0.19662586927E+03  0.19662586927E+03  0.00000000000E+00 0. -1.
         25    2    1    2    0    0  0.38811964256E+02 -0.13603949007E+03 -0.34730959104E+02  0.19200589516E+03  0.12508762060E+03 0.  0.
          5    1    3    3  502    0  0.42615712489E+02 -0.15283936175E+03 -0.67308691950E+01  0.15886707164E+03  0.41800000000E+01 0. -1.
         -5    1    3    3    0  502 -0.38037482328E+01  0.16799871684E+02 -0.28000089909E+02  0.33138823518E+02  0.41800000000E+01 0. -1.
        -11    1    1    2    0    0  0.24813763297E+02  0.16572518774E+02 -0.12747935776E+02  0.32448129284E+02  0.00000000000E+00 0.  1.
         11    1    1    2    0    0 -0.63625727553E+02  0.11946697129E+03  0.14846561166E+02  0.13616538038E+03  0.00000000000E+00 0. -1.
</event>
<event>
 7    1  0.2844572E-009  0.1315534E+03  0.7561462E-02  0.1225169E+00
         -1   -1    0    0    0  501 -0.00000000000E+00  0.00000000000E+00  0.67560070846E+02  0.67560070846E+02  0.00000000000E+00 0.  1.
          1   -1    0    0  501    0  0.00000000000E+00 -0.00000000000E+00 -0.29585693237E+03  0.29585693237E+03  0.00000000000E+00 0. -1.
         25    2    1    2    0    0  0.18443795039E+02 -0.81361653066E+02 -0.17516077824E+03  0.23084355796E+03  0.12509019885E+03 0.  0.
          5    1    3    3  502    0  0.67876373737E+02 -0.48135148067E+02 -0.65497161568E+02  0.10597898454E+03  0.41800000000E+01 0. -1.
         -5    1    3    3    0  502 -0.49432578698E+02 -0.33226504998E+02 -0.10966361668E+03  0.12486457341E+03  0.41800000000E+01 0. -1.
        -11    1    1    2    0    0 -0.21479579713E+02  0.99448771748E+02 -0.51839880191E+02  0.11418758131E+03  0.00000000000E+00 0. -1.
         11    1    1    2    0    0  0.30357846742E+01 -0.18087118682E+02 -0.12962030888E+01  0.18385863952E+02  0.00000000000E+00 0.  1.
</event>
<event>
 7    1  0.2844572E-009  0.1079874E+03  0.7561462E-02  0.1264343E+00
          2   -1    0    0  501    0  0.00000000000E+00  0.00000000000E+00  0.35701296083E+03  0.35701296083E+03  0.00000000000E+00 0. -1.
         -2   -1    0    0    0  501 -0.00000000000E+00 -0.00000000000E+00 -0.40224683729E+02  0.40224683729E+02  0.00000000000E+00 0.  1.
         25    2    1    2    0    0 -0.43601256996E+02  0.30050024749E+02  0.18548746238E+03  0.22990731719E+03  0.12509077583E+03 0.  0.
          5    1    3    3  502    0  0.18236981265E+02 -0.37981807488E+02  0.43507558136E+02  0.60709020752E+02  0.41800000000E+01 0. -1.
         -5    1    3    3    0  502 -0.61838238261E+02  0.68031832237E+02  0.14197990424E+03  0.16919829644E+03  0.41800000000E+01 0. -1.
        -11    1    1    2    0    0 -0.15975411805E+02 -0.94756795329E+01 -0.31494872309E+01  0.18839361846E+02  0.00000000000E+00 0.  1.
         11    1    1    2    0    0  0.59576668802E+02 -0.20574345216E+02  0.13445030196E+03  0.14849096553E+03  0.00000000000E+00 0. -1.
</event>
<event>
 7    1  0.2844572E-009  0.9971986E+02  0.7561462E-02  0.1280886E+00
          2   -1    0    0  501    0  0.00000000000E+00  0.00000000000E+00  0.55278075413E+02  0.55278075413E+02  0.00000000000E+00 0. -1.
         -2   -1    0    0    0  501 -0.00000000000E+00 -0.00000000000E+00 -0.28514438444E+03  0.28514438444E+03  0.00000000000E+00 0.  1.
         25    2    1    2    0    0  0.87379848312E+01 -0.36037031807E+02 -0.59618059824E+02  0.14344814199E+03  0.12509211143E+03 0.  0.
          5    1    3    3  502    0 -0.34902247557E+02 -0.58297401479E+02 -0.64828479388E+02  0.94005095837E+02  0.41800000000E+01 0. -1.
         -5    1    3    3    0  502  0.43640232388E+02  0.22260369671E+02  0.52104195637E+01  0.49443046152E+02  0.41800000000E+01 0. -1.
        -11    1    1    2    0    0  0.29785335708E+02  0.31590001150E+02 -0.14334674093E+03  0.14977777716E+03  0.00000000000E+00 0.  1.
         11    1    1    2    0    0 -0.38523320540E+02  0.44470306570E+01 -0.26901508275E+02  0.47196540705E+02  0.00000000000E+00 0. -1.
</event>
<event>
 7    1  0.2844572E-009  0.9464761E+02  0.7561462E-02  0.1291972E+00
          1   -1    0    0  501    0  0.00000000000E+00  0.00000000000E+00  0.26951739391E+03  0.26951739391E+03  0.00000000000E+00 0. -1.
         -1   -1    0    0    0  501 -0.00000000000E+00 -0.00000000000E+00 -0.77900411598E+02  0.77900411598E+02  0.00000000000E+00 0.  1.
         25    2    1    2    0    0  0.38510708665E+02 -0.30192032316E+01  0.20818032478E+03  0.24592402487E+03  0.12508952041E+03 0.  0.
          5    1    3    3  502    0  0.50949416914E+02 -0.56204046188E+02  0.11486062657E+03  0.13771410177E+03  0.41800000000E+01 0. -1.
         -5    1    3    3    0  502 -0.12438708248E+02  0.53184842957E+02  0.93319698210E+02  0.10820992310E+03  0.41800000000E+01 0. -1.
        -11    1    1    2    0    0 -0.13987242594E+02  0.22992214145E+02  0.33071762689E+02  0.42638320253E+02  0.00000000000E+00 0. -1.
         11    1    1    2    0    0 -0.24523466071E+02 -0.19973010914E+02 -0.49635105154E+02  0.58855460382E+02  0.00000000000E+00 0.  1.
</event>
<event>
 7    1  0.2844572E-009  0.1052305E+03  0.7561462E-02  0.1269666E+00
         -1   -1    0    0    0  501 -0.00000000000E+00  0.00000000000E+00  0.18511322738E+03  0.18511322738E+03  0.00000000000E+00 0.  1.
          1   -1    0    0  501    0  0.00000000000E+00 -0.00000000000E+00 -0.68639511144E+02  0.68639511144E+02  0.00000000000E+00 0. -1.
         25    2    1    2    0    0  0.76996918557E+01 -0.11138279554E+02  0.32522063577E+02  0.12994854064E+03  0.12508234115E+03 0.  0.
          5    1    3    3  502    0 -0.56556625573E+02  0.70160559893E+01  0.25837550995E+02  0.62713063865E+02  0.41800000000E+01 0. -1.
         -5    1    3    3    0  502  0.64256317429E+02 -0.18154335543E+02  0.66845125819E+01  0.67235476774E+02  0.41800000000E+01 0. -1.
        -11    1    1    2    0    0 -0.37687730691E+02 -0.20434300004E+02  0.22296024048E+02  0.48322234526E+02  0.00000000000E+00 0. -1.
         11    1    1    2    0    0  0.29988038835E+02  0.31572579558E+02  0.61655628609E+02  0.75481963358E+02  0.00000000000E+00 0.  1.
</event>
<event>
 7    1  0.2844572E-009  0.8959402E+02  0.7561462E-02  0.1303838E+00
          1   -1    0    0  501    0  0.00000000000E+00  0.00000000000E+00  0.38918657329E+03  0.38918657329E+03  0.00000000000E+00 0. -1.
         -1   -1    0    0    0  501 -0.00000000000E+00 -0.00000000000E+00 -0.90742421238E+02  0.90742421238E+02  0.00000000000E+00 0.  1.
         25    2    1    2    0    0 -0.46862341725E+02 -0.15023443882E+02  0.34253592133E+03  0.36796465402E+03  0.12508135859E+03 0.  0.
          5    1    3    3  502    0  0.12980081507E+02 -0.37311980443E+02  0.26250356868E+03  0.26549249023E+03  0.41800000000E+01 0.  1.
         -5    1    3    3    0  502 -0.59842423232E+02  0.22288536561E+02  0.80032352652E+02  0.10247216379E+03  0.41800000000E+01 0.  1.
        -11    1    1    2    0    0 -0.13446639163E+02  0.61376521033E+00  0.19142554966E+02  0.23401414981E+02  0.00000000000E+00 0. -1.
         11    1    1    2    0    0  0.60308980888E+02  0.14409678671E+02 -0.63234324245E+02  0.88562925527E+02  0.00000000000E+00 0.  1.
</event>
<event>
 7    1  0.2844572E-009  0.1781699E+03  0.7561462E-02  0.1169586E+00
         -1   -1    0    0    0  501 -0.00000000000E+00  0.00000000000E+00  0.44547353248E+03  0.44547353248E+03  0.00000000000E+00 0. -1.
          1   -1    0    0  501    0  0.00000000000E+00 -0.00000000000E+00 -0.87502960960E+02  0.87502960960E+02  0.00000000000E+00 0.  1.
         25    2    1    2    0    0 -0.59259356743E+02 -0.15377905133E+03  0.18982052036E+03  0.28078181060E+03  0.12508767814E+03 0.  0.
          5    1    3    3  502    0 -0.84103294832E+02 -0.92422664737E+02  0.68630722960E+02  0.14262875479E+03  0.41800000000E+01 0. -1.
         -5    1    3    3    0  502  0.24843938089E+02 -0.61356386597E+02  0.12118979740E+03  0.13815305581E+03  0.41800000000E+01 0. -1.
        -11    1    1    2    0    0  0.14094328948E+02  0.46319122408E+02  0.10157196355E+01  0.48426675454E+02  0.00000000000E+00 0.  1.
         11    1    1    2    0    0  0.45165027794E+02  0.10745992893E+03  0.16713433153E+03  0.20376800739E+03  0.00000000000E+00 0. -1.
</event>
<event>
 7    1  0.2844572E-009  0.1279161E+03  0.7561462E-02  0.1230581E+00
          1   -1    0    0  501    0  0.00000000000E+00  0.00000000000E+00  0.56557290346E+03  0.56557290346E+03  0.00000000000E+00 0. -1.
         -1   -1    0    0    0  501 -0.00000000000E+00 -0.00000000000E+00 -0.40728733598E+02  0.40728733598E+02  0.00000000000E+00 0.  1.
         25    2    1    2    0    0  0.28287800562E+02 -0.85936505067E+02  0.36574778146E+03  0.39699518292E+03  0.12509377705E+03 0.  0.
          5    1    3    3  502    0 -0.30767094867E+02 -0.15284615414E+02  0.23195879929E+03  0.23452631102E+03  0.41800000000E+01 0. -1.
         -5    1    3    3    0  502  0.59054895429E+02 -0.70651889653E+02  0.13378898217E+03  0.16246887190E+03  0.41800000000E+01 0. -1.
        -11    1    1    2    0    0 -0.59318843435E+02  0.33521690910E+02  0.50557569531E+02  0.84843955500E+02  0.00000000000E+00 0.  1.
         11    1    1    2    0    0  0.31031042873E+02  0.52414814157E+02  0.10853881887E+03  0.12446249864E+03  0.00000000000E+00 0. -1.
</event>
<event>
 7    1  0.2844572E-009  0.1277335E+03  0.7561462E-02  0.1230858E+00
         -1   -1    0    0    0  501 -0.00000000000E+00  0.00000000000E+00  0.10831295079E+03  0.10831295079E+03  0.00000000000E+00 0.  1.
          1   -1    0    0  501    0  0.00000000000E+00 -0.00000000000E+00 -0.21391144375E+03  0.21391144375E+03  0.00000000000E+00 0. -1.
         25    2    1    2    0    0  0.97102139285E+02  0.42717509841E+02 -0.59545335859E+02  0.17447529080E+03  0.12506945660E+03 0.  0.
          5    1    3    3  502    0  0.96401408088E+02  0.69336601259E+02 -0.11487257080E+02  0.11937430725E+03  0.41800000000E+01 0.  1.
         -5    1    3    3    0  502  0.70073119643E+00 -0.26619091418E+02 -0.48058078778E+02  0.55100983549E+02  0.41800000000E+01 0.  1.
        -11    1    1    2    0    0 -0.51939761465E+02 -0.37851017318E+02 -0.71129119875E+02  0.95863392530E+02  0.00000000000E+00 0. -1.
         11    1    1    2    0    0 -0.45162377820E+02 -0.48664925226E+01  0.25075962768E+02  0.51885711218E+02  0.00000000000E+00 0.  1.
</event>
<event>
 7    1  0.2844572E-009  0.8312156E+02  0.7561462E-02  0.1320419E+00
         -2   -1    0    0    0  501 -0.00000000000E+00  0.00000000000E+00  0.10932902891E+02  0.10932902891E+02  0.00000000000E+00 0.  1.
          2   -1    0    0  501    0  0.00000000000E+00 -0.00000000000E+00 -0.11312130414E+04  0.11312130414E+04  0.00000000000E+00 0. -1.
         25    2    1    2    0    0  0.21502072408E+01 -0.52929750214E+01 -0.68451762783E+03  0.69587837482E+03  0.12509872406E+03 0.  0.
          5    1    3    3  502    0  0.33937088161E+02 -0.14567806418E+02 -0.60745491637E+02  0.71214002071E+02  0.41800000000E+01 0. -1.
         -5    1    3    3    0  502 -0.31786880920E+02  0.92748313970E+01 -0.62377213619E+03  0.62466437275E+03  0.41800000000E+01 0. -1.
        -11    1    1    2    0    0  0.12172741936E+02  0.48592279012E+02 -0.25195172082E+03  0.25688334872E+03  0.00000000000E+00 0. -1.
         11    1    1    2    0    0 -0.14322949177E+02 -0.43299303991E+02 -0.18381078988E+03  0.18938422077E+03  0.00000000000E+00 0.  1.
</event>
<event>
 7    1  0.2844572E-009  0.1213056E+03  0.7561462E-02  0.1240959E+00
         -2   -1    0    0    0  501 -0.00000000000E+00  0.00000000000E+00  0.25104146291E+03  0.25104146291E+03  0.00000000000E+00 0. -1.
          2   -1    0    0  501    0  0.00000000000E+00 -0.00000000000E+00 -0.83162262866E+02  0.83162262866E+02  0.00000000000E+00 0.  1.
         25    2    1    2    0    0  0.60764692172E+02 -0.99441796184E+00  0.58118932959E+01  0.13914312852E+03  0.12503477688E+03 0.  0.
          5    1    3    3  502    0 -0.35328007425E+02 -0.15204745203E+02 -0.11555783913E+02  0.40376489782E+02  0.41800000000E+01 0.  1.
         -5    1    3    3    0  502  0.96092699597E+02  0.14210327241E+02  0.17367677209E+02  0.98766638739E+02  0.41800000000E+01 0.  1.
        -11    1    1    2    0    0 -0.55477530456E+02 -0.38064749780E+02  0.11882185941E+03  0.13654785181E+03  0.00000000000E+00 0. -1.
         11    1    1    2    0    0 -0.52871617159E+01  0.39059167742E+02  0.43245447345E+02  0.58512745448E+02  0.00000000000E+00 0.  1.
</event>
<event>
 7    1  0.2844572E-009  0.1025614E+03  0.7561462E-02  0.1275000E+00
         -4   -1    0    0    0  501 -0.00000000000E+00  0.00000000000E+00  0.79051071562E+02  0.79051071562E+02  0.00000000000E+00 0.  1.
          4   -1    0    0  501    0  0.00000000000E+00 -0.00000000000E+00 -0.17106956831E+03  0.17106956831E+03  0.00000000000E+00 0. -1.
         25    2    1    2    0    0  0.33761815825E+02  0.26910965156E+02 -0.44706681893E+02  0.13967436902E+03  0.12508469812E+03 0.  0.
          5    1    3    3  502    0 -0.45196548296E+02  0.41880411316E+01 -0.33667479912E+02  0.56667797469E+02  0.41800000000E+01 0. -1.
         -5    1    3    3    0  502  0.78958364121E+02  0.22722924024E+02 -0.11039201981E+02  0.83006571554E+02  0.41800000000E+01 0. -1.
        -11    1    1    2    0    0 -0.53038450786E+02 -0.21672730037E+02 -0.62918243521E+02  0.85096943875E+02  0.00000000000E+00 0. -1.
         11    1    1    2    0    0  0.19276634962E+02 -0.52382351186E+01  0.15606428662E+02  0.25349326977E+02  0.00000000000E+00 0.  1.
</event>
<event>
 7    1  0.2844572E-009  0.7881844E+02  0.7561462E-02  0.1332438E+00
         -1   -1    0    0    0  501 -0.00000000000E+00  0.00000000000E+00  0.74493487666E+02  0.74493487666E+02  0.00000000000E+00 0.  1.
          1   -1    0    0  501    0  0.00000000000E+00 -0.00000000000E+00 -0.21889952563E+03  0.21889952563E+03  0.00000000000E+00 0. -1.
         25    2    1    2    0    0  0.41964508769E+02 -0.38729403864E+02 -0.11657931612E+03  0.18027328009E+03  0.12508689718E+03 0.  0.
          5    1    3    3  502    0 -0.24634929506E+02 -0.15636805176E+02 -0.10457135323E+03  0.10864635173E+03  0.41800000000E+01 0. -1.
         -5    1    3    3    0  502  0.66599438275E+02 -0.23092598688E+02 -0.12007962887E+02  0.71626928354E+02  0.41800000000E+01 0. -1.
        -11    1    1    2    0    0 -0.24922099676E+02  0.27629025379E+02  0.32533048524E+02  0.49425432137E+02  0.00000000000E+00 0.  1.
         11    1    1    2    0    0 -0.17042409093E+02  0.11100378486E+02 -0.60359770365E+02  0.63694301069E+02  0.00000000000E+00 0. -1.
</event>
<event>
 7    1  0.2844572E-009  0.1430604E+03  0.7561462E-02  0.1209269E+00
         -1   -1    0    0    0  501 -0.00000000000E+00  0.00000000000E+00  0.28136472207E+02  0.28136472207E+02  0.00000000000E+00 0.  1.
          1   -1    0    0  501    0  0.00000000000E+00 -0.00000000000E+00 -0.87173840224E+03  0.87173840224E+03  0.00000000000E+00 0. -1.
         25    2    1    2    0    0  0.10164620313E+03  0.27861403842E+02 -0.34353250976E+03  0.38048783006E+03  0.12509274612E+03 0.  0.
          5    1    3    3  502    0 -0.15608461339E+02  0.23615099898E+02 -0.16525704267E+02  0.33043430664E+02  0.41800000000E+01 0.  1.
         -5    1    3    3    0  502  0.11725466447E+03  0.42463039438E+01 -0.32700680549E+03  0.34744439940E+03  0.41800000000E+01 0.  1.
        -11    1    1    2    0    0 -0.33728546763E+02  0.34246456848E+02 -0.18602814338E+03  0.19213772352E+03  0.00000000000E+00 0. -1.
         11    1    1    2    0    0 -0.67917656367E+02 -0.62107860689E+02 -0.31404127690E+03  0.32724932086E+03  0.00000000000E+00 0.  1.
</event>
<event>
 7    1  0.2844572E-009  0.3159303E+03  0.7561462E-02  0.1077538E+00
          4   -1    0    0  501    0  0.00000000000E+00  0.00000000000E+00  0.11686409220E+03  0.11686409220E+03  0.00000000000E+00 0. -1.
         -4   -1    0    0    0  501 -0.00000000000E+00 -0.00000000000E+00 -0.87721630102E+03  0.87721630102E+03  0.00000000000E+00 0.  1.
         25    2    1    2    0    0  0.12043119717E+03  0.27571005253E+03 -0.37697005366E+03  0.49827159582E+03  0.12509378693E+03 0.  0.
          5    1    3    3  502    0  0.57253422964E+02  0.17582248069E+02 -0.71439054974E+02  0.93317205615E+02  0.41800000000E+01 0. -1.
         -5    1    3    3    0  502  0.63177774207E+02  0.25812780446E+03 -0.30553099869E+03  0.40495439021E+03  0.41800000000E+01 0. -1.
        -11    1    1    2    0    0 -0.20098304398E+02 -0.11383372374E+03 -0.92133146062E+02  0.14781940029E+03  0.00000000000E+00 0.  1.
         11    1    1    2    0    0 -0.10033289277E+03 -0.16187632879E+03 -0.29124900909E+03  0.34798939710E+03  0.00000000000E+00 0. -1.
</event>
<event>
 7    1  0.2844572E-009  0.1085641E+03  0.7561462E-02  0.1263252E+00
         -2   -1    0    0    0  501 -0.00000000000E+00  0.00000000000E+00  0.26045172284E+02  0.26045172284E+02  0.00000000000E+00 0. -1.
          2   -1    0    0  501    0  0.00000000000E+00 -0.00000000000E+00 -0.53082016113E+03  0.53082016113E+03  0.00000000000E+00 0.  1.
         25    2    1    2    0    0 -0.40389204529E+02 -0.18779267378E+02 -0.32026177925E+03  0.34669796862E+03  0.12509166828E+03 0.  0.
          5    1    3    3  502    0 -0.53440977353E+02  0.33279133070E+02 -0.88014044778E+02  0.10829304334E+03  0.41800000000E+01 0.  1.
         -5    1    3    3    0  502  0.13051772824E+02 -0.52058400448E+02 -0.23224773447E+03  0.23840492528E+03  0.41800000000E+01 0.  1.
        -11    1    1    2    0    0  0.25490595084E+02  0.55227300507E+02 -0.10244391527E+03  0.11914101282E+03  0.00000000000E+00 0.  1.
         11    1    1    2    0    0  0.14898609445E+02 -0.36448033129E+02 -0.82069294325E+02  0.91026351972E+02  0.00000000000E+00 0. -1.
</event>
<event>
 7    1  0.2844572E-009  0.9910703E+02  0.7561462E-02  0.1282185E+00
          1   -1    0    0  501    0  0.00000000000E+00  0.00000000000E+00  0.33125392130E+03  0.33125392130E+03  0.00000000000E+00 0. -1.
         -1   -1    0    0    0  501 -0.00000000000E+00 -0.00000000000E+00 -0.71419446184E+02  0.71419446184E+02  0.00000000000E+00 0.  1.
         25    2    1    2    0    0 -0.20239074291E+02  0.75529631572E+02  0.22174032707E+03  0.26632879037E+03  0.12509159266E+03 0.  0.
          5    1    3    3  502    0 -0.50777988903E+02  0.16963827844E+02  0.25921986787E+02  0.59628830368E+02  0.41800000000E+01 0. -1.
         -5    1    3    3    0  502  0.30538914612E+02  0.58565803728E+02  0.19581834028E+03  0.20669996000E+03  0.41800000000E+01 0. -1.
        -11    1    1    2    0    0  0.16021688070E+02 -0.65903325991E+02 -0.25073049745E+02  0.72309063669E+02  0.00000000000E+00 0.  1.
         11    1    1    2    0    0  0.42173862216E+01 -0.96263055809E+01  0.63167197795E+02  0.64035513451E+02  0.00000000000E+00 0. -1.
</event>
<event>
 7    1  0.2844572E-009  0.8162512E+02  0.7561462E-02  0.1324502E+00
          2   -1    0    0  501    0  0.00000000000E+00  0.00000000000E+00  0.16690826540E+03  0.16690826540E+03  0.00000000000E+00 0. -1.
         -2   -1    0    0    0  501 -0.00000000000E+00 -0.00000000000E+00 -0.95169078925E+02  0.95169078925E+02  0.00000000000E+00 0.  1.
         25    2    1    2    0    0  0.72904794504E+01 -0.28087651147E+02  0.99689513730E+02  0.16256530996E+03  0.12508962234E+03 0.  0.
          5    1    3    3  502    0  0.54820671646E+02 -0.49539609133E+02  0.43729965444E+02  0.85960811946E+02  0.41800000000E+01 0. -1.
         -5    1    3    3    0  502 -0.47530192196E+02  0.21451957986E+02  0.55959548287E+02  0.76604498014E+02  0.41800000000E+01 0. -1.
        -11    1    1    2    0    0 -0.15088686950E+02  0.12877123615E+02 -0.59997308051E+02  0.63191500693E+02  0.00000000000E+00 0.  1.
         11    1    1    2    0    0  0.77982074997E+01  0.15210527532E+02  0.32046980793E+02  0.36320533669E+02  0.00000000000E+00 0. -1.
</event>
<event>
 7    1  0.2844572E-009  0.1203523E+03  0.7561462E-02  0.1242517E+00
         -1   -1    0    0    0  501 -0.00000000000E+00  0.00000000000E+00  0.37565395761E+02  0.37565395761E+02  0.00000000000E+00 0.  1.
          1   -1    0    0  501    0  0.00000000000E+00 -0.00000000000E+00 -0.56659709798E+03  0.56659709798E+03  0.00000000000E+00 0. -1.
         25    2    1    2    0    0  0.35151118965E+02  0.88072882668E+02 -0.24050380317E+03  0.28719746170E+03  0.12509144191E+03 0.  0.
          5    1    3    3  502    0 -0.14691441837E+02  0.93151817621E+02 -0.97923547890E+02  0.13601320973E+03  0.41800000000E+01 0. -1.
         -5    1    3    3    0  502  0.49842560802E+02 -0.50789349523E+01 -0.14258025528E+03  0.15118425197E+03  0.41800000000E+01 0. -1.
        -11    1    1    2    0    0 -0.80423201517E+01 -0.40398049678E+02 -0.25866309990E+02  0.48638948629E+02  0.00000000000E+00 0.  1.
         11    1    1    2    0    0 -0.27108798813E+02 -0.47674832991E+02 -0.26266158906E+03  0.26832608341E+03  0.00000000000E+00 0. -1.
</event>
<event>
 7    1  0.2844572E-009  0.1121802E+03  0.7561462E-02  0.1256585E+00
         -2   -1    0    0    0  501 -0.00000000000E+00  0.00000000000E+00  0.36590510976E+02  0.36590510976E+02  0.00000000000E+00 0.  1.
          2   -1    0    0  501    0  0.00000000000E+00 -0.00000000000E+00 -0.57755601541E+03  0.57755601541E+03  0.00000000000E+00 0. -1.
         25    2    1    2    0    0 -0.33101255895E+02 -0.31106758496E+02 -0.47519797048E+03  0.49348026208E+03  0.12508530827E+03 0.  0.
          5    1    3    3  502    0  0.86329808128E+00 -0.74584893406E+02 -0.32328914582E+03  0.33180867351E+03  0.41800000000E+01 0. -1.
         -5    1    3    3    0  502 -0.33964553977E+02  0.43478134910E+02 -0.15190882465E+03  0.16167158857E+03  0.41800000000E+01 0. -1.
        -11    1    1    2    0    0  0.60651663000E+02  0.27295718633E+02 -0.24455490201E+02  0.70864317405E+02  0.00000000000E+00 0. -1.
         11    1    1    2    0    0 -0.27550407104E+02  0.38110398626E+01 -0.41312043759E+02  0.49801946909E+02  0.00000000000E+00 0.  1.
</event>
<event>
 7    1  0.3644708E-009  0.1337055E+03  0.7561462E-02  0.1222059E+00
          2   -1    0    0  501    0  0.00000000000E+00  0.00000000000E+00  0.15491337872E+04  0.15491337872E+04  0.00000000000E+00 0. -1.
         -2   -1    0    0    0  501 -0.00000000000E+00 -0.00000000000E+00 -0.16927653064E+02  0.16927653064E+02  0.00000000000E+00 0.  1.
         25    2    1    2    0    0 -0.50113495374E+02 -0.97851456823E+02  0.10480335721E+04  0.10611825552E+04  0.12509107622E+03 0.  0.
          5    1    3    3  502    0 -0.39743541052E+01 -0.72972115792E+02  0.22794916072E+03  0.23941390404E+03  0.41800000000E+01 0.  1.
         -5    1    3    3    0  502 -0.46139141269E+02 -0.24879341031E+02  0.82008441133E+03  0.82176865119E+03  0.41800000000E+01 0.  1.
        -11    1    1    2    0    0  0.74820048334E+02  0.57713156902E+02  0.28718246474E+03  0.30232865588E+03  0.00000000000E+00 0.  1.
         11    1    1    2    0    0 -0.24706552960E+02  0.40138299921E+02  0.19699009736E+03  0.20255022917E+03  0.00000000000E+00 0. -1.
</event>
<event>
 7    1  0.2844572E-009  0.1149616E+03  0.7561462E-02  0.1251648E+00
          1   -1    0    0  501    0  0.00000000000E+00  0.00000000000E+00  0.48122967248E+03  0.48122967248E+03  0.00000000000E+00 0. -1.
         -1   -1    0    0    0  501 -0.00000000000E+00 -0.00000000000E+00 -0.42341078299E+02  0.42341078299E+02  0.00000000000E+00 0.  1.
         25    2    1    2    0    0 -0.27862041746E+02  0.77349472596E+02  0.16377714093E+03  0.22190507915E+03  0.12513863504E+03 0.  0.
          5    1    3    3  502    0  0.25577290749E+02  0.17792306299E+01 -0.76173516234E+01  0.27071385436E+02  0.41800000000E+01 0. -1.
         -5    1    3    3    0  502 -0.53439332494E+02  0.75570241966E+02  0.17139449255E+03  0.19483369371E+03  0.41800000000E+01 0. -1.
        -11    1    1    2    0    0  0.35947753357E+02 -0.25264031496E+01  0.35787192635E+02  0.50787270462E+02  0.00000000000E+00 0.  1.
         11    1    1    2    0    0 -0.80857116115E+01 -0.74823069446E+02  0.23932426062E+03  0.25087840117E+03  0.00000000000E+00 0. -1.
</event>
<event>
 7    1  0.2844572E-009  0.7912707E+02  0.7561462E-02  0.1331547E+00
         -2   -1    0    0    0  501 -0.00000000000E+00  0.00000000000E+00  0.98327666075E+02  0.98327666075E+02  0.00000000000E+00 0.  1.
          2   -1    0    0  501    0  0.00000000000E+00 -0.00000000000E+00 -0.19780040699E+03  0.19780040699E+03  0.00000000000E+00 0. -1.
         25    2    1    2    0    0  0.33340277086E+02 -0.44129941223E+02  0.19038557776E+02  0.13808645818E+03  0.12508548062E+03 0.  0.
          5    1    3    3  502    0  0.21608385382E+01 -0.34693601887E+02 -0.50345022305E+02  0.61322173037E+02  0.41800000000E+01 0.  1.
         -5    1    3    3    0  502  0.31179438548E+02 -0.94363393364E+01  0.69383580081E+02  0.76764285141E+02  0.41800000000E+01 0.  1.
        -11    1    1    2    0    0 -0.82073267730E+01  0.60076589544E+02 -0.36445875342E+02  0.70745025644E+02  0.00000000000E+00 0.  1.
         11    1    1    2    0    0 -0.25132950313E+02 -0.15946648320E+02 -0.82065423354E+02  0.87296589248E+02  0.00000000000E+00 0. -1.
</event>
<event>
 7    1  0.2844572E-009  0.9514471E+02  0.7561462E-02  0.1290850E+00
         -3   -1    0    0    0  501 -0.00000000000E+00  0.00000000000E+00  0.95886524168E+03  0.95886524168E+03  0.00000000000E+00 0.  1.
          3   -1    0    0  501    0  0.00000000000E+00 -0.00000000000E+00 -0.16835192407E+02  0.16835192407E+02  0.00000000000E+00 0. -1.
         25    2    1    2    0    0  0.53641159915E+01  0.17516028605E+02  0.77566045516E+03  0.78589578440E+03  0.12508979671E+03 0.  0.
          5    1    3    3  502    0  0.60856238068E+02 -0.50906243284E+01  0.28023135688E+03  0.28683877344E+03  0.41800000000E+01 0. -1.
         -5    1    3    3    0  502 -0.55492122076E+02  0.22606652934E+02  0.49542909828E+03  0.49905701096E+03  0.41800000000E+01 0. -1.
        -11    1    1    2    0    0  0.21071036589E+02  0.15904946669E+02  0.13323718018E+03  0.13582747179E+03  0.00000000000E+00 0.  1.
         11    1    1    2    0    0 -0.26435152581E+02 -0.33420975274E+02  0.33132413932E+02  0.53977177892E+02  0.00000000000E+00 0. -1.
</event>
<event>
 7    1  0.2844572E-009  0.8791155E+02  0.7561462E-02  0.1307989E+00
          2   -1    0    0  501    0  0.00000000000E+00  0.00000000000E+00  0.30624587307E+03  0.30624587307E+03  0.00000000000E+00 0. -1.
         -2   -1    0    0    0  501 -0.00000000000E+00 -0.00000000000E+00 -0.47286638854E+02  0.47286638854E+02  0.00000000000E+00 0.  1.
         25    2    1    2    0    0  0.31654980978E+02 -0.20572684592E+02  0.88713738925E+02  0.15793281002E+03  0.12508945533E+03 0.  0.
          5    1    3    3  502    0  0.22603307012E+02 -0.46444538554E+02 -0.12234407885E+02  0.53246199730E+02  0.41800000000E+01 0.  1.
         -5    1    3    3    0  502  0.90516739665E+01  0.25871853962E+02  0.10094814681E+03  0.10468661029E+03  0.41800000000E+01 0.  1.
        -11    1    1    2    0    0 -0.29409683970E+02 -0.32110951379E+02  0.79647438325E+02  0.90773108030E+02  0.00000000000E+00 0.  1.
         11    1    1    2    0    0 -0.22452970084E+01  0.52683635971E+02  0.90598056963E+02  0.10482659387E+03  0.00000000000E+00 0. -1.
</event>
<event>
 7    1  0.2844572E-009  0.2192625E+03  0.7561462E-02  0.1134434E+00
         -2   -1    0    0    0  501 -0.00000000000E+00  0.00000000000E+00  0.10969283163E+04  0.10969283163E+04  0.00000000000E+00 0. -1.
          2   -1    0    0  501    0  0.00000000000E+00 -0.00000000000E+00 -0.69872057275E+02  0.69872057275E+02  0.00000000000E+00 0.  1.
         25    2    1    2    0    0 -0.70806441383E+02  0.19658366050E+03  0.22076825669E+03  0.32871830637E+03  0.12513358488E+03 0.  0.
          5    1    3    3  502    0  0.21956690040E+01  0.41491802137E+02  0.12614392922E+03  0.13287646099E+03  0.41800000000E+01 0.  1.
         -5    1    3    3    0  502 -0.73002110387E+02  0.15509185836E+03  0.94624327470E+02  0.19584184538E+03  0.41800000000E+01 0.  1.
        -11    1    1    2    0    0  0.78437492934E+02 -0.93974376111E+02  0.36583424039E+03  0.38576976956E+03  0.00000000000E+00 0.  1.
         11    1    1    2    0    0 -0.76310515505E+01 -0.10260928439E+03  0.44045376190E+03  0.45231229761E+03  0.00000000000E+00 0. -1.
</event>
<event>
 7    1  0.2844572E-009  0.9911624E+02  0.7561462E-02  0.1282165E+00
          3   -1    0    0  501    0  0.00000000000E+00  0.00000000000E+00  0.30829171812E+02  0.30829171812E+02  0.00000000000E+00 0. -1.
         -3   -1    0    0    0  501 -0.00000000000E+00 -0.00000000000E+00 -0.59628387791E+03  0.59628387791E+03  0.00000000000E+00 0.  1.
         25    2    1    2    0    0  0.41192021709E+02 -0.67147658404E+02 -0.26810791437E+03  0.30616476213E+03  0.12509763042E+03 0.  0.
          5    1    3    3  502    0  0.20979852013E+02 -0.41833624196E+02 -0.12693390859E+02  0.48670328491E+02  0.41800000000E+01 0. -1.
         -5    1    3    3    0  502  0.20212169696E+02 -0.25314034207E+02 -0.25541452351E+03  0.25749443363E+03  0.41800000000E+01 0. -1.
        -11    1    1    2    0    0 -0.69417382732E+02  0.50130853981E+02 -0.18477226389E+03  0.20364838582E+03  0.00000000000E+00 0. -1.
         11    1    1    2    0    0  0.28225361023E+02  0.17016804423E+02 -0.11257452783E+03  0.11729990177E+03  0.00000000000E+00 0.  1.
</event>
<event>
 7    1  0.2844572E-009  0.1011000E+03  0.7561462E-02  0.1278000E+00
          2   -1    0    0  501    0  0.00000000000E+00  0.00000000000E+00  0.10010849104E+03  0.10010849104E+03  0.00000000000E+00 0.  1.
         -2   -1    0    0    0  501 -0.00000000000E+00 -0.00000000000E+00 -0.15697888318E+03  0.15697888318E+03  0.00000000000E+00 0. -1.
         25    2    1    2    0    0  0.25362998155E+02 -0.68068489875E+01 -0.90264353444E+02  0.15647569702E+03  0.12508946953E+03 0.  0.
          5    1    3    3  502    0  0.50319311472E+02  0.33567165255E+02 -0.76599991373E+01  0.61114120112E+02  0.41800000000E+01 0. -1.
         -5    1    3    3    0  502 -0.24956313317E+02 -0.40374014242E+02 -0.82604354306E+02  0.95361576910E+02  0.41800000000E+01 0. -1.
        -11    1    1    2    0    0  0.32752812848E+02 -0.84684619101E+01  0.51665129649E+01  0.34222133960E+02  0.00000000000E+00 0. -1.
         11    1    1    2    0    0 -0.58115811003E+02  0.15275310898E+02  0.28227448334E+02  0.66389543235E+02  0.00000000000E+00 0.  1.
</event>
<event>
 7    1  0.2844572E-009  0.1396614E+03  0.7561462E-02  0.1213785E+00
         -2   -1    0    0    0  501 -0.00000000000E+00  0.00000000000E+00  0.15748984190E+03  0.15748984190E+03  0.00000000000E+00 0.  1.
          2   -1    0    0  501    0  0.00000000000E+00 -0.00000000000E+00 -0.15088326473E+03  0.15088326473E+03  0.00000000000E+00 0. -1.
         25    2    1    2    0    0  0.74210300325E+02  0.67697245752E+02 -0.39183104228E+02  0.16514142267E+03  0.12508512329E+03 0.  0.
          5    1    3    3  502    0 -0.31964774980E+02  0.21865993236E+02 -0.29794175735E+02  0.49041144027E+02  0.41800000000E+01 0. -1.
         -5    1    3    3    0  502  0.10617507530E+03  0.45831252516E+02 -0.93889284931E+01  0.11610027864E+03  0.41800000000E+01 0. -1.
        -11    1    1    2    0    0 -0.79276310214E+02 -0.27163960451E+02  0.26817623550E+01  0.83843938110E+02  0.00000000000E+00 0. -1.
         11    1    1    2    0    0  0.50660098890E+01 -0.40533285301E+02  0.43107919037E+02  0.59387745851E+02  0.00000000000E+00 0.  1.
</event>
<event>
 7    1  0.2844572E-009  0.2766599E+03  0.7561462E-02  0.1097527E+00
          2   -1    0    0  501    0  0.00000000000E+00  0.00000000000E+00  0.42288476628E+03  0.42288476628E+03  0.00000000000E+00 0. -1.
         -2   -1    0    0    0  501 -0.00000000000E+00 -0.00000000000E+00 -0.20150801541E+03  0.20150801541E+03  0.00000000000E+00 0.  1.
         25    2    1    2    0    0 -0.24116147385E+03 -0.12238910774E+03  0.11648289580E+03  0.31992789101E+03  0.12509052830E+03 0.  0.
          5    1    3    3  502    0 -0.45730235327E+02 -0.64632334858E+01  0.76079499172E+02  0.89098767693E+02  0.41800000000E+01 0. -1.
         -5    1    3    3    0  502 -0.19543123852E+03 -0.11592587425E+03  0.40403396625E+02  0.23082912331E+03  0.41800000000E+01 0. -1.
        -11    1    1    2    0    0  0.49554691549E+02  0.60761712813E+02  0.20390888629E+01  0.78433481893E+02  0.00000000000E+00 0.  1.
         11    1    1    2    0    0  0.19160678230E+03  0.61627394928E+02  0.10285476621E+03  0.22603140879E+03  0.00000000000E+00 0. -1.
</event>
<event>
 7    1  0.2844572E-009  0.8412720E+02  0.7561462E-02  0.1317731E+00
          1   -1    0    0  501    0  0.00000000000E+00  0.00000000000E+00  0.47920636178E+03  0.47920636178E+03  0.00000000000E+00 0. -1.
         -1   -1    0    0    0  501 -0.00000000000E+00 -0.00000000000E+00 -0.24638516384E+02  0.24638516384E+02  0.00000000000E+00 0.  1.
         25    2    1    2    0    0  0.68536759539E+01  0.10340214584E+02  0.25509072044E+03  0.28438385961E+03  0.12509600729E+03 0.  0.
          5    1    3    3  502    0  0.99798538950E+01  0.42879987860E+02  0.24635090323E+03  0.25028889461E+03  0.41800000000E+01 0.  1.
         -5    1    3    3    0  502 -0.31261779411E+01 -0.32539773276E+02  0.87398172098E+01  0.34094964998E+02  0.41800000000E+01 0.  1.
        -11    1    1    2    0    0  0.37281012885E+02 -0.24632208636E+02  0.10843670181E+03  0.11728230013E+03  0.00000000000E+00 0.  1.
         11    1    1    2    0    0 -0.44134688839E+02  0.14291994052E+02  0.91040423151E+02  0.10217871843E+03  0.00000000000E+00 0. -1.
</event>
<event>
 7    1  0.2844572E-009  0.1189635E+03  0.7561462E-02  0.1244817E+00
         -2   -1    0    0    0  501 -0.00000000000E+00  0.00000000000E+00  0.44644969035E+02  0.44644969035E+02  0.00000000000E+00 0.  1.
          2   -1    0    0  501    0  0.00000000000E+00 -0.00000000000E+00 -0.34668532498E+03  0.34668532498E+03  0.00000000000E+00 0. -1.
         25    2    1    2    0    0  0.48117610687E+02  0.28468200793E+02 -0.12809643416E+03  0.18756949324E+03  0.12509146828E+03 0.  0.
          5    1    3    3  502    0  0.30966462699E+01  0.71970017505E+02 -0.52003401399E+02  0.88944357859E+02  0.41800000000E+01 0.  1.
         -5    1    3    3    0  502  0.45020964417E+02 -0.43501816712E+02 -0.76093032762E+02  0.98625135383E+02  0.41800000000E+01 0.  1.
        -11    1    1    2    0    0 -0.68560585788E+02 -0.72562869506E+00 -0.90968427333E+02  0.11391371837E+03  0.00000000000E+00 0.  1.
         11    1    1    2    0    0  0.20442975101E+02 -0.27742572098E+02 -0.82975494446E+02  0.89847082402E+02  0.00000000000E+00 0. -1.
</event>
<event>
 7    1  0.2844572E-009  0.1487573E+03  0.7561462E-02  0.1202008E+00
         -2   -1    0    0    0  501 -0.00000000000E+00  0.00000000000E+00  0.24998934281E+02  0.24998934281E+02  0.00000000000E+00 0.  1.
          2   -1    0    0  501    0  0.00000000000E+00 -0.00000000000E+00 -0.12119756066E+04  0.12119756066E+04  0.00000000000E+00 0. -1.
         25    2    1    2    0    0  0.12533076545E+03  0.53512248438E+02 -0.62770776452E+03  0.65439693645E+03  0.12508777433E+03 0.  0.
          5    1    3    3  502    0  0.66792664059E+02  0.23574723352E+02 -0.10012866526E+03  0.12272020844E+03  0.41800000000E+01 0.  1.
         -5    1    3    3    0  502  0.58538101393E+02  0.29937525086E+02 -0.52757909927E+03  0.53167672801E+03  0.41800000000E+01 0.  1.
        -11    1    1    2    0    0 -0.72440687411E+02  0.15149370498E+02 -0.30852570185E+03  0.31727789920E+03  0.00000000000E+00 0. -1.
         11    1    1    2    0    0 -0.52890078041E+02 -0.68661618936E+02 -0.25074320599E+03  0.26529970527E+03  0.00000000000E+00 0.  1.
</event>
<event>
 7    1  0.2844572E-009  0.1042901E+03  0.7561462E-02  0.1271525E+00
         -2   -1    0    0    0  501 -0.00000000000E+00  0.00000000000E+00  0.65758034659E+02  0.65758034659E+02  0.00000000000E+00 0.  1.
          2   -1    0    0  501    0  0.00000000000E+00 -0.00000000000E+00 -0.21306392478E+03  0.21306392478E+03  0.00000000000E+00 0. -1.
         25    2    1    2    0    0 -0.65672050877E+01 -0.44150152080E+02 -0.79814862755E+02  0.15495401031E+03  0.12509184180E+03 0.  0.
          5    1    3    3  502    0 -0.34444570079E+01  0.30232104709E+02 -0.74049572161E+02  0.80166426741E+02  0.41800000000E+01 0.  1.
         -5    1    3    3    0  502 -0.31227480798E+01 -0.74382256790E+02 -0.57652905938E+01  0.74787583571E+02  0.41800000000E+01 0.  1.
        -11    1    1    2    0    0  0.49318957633E+00  0.73413280180E+02 -0.53665957925E+02  0.90938374643E+02  0.00000000000E+00 0. -1.
         11    1    1    2    0    0  0.60740155114E+01 -0.29263128099E+02 -0.13825069439E+02  0.32929574483E+02  0.00000000000E+00 0.  1.
</event>
<event>
 6    1  0.2844572E-009  0.1392903E+03  0.7561462E-02  0.1214287E+00
         -2   -1    0    0    0  501 -0.00000000000E+00  0.00000000000E+00  0.11400415313E+03  0.11400415313E+03  0.00000000000E+00 0.  1.
          2   -1    0    0  501    0  0.00000000000E+00 -0.00000000000E+00 -0.54639338807E+03  0.54639338807E+03  0.00000000000E+00 0. -1.
          5    1    1    2  502    0  0.30964907203E+01 -0.16255828548E+02 -0.17121292189E+03  0.17206155073E+03  0.41800000000E+01 0. -1.
         -5    1    1    2    0  502 -0.29850161340E+02  0.13570790141E+03 -0.30058732128E+03  0.33117650392E+03  0.41800000000E+01 0. -1.
        -11    1    1    2    0    0  0.13944130750E+02 -0.51813442613E+02  0.64489735063E+02  0.83892774101E+02  0.00000000000E+00 0. -1.
         11    1    1    2    0    0  0.12809539869E+02 -0.67638630248E+02 -0.25078726823E+02  0.73266712446E+02  0.00000000000E+00 0.  1.
</event>
<event>
 7    1  0.2844572E-009  0.1041855E+03  0.7561462E-02  0.1271733E+00
          4   -1    0    0  501    0  0.00000000000E+00  0.00000000000E+00  0.17932541235E+02  0.17932541235E+02  0.00000000000E+00 0.  1.
         -4   -1    0    0    0  501 -0.00000000000E+00 -0.00000000000E+00 -0.72616392037E+03  0.72616392037E+03  0.00000000000E+00 0. -1.
         25    2    1    2    0    0 -0.31711199218E+02  0.33322799956E+01 -0.54047754772E+03  0.55567960869E+03  0.12508854337E+03 0.  0.
          5    1    3    3  502    0  0.21951508260E+02 -0.45002731527E+02 -0.31208277658E+03  0.31610163934E+03  0.41800000000E+01 0.  1.
         -5    1    3    3    0  502 -0.53662707478E+02  0.48335011522E+02 -0.22839477114E+03  0.23957796935E+03  0.41800000000E+01 0.  1.
        -11    1    1    2    0    0 -0.35997289869E+01  0.34120120192E+02 -0.68060934797E+02  0.76219626712E+02  0.00000000000E+00 0.  1.
         11    1    1    2    0    0  0.35310928205E+02 -0.37452400187E+02 -0.99692896622E+02  0.11219722620E+03  0.00000000000E+00 0. -1.
</event>
<event>
 7    1  0.2844572E-009  0.4314093E+03  0.7561462E-02  0.1033416E+00
         -1   -1    0    0    0  501 -0.00000000000E+00  0.00000000000E+00  0.15400193535E+03  0.15400193535E+03  0.00000000000E+00 0.  1.
          1   -1    0    0  501    0  0.00000000000E+00 -0.00000000000E+00 -0.13819584818E+04  0.13819584818E+04  0.00000000000E+00 0. -1.
         25    2    1    2    0    0 -0.16248319161E+02  0.42108741392E+03 -0.87286216591E+03  0.97730042873E+03  0.12509655983E+03 0.  0.
          5    1    3    3  502    0  0.36956504285E+02  0.40188540592E+02 -0.11881719310E+03  0.13082774851E+03  0.41800000000E+01 0. -1.
         -5    1    3    3    0  502 -0.53204823447E+02  0.38089887333E+03 -0.75404497281E+03  0.84647268022E+03  0.41800000000E+01 0. -1.
        -11    1    1    2    0    0  0.28204615859E+02 -0.19396975392E+03 -0.11195023668E+03  0.22572687320E+03  0.00000000000E+00 0.  1.
         11    1    1    2    0    0 -0.11956296698E+02 -0.22711766000E+03 -0.24314414388E+03  0.33293311523E+03  0.00000000000E+00 0. -1.
</event>
<event>
 7    1  0.2844572E-009  0.1342612E+03  0.7561462E-02  0.1221266E+00
         -2   -1    0    0    0  501 -0.00000000000E+00  0.00000000000E+00  0.10204025446E+03  0.10204025446E+03  0.00000000000E+00 0.  1.
          2   -1    0    0  501    0  0.00000000000E+00 -0.00000000000E+00 -0.23215856017E+03  0.23215856017E+03  0.00000000000E+00 0. -1.
         25    2    1    2    0    0 -0.61595838100E+02  0.67787656567E+02 -0.78865253042E+01  0.15523738782E+03  0.12508891095E+03 0.  0.
          5    1    3    3  502    0 -0.60792907588E+02  0.94482376566E+02 -0.34197900513E+02  0.11751453482E+03  0.41800000000E+01 0. -1.
         -5    1    3    3    0  502 -0.80293051168E+00 -0.26694719999E+02  0.26311375208E+02  0.37722853001E+02  0.41800000000E+01 0. -1.
        -11    1    1    2    0    0 -0.70603230847E+01 -0.59488435548E+02 -0.42692744793E+02  0.73562168157E+02  0.00000000000E+00 0. -1.
         11    1    1    2    0    0  0.68656161184E+02 -0.82992210191E+01 -0.79539035615E+02  0.10539925865E+03  0.00000000000E+00 0.  1.
</event>
<event>
 7    1  0.2844572E-009  0.1170458E+03  0.7561462E-02  0.1248052E+00
         -2   -1    0    0    0  501 -0.00000000000E+00  0.00000000000E+00  0.12072955815E+04  0.12072955815E+04  0.00000000000E+00 0.  1.
          2   -1    0    0  501    0  0.00000000000E+00 -0.00000000000E+00 -0.33272744760E+02  0.33272744760E+02  0.00000000000E+00 0. -1.
         25    2    1    2    0    0  0.45599431208E+02  0.65392038652E+02  0.10733547495E+04  0.10835553251E+04  0.12508516107E+03 0.  0.
          5    1    3    3  502    0  0.80000898908E+02  0.75757632333E+02  0.72641048516E+03  0.73473058194E+03  0.41800000000E+01 0.  1.
         -5    1    3    3    0  502 -0.34401467700E+02 -0.10365593681E+02  0.34694426430E+03  0.34882474316E+03  0.41800000000E+01 0.  1.
        -11    1    1    2    0    0 -0.13040450354E+02  0.16378334999E+01 -0.14669787440E+02  0.19696154638E+02  0.00000000000E+00 0. -1.
         11    1    1    2    0    0 -0.32558980854E+02 -0.67029872152E+02  0.11533787474E+03  0.13731684654E+03  0.00000000000E+00 0.  1.
</event>
<event>
 7    1  0.2844572E-009  0.1243210E+03  0.7561462E-02  0.1236134E+00
         -1   -1    0    0    0  501 -0.00000000000E+00  0.00000000000E+00  0.68397053752E+02  0.68397053752E+02  0.00000000000E+00 0.  1.
          1   -1    0    0  501    0  0.00000000000E+00 -0.00000000000E+00 -0.29084008365E+03  0.29084008365E+03  0.00000000000E+00 0. -1.
         25    2    1    2    0    0 -0.59833486159E+02 -0.20218981003E+02 -0.18238905431E+03  0.23000568606E+03  0.12509194711E+03 0.  0.
          5    1    3    3  502    0 -0.11083580048E+02 -0.63451198759E+02 -0.47486581478E+02  0.80133315113E+02  0.41800000000E+01 0.  1.
         -5    1    3    3    0  502 -0.48749906112E+02  0.43232217756E+02 -0.13490247283E+03  0.14987237095E+03  0.41800000000E+01 0.  1.
        -11    1    1    2    0    0  0.86030625964E+02  0.29593862517E+02 -0.15840933558E+02  0.92347173636E+02  0.00000000000E+00 0.  1.
         11    1    1    2    0    0 -0.26197139805E+02 -0.93748815137E+01 -0.24213042033E+02  0.36884277705E+02  0.00000000000E+00 0. -1.
</event>
<event>
 7    1  0.2844572E-009  0.2119396E+03  0.7561462E-02  0.1140039E+00
          3   -1    0    0  501    0  0.00000000000E+00  0.00000000000E+00  0.46169451495E+03  0.46169451495E+03  0.00000000000E+00 0. -1.
         -3   -1    0    0    0  501 -0.00000000000E+00 -0.00000000000E+00 -0.12323925339E+03  0.12323925339E+03  0.00000000000E+00 0.  1.
         25    2    1    2    0    0 -0.16302256384E+03  0.12101803683E+03  0.10108520811E+03  0.25901032192E+03  0.12508559470E+03 0.  0.
          5    1    3    3  502    0 -0.10230572091E+02  0.46986983224E+02 -0.18075834943E+02  0.51542694989E+02  0.41800000000E+01 0. -1.
         -5    1    3    3    0  502 -0.15279199175E+03  0.74031053608E+02  0.11916104305E+03  0.20746762693E+03  0.41800000000E+01 0. -1.
        -11    1    1    2    0    0  0.52646607329E+02 -0.20526251428E+02  0.15641497428E+02  0.58631465125E+02  0.00000000000E+00 0.  1.
         11    1    1    2    0    0  0.11037595651E+03 -0.10049178540E+03  0.22172855602E+03  0.26729198130E+03  0.00000000000E+00 0. -1.
</event>
<event>
 7    1  0.2844572E-009  0.3690119E+03  0.7561462E-02  0.1055071E+00
         -2   -1    0    0    0  501 -0.00000000000E+00  0.00000000000E+00  0.22449958033E+03  0.22449958033E+03  0.00000000000E+00 0.  1.
          2   -1    0    0  501    0  0.00000000000E+00 -0.00000000000E+00 -0.70011692347E+03  0.70011692347E+03  0.00000000000E+00 0. -1.
         25    2    1    2    0    0  0.26377524019E+03  0.25016194425E+03 -0.37411748564E+03  0.53644166333E+03  0.12508952557E+03 0.  0.
          5    1    3    3  502    0  0.17433799637E+03  0.21779246419E+03 -0.22009037348E+03  0.35536536035E+03  0.41800000000E+01 0.  1.
         -5    1    3    3    0  502  0.89437243821E+02  0.32369480054E+02 -0.15402711216E+03  0.18107630298E+03  0.41800000000E+01 0.  1.
        -11    1    1    2    0    0 -0.17772270333E+03 -0.17755494994E+03 -0.25886103669E+02  0.25254942069E+03  0.00000000000E+00 0.  1.
         11    1    1    2    0    0 -0.86052536860E+02 -0.72606994301E+02 -0.75613753831E+02  0.13562541978E+03  0.00000000000E+00 0. -1.
</event>
<event>
 7    1  0.2844572E-009  0.1257644E+03  0.7561462E-02  0.1233880E+00
          2   -1    0    0  501    0  0.00000000000E+00  0.00000000000E+00  0.81654554760E+02  0.81654554760E+02  0.00000000000E+00 0. -1.
         -2   -1    0    0    0  501 -0.00000000000E+00 -0.00000000000E+00 -0.21036177601E+03  0.21036177601E+03  0.00000000000E+00 0.  1.
         25    2    1    2    0    0  0.46140774872E+02  0.52776784276E+02 -0.45582068152E+02  0.15046492392E+03  0.12509040063E+03 0.  0.
          5    1    3    3  502    0  0.35886001949E+02  0.93174530451E+02 -0.21755449445E+02  0.10227448480E+03  0.41800000000E+01 0. -1.
         -5    1    3    3    0  502  0.10254772923E+02 -0.40397746175E+02 -0.23826618707E+02  0.48190439122E+02  0.41800000000E+01 0. -1.
        -11    1    1    2    0    0 -0.69995470647E+02 -0.49266344911E+02 -0.80139570391E+02  0.11725565826E+03  0.00000000000E+00 0.  1.
         11    1    1    2    0    0  0.23854695775E+02 -0.35104393650E+01 -0.29855827036E+01  0.24295748582E+02  0.00000000000E+00 0. -1.
</event>
<event>
 7    1  0.2844572E-009  0.3016824E+03  0.7561462E-02  0.1084403E+00
         -4   -1    0    0    0  501 -0.00000000000E+00  0.00000000000E+00  0.13737164049E+03  0.13737164049E+03  0.00000000000E+00 0.  1.
          4   -1    0    0  501    0  0.00000000000E+00 -0.00000000000E+00 -0.75020453376E+03  0.75020453376E+03  0.00000000000E+00 0. -1.
         25    2    1    2    0    0 -0.10344394915E+03  0.27936026700E+03 -0.24699653358E+03  0.40669397376E+03  0.12509952554E+03 0.  0.
          5    1    3    3  502    0 -0.63325963925E+02  0.21189857069E+03 -0.10603595030E+03  0.24530038142E+03  0.41800000000E+01 0.  1.
         -5    1    3    3    0  502 -0.40117985226E+02  0.67461696311E+02 -0.14096058328E+03  0.16139359234E+03  0.41800000000E+01 0.  1.
        -11    1    1    2    0    0  0.63370638158E+02 -0.90373531354E+02 -0.81848579182E+02  0.13741325578E+03  0.00000000000E+00 0.  1.
         11    1    1    2    0    0  0.40073310992E+02 -0.18898673565E+03 -0.28398778051E+03  0.34346894472E+03  0.00000000000E+00 0. -1.
</event>
<event>
 7    1  0.2844572E-009  0.3208033E+03  0.7561462E-02  0.1075280E+00
          2   -1    0    0  501    0  0.00000000000E+00  0.00000000000E+00  0.72227083381E+03  0.72227083381E+03  0.00000000000E+00 0. -1.
         -2   -1    0    0    0  501 -0.00000000000E+00 -0.00000000000E+00 -0.16046714901E+03  0.16046714901E+03  0.00000000000E+00 0.  1.
         25    2    1    2    0    0 -0.60183450105E+02  0.29672208043E+03  0.42862472363E+03  0.53947420371E+03  0.12508885676E+03 0.  0.
          5    1    3    3  502    0  0.82825381331E+01  0.23431083033E+03  0.31827223036E+03  0.39532878805E+03  0.41800000000E+01 0.  1.
         -5    1    3    3    0  502 -0.68465988238E+02  0.62411250094E+02  0.11035249327E+03  0.14414541566E+03  0.41800000000E+01 0.  1.
        -11    1    1    2    0    0 -0.55501421225E+01 -0.18253248352E+03  0.58206242778E+02  0.19166866806E+03  0.00000000000E+00 0.  1.
         11    1    1    2    0    0  0.65733592227E+02 -0.11418959691E+03  0.74972718393E+02  0.15159511104E+03  0.00000000000E+00 0. -1.
</event>
<event>
 7    1  0.2844572E-009  0.9825871E+02  0.7561462E-02  0.1284001E+00
         -1   -1    0    0    0  501 -0.00000000000E+00  0.00000000000E+00  0.39307147640E+02  0.39307147640E+02  0.00000000000E+00 0.  1.
          1   -1    0    0  501    0  0.00000000000E+00 -0.00000000000E+00 -0.45075506603E+03  0.45075506603E+03  0.00000000000E+00 0. -1.
         25    2    1    2    0    0 -0.35578243128E+02  0.45839228462E+02 -0.31016221889E+03  0.33943238613E+03  0.12508675580E+03 0.  0.
          5    1    3    3  502    0  0.20650039445E+02 -0.23967225590E+02 -0.17026714714E+03  0.17323171138E+03  0.41800000000E+01 0. -1.
         -5    1    3    3    0  502 -0.56228282574E+02  0.69806454051E+02 -0.13989507174E+03  0.16620067475E+03  0.41800000000E+01 0. -1.
        -11    1    1    2    0    0 -0.10318280112E+02 -0.19223333674E+02  0.12455833681E+02  0.25122723871E+02  0.00000000000E+00 0.  1.
         11    1    1    2    0    0  0.45896523240E+02 -0.26615894787E+02 -0.11374153318E+03  0.12550710367E+03  0.00000000000E+00 0. -1.
</event>
<event>
 7    1  0.2844572E-009  0.1317131E+03  0.7561462E-02  0.1224936E+00
         -1   -1    0    0    0  501 -0.00000000000E+00  0.00000000000E+00  0.75692106311E+02  0.75692106311E+02  0.00000000000E+00 0.  1.
          1   -1    0    0  501    0  0.00000000000E+00 -0.00000000000E+00 -0.28847635991E+03  0.28847635991E+03  0.00000000000E+00 0. -1.
         25    2    1    2    0    0  0.40126170076E+02  0.88579294962E+02 -0.14628039617E+03  0.21564060622E+03  0.12508603330E+03 0.  0.
          5    1    3    3  502    0 -0.14049629308E+02  0.72704175669E+02 -0.14032546192E+03  0.15871986928E+03  0.41800000000E+01 0.  1.
         -5    1    3    3    0  502  0.54175799384E+02  0.15875119293E+02 -0.59549342553E+01  0.56920736937E+02  0.41800000000E+01 0.  1.
        -11    1    1    2    0    0  0.24876944729E+02 -0.52998687004E+02 -0.25780835705E+02  0.63971671018E+02  0.00000000000E+00 0.  1.
         11    1    1    2    0    0 -0.65003114805E+02 -0.35580607957E+02 -0.40723021723E+02  0.84556188982E+02  0.00000000000E+00 0. -1.
</event>
<event>
 7    1  0.2844572E-009  0.9344576E+02  0.7561462E-02  0.1294715E+00
         -4   -1    0    0    0  501 -0.00000000000E+00  0.00000000000E+00  0.65080122725E+02  0.65080122725E+02  0.00000000000E+00 0.  1.
          4   -1    0    0  501    0  0.00000000000E+00 -0.00000000000E+00 -0.27903020283E+03  0.27903020283E+03  0.00000000000E+00 0. -1.
         25    2    1    2    0    0 -0.55292218224E+02 -0.56389007418E+00 -0.19232752543E+03  0.23600216738E+03  0.12509835571E+03 0.  0.
          5    1    3    3  502    0 -0.37483305702E+02 -0.29699486779E+02 -0.82152883636E+01  0.48703399103E+02  0.41800000000E+01 0.  1.
         -5    1    3    3    0  502 -0.17808912522E+02  0.29135596705E+02 -0.18411223707E+03  0.18729876828E+03  0.41800000000E+01 0.  1.
        -11    1    1    2    0    0  0.26255171901E+02  0.44589285185E+02 -0.19593448955E+02  0.55330295922E+02  0.00000000000E+00 0. -1.
         11    1    1    2    0    0  0.29037046323E+02 -0.44025395110E+02 -0.20291057182E+01  0.52777862251E+02  0.00000000000E+00 0.  1.
</event>
<event>
 7    1  0.2844572E-009  0.1091119E+03  0.7561462E-02  0.1262223E+00
          3   -1    0    0  501    0  0.00000000000E+00  0.00000000000E+00  0.40782834735E+03  0.40782834735E+03  0.00000000000E+00 0. -1.
         -3   -1    0    0    0  501 -0.00000000000E+00 -0.00000000000E+00 -0.77510293396E+02  0.77510293396E+02  0.00000000000E+00 0.  1.
         25    2    1    2    0    0  0.16003581441E+02 -0.22323273940E+02  0.36128131864E+03  0.38331160965E+03  0.12509658556E+03 0.  0.
          5    1    3    3  502    0  0.69167820822E+02  0.17429195168E+01  0.18384753342E+03  0.19648056686E+03  0.41800000000E+01 0.  1.
         -5    1    3    3    0  502 -0.53164239381E+02 -0.24066193457E+02  0.17743378521E+03  0.18683104279E+03  0.41800000000E+01 0.  1.
        -11    1    1    2    0    0 -0.30056346207E+02  0.50583451446E+02 -0.37530426117E+02  0.69789701189E+02  0.00000000000E+00 0.  1.
         11    1    1    2    0    0  0.14052764766E+02 -0.28260177506E+02  0.65671614345E+01  0.32237329907E+02  0.00000000000E+00 0. -1.
</event>
<event>
 7    1  0.2844572E-009  0.9153945E+02  0.7561462E-02  0.1299166E+00
          2   -1    0    0  501    0  0.00000000000E+00  0.00000000000E+00  0.14570556163E+04  0.14570556163E+04  0.00000000000E+00 0. -1.
         -2   -1    0    0    0  501 -0.00000000000E+00 -0.00000000000E+00 -0.28214711992E+02  0.28214711992E+02  0.00000000000E+00 0.  1.
         25    2    1    2    0    0 -0.52424996458E+01  0.26992197384E+02  0.13616163827E+04  0.13676263896E+04  0.12508679134E+03 0.  0.
          5    1    3    3  502    0 -0.74589280079E+01  0.76703876870E+02  0.74296894046E+03  0.74696682605E+03  0.41800000000E+01 0. -1.
         -5    1    3    3    0  502  0.22164283621E+01 -0.49711679486E+02  0.61864744221E+03  0.62065956352E+03  0.41800000000E+01 0. -1.
        -11    1    1    2    0    0  0.16691735467E+02 -0.37105734367E+02 -0.75010190188E+01  0.41372875681E+02  0.00000000000E+00 0.  1.
         11    1    1    2    0    0 -0.11449235822E+02  0.10113536982E+02  0.74725540694E+02  0.76271063079E+02  0.00000000000E+00 0. -1.
</event>
<event>
 7    1  0.2844572E-009  0.1218258E+03  0.7561462E-02  0.1240115E+00
         -3   -1    0    0    0  501 -0.00000000000E+00  0.00000000000E+00  0.56153733973E+02  0.56153733973E+02  0.00000000000E+00 0.  1.
          3   -1    0    0  501    0  0.00000000000E+00 -0.00000000000E+00 -0.40304335233E+03  0.40304335233E+03  0.00000000000E+00 0. -1.
         25    2    1    2    0    0 -0.78034529300E+02 -0.41775642352E+01 -0.84326484376E+02  0.16989865859E+03  0.12509100054E+03 0.  0.
          5    1    3    3  502    0 -0.54422483582E+01  0.48716703695E+02 -0.40545407241E+01  0.49364430379E+02  0.41800000000E+01 0.  1.
         -5    1    3    3    0  502 -0.72592280942E+02 -0.52894267931E+02 -0.80271943652E+02  0.12053422821E+03  0.41800000000E+01 0.  1.
        -11    1    1    2    0    0  0.29816497991E+02 -0.32388320328E+02 -0.42963407266E+02  0.61513260440E+02  0.00000000000E+00 0.  1.
         11    1    1    2    0    0  0.48218031309E+02  0.36565884563E+02 -0.21959972671E+03  0.22778516727E+03  0.00000000000E+00 0. -1.
</event>
<event>
 7    1  0.2844572E-009  0.7187126E+02  0.7561462E-02  0.1353843E+00
         -2   -1    0    0    0  501 -0.00000000000E+00  0.00000000000E+00  0.23198137165E+02  0.23198137165E+02  0.00000000000E+00 0.  1.
          2   -1    0    0  501    0  0.00000000000E+00 -0.00000000000E+00 -0.55901114926E+03  0.55901114926E+03  0.00000000000E+00 0. -1.
         25    2    1    2    0    0 -0.12148193555E+02  0.15029484463E+01 -0.38034137934E+03  0.40057111425E+03  0.12509122779E+03 0.  0.
          5    1    3    3  502    0 -0.36419581847E+02 -0.22770222234E+02 -0.41175467599E+02  0.59646965509E+02  0.41800000000E+01 0.  1.
         -5    1    3    3    0  502  0.24271388291E+02  0.24273170680E+02 -0.33916591174E+03  0.34092414874E+03  0.41800000000E+01 0.  1.
        -11    1    1    2    0    0  0.39028084127E+02 -0.25144695609E+01 -0.20779952416E+02  0.44286796342E+02  0.00000000000E+00 0.  1.
         11    1    1    2    0    0 -0.26879890571E+02  0.10115211146E+01 -0.13469168034E+03  0.13735137584E+03  0.00000000000E+00 0. -1.
</event>
<event>
 7    1  0.2844572E-009  0.1364162E+03  0.7561462E-02  0.1218234E+00
         -1   -1    0    0    0  501 -0.00000000000E+00  0.00000000000E+00  0.36909203503E+02  0.36909203503E+02  0.00000000000E+00 0.  1.
          1   -1    0    0  501    0  0.00000000000E+00 -0.00000000000E+00 -0.53899474023E+03  0.53899474023E+03  0.00000000000E+00 0. -1.
         25    2    1    2    0    0 -0.91854391641E+01 -0.90664587363E+02 -0.26356945088E+03  0.30564697506E+03  0.12508708260E+03 0.  0.
          5    1    3    3  502    0  0.33310948566E+02 -0.10173156489E+03 -0.21383047988E+03  0.23916495796E+03  0.41800000000E+01 0.  1.
         -5    1    3    3    0  502 -0.42496387731E+02  0.11066977530E+02 -0.49738971001E+02  0.66482017103E+02  0.41800000000E+01 0.  1.
        -11    1    1    2    0    0 -0.30614061895E+02  0.10984210945E+02 -0.10365990098E+03  0.10864275746E+03  0.00000000000E+00 0. -1.
         11    1    1    2    0    0  0.39799501059E+02  0.79680376418E+02 -0.13485618486E+03  0.16161421121E+03  0.00000000000E+00 0.  1.
</event>
<event>
 7    1  0.2844572E-009  0.1046045E+03  0.7561462E-02  0.1270901E+00
         -2   -1    0    0    0  501 -0.00000000000E+00  0.00000000000E+00  0.50495502742E+02  0.50495502742E+02  0.00000000000E+00 0.  1.
          2   -1    0    0  501    0  0.00000000000E+00 -0.00000000000E+00 -0.27682389986E+03  0.27682389986E+03  0.00000000000E+00 0. -1.
         25    2    1    2    0    0 -0.36030918533E+02  0.23000125529E+02 -0.10554344440E+03  0.16915592726E+03  0.12508827366E+03 0.  0.
          5    1    3    3  502    0  0.31839687640E+02 -0.25610719351E+02 -0.63406194426E+02  0.75547948657E+02  0.41800000000E+01 0. -1.
         -5    1    3    3    0  502 -0.67870606173E+02  0.48610844880E+02 -0.42137249973E+02  0.93607978600E+02  0.41800000000E+01 0. -1.
        -11    1    1    2    0    0  0.35490078364E+02  0.20538324745E+02 -0.10348155513E+03  0.11130948162E+03  0.00000000000E+00 0. -1.
         11    1    1    2    0    0  0.54084016931E+00 -0.43538450274E+02 -0.17303397592E+02  0.46853993732E+02  0.00000000000E+00 0.  1.
</event>
<event>
 7    1  0.2844572E-009  0.1172861E+03  0.7561462E-02  0.1247643E+00
          2   -1    0    0  501    0  0.00000000000E+00  0.00000000000E+00  0.76125699418E+03  0.76125699418E+03  0.00000000000E+00 0. -1.
         -2   -1    0    0    0  501 -0.00000000000E+00 -0.00000000000E+00 -0.21260834864E+02  0.21260834864E+02  0.00000000000E+00 0.  1.
         25    2    1    2    0    0  0.46123956252E+02 -0.46881036278E+02  0.40194879988E+03  0.42606922299E+03  0.12508754593E+03 0.  0.
          5    1    3    3  502    0  0.80383847622E+02  0.48623475983E+00  0.19444195066E+03  0.21044463395E+03  0.41800000000E+01 0.  1.
         -5    1    3    3    0  502 -0.34259891370E+02 -0.47367271038E+02  0.20750684923E+03  0.21562458904E+03  0.41800000000E+01 0.  1.
        -11    1    1    2    0    0 -0.52213218927E+01  0.53743133962E+02  0.89979250546E+02  0.10493737265E+03  0.00000000000E+00 0.  1.
         11    1    1    2    0    0 -0.40902634359E+02 -0.68620976833E+01  0.24806810888E+03  0.25151123340E+03  0.00000000000E+00 0. -1.
</event>
<event>
 7    1  0.2844572E-009  0.1103997E+03  0.7561462E-02  0.1259832E+00
          2   -1    0    0  501    0  0.00000000000E+00  0.00000000000E+00  0.96187162587E+03  0.96187162587E+03  0.00000000000E+00 0. -1.
         -2   -1    0    0    0  501 -0.00000000000E+00 -0.00000000000E+00 -0.22775255171E+02  0.22775255171E+02  0.00000000000E+00 0.  1.
         25    2    1    2    0    0  0.51964632883E+02 -0.67089439803E+01  0.79233562475E+03  0.80385904612E+03  0.12509312839E+03 0.  0.
          5    1    3    3  502    0  0.85177925435E+02 -0.81844315028E+01  0.70714083246E+03  0.71231165456E+03  0.41800000000E+01 0.  1.
         -5    1    3    3    0  502 -0.33213292552E+02  0.14754875225E+01  0.85194792299E+02  0.91547391555E+02  0.41800000000E+01 0.  1.
        -11    1    1    2    0    0  0.78673231882E+01 -0.30274392341E+02  0.70013245781E+02  0.76683037176E+02  0.00000000000E+00 0. -1.
         11    1    1    2    0    0 -0.59831956071E+02  0.36983336321E+02  0.76747500163E+02  0.10410479775E+03  0.00000000000E+00 0.  1.
</event>
<event>
 7    1  0.3282840E-009  0.1438124E+03  0.7561462E-02  0.1208289E+00
          2   -1    0    0  501    0  0.00000000000E+00  0.00000000000E+00  0.53294254932E+03  0.53294254932E+03  0.00000000000E+00 0. -1.
         -2   -1    0    0    0  501 -0.00000000000E+00 -0.00000000000E+00 -0.47955447834E+02  0.47955447834E+02  0.00000000000E+00 0.  1.
         25    2    1    2    0    0 -0.90420703083E+02 -0.73859549422E+02  0.28057429760E+03  0.32863343893E+03  0.12508742592E+03 0.  0.
          5    1    3    3  502    0 -0.11148811565E+03 -0.88330828930E+02  0.25621412238E+03  0.29307863139E+03  0.41800000000E+01 0. -1.
         -5    1    3    3    0  502  0.21067412563E+02  0.14471279508E+02  0.24360175216E+02  0.35554807541E+02  0.41800000000E+01 0. -1.
        -11    1    1    2    0    0  0.26940339304E+02  0.37802831823E+02  0.16048098121E+03  0.16705981356E+03  0.00000000000E+00 0. -1.
         11    1    1    2    0    0  0.63480363779E+02  0.36056717599E+02  0.43931822677E+02  0.85204744664E+02  0.00000000000E+00 0.  1.
</event>
<event>
 7    1  0.2844572E-009  0.1104185E+03  0.7561462E-02  0.1259797E+00
          2   -1    0    0  501    0  0.00000000000E+00  0.00000000000E+00  0.57333067990E+03  0.57333067990E+03  0.00000000000E+00 0. -1.
         -2   -1    0    0    0  501 -0.00000000000E+00 -0.00000000000E+00 -0.39135141613E+02  0.39135141613E+02  0.00000000000E+00 0.  1.
         25    2    1    2    0    0  0.35140609472E+02  0.97649836994E+02  0.28084890917E+03  0.32449128636E+03  0.12509249394E+03 0.  0.
          5    1    3    3  502    0  0.44656460989E+02  0.77367838713E+02  0.73120593775E+02  0.11551655989E+03  0.41800000000E+01 0.  1.
         -5    1    3    3    0  502 -0.95158515162E+01  0.20281998281E+02  0.20772831540E+03  0.20897472647E+03  0.41800000000E+01 0.  1.
        -11    1    1    2    0    0 -0.26136911371E+02 -0.27673021205E+02  0.17674546010E+02  0.41968128566E+02  0.00000000000E+00 0.  1.
         11    1    1    2    0    0 -0.90036981011E+01 -0.69976815789E+02  0.23567208310E+03  0.24600640659E+03  0.00000000000E+00 0. -1.
</event>
<event>
 7    1  0.2844572E-009  0.8328309E+02  0.7561462E-02  0.1319984E+00
          2   -1    0    0  501    0  0.00000000000E+00  0.00000000000E+00  0.67256269103E+02  0.67256269103E+02  0.00000000000E+00 0. -1.
         -2   -1    0    0    0  501 -0.00000000000E+00 -0.00000000000E+00 -0.25577990738E+03  0.25577990738E+03  0.00000000000E+00 0.  1.
         25    2    1    2    0    0  0.17983613311E+02  0.55059567455E+02 -0.15888221342E+03  0.21034217007E+03  0.12508119145E+03 0.  0.
          5    1    3    3  502    0 -0.25201325384E+01  0.59056319113E+01 -0.15668718596E+03  0.15687438988E+03  0.41800000000E+01 0.  1.
         -5    1    3    3    0  502  0.20503745850E+02  0.49153935543E+02 -0.21950274618E+01  0.53467780194E+02  0.41800000000E+01 0.  1.
        -11    1    1    2    0    0 -0.53944615648E+02 -0.35005810212E+02 -0.31228600570E+02  0.71488836888E+02  0.00000000000E+00 0.  1.
         11    1    1    2    0    0  0.35961002337E+02 -0.20053757243E+02  0.15871757136E+01  0.41205169522E+02  0.00000000000E+00 0. -1.
</event>
<event>
 7    1  0.2844572E-009  0.1124590E+03  0.7561462E-02  0.1256083E+00
         -2   -1    0    0    0  501 -0.00000000000E+00  0.00000000000E+00  0.46989088251E+02  0.46989088251E+02  0.00000000000E+00 0.  1.
          2   -1    0    0  501    0  0.00000000000E+00 -0.00000000000E+00 -0.44038928096E+03  0.44038928096E+03  0.00000000000E+00 0. -1.
         25    2    1    2    0    0  0.75799781053E+02 -0.51860808076E+02 -0.18782392472E+03  0.24363992981E+03  0.12508972171E+03 0.  0.
          5    1    3    3  502    0  0.38242254019E+01 -0.10011736191E+02 -0.15277774485E+03  0.15321021925E+03  0.41800000000E+01 0. -1.
         -5    1    3    3    0  502  0.71975555651E+02 -0.41849071885E+02 -0.35046179877E+02  0.90429710565E+02  0.41800000000E+01 0. -1.
        -11    1    1    2    0    0 -0.61318714291E+02 -0.13767270845E+02 -0.11359571563E+03  0.12982106562E+03  0.00000000000E+00 0. -1.
         11    1    1    2    0    0 -0.14481066762E+02  0.65628078921E+02 -0.91980552347E+02  0.11391737377E+03  0.00000000000E+00 0.  1.
</event>
<event>
 7    1  0.2844572E-009  0.1021793E+03  0.7561462E-02  0.1275779E+00
          1   -1    0    0  501    0  0.00000000000E+00  0.00000000000E+00  0.16542741321E+03  0.16542741321E+03  0.00000000000E+00 0. -1.
         -1   -1    0    0    0  501 -0.00000000000E+00 -0.00000000000E+00 -0.97675418995E+02  0.97675418995E+02  0.00000000000E+00 0.  1.
         25    2    1    2    0    0  0.47243653963E+02  0.12733040828E+02 -0.66649881451E+01  0.13452857885E+03  0.12513761742E+03 0.  0.
          5    1    3    3  502    0  0.59674664530E+02  0.38130527256E+02  0.38775410236E+02  0.80845578324E+02  0.41800000000E+01 0.  1.
         -5    1    3    3    0  502 -0.12431010566E+02 -0.25397486429E+02 -0.45440398381E+02  0.53683000528E+02  0.41800000000E+01 0.  1.
        -11    1    1    2    0    0  0.27744756593E+02  0.39178877213E+01  0.20851990384E+02  0.34927451461E+02  0.00000000000E+00 0.  1.
         11    1    1    2    0    0 -0.74988410556E+02 -0.16650928549E+02  0.53564991976E+02  0.93646801892E+02  0.00000000000E+00 0. -1.
</event>
<event>
 7    1  0.2844572E-009  0.1559518E+03  0.7561462E-02  0.1193344E+00
         -1   -1    0    0    0  501 -0.00000000000E+00  0.00000000000E+00  0.89838278444E+02  0.89838278444E+02  0.00000000000E+00 0.  1.
          1   -1    0    0  501    0  0.00000000000E+00 -0.00000000000E+00 -0.32440794893E+03  0.32440794893E+03  0.00000000000E+00 0. -1.
         25    2    1    2    0    0 -0.20472003008E+02  0.12986704803E+03 -0.13355235215E+03  0.22531873620E+03  0.12509096309E+03 0.  0.
          5    1    3    3  502    0 -0.68667570190E+02  0.10499107754E+03 -0.79194367055E+02  0.14841691862E+03  0.41800000000E+01 0. -1.
         -5    1    3    3    0  502  0.48195567182E+02  0.24875970494E+02 -0.54357985095E+02  0.76901817583E+02  0.41800000000E+01 0. -1.
        -11    1    1    2    0    0  0.10442161260E+00 -0.32921985909E+02  0.15164490964E+02  0.36246790841E+02  0.00000000000E+00 0.  1.
         11    1    1    2    0    0  0.20367581395E+02 -0.96945062122E+02 -0.11618180930E+03  0.15268070033E+03  0.00000000000E+00 0. -1.
</event>
<event>
 7    1  0.3153526E-009  0.1025886E+03  0.7561462E-02  0.1274945E+00
          3   -1    0    0  501    0  0.00000000000E+00  0.00000000000E+00  0.17901751329E+03  0.17901751329E+03  0.00000000000E+00 0. -1.
         -3   -1    0    0    0  501 -0.00000000000E+00 -0.00000000000E+00 -0.11163092100E+03  0.11163092100E+03  0.00000000000E+00 0.  1.
         25    2    1    2    0    0  0.33181875011E+01  0.63248388298E+02 -0.29651489656E+02  0.14331407687E+03  0.12509334434E+03 0.  0.
          5    1    3    3  502    0 -0.48747427326E+02  0.29871050171E+02  0.23213438143E+02  0.61845997604E+02  0.41800000000E+01 0. -1.
         -5    1    3    3    0  502  0.52065614827E+02  0.33377338127E+02 -0.52864927799E+02  0.81468079264E+02  0.41800000000E+01 0. -1.
        -11    1    1    2    0    0 -0.26573125821E+02 -0.11157813870E+02  0.84015079383E+02  0.88820951301E+02  0.00000000000E+00 0. -1.
         11    1    1    2    0    0  0.23254938320E+02 -0.52090574428E+02  0.13023002561E+02  0.58513406123E+02  0.00000000000E+00 0.  1.
</event>
<event>
 7    1  0.2844572E-009  0.1846479E+03  0.7561462E-02  0.1163379E+00
          2   -1    0    0  501    0  0.00000000000E+00  0.00000000000E+00  0.31305934425E+04  0.31305934425E+04  0.00000000000E+00 0. -1.
         -2   -1    0    0    0  501 -0.00000000000E+00 -0.00000000000E+00 -0.23737212967E+02  0.23737212967E+02  0.00000000000E+00 0.  1.
         25    2    1    2    0    0  0.17738641445E+03 -0.12472648009E+01  0.26070281408E+04  0.26160485606E+04  0.12508736623E+03 0.  0.
          5    1    3    3  502    0  0.13911664627E+03  0.26034710464E+02  0.12152779378E+04  0.12234987478E+04  0.41800000000E+01 0.  1.
         -5    1    3    3    0  502  0.38269768188E+02 -0.27281975265E+02  0.13917502030E+04  0.13925498128E+04  0.41800000000E+01 0.  1.
        -11    1    1    2    0    0 -0.97130465516E+01 -0.80094203968E+01  0.18163579836E+01  0.12719797354E+02  0.00000000000E+00 0.  1.
         11    1    1    2    0    0 -0.16767336790E+03  0.92566851976E+01  0.49801173076E+03  0.52556229745E+03  0.00000000000E+00 0. -1.
</event>
<event>
 7    1  0.2844572E-009  0.1959857E+03  0.7561462E-02  0.1153171E+00
         -2   -1    0    0    0  501 -0.00000000000E+00  0.00000000000E+00  0.10370333925E+03  0.10370333925E+03  0.00000000000E+00 0.  1.
          2   -1    0    0  501    0  0.00000000000E+00 -0.00000000000E+00 -0.40633557190E+03  0.40633557190E+03  0.00000000000E+00 0. -1.
         25    2    1    2    0    0  0.17280642131E+03 -0.11783741168E+02 -0.13828030241E+03  0.25450003531E+03  0.12509160697E+03 0.  0.
          5    1    3    3  502    0  0.45019558973E+02 -0.56756462799E+02 -0.76847112736E+02  0.10569298887E+03  0.41800000000E+01 0.  1.
         -5    1    3    3    0  502  0.12778686234E+03  0.44972721630E+02 -0.61433189677E+02  0.14880704644E+03  0.41800000000E+01 0.  1.
        -11    1    1    2    0    0 -0.14799038142E+03 -0.13301871869E+02 -0.16251807245E+03  0.22020494241E+03  0.00000000000E+00 0. -1.
         11    1    1    2    0    0 -0.24816039896E+02  0.25085613037E+02 -0.18338577925E+01  0.35333933435E+02  0.00000000000E+00 0.  1.
</event>
<event>
 7    1  0.2844572E-009  0.2156875E+03  0.7561462E-02  0.1137140E+00
          1   -1    0    0  501    0  0.00000000000E+00  0.00000000000E+00  0.92683220284E+02  0.92683220284E+02  0.00000000000E+00 0. -1.
         -1   -1    0    0    0  501 -0.00000000000E+00 -0.00000000000E+00 -0.75509791152E+03  0.75509791152E+03  0.00000000000E+00 0.  1.
         25    2    1    2    0    0  0.11371552944E+02 -0.20644436672E+03 -0.14275486137E+03  0.28066946664E+03  0.12509120790E+03 0.  0.
          5    1    3    3  502    0 -0.11805821131E+02 -0.89783186450E+02  0.51833564622E+01  0.90800537255E+02  0.41800000000E+01 0.  1.
         -5    1    3    3    0  502  0.23177374075E+02 -0.11666118027E+03 -0.14793821783E+03  0.18986892939E+03  0.41800000000E+01 0.  1.
        -11    1    1    2    0    0  0.33705352388E+02  0.11367735811E+03 -0.33828556295E+03  0.35846298920E+03  0.00000000000E+00 0.  1.
         11    1    1    2    0    0 -0.45076905331E+02  0.92767008612E+02 -0.18137426692E+03  0.20864867596E+03  0.00000000000E+00 0. -1.
</event>
<event>
 7    1  0.2844572E-009  0.1843971E+03  0.7561462E-02  0.1163614E+00
         -1   -1    0    0    0  501 -0.00000000000E+00  0.00000000000E+00  0.47669898338E+03  0.47669898338E+03  0.00000000000E+00 0.  1.
          1   -1    0    0  501    0  0.00000000000E+00 -0.00000000000E+00 -0.91821080802E+02  0.91821080802E+02  0.00000000000E+00 0. -1.
         25    2    1    2    0    0 -0.52151062701E+02  0.15203285147E+03  0.98473257561E+02  0.22621372133E+03  0.12506775762E+03 0.  0.
          5    1    3    3  502    0 -0.78601154288E+02  0.10695724948E+03  0.23709848303E+02  0.13489856923E+03  0.41800000000E+01 0.  1.
         -5    1    3    3    0  502  0.26450091587E+02  0.45075601984E+02  0.74763409258E+02  0.91315152100E+02  0.41800000000E+01 0.  1.
        -11    1    1    2    0    0 -0.17865560240E+02 -0.84216601743E+02  0.16938326655E+03  0.19000606632E+03  0.00000000000E+00 0. -1.
         11    1    1    2    0    0  0.70016622941E+02 -0.67816249724E+02  0.11702137847E+03  0.15230027654E+03  0.00000000000E+00 0.  1.
</event>
<event>
 7    1  0.2844572E-009  0.1282607E+03  0.7561462E-02  0.1230060E+00
         -2   -1    0    0    0  501 -0.00000000000E+00  0.00000000000E+00  0.36042000160E+02  0.36042000160E+02  0.00000000000E+00 0.  1.
          2   -1    0    0  501    0  0.00000000000E+00 -0.00000000000E+00 -0.69908440586E+03  0.69908440586E+03  0.00000000000E+00 0. -1.
         25    2    1    2    0    0  0.38624944027E+02 -0.10476685318E+03 -0.28578838306E+03  0.33132828837E+03  0.12504181283E+03 0.  0.
          5    1    3    3  502    0 -0.14383289962E+02 -0.60365522543E+02 -0.35465894811E+02  0.71597328420E+02  0.41800000000E+01 0. -1.
         -5    1    3    3    0  502  0.53008233989E+02 -0.44401330634E+02 -0.25032248825E+03  0.25973095995E+03  0.41800000000E+01 0. -1.
        -11    1    1    2    0    0  0.11172644502E+02  0.27140885546E+01 -0.19125551061E+01  0.11655562143E+02  0.00000000000E+00 0.  1.
         11    1    1    2    0    0 -0.49797588529E+02  0.10205276462E+03 -0.37534146754E+03  0.39214255551E+03  0.00000000000E+00 0. -1.
</event>
<event>
 7    1  0.2844572E-009  0.1082676E+03  0.7561462E-02  0.1263812E+00
          2   -1    0    0  501    0  0.00000000000E+00  0.00000000000E+00  0.43507703191E+03  0.43507703191E+03  0.00000000000E+00 0. -1.
         -2   -1    0    0    0  501 -0.00000000000E+00 -0.00000000000E+00 -0.10496014696E+03  0.10496014696E+03  0.00000000000E+00 0.  1.
         25    2    1    2    0    0 -0.87115785746E+02  0.22553430984E+02 -0.30002289173E+02  0.15698952817E+03  0.12509099577E+03 0.  0.
          5    1    3    3  502    0 -0.45468745293E+02 -0.15682094395E+01 -0.77036472411E+02  0.89565375905E+02  0.41800000000E+01 0. -1.
         -5    1    3    3    0  502 -0.41647040454E+02  0.24121640423E+02  0.47034183238E+02  0.67424152261E+02  0.41800000000E+01 0. -1.
        -11    1    1    2    0    0  0.53174974999E+02  0.29187310060E+02  0.24448479185E+03  0.25189738086E+03  0.00000000000E+00 0. -1.
         11    1    1    2    0    0  0.33940810747E+02 -0.51740741043E+02  0.11563438227E+03  0.13115026985E+03  0.00000000000E+00 0.  1.
</event>
<event>
 7    1  0.2844572E-009  0.2040900E+03  0.7561462E-02  0.1146333E+00
         -1   -1    0    0    0  501 -0.00000000000E+00  0.00000000000E+00  0.71577873810E+02  0.71577873810E+02  0.00000000000E+00 0.  1.
          1   -1    0    0  501    0  0.00000000000E+00 -0.00000000000E+00 -0.66790415299E+03  0.66790415299E+03  0.00000000000E+00 0. -1.
         25    2    1    2    0    0 -0.12201669796E+03 -0.13603002509E+03 -0.22778085360E+03  0.31768668384E+03  0.12509384284E+03 0.  0.
          5    1    3    3  502    0 -0.13896290044E+03 -0.12916911696E+03 -0.16273442739E+03  0.24999062930E+03  0.41800000000E+01 0. -1.
         -5    1    3    3    0  502  0.16946202487E+02 -0.68609081310E+01 -0.65046426207E+02  0.67696054549E+02  0.41800000000E+01 0. -1.
        -11    1    1    2    0    0  0.13241725132E+03  0.11185312920E+03 -0.27898670690E+03  0.32844943840E+03  0.00000000000E+00 0.  1.
         11    1    1    2    0    0 -0.10400553364E+02  0.24176895893E+02 -0.89558718681E+02  0.93345904554E+02  0.00000000000E+00 0. -1.
</event>
<event>
 7    1  0.2844572E-009  0.1084251E+03  0.7561462E-02  0.1263515E+00
          1   -1    0    0  501    0  0.00000000000E+00  0.00000000000E+00  0.58195345995E+03  0.58195345995E+03  0.00000000000E+00 0. -1.
         -1   -1    0    0    0  501 -0.00000000000E+00 -0.00000000000E+00 -0.29411120927E+02  0.29411120927E+02  0.00000000000E+00 0.  1.
         25    2    1    2    0    0  0.84039577028E+01 -0.49251041555E+02  0.18112890474E+03  0.22572255725E+03  0.12508677435E+03 0.  0.
          5    1    3    3  502    0  0.42507721187E+02 -0.69194643451E+02  0.16278368425E+03  0.18196374722E+03  0.41800000000E+01 0.  1.
         -5    1    3    3    0  502 -0.34103763484E+02  0.19943601895E+02  0.18345220489E+02  0.43758810029E+02  0.41800000000E+01 0.  1.
        -11    1    1    2    0    0 -0.34469285706E+02  0.58707681832E+02  0.32067087301E+03  0.32781783411E+03  0.00000000000E+00 0. -1.
         11    1    1    2    0    0  0.26065328003E+02 -0.94566402771E+01  0.50742561266E+02  0.57824189515E+02  0.00000000000E+00 0.  1.
</event>
<event>
 7    1  0.2844572E-009  0.9809916E+02  0.7561462E-02  0.1284345E+00
         -2   -1    0    0    0  501 -0.00000000000E+00  0.00000000000E+00  0.11283561166E+03  0.11283561166E+03  0.00000000000E+00 0.  1.
          2   -1    0    0  501    0  0.00000000000E+00 -0.00000000000E+00 -0.20679086061E+03  0.20679086061E+03  0.00000000000E+00 0. -1.
         25    2    1    2    0    0  0.66125025331E+02 -0.20961743597E+01 -0.13343882936E+03  0.19451155439E+03  0.12510759645E+03 0.  0.
          5    1    3    3  502    0 -0.26241385554E+02  0.41446155855E+01  0.55508212180E+01  0.27460374548E+02  0.41800000000E+01 0. -1.
         -5    1    3    3    0  502  0.92366410885E+02 -0.62407899452E+01 -0.13898965057E+03  0.16705117984E+03  0.41800000000E+01 0. -1.
        -11    1    1    2    0    0 -0.48715346343E+02  0.19073591582E+02  0.69178804623E+02  0.86733464557E+02  0.00000000000E+00 0.  1.
         11    1    1    2    0    0 -0.17409678988E+02 -0.16977417222E+02 -0.29695224223E+02  0.38381453329E+02  0.00000000000E+00 0. -1.
</event>
<event>
 7    1  0.2844572E-009  0.2411990E+03  0.7561462E-02  0.1118997E+00
         -2   -1    0    0    0  501 -0.00000000000E+00  0.00000000000E+00  0.75141904027E+03  0.75141904027E+03  0.00000000000E+00 0.  1.
          2   -1    0    0  501    0  0.00000000000E+00 -0.00000000000E+00 -0.91862808026E+02  0.91862808026E+02  0.00000000000E+00 0. -1.
         25    2    1    2    0    0 -0.87286124823E+02 -0.20558514725E+03  0.47005143974E+03  0.53523810001E+03  0.12508935742E+03 0.  0.
          5    1    3    3  502    0  0.10054464711E+02 -0.13200411251E+03  0.27285578560E+03  0.30330501169E+03  0.41800000000E+01 0. -1.
         -5    1    3    3    0  502 -0.97340589534E+02 -0.73581034745E+02  0.19719565414E+03  0.23193308831E+03  0.41800000000E+01 0. -1.
        -11    1    1    2    0    0  0.89436333391E+02  0.16902297480E+03  0.19244803748E+03  0.27130033334E+03  0.00000000000E+00 0.  1.
         11    1    1    2    0    0 -0.21502085679E+01  0.36562172453E+02 -0.29432449730E+01  0.36743414952E+02  0.00000000000E+00 0. -1.
</event>
<event>
 7    1  0.2844572E-009  0.1392275E+03  0.7561462E-02  0.1214372E+00
          1   -1    0    0  501    0  0.00000000000E+00  0.00000000000E+00  0.61539058122E+03  0.61539058122E+03  0.00000000000E+00 0. -1.
         -1   -1    0    0    0  501 -0.00000000000E+00 -0.00000000000E+00 -0.40676498512E+02  0.40676498512E+02  0.00000000000E+00 0.  1.
         25    2    1    2    0    0 -0.10946634726E+03  0.29661994072E+02  0.35072062507E+03  0.38924942917E+03  0.12508975252E+03 0.  0.
          5    1    3    3  502    0 -0.14584311716E+02  0.52091666719E+02  0.21716509542E+03  0.22384011026E+03  0.41800000000E+01 0.  1.
         -5    1    3    3    0  502 -0.94882035547E+02 -0.22429672648E+02  0.13355552965E+03  0.16540931892E+03  0.41800000000E+01 0.  1.
        -11    1    1    2    0    0  0.15106067969E+02 -0.28487193853E+02  0.12880635675E+03  0.13278098901E+03  0.00000000000E+00 0. -1.
         11    1    1    2    0    0  0.94360279294E+02 -0.11748002191E+01  0.95187100885E+02  0.13403666155E+03  0.00000000000E+00 0.  1.
</event>
<event>
 7    1  0.2844572E-009  0.7600770E+02  0.7561462E-02  0.1340779E+00
          1   -1    0    0  501    0  0.00000000000E+00  0.00000000000E+00  0.32467861374E+03  0.32467861374E+03  0.00000000000E+00 0. -1.
         -1   -1    0    0    0  501 -0.00000000000E+00 -0.00000000000E+00 -0.43359473529E+02  0.43359473529E+02  0.00000000000E+00 0.  1.
         25    2    1    2    0    0 -0.99681248777E+01 -0.11150735423E+02  0.92760232155E+02  0.15644667316E+03  0.12508956175E+03 0.  0.
          5    1    3    3  502    0 -0.28350905143E+02  0.11764655883E+02  0.11516894163E+03  0.11926247719E+03  0.41800000000E+01 0. -1.
         -5    1    3    3    0  502  0.18382780265E+02 -0.22915391306E+02 -0.22408709475E+02  0.37184195962E+02  0.41800000000E+01 0. -1.
        -11    1    1    2    0    0  0.37797810118E+02 -0.25314738439E+02  0.61435973652E+02  0.76445335309E+02  0.00000000000E+00 0.  1.
         11    1    1    2    0    0 -0.27829685240E+02  0.36465473862E+02  0.12712293441E+03  0.13514607881E+03  0.00000000000E+00 0. -1.
</event>
<event>
 7    1  0.2844572E-009  0.1190723E+03  0.7561462E-02  0.1244635E+00
         -1   -1    0    0    0  501 -0.00000000000E+00  0.00000000000E+00  0.37676012458E+02  0.37676012458E+02  0.00000000000E+00 0.  1.
          1   -1    0    0  501    0  0.00000000000E+00 -0.00000000000E+00 -0.68603461175E+03  0.68603461175E+03  0.00000000000E+00 0. -1.
         25    2    1    2    0    0 -0.45760138856E+02 -0.89903992831E+02 -0.20753540820E+03  0.26247931276E+03  0.12509086991E+03 0.  0.
          5    1    3    3  502    0 -0.19419586089E+01 -0.39381785104E+02  0.46898169530E+01  0.39926970638E+02  0.41800000000E+01 0. -1.
         -5    1    3    3    0  502 -0.43818180247E+02 -0.50522207727E+02 -0.21222522515E+03  0.22255234212E+03  0.41800000000E+01 0. -1.
        -11    1    1    2    0    0  0.66644047157E+02  0.88180478512E+02 -0.31869530289E+03  0.33731872449E+03  0.00000000000E+00 0.  1.
         11    1    1    2    0    0 -0.20883908301E+02  0.17235143193E+01 -0.12212788821E+03  0.12391258696E+03  0.00000000000E+00 0. -1.
</event>
<event>
 7    1  0.3190258E-009  0.6613272E+02  0.7561462E-02  0.1373761E+00
          1   -1    0    0  501    0  0.00000000000E+00  0.00000000000E+00  0.46820278800E+03  0.46820278800E+03  0.00000000000E+00 0. -1.
         -1   -1    0    0    0  501 -0.00000000000E+00 -0.00000000000E+00 -0.26997134743E+02  0.26997134743E+02  0.00000000000E+00 0.  1.
         25    2    1    2    0    0  0.70600300196E+00 -0.13884373950E+02  0.31095128843E+03  0.33545668339E+03  0.12508880195E+03 0.  0.
          5    1    3    3  502    0 -0.45426969856E+01  0.29820128010E+02  0.27959958818E+03  0.28125305019E+03  0.41800000000E+01 0.  1.
         -5    1    3    3    0  502  0.52486999875E+01 -0.43704501960E+02  0.31351700249E+02  0.54203633196E+02  0.41800000000E+01 0.  1.
        -11    1    1    2    0    0 -0.42204133921E+01 -0.21564607568E+02 -0.26635351084E+01  0.22134556874E+02  0.00000000000E+00 0.  1.
         11    1    1    2    0    0  0.35144103901E+01  0.35448981518E+02  0.13291789994E+03  0.13760868248E+03  0.00000000000E+00 0. -1.
</event>
<event>
 7    1  0.2844572E-009  0.8141053E+02  0.7561462E-02  0.1325096E+00
         -1   -1    0    0    0  501 -0.00000000000E+00  0.00000000000E+00  0.18979310632E+03  0.18979310632E+03  0.00000000000E+00 0.  1.
          1   -1    0    0  501    0  0.00000000000E+00 -0.00000000000E+00 -0.71698475776E+02  0.71698475776E+02  0.00000000000E+00 0. -1.
         25    2    1    2    0    0 -0.15128823449E+01 -0.46762018181E+02  0.58349677918E+02  0.14574646666E+03  0.12509345496E+03 0.  0.
          5    1    3    3  502    0 -0.26156829054E+02 -0.38420094856E+02  0.91909056635E+02  0.10307778852E+03  0.41800000000E+01 0. -1.
         -5    1    3    3    0  502  0.24643946709E+02 -0.83419233248E+01 -0.33559378717E+02  0.42668678138E+02  0.41800000000E+01 0. -1.
        -11    1    1    2    0    0 -0.29983155262E+02 -0.38113029582E+01 -0.15520164032E+01  0.30264242673E+02  0.00000000000E+00 0. -1.
         11    1    1    2    0    0  0.31496037607E+02  0.50573321139E+02  0.61296969026E+02  0.85480872759E+02  0.00000000000E+00 0.  1.
</event>
<event>
 7    1  0.2844572E-009  0.1146991E+03  0.7561462E-02  0.1252107E+00
          2   -1    0    0  501    0  0.00000000000E+00  0.00000000000E+00  0.89883458724E+03  0.89883458724E+03  0.00000000000E+00 0. -1.
         -2   -1    0    0    0  501 -0.00000000000E+00 -0.00000000000E+00 -0.33017620460E+02  0.33017620460E+02  0.00000000000E+00 0.  1.
         25    2    1    2    0    0  0.84848713079E+02  0.50034702120E+02  0.70419598989E+03  0.72197087509E+03  0.12508867566E+03 0.  0.
          5    1    3    3  502    0  0.36871160215E+02  0.45858866996E+02  0.63401074988E+03  0.63674926109E+03  0.41800000000E+01 0.  1.
         -5    1    3    3    0  502  0.47977552864E+02  0.41758351238E+01  0.70185240011E+02  0.85221614002E+02  0.41800000000E+01 0.  1.
        -11    1    1    2    0    0 -0.52693950496E+02  0.10306859225E+02  0.11560328414E+03  0.12746373237E+03  0.00000000000E+00 0. -1.
         11    1    1    2    0    0 -0.32154762583E+02 -0.60341561345E+02  0.46017692744E+02  0.82417600231E+02  0.00000000000E+00 0.  1.
</event>
<event>
 7    1  0.2844572E-009  0.1156252E+03  0.7561462E-02  0.1250494E+00
          2   -1    0    0  501    0  0.00000000000E+00  0.00000000000E+00  0.87705653103E+03  0.87705653103E+03  0.00000000000E+00 0. -1.
         -2   -1    0    0    0  501 -0.00000000000E+00 -0.00000000000E+00 -0.23984496313E+02  0.23984496313E+02  0.00000000000E+00 0.  1.
         25    2    1    2    0    0  0.67723932100E+02  0.44151884741E+02  0.63186516877E+03  0.64918221653E+03  0.12509212145E+03 0.  0.
          5    1    3    3  502    0  0.13488713041E+02 -0.43111289730E+02  0.22464250305E+03  0.22917734455E+03  0.41800000000E+01 0.  1.
         -5    1    3    3    0  502  0.54235219059E+02  0.87263174471E+02  0.40722266572E+03  0.42000487198E+03  0.41800000000E+01 0.  1.
        -11    1    1    2    0    0 -0.26969026520E+02 -0.28931462946E+02  0.19923103548E+03  0.20311908683E+03  0.00000000000E+00 0. -1.
         11    1    1    2    0    0 -0.40754905580E+02 -0.15220421794E+02  0.21975830470E+02  0.48739723976E+02  0.00000000000E+00 0.  1.
</event>
<event>
 7    1  0.2844572E-009  0.3190132E+03  0.7561462E-02  0.1076104E+00
          1   -1    0    0  501    0  0.00000000000E+00  0.00000000000E+00  0.66682898855E+03  0.66682898855E+03  0.00000000000E+00 0. -1.
         -1   -1    0    0    0  501 -0.00000000000E+00 -0.00000000000E+00 -0.16177718196E+03  0.16177718196E+03  0.00000000000E+00 0.  1.
         25    2    1    2    0    0  0.19027739054E+03 -0.23899400343E+03  0.31807881423E+03  0.45841599935E+03  0.12508987715E+03 0.  0.
          5    1    3    3  502    0  0.11189600160E+03 -0.53177068191E+02  0.15846435440E+03  0.20118881621E+03  0.41800000000E+01 0. -1.
         -5    1    3    3    0  502  0.78381388947E+02 -0.18581693524E+03  0.15961445984E+03  0.25722718313E+03  0.41800000000E+01 0. -1.
        -11    1    1    2    0    0 -0.11706830267E+03  0.94805693304E+02  0.12923917059E+03  0.19848392929E+03  0.00000000000E+00 0.  1.
         11    1    1    2    0    0 -0.73209087879E+02  0.14418831012E+03  0.57733821763E+02  0.17170624188E+03  0.00000000000E+00 0. -1.
</event>
<event>
 7    1  0.2844572E-009  0.9542206E+02  0.7561462E-02  0.1290228E+00
          1   -1    0    0  501    0  0.00000000000E+00  0.00000000000E+00  0.30108468027E+03  0.30108468027E+03  0.00000000000E+00 0. -1.
         -1   -1    0    0    0  501 -0.00000000000E+00 -0.00000000000E+00 -0.45912037459E+02  0.45912037459E+02  0.00000000000E+00 0.  1.
         25    2    1    2    0    0 -0.92984648591E+01  0.44554889913E+02  0.13852703003E+03  0.19211915433E+03  0.12509369188E+03 0.  0.
          5    1    3    3  502    0 -0.27461216915E+02  0.60215196986E+02  0.17383518726E+02  0.68553975128E+02  0.41800000000E+01 0.  1.
         -5    1    3    3    0  502  0.18162752056E+02 -0.15660307073E+02  0.12114351131E+03  0.12356517920E+03  0.41800000000E+01 0.  1.
        -11    1    1    2    0    0  0.53116429046E+00 -0.71679264036E+02  0.69868652072E+02  0.10009908876E+03  0.00000000000E+00 0.  1.
         11    1    1    2    0    0  0.87673005686E+01  0.27124374122E+02  0.46776960709E+02  0.54778474640E+02  0.00000000000E+00 0. -1.
</event>
<event>
 7    1  0.2844572E-009  0.1537392E+03  0.7561462E-02  0.1195952E+00
         -3   -1    0    0    0  501 -0.00000000000E+00  0.00000000000E+00  0.14061374060E+04  0.14061374060E+04  0.00000000000E+00 0.  1.
          3   -1    0    0  501    0  0.00000000000E+00 -0.00000000000E+00 -0.23990047448E+02  0.23990047448E+02  0.00000000000E+00 0. -1.
         25    2    1    2    0    0  0.12941313009E+03 -0.55140376093E+02  0.90340457860E+03  0.92280774540E+03  0.12508430365E+03 0.  0.
          5    1    3    3  502    0  0.57458380524E+02 -0.30372535240E+02  0.73594522932E+03  0.73882122962E+03  0.41800000000E+01 0.  1.
         -5    1    3    3    0  502  0.71954749562E+02 -0.24767840853E+02  0.16745934929E+03  0.18398651578E+03  0.41800000000E+01 0.  1.
        -11    1    1    2    0    0  0.57455576631E+01 -0.13411100612E+02  0.25102228449E+02  0.29034306012E+02  0.00000000000E+00 0. -1.
         11    1    1    2    0    0 -0.13515868775E+03  0.68551476705E+02  0.45364055150E+03  0.47828540204E+03  0.00000000000E+00 0.  1.
</event>
<event>
 7    1  0.2844572E-009  0.1558407E+03  0.7561462E-02  0.1193474E+00
         -1   -1    0    0    0  501 -0.00000000000E+00  0.00000000000E+00  0.10020487418E+03  0.10020487418E+03  0.00000000000E+00 0.  1.
          1   -1    0    0  501    0  0.00000000000E+00 -0.00000000000E+00 -0.40776590106E+03  0.40776590106E+03  0.00000000000E+00 0. -1.
         25    2    1    2    0    0  0.10640394012E+03 -0.95996728346E+02 -0.44912349687E+02  0.19545235444E+03  0.12508930161E+03 0.  0.
          5    1    3    3  502    0  0.10839716537E+03 -0.59345744178E+02  0.15522734562E+02  0.12462058618E+03  0.41800000000E+01 0.  1.
         -5    1    3    3    0  502 -0.19932252476E+01 -0.36650984168E+02 -0.60435084249E+02  0.70831768265E+02  0.41800000000E+01 0.  1.
        -11    1    1    2    0    0 -0.91325596966E+02  0.53148494065E+02 -0.23898027548E+03  0.26129810399E+03  0.00000000000E+00 0.  1.
         11    1    1    2    0    0 -0.15078343152E+02  0.42848234281E+02 -0.23668401720E+02  0.51220316801E+02  0.00000000000E+00 0. -1.
</event>
<event>
 7    1  0.2844572E-009  0.1182345E+03  0.7561462E-02  0.1246038E+00
         -1   -1    0    0    0  501 -0.00000000000E+00  0.00000000000E+00  0.15428644333E+02  0.15428644333E+02  0.00000000000E+00 0.  1.
          1   -1    0    0  501    0  0.00000000000E+00 -0.00000000000E+00 -0.10158583854E+04  0.10158583854E+04  0.00000000000E+00 0. -1.
         25    2    1    2    0    0 -0.16200156186E+02  0.53751014850E+02 -0.46759831639E+03  0.48728574074E+03  0.12509033129E+03 0.  0.
          5    1    3    3  502    0  0.49172115215E+02  0.33224719495E+02 -0.13271550249E+03  0.14543952661E+03  0.41800000000E+01 0. -1.
         -5    1    3    3    0  502 -0.65372271401E+02  0.20526295355E+02 -0.33488281390E+03  0.34184621413E+03  0.41800000000E+01 0. -1.
        -11    1    1    2    0    0 -0.38926595061E+02 -0.21893824501E+02 -0.17903157034E+03  0.18451808186E+03  0.00000000000E+00 0. -1.
         11    1    1    2    0    0  0.55126751247E+02 -0.31857190349E+02 -0.35379985429E+03  0.35948320709E+03  0.00000000000E+00 0.  1.
</event>
<event>
 7    1  0.2844572E-009  0.2108204E+03  0.7561462E-02  0.1140918E+00
         -1   -1    0    0    0  501 -0.00000000000E+00  0.00000000000E+00  0.32511564123E+03  0.32511564123E+03  0.00000000000E+00 0.  1.
          1   -1    0    0  501    0  0.00000000000E+00 -0.00000000000E+00 -0.13807336066E+03  0.13807336066E+03  0.00000000000E+00 0. -1.
         25    2    1    2    0    0 -0.35754051959E+01  0.18243908793E+03  0.10390183205E+03  0.24441776607E+03  0.12509056457E+03 0.  0.
          5    1    3    3  502    0  0.57317911088E+02  0.62436909508E+02  0.55265791791E+02  0.10126939687E+03  0.41800000000E+01 0. -1.
         -5    1    3    3    0  502 -0.60893316284E+02  0.12000217842E+03  0.48636040261E+02  0.14314836920E+03  0.41800000000E+01 0. -1.
        -11    1    1    2    0    0 -0.40326715791E+02 -0.11315115934E+03  0.54271596406E+02  0.13181363754E+03  0.00000000000E+00 0.  1.
         11    1    1    2    0    0  0.43902120987E+02 -0.69287928588E+02  0.28868852108E+02  0.86957598272E+02  0.00000000000E+00 0. -1.
</event>
<event>
 7    1  0.2844572E-009  0.1126629E+03  0.7561462E-02  0.1255717E+00
         -1   -1    0    0    0  501 -0.00000000000E+00  0.00000000000E+00  0.48881311846E+02  0.48881311846E+02  0.00000000000E+00 0.  1.
          1   -1    0    0  501    0  0.00000000000E+00 -0.00000000000E+00 -0.51154809677E+03  0.51154809677E+03  0.00000000000E+00 0. -1.
         25    2    1    2    0    0  0.31037018953E+02 -0.23778805062E+02 -0.57317087927E+02  0.14304419127E+03  0.12509062304E+03 0.  0.
          5    1    3    3  502    0  0.79487404800E+02 -0.83599889259E+01 -0.34258092552E+02  0.87058751668E+02  0.41800000000E+01 0.  1.
         -5    1    3    3    0  502 -0.48450385847E+02 -0.15418816136E+02 -0.23058995376E+02  0.55985439603E+02  0.41800000000E+01 0.  1.
        -11    1    1    2    0    0  0.12905073292E+02  0.44035971432E+02 -0.26462667085E+03  0.26857584148E+03  0.00000000000E+00 0. -1.
         11    1    1    2    0    0 -0.43942092245E+02 -0.20257166370E+02 -0.14072302614E+03  0.14880937587E+03  0.00000000000E+00 0.  1.
</event>
<event>
 7    1  0.2844572E-009  0.7700944E+02  0.7561462E-02  0.1337759E+00
          1   -1    0    0  501    0  0.00000000000E+00  0.00000000000E+00  0.19694933413E+03  0.19694933413E+03  0.00000000000E+00 0.  1.
         -1   -1    0    0    0  501 -0.00000000000E+00 -0.00000000000E+00 -0.83099043656E+02  0.83099043656E+02  0.00000000000E+00 0. -1.
         25    2    1    2    0    0  0.13173271510E+02  0.17705068061E+02 -0.66351515912E+01  0.12719867057E+03  0.12509385293E+03 0.  0.
          5    1    3    3  502    0 -0.55856490177E+01 -0.25847397238E+02 -0.53857930070E+02  0.60145128234E+02  0.41800000000E+01 0. -1.
         -5    1    3    3    0  502  0.18758920528E+02  0.43552465300E+02  0.47222778478E+02  0.67053542339E+02  0.41800000000E+01 0. -1.
        -11    1    1    2    0    0 -0.15155036691E+02 -0.47460114438E+02  0.11081591812E+03  0.12150022760E+03  0.00000000000E+00 0.  1.
         11    1    1    2    0    0  0.19817651807E+01  0.29755046377E+02  0.96695239446E+01  0.31349479604E+02  0.00000000000E+00 0. -1.
</event>
<event>
 7    1  0.2844572E-009  0.8505807E+02  0.7561462E-02  0.1315281E+00
         -1   -1    0    0    0  501 -0.00000000000E+00  0.00000000000E+00  0.32743929126E+03  0.32743929126E+03  0.00000000000E+00 0.  1.
          1   -1    0    0  501    0  0.00000000000E+00 -0.00000000000E+00 -0.61475051451E+02  0.61475051451E+02  0.00000000000E+00 0. -1.
         25    2    1    2    0    0  0.24124996206E+02 -0.57494124552E+01  0.24204002624E+03  0.27358054589E+03  0.12509144497E+03 0.  0.
          5    1    3    3  502    0  0.30066155963E+01 -0.55680421059E+02  0.53621391322E+02  0.77473060053E+02  0.41800000000E+01 0. -1.
         -5    1    3    3    0  502  0.21118380609E+02  0.49931008604E+02  0.18841863491E+03  0.19610748584E+03  0.41800000000E+01 0. -1.
        -11    1    1    2    0    0  0.16013226767E+02  0.10879074999E+02 -0.37254237620E+02  0.41983996057E+02  0.00000000000E+00 0. -1.
         11    1    1    2    0    0 -0.40138222973E+02 -0.51296625434E+01  0.61178451192E+02  0.73349800760E+02  0.00000000000E+00 0.  1.
</event>
<event>
 7    1  0.2844572E-009  0.1291768E+03  0.7561462E-02  0.1228682E+00
          2   -1    0    0  501    0  0.00000000000E+00  0.00000000000E+00  0.89686625248E+03  0.89686625248E+03  0.00000000000E+00 0. -1.
         -2   -1    0    0    0  501 -0.00000000000E+00 -0.00000000000E+00 -0.21453077129E+02  0.21453077129E+02  0.00000000000E+00 0.  1.
         25    2    1    2    0    0 -0.81189189212E+02 -0.25283804457E+02  0.53535542053E+03  0.55631497114E+03  0.12509982256E+03 0.  0.
          5    1    3    3  502    0 -0.16235558782E+02  0.42576895548E+02  0.28945958400E+03  0.29305410520E+03  0.41800000000E+01 0.  1.
         -5    1    3    3    0  502 -0.64953630430E+02 -0.67860700005E+02  0.24589583653E+03  0.26326086594E+03  0.41800000000E+01 0.  1.
        -11    1    1    2    0    0  0.75378529227E+02  0.51773409722E+02  0.20837103053E+03  0.22755415836E+03  0.00000000000E+00 0.  1.
         11    1    1    2    0    0  0.58106599847E+01 -0.26489605264E+02  0.13168672429E+03  0.13445020011E+03  0.00000000000E+00 0. -1.
</event>
<event>
 7    1  0.2844572E-009  0.8763673E+02  0.7561462E-02  0.1308678E+00
         -2   -1    0    0    0  501 -0.00000000000E+00  0.00000000000E+00  0.54225417190E+02  0.54225417190E+02  0.00000000000E+00 0.  1.
          2   -1    0    0  501    0  0.00000000000E+00 -0.00000000000E+00 -0.40501103884E+03  0.40501103884E+03  0.00000000000E+00 0. -1.
         25    2    1    2    0    0  0.70846132328E+02 -0.21448750137E+02 -0.30282160006E+03  0.33589834589E+03  0.12509018330E+03 0.  0.
          5    1    3    3  502    0  0.12703121504E+02 -0.30310375462E+02 -0.64919686681E+01  0.33759535154E+02  0.41800000000E+01 0.  1.
         -5    1    3    3    0  502  0.58143010824E+02  0.88616253251E+01 -0.29632963139E+03  0.30213881074E+03  0.41800000000E+01 0.  1.
        -11    1    1    2    0    0 -0.23256090034E+02 -0.10853282852E+02 -0.59389186794E+02  0.64697101793E+02  0.00000000000E+00 0. -1.
         11    1    1    2    0    0 -0.47590042294E+02  0.32302032989E+02  0.11425165200E+02  0.58641008352E+02  0.00000000000E+00 0.  1.
</event>
<event>
 7    1  0.2844572E-009  0.1119567E+03  0.7561462E-02  0.1256989E+00
         -1   -1    0    0    0  501 -0.00000000000E+00  0.00000000000E+00  0.96128551457E+02  0.96128551457E+02  0.00000000000E+00 0.  1.
          1   -1    0    0  501    0  0.00000000000E+00 -0.00000000000E+00 -0.17333552638E+03  0.17333552638E+03  0.00000000000E+00 0. -1.
         25    2    1    2    0    0  0.56446988179E+02  0.34948179314E+02 -0.60051569393E+02  0.15383596920E+03  0.12510666138E+03 0.  0.
          5    1    3    3  502    0  0.94388187408E+01  0.75584365785E+02 -0.17088905858E+02  0.78176663741E+02  0.41800000000E+01 0.  1.
         -5    1    3    3    0  502  0.47008169438E+02 -0.40636186470E+02 -0.42962663536E+02  0.75659305461E+02  0.41800000000E+01 0.  1.
        -11    1    1    2    0    0 -0.55673157960E+02 -0.47251402854E+02  0.20632033929E+02  0.75880672196E+02  0.00000000000E+00 0.  1.
         11    1    1    2    0    0 -0.77383021895E+00  0.12303223539E+02 -0.37787439460E+02  0.39747436441E+02  0.00000000000E+00 0. -1.
</event>
<event>
 7    1  0.2844572E-009  0.9091285E+02  0.7561462E-02  0.1300656E+00
          4   -1    0    0  501    0  0.00000000000E+00  0.00000000000E+00  0.51021517547E+03  0.51021517547E+03  0.00000000000E+00 0. -1.
         -4   -1    0    0    0  501 -0.00000000000E+00 -0.00000000000E+00 -0.32671924811E+02  0.32671924811E+02  0.00000000000E+00 0.  1.
         25    2    1    2    0    0 -0.24174778786E+02 -0.40236476427E+02  0.38057323432E+03  0.40334489853E+03  0.12509087305E+03 0.  0.
          5    1    3    3  502    0 -0.46827918011E+02 -0.39402176755E+02  0.37452320545E+03  0.37951349022E+03  0.41800000000E+01 0.  1.
         -5    1    3    3    0  502  0.22653139225E+02 -0.83429967139E+00  0.60500288781E+01  0.23831408312E+02  0.41800000000E+01 0.  1.
        -11    1    1    2    0    0  0.56441024430E+02  0.26803541475E+02  0.45359253605E+02  0.77210627260E+02  0.00000000000E+00 0.  1.
         11    1    1    2    0    0 -0.32266245644E+02  0.13432934952E+02  0.51610762734E+02  0.62331574498E+02  0.00000000000E+00 0. -1.
</event>
<event>
 7    1  0.2844572E-009  0.1010348E+03  0.7561462E-02  0.1278135E+00
          2   -1    0    0  501    0  0.00000000000E+00  0.00000000000E+00  0.58784132051E+03  0.58784132051E+03  0.00000000000E+00 0. -1.
         -2   -1    0    0    0  501 -0.00000000000E+00 -0.00000000000E+00 -0.20748419481E+02  0.20748419481E+02  0.00000000000E+00 0.  1.
         25    2    1    2    0    0 -0.14505913290E+02 -0.23494812189E+02  0.32601194310E+03  0.35027613203E+03  0.12508858423E+03 0.  0.
          5    1    3    3  502    0 -0.62565656837E+02 -0.36067641043E+02  0.24206156348E+03  0.25263928646E+03  0.41800000000E+01 0. -1.
         -5    1    3    3    0  502  0.48059743548E+02  0.12572828855E+02  0.83950379618E+02  0.97636845572E+02  0.41800000000E+01 0. -1.
        -11    1    1    2    0    0  0.37675904572E+02  0.37210372793E+02  0.21270067889E+03  0.21919321256E+03  0.00000000000E+00 0. -1.
         11    1    1    2    0    0 -0.23169991282E+02 -0.13715560605E+02  0.28380279041E+02  0.39120395412E+02  0.00000000000E+00 0.  1.
</event>
<event>
 7    1  0.2844572E-009  0.2056903E+03  0.7561462E-02  0.1145025E+00
         -1   -1    0    0    0  501 -0.00000000000E+00  0.00000000000E+00  0.34764903470E+02  0.34764903470E+02  0.00000000000E+00 0.  1.
          1   -1    0    0  501    0  0.00000000000E+00 -0.00000000000E+00 -0.25395207725E+04  0.25395207725E+04  0.00000000000E+00 0. -1.
         25    2    1    2    0    0  0.13749081388E+03  0.11620940099E+03 -0.21865642739E+04  0.21975257780E+04  0.12509145680E+03 0.  0.
          5    1    3    3  502    0  0.22427483818E+02  0.88265524008E+02 -0.12815935591E+04  0.12848320194E+04  0.41800000000E+01 0.  1.
         -5    1    3    3    0  502  0.11506333007E+03  0.27943876985E+02 -0.90497071474E+03  0.91269375867E+03  0.41800000000E+01 0.  1.
        -11    1    1    2    0    0  0.64341253549E+01 -0.36792545813E+02 -0.60703250939E+02  0.71273936828E+02  0.00000000000E+00 0.  1.
         11    1    1    2    0    0 -0.14392493924E+03 -0.79416855180E+02 -0.25748834417E+03  0.30548596106E+03  0.00000000000E+00 0. -1.
</event>
<event>
 7    1  0.2844572E-009  0.1989512E+03  0.7561462E-02  0.1150627E+00
          1   -1    0    0  501    0  0.00000000000E+00  0.00000000000E+00  0.21365146239E+04  0.21365146239E+04  0.00000000000E+00 0. -1.
         -1   -1    0    0    0  501 -0.00000000000E+00 -0.00000000000E+00 -0.30148069314E+02  0.30148069314E+02  0.00000000000E+00 0.  1.
         25    2    1    2    0    0 -0.57529228768E+02 -0.16135325527E+03  0.17363710683E+04  0.17492788880E+04  0.12509059041E+03 0.  0.
          5    1    3    3  502    0 -0.92869920544E+02 -0.78025097965E+02  0.10250177747E+04  0.10321781091E+04  0.41800000000E+01 0. -1.
         -5    1    3    3    0  502  0.35340691776E+02 -0.83328157302E+02  0.71135329362E+03  0.71710077886E+03  0.41800000000E+01 0. -1.
        -11    1    1    2    0    0  0.24378895424E+02  0.35002333254E+01  0.19016509198E+02  0.31116069763E+02  0.00000000000E+00 0.  1.
         11    1    1    2    0    0  0.33150333344E+02  0.15785302194E+03  0.35097897704E+03  0.38626773547E+03  0.00000000000E+00 0. -1.
</event>
<event>
 7    1  0.2844572E-009  0.7573425E+02  0.7561462E-02  0.1341612E+00
          1   -1    0    0  501    0  0.00000000000E+00  0.00000000000E+00  0.16528242831E+03  0.16528242831E+03  0.00000000000E+00 0. -1.
         -1   -1    0    0    0  501 -0.00000000000E+00 -0.00000000000E+00 -0.86990603283E+02  0.86990603283E+02  0.00000000000E+00 0.  1.
         25    2    1    2    0    0 -0.14739462166E+02  0.78305226635E+01  0.62633470498E+02  0.14088716321E+03  0.12509065633E+03 0.  0.
          5    1    3    3  502    0 -0.66051405005E+01 -0.42775187389E+02  0.76171781580E+02  0.87709504880E+02  0.41800000000E+01 0. -1.
         -5    1    3    3    0  502 -0.81343216657E+01  0.50605710052E+02 -0.13538311083E+02  0.53177658333E+02  0.41800000000E+01 0. -1.
        -11    1    1    2    0    0 -0.18820517423E+02 -0.12619264942E+02 -0.40141501936E+02  0.46095530167E+02  0.00000000000E+00 0.  1.
         11    1    1    2    0    0  0.33559979589E+02  0.47887422786E+01  0.55799856469E+02  0.65290338218E+02  0.00000000000E+00 0. -1.
</event>
<event>
 7    1  0.2844572E-009  0.1426769E+03  0.7561462E-02  0.1209772E+00
          1   -1    0    0  501    0  0.00000000000E+00  0.00000000000E+00  0.13998938621E+03  0.13998938621E+03  0.00000000000E+00 0. -1.
         -1   -1    0    0    0  501 -0.00000000000E+00 -0.00000000000E+00 -0.20028699939E+03  0.20028699939E+03  0.00000000000E+00 0.  1.
         25    2    1    2    0    0  0.17252419198E+01  0.10004737806E+03 -0.11018396903E+03  0.19442813920E+03  0.12509732197E+03 0.  0.
          5    1    3    3  502    0  0.57898266766E+02  0.81950612149E+02 -0.61093415731E+02  0.11754994671E+03  0.41800000000E+01 0. -1.
         -5    1    3    3    0  502 -0.56173024846E+02  0.18096765907E+02 -0.49090553303E+02  0.76878192489E+02  0.41800000000E+01 0. -1.
        -11    1    1    2    0    0  0.80632892165E+00 -0.11277908825E+03  0.61473958128E+02  0.12844773428E+03  0.00000000000E+00 0. -1.
         11    1    1    2    0    0 -0.25315708414E+01  0.12731710197E+02 -0.11587602282E+02  0.17400512122E+02  0.00000000000E+00 0.  1.
</event>
<event>
 7    1  0.2844572E-009  0.1239114E+03  0.7561462E-02  0.1236780E+00
         -1   -1    0    0    0  501 -0.00000000000E+00  0.00000000000E+00  0.73580072893E+02  0.73580072893E+02  0.00000000000E+00 0.  1.
          1   -1    0    0  501    0  0.00000000000E+00 -0.00000000000E+00 -0.34459442383E+03  0.34459442383E+03  0.00000000000E+00 0. -1.
         25    2    1    2    0    0  0.85114934936E+02  0.61705302907E+02 -0.75996595955E+02  0.18020971023E+03  0.12509180832E+03 0.  0.
          5    1    3    3  502    0  0.59167220617E+02  0.85372658016E+02 -0.88668933918E+01  0.10433285643E+03  0.41800000000E+01 0. -1.
         -5    1    3    3    0  502  0.25947714318E+02 -0.23667355109E+02 -0.67129702563E+02  0.75876853798E+02  0.41800000000E+01 0. -1.
        -11    1    1    2    0    0 -0.60373810443E+02 -0.27646327354E+02 -0.18225672981E+03  0.19397636961E+03  0.00000000000E+00 0. -1.
         11    1    1    2    0    0 -0.24741124493E+02 -0.34058975552E+02 -0.12761025168E+02  0.43988416886E+02  0.00000000000E+00 0.  1.
</event>
<event>
 7    1  0.2844572E-009  0.1431244E+03  0.7561462E-02  0.1209186E+00
          4   -1    0    0  501    0  0.00000000000E+00  0.00000000000E+00  0.13613201225E+03  0.13613201225E+03  0.00000000000E+00 0. -1.
         -4   -1    0    0    0  501 -0.00000000000E+00 -0.00000000000E+00 -0.23318152263E+03  0.23318152263E+03  0.00000000000E+00 0.  1.
         25    2    1    2    0    0 -0.50221478139E+02  0.12820890285E+03 -0.20446964945E+02  0.18715841255E+03  0.12510185201E+03 0.  0.
          5    1    3    3  502    0 -0.53803186755E+02  0.70284094901E+02  0.45168633387E+02  0.99460116344E+02  0.41800000000E+01 0. -1.
         -5    1    3    3    0  502  0.35817086160E+01  0.57924807950E+02 -0.65615598332E+02  0.87698296204E+02  0.41800000000E+01 0. -1.
        -11    1    1    2    0    0  0.39354713165E+02 -0.70617391689E+02 -0.91082428913E+02  0.12178513174E+03  0.00000000000E+00 0.  1.
         11    1    1    2    0    0  0.10866764974E+02 -0.57591511162E+02  0.14479883477E+02  0.60369990595E+02  0.00000000000E+00 0. -1.
</event>
<event>
 7    1  0.2844572E-009  0.1216449E+03  0.7561462E-02  0.1240408E+00
         -1   -1    0    0    0  501 -0.00000000000E+00  0.00000000000E+00  0.41256747799E+02  0.41256747799E+02  0.00000000000E+00 0.  1.
          1   -1    0    0  501    0  0.00000000000E+00 -0.00000000000E+00 -0.52550096672E+03  0.52550096672E+03  0.00000000000E+00 0. -1.
         25    2    1    2    0    0  0.70845979793E+02  0.22444135618E+02 -0.38888287810E+03  0.41521067279E+03  0.12508844009E+03 0.  0.
          5    1    3    3  502    0  0.48461390377E+02 -0.48994823983E+02 -0.21608503685E+03  0.22684623577E+03  0.41800000000E+01 0.  1.
         -5    1    3    3    0  502  0.22384589416E+02  0.71438959601E+02 -0.17279784125E+03  0.18836443702E+03  0.41800000000E+01 0.  1.
        -11    1    1    2    0    0 -0.72303775372E+02  0.43513687270E+01 -0.25638298322E+02  0.76838093961E+02  0.00000000000E+00 0.  1.
         11    1    1    2    0    0  0.14577955785E+01 -0.26795504345E+02 -0.69723042505E+02  0.74708947772E+02  0.00000000000E+00 0. -1.
</event>
<event>
 7    1  0.2844572E-009  0.1205011E+03  0.7561462E-02  0.1242273E+00
         -2   -1    0    0    0  501 -0.00000000000E+00  0.00000000000E+00  0.18619895033E+03  0.18619895033E+03  0.00000000000E+00 0.  1.
          2   -1    0    0  501    0  0.00000000000E+00 -0.00000000000E+00 -0.10559536602E+03  0.10559536602E+03  0.00000000000E+00 0. -1.
         25    2    1    2    0    0  0.58098500910E+02 -0.47702304607E+01  0.11276110988E+03  0.17821632013E+03  0.12509115858E+03 0.  0.
          5    1    3    3  502    0  0.39522579147E+02  0.58570000842E+02  0.69412202913E+02  0.99136297966E+02  0.41800000000E+01 0.  1.
         -5    1    3    3    0  502  0.18575921763E+02 -0.63340231303E+02  0.43348906967E+02  0.79080022168E+02  0.41800000000E+01 0.  1.
        -11    1    1    2    0    0 -0.67464203090E+02 -0.25707818685E+02 -0.37330404749E+02  0.81276501886E+02  0.00000000000E+00 0. -1.
         11    1    1    2    0    0  0.93657021808E+01  0.30478049146E+02  0.51728791720E+01  0.32301494331E+02  0.00000000000E+00 0.  1.
</event>
<event>
 7    1  0.2844572E-009  0.7600665E+02  0.7561462E-02  0.1340782E+00
         -2   -1    0    0    0  501 -0.00000000000E+00  0.00000000000E+00  0.92224630959E+02  0.92224630959E+02  0.00000000000E+00 0.  1.
          2   -1    0    0  501    0  0.00000000000E+00 -0.00000000000E+00 -0.19510277230E+03  0.19510277230E+03  0.00000000000E+00 0. -1.
         25    2    1    2    0    0  0.66411581439E+01 -0.70643524920E+02 -0.90212755054E+02  0.16976340978E+03  0.12508661611E+03 0.  0.
          5    1    3    3  502    0 -0.70221284057E+01 -0.82988302045E+01 -0.10373647511E+03  0.10438826341E+03  0.41800000000E+01 0.  1.
         -5    1    3    3    0  502  0.13663286550E+02 -0.62344694716E+02  0.13523720052E+02  0.65375146367E+02  0.41800000000E+01 0.  1.
        -11    1    1    2    0    0 -0.17847124558E+02  0.41092110040E+02 -0.50998768002E+02  0.67881924694E+02  0.00000000000E+00 0. -1.
         11    1    1    2    0    0  0.11205966414E+02  0.29551414880E+02  0.38333381719E+02  0.49682068785E+02  0.00000000000E+00 0.  1.
</event>
<event>
 7    1  0.2844572E-009  0.1591326E+03  0.7561462E-02  0.1189679E+00
         -2   -1    0    0    0  501 -0.00000000000E+00  0.00000000000E+00  0.62601455976E+02  0.62601455976E+02  0.00000000000E+00 0.  1.
          2   -1    0    0  501    0  0.00000000000E+00 -0.00000000000E+00 -0.46792680524E+03  0.46792680524E+03  0.00000000000E+00 0. -1.
         25    2    1    2    0    0  0.96449590771E+02 -0.79397339279E+02 -0.29474392833E+03  0.34370016016E+03  0.12509738510E+03 0.  0.
          5    1    3    3  502    0  0.12101125508E+03 -0.39097370859E+02 -0.18915118153E+03  0.22796484409E+03  0.41800000000E+01 0.  1.
         -5    1    3    3    0  502 -0.24561664313E+02 -0.40299968420E+02 -0.10559274680E+03  0.11573531607E+03  0.41800000000E+01 0.  1.
        -11    1    1    2    0    0 -0.84895421017E+02  0.92918301129E+02 -0.11266474165E+03  0.16892124557E+03  0.00000000000E+00 0. -1.
         11    1    1    2    0    0 -0.11554169754E+02 -0.13520961850E+02  0.20833207249E+01  0.17906855484E+02  0.00000000000E+00 0.  1.
</event>
<event>
 7    1  0.2844572E-009  0.2067900E+03  0.7561462E-02  0.1144133E+00
         -1   -1    0    0    0  501 -0.00000000000E+00  0.00000000000E+00  0.12496263609E+03  0.12496263609E+03  0.00000000000E+00 0.  1.
          1   -1    0    0  501    0  0.00000000000E+00 -0.00000000000E+00 -0.45043940338E+03  0.45043940338E+03  0.00000000000E+00 0. -1.
         25    2    1    2    0    0 -0.15372208070E+03 -0.11512486422E+03 -0.64271438390E+02  0.23801909155E+03  0.12505221986E+03 0.  0.
          5    1    3    3  502    0 -0.12427841234E+03 -0.12139585402E+03 -0.92216289518E+02  0.19673178086E+03  0.41800000000E+01 0.  1.
         -5    1    3    3    0  502 -0.29443668352E+02  0.62709897960E+01  0.27944851128E+02  0.41287310685E+02  0.41800000000E+01 0.  1.
        -11    1    1    2    0    0  0.69153953275E+02  0.33367461499E+01 -0.11920607403E+03  0.13785315091E+03  0.00000000000E+00 0. -1.
         11    1    1    2    0    0  0.84568127421E+02  0.11178811807E+03 -0.14199925487E+03  0.19952979703E+03  0.00000000000E+00 0.  1.
</event>
<event>
 7    1  0.2844572E-009  0.1083461E+03  0.7561462E-02  0.1263664E+00
          2   -1    0    0  501    0  0.00000000000E+00  0.00000000000E+00  0.29303008955E+03  0.29303008955E+03  0.00000000000E+00 0. -1.
         -2   -1    0    0    0  501 -0.00000000000E+00 -0.00000000000E+00 -0.45234128939E+02  0.45234128939E+02  0.00000000000E+00 0.  1.
         25    2    1    2    0    0 -0.16387162054E+02  0.14634257303E+02  0.91623813723E+02  0.15660434564E+03  0.12508915727E+03 0.  0.
          5    1    3    3  502    0 -0.28296781822E+02 -0.51504323286E+02  0.51314649316E+02  0.78128540323E+02  0.41800000000E+01 0. -1.
         -5    1    3    3    0  502  0.11909619768E+02  0.66138580589E+02  0.40309164407E+02  0.78475805319E+02  0.41800000000E+01 0. -1.
        -11    1    1    2    0    0 -0.41750001127E+01  0.35767927903E+02  0.82870199212E+02  0.90356212901E+02  0.00000000000E+00 0. -1.
         11    1    1    2    0    0  0.20562162166E+02 -0.50402185205E+02  0.73301947678E+02  0.91303659947E+02  0.00000000000E+00 0.  1.
</event>
<event>
 7    1  0.2844572E-009  0.1684812E+03  0.7561462E-02  0.1179441E+00
          2   -1    0    0  501    0  0.00000000000E+00  0.00000000000E+00  0.29412479436E+03  0.29412479436E+03  0.00000000000E+00 0. -1.
         -2   -1    0    0    0  501 -0.00000000000E+00 -0.00000000000E+00 -0.30391650098E+03  0.30391650098E+03  0.00000000000E+00 0.  1.
         25    2    1    2    0    0 -0.11910422168E+03  0.66466229263E+02 -0.24770417288E+03  0.30920593989E+03  0.12508949096E+03 0.  0.
          5    1    3    3  502    0 -0.12507769331E+03  0.74672786699E+01 -0.16036728374E+03  0.20355669409E+03  0.41800000000E+01 0.  1.
         -5    1    3    3    0  502  0.59734716297E+01  0.58998950593E+02 -0.87336889144E+02  0.10564924581E+03  0.41800000000E+01 0.  1.
        -11    1    1    2    0    0 -0.23819905778E+01 -0.22990178725E+02  0.67152397467E+01  0.24068997523E+02  0.00000000000E+00 0.  1.
         11    1    1    2    0    0  0.12148621226E+03 -0.43476050538E+02  0.23119722651E+03  0.26476635792E+03  0.00000000000E+00 0. -1.
</event>
<event>
 7    1  0.2844572E-009  0.1175147E+03  0.7561462E-02  0.1247254E+00
         -1   -1    0    0    0  501 -0.00000000000E+00  0.00000000000E+00  0.72292731283E+02  0.72292731283E+02  0.00000000000E+00 0.  1.
          1   -1    0    0  501    0  0.00000000000E+00 -0.00000000000E+00 -0.33111284574E+03  0.33111284574E+03  0.00000000000E+00 0. -1.
         25    2    1    2    0    0 -0.22063957912E+02  0.93846574622E+02 -0.20714152212E+03  0.26048240943E+03  0.12509787219E+03 0.  0.
          5    1    3    3  502    0 -0.59420659578E+01  0.80171471463E+02 -0.36332382764E+02  0.88319235853E+02  0.41800000000E+01 0.  1.
         -5    1    3    3    0  502 -0.16121891954E+02  0.13675103159E+02 -0.17080913936E+03  0.17216317357E+03  0.41800000000E+01 0.  1.
        -11    1    1    2    0    0  0.47408264494E+02 -0.14337436279E+02 -0.23698999468E+02  0.54906722695E+02  0.00000000000E+00 0. -1.
         11    1    1    2    0    0 -0.25344306581E+02 -0.79509138343E+02 -0.27979592867E+02  0.88016444902E+02  0.00000000000E+00 0.  1.
</event>
<event>
 7    1  0.2844572E-009  0.1021037E+03  0.7561462E-02  0.1275933E+00
         -1   -1    0    0    0  501 -0.00000000000E+00  0.00000000000E+00  0.10882489854E+02  0.10882489854E+02  0.00000000000E+00 0.  1.
          1   -1    0    0  501    0  0.00000000000E+00 -0.00000000000E+00 -0.15397276706E+04  0.15397276706E+04  0.00000000000E+00 0. -1.
         25    2    1    2    0    0 -0.62927243030E+01  0.42738124505E+01 -0.12421458065E+04  0.12484527817E+04  0.12510107842E+03 0.  0.
          5    1    3    3  502    0  0.31941165144E+02 -0.40545809454E+02 -0.29834647290E+03  0.30280734962E+03  0.41800000000E+01 0. -1.
         -5    1    3    3    0  502 -0.38233889447E+02  0.44819621905E+02 -0.94379933360E+03  0.94564543213E+03  0.41800000000E+01 0. -1.
        -11    1    1    2    0    0  0.48409902281E+02  0.89244419953E+01 -0.11976440251E+03  0.12948620163E+03  0.00000000000E+00 0.  1.
         11    1    1    2    0    0 -0.42117177978E+02 -0.13198254446E+02 -0.16693497174E+03  0.17267117707E+03  0.00000000000E+00 0. -1.
</event>
<event>
 7    1  0.2844572E-009  0.1122973E+03  0.7561462E-02  0.1256374E+00
         -2   -1    0    0    0  501 -0.00000000000E+00  0.00000000000E+00  0.56683050504E+03  0.56683050504E+03  0.00000000000E+00 0.  1.
          2   -1    0    0  501    0  0.00000000000E+00 -0.00000000000E+00 -0.56809245505E+02  0.56809245505E+02  0.00000000000E+00 0. -1.
         25    2    1    2    0    0 -0.11848948379E+02  0.84399944862E+02  0.47365763713E+03  0.49725573730E+03  0.12509181747E+03 0.  0.
          5    1    3    3  502    0 -0.38602083094E+02 -0.65635002336E+01  0.53019333714E+02  0.66043338059E+02  0.41800000000E+01 0.  1.
         -5    1    3    3    0  502  0.26753134714E+02  0.90963445096E+02  0.42063830342E+03  0.43121239924E+03  0.41800000000E+01 0.  1.
        -11    1    1    2    0    0  0.21445705393E+02 -0.46423440700E+02 -0.22346069125E+02  0.55806817967E+02  0.00000000000E+00 0. -1.
         11    1    1    2    0    0 -0.95967570135E+01 -0.37976504162E+02  0.58709691533E+02  0.70577195279E+02  0.00000000000E+00 0.  1.
</event>
<event>
 7    1  0.2844572E-009  0.7323956E+02  0.7561462E-02  0.1349411E+00
         -1   -1    0    0    0  501 -0.00000000000E+00  0.00000000000E+00  0.25744404380E+02  0.25744404380E+02  0.00000000000E+00 0.  1.
          1   -1    0    0  501    0  0.00000000000E+00 -0.00000000000E+00 -0.57146148472E+03  0.57146148472E+03  0.00000000000E+00 0. -1.
         25    2    1    2    0    0 -0.44282577871E+02 -0.24007784685E+02 -0.38624236461E+03  0.40910507231E+03  0.12508587269E+03 0.  0.
          5    1    3    3  502    0 -0.15981625379E+02 -0.45696045166E+02 -0.36322370230E+03  0.36645937184E+03  0.41800000000E+01 0. -1.
         -5    1    3    3    0  502 -0.28300952492E+02  0.21688260481E+02 -0.23018662305E+02  0.42645700474E+02  0.41800000000E+01 0. -1.
        -11    1    1    2    0    0  0.20788453182E+00  0.17424103913E+02  0.46487969618E+01  0.18034797652E+02  0.00000000000E+00 0.  1.
         11    1    1    2    0    0  0.44074693339E+02  0.65836807714E+01 -0.16412351270E+03  0.17006601914E+03  0.00000000000E+00 0. -1.
</event>
<event>
 7    1  0.2844572E-009  0.2232176E+03  0.7561462E-02  0.1131507E+00
          1   -1    0    0  501    0  0.00000000000E+00  0.00000000000E+00  0.15287336036E+04  0.15287336036E+04  0.00000000000E+00 0. -1.
         -1   -1    0    0    0  501 -0.00000000000E+00 -0.00000000000E+00 -0.43835890171E+02  0.43835890171E+02  0.00000000000E+00 0.  1.
         25    2    1    2    0    0 -0.47340240973E+02 -0.19339873339E+03  0.11414102728E+04  0.11653793891E+04  0.12509013241E+03 0.  0.
          5    1    3    3  502    0 -0.63629847633E+02 -0.29373168860E+02  0.35190812293E+03  0.35884305753E+03  0.41800000000E+01 0. -1.
         -5    1    3    3    0  502  0.16289606660E+02 -0.16402556453E+03  0.78950214988E+03  0.80653633159E+03  0.41800000000E+01 0. -1.
        -11    1    1    2    0    0  0.50562302522E+02  0.62441900181E+02  0.82430928169E+02  0.11511036119E+03  0.00000000000E+00 0.  1.
         11    1    1    2    0    0 -0.32220615486E+01  0.13095683321E+03  0.26105651243E+03  0.29207974344E+03  0.00000000000E+00 0. -1.
</event>
<event>
 7    1  0.2844572E-009  0.1199813E+03  0.7561462E-02  0.1243128E+00
         -2   -1    0    0    0  501 -0.00000000000E+00  0.00000000000E+00  0.22209888405E+03  0.22209888405E+03  0.00000000000E+00 0. -1.
          2   -1    0    0  501    0  0.00000000000E+00 -0.00000000000E+00 -0.13114759422E+03  0.13114759422E+03  0.00000000000E+00 0.  1.
         25    2    1    2    0    0 -0.20573896067E+02  0.74454188618E+02  0.15434760407E+03  0.21316041050E+03  0.12508983300E+03 0.  0.
          5    1    3    3  502    0 -0.48955416496E+02  0.53981252419E+01  0.97643936795E+01  0.50384405766E+02  0.41800000000E+01 0.  1.
         -5    1    3    3    0  502  0.28381520429E+02  0.69056063376E+02  0.14458321039E+03  0.16277600473E+03  0.41800000000E+01 0.  1.
        -11    1    1    2    0    0  0.48356129552E+02 -0.73470521279E+02 -0.22763989871E+02  0.90853904688E+02  0.00000000000E+00 0. -1.
         11    1    1    2    0    0 -0.27782233485E+02 -0.98366733854E+00 -0.40632324363E+02  0.49232163085E+02  0.00000000000E+00 0.  1.
</event>
<event>
 7    1  0.2844572E-009  0.9904400E+02  0.7561462E-02  0.1282319E+00
          2   -1    0    0  501    0  0.00000000000E+00  0.00000000000E+00  0.22276897655E+02  0.22276897655E+02  0.00000000000E+00 0. -1.
         -2   -1    0    0    0  501 -0.00000000000E+00 -0.00000000000E+00 -0.66122116539E+03  0.66122116539E+03  0.00000000000E+00 0.  1.
         25    2    1    2    0    0 -0.33982031212E+02  0.31259773700E+02 -0.35877920752E+03  0.38275553455E+03  0.12508927845E+03 0.  0.
          5    1    3    3  502    0  0.36000600886E+02  0.32930751001E+02 -0.23893525280E+03  0.24390162988E+03  0.41800000000E+01 0.  1.
         -5    1    3    3    0  502 -0.69982632098E+02 -0.16709773009E+01 -0.11984395471E+03  0.13885390467E+03  0.41800000000E+01 0.  1.
        -11    1    1    2    0    0 -0.17636066513E+02 -0.19028433825E+02 -0.14274822345E+02  0.29612205065E+02  0.00000000000E+00 0. -1.
         11    1    1    2    0    0  0.51618097725E+02 -0.12231339875E+02 -0.26589023787E+03  0.27113032343E+03  0.00000000000E+00 0.  1.
</event>
<event>
 7    1  0.2844572E-009  0.1114026E+03  0.7561462E-02  0.1257994E+00
          2   -1    0    0  501    0  0.00000000000E+00  0.00000000000E+00  0.24687825267E+03  0.24687825267E+03  0.00000000000E+00 0. -1.
         -2   -1    0    0    0  501 -0.00000000000E+00 -0.00000000000E+00 -0.78341076963E+02  0.78341076963E+02  0.00000000000E+00 0.  1.
         25    2    1    2    0    0  0.36675797627E+02 -0.34328344295E+02  0.17444604390E+03  0.22045928502E+03  0.12508926719E+03 0.  0.
          5    1    3    3  502    0  0.75983523568E+02 -0.12143237692E+00  0.68805136751E+02  0.10259205546E+03  0.41800000000E+01 0.  1.
         -5    1    3    3    0  502 -0.39307725941E+02 -0.34206911918E+02  0.10564090715E+03  0.11786722956E+03  0.41800000000E+01 0.  1.
        -11    1    1    2    0    0 -0.62296318900E+02  0.22810508823E+02 -0.24891394507E+02  0.70857125131E+02  0.00000000000E+00 0. -1.
         11    1    1    2    0    0  0.25620521274E+02  0.11517835473E+02  0.18982526319E+02  0.33902919487E+02  0.00000000000E+00 0.  1.
</event>
<event>
 7    1  0.2844572E-009  0.1229915E+03  0.7561462E-02  0.1238242E+00
          3   -1    0    0  501    0  0.00000000000E+00  0.00000000000E+00  0.34361842907E+03  0.34361842907E+03  0.00000000000E+00 0.  1.
         -3   -1    0    0    0  501 -0.00000000000E+00 -0.00000000000E+00 -0.46734284928E+02  0.46734284928E+02  0.00000000000E+00 0. -1.
         25    2    1    2    0    0  0.62636501954E+02 -0.14069612998E+02  0.16230902770E+03  0.21475519371E+03  0.12511709462E+03 0.  0.
          5    1    3    3  502    0  0.36546504953E+02 -0.66799843538E+02  0.61530602055E+02  0.97986496571E+02  0.41800000000E+01 0.  1.
         -5    1    3    3    0  502  0.26089997001E+02  0.52730230541E+02  0.10077842565E+03  0.11676869714E+03  0.41800000000E+01 0.  1.
        -11    1    1    2    0    0 -0.17887921131E+02  0.50161167941E+02  0.48132274441E+02  0.71783259431E+02  0.00000000000E+00 0. -1.
         11    1    1    2    0    0 -0.44748580823E+02 -0.36091554943E+02  0.86442841999E+02  0.10381426085E+03  0.00000000000E+00 0.  1.
</event>
<event>
 7    1  0.2844572E-009  0.2451341E+03  0.7561462E-02  0.1116419E+00
          1   -1    0    0  501    0  0.00000000000E+00  0.00000000000E+00  0.96506721849E+02  0.96506721849E+02  0.00000000000E+00 0. -1.
         -1   -1    0    0    0  501 -0.00000000000E+00 -0.00000000000E+00 -0.68092501119E+03  0.68092501119E+03  0.00000000000E+00 0.  1.
         25    2    1    2    0    0  0.40559727938E+02 -0.22603763190E+03 -0.24910802711E+03  0.36116457658E+03  0.12508772779E+03 0.  0.
          5    1    3    3  502    0  0.50959099348E+02 -0.35956078961E+02 -0.25603378895E+02  0.67547574579E+02  0.41800000000E+01 0. -1.
         -5    1    3    3    0  502 -0.10399371410E+02 -0.19008155294E+03 -0.22350464821E+03  0.29361700201E+03  0.41800000000E+01 0. -1.
        -11    1    1    2    0    0  0.15477737479E+02  0.35159609058E+02 -0.19647415891E+02  0.43148342005E+02  0.00000000000E+00 0. -1.
         11    1    1    2    0    0 -0.56037465416E+02  0.19087802284E+03 -0.31566284634E+03  0.37311881445E+03  0.00000000000E+00 0.  1.
</event>
<event>
 7    1  0.2844572E-009  0.1161044E+03  0.7561462E-02  0.1249665E+00
          1   -1    0    0  501    0  0.00000000000E+00  0.00000000000E+00  0.13225429031E+03  0.13225429031E+03  0.00000000000E+00 0. -1.
         -1   -1    0    0    0  501 -0.00000000000E+00 -0.00000000000E+00 -0.13197713207E+03  0.13197713207E+03  0.00000000000E+00 0.  1.
         25    2    1    2    0    0 -0.23382801443E+02  0.39985076393E+02 -0.58302196588E+02  0.14558778939E+03  0.12510434267E+03 0.  0.
          5    1    3    3  502    0  0.40019626782E+02  0.53748507674E+02 -0.39549138663E+02  0.77923548263E+02  0.41800000000E+01 0. -1.
         -5    1    3    3    0  502 -0.63402428225E+02 -0.13763431281E+02 -0.18753057925E+02  0.67664241125E+02  0.41800000000E+01 0. -1.
        -11    1    1    2    0    0  0.16635289611E+02  0.27549927468E+02  0.58811866170E+01  0.32715741165E+02  0.00000000000E+00 0.  1.
         11    1    1    2    0    0  0.67475118321E+01 -0.67535003860E+02  0.52698168207E+02  0.85927891832E+02  0.00000000000E+00 0. -1.
</event>
<event>
 7    1  0.2844572E-009  0.1051710E+03  0.7561462E-02  0.1269783E+00
          1   -1    0    0  501    0  0.00000000000E+00  0.00000000000E+00  0.27788839445E+02  0.27788839445E+02  0.00000000000E+00 0. -1.
         -1   -1    0    0    0  501 -0.00000000000E+00 -0.00000000000E+00 -0.58706541319E+03  0.58706541319E+03  0.00000000000E+00 0.  1.
         25    2    1    2    0    0 -0.52072222455E+02 -0.46533800837E+02 -0.26424669367E+03  0.30058218142E+03  0.12508565745E+03 0.  0.
          5    1    3    3  502    0 -0.51840730617E+02 -0.79782599525E+02 -0.24276242780E+03  0.26077536940E+03  0.41800000000E+01 0.  1.
         -5    1    3    3    0  502 -0.23149183799E+00  0.33248798688E+02 -0.21484265868E+02  0.39806812012E+02  0.41800000000E+01 0.  1.
        -11    1    1    2    0    0  0.48247388840E+02  0.16015568441E+02 -0.26963701256E+03  0.27438736761E+03  0.00000000000E+00 0.  1.
         11    1    1    2    0    0  0.38248336154E+01  0.30518232397E+02 -0.25392867511E+02  0.39884703600E+02  0.00000000000E+00 0. -1.
</event>
<event>
 7    1  0.2844572E-009  0.3326055E+03  0.7561462E-02  0.1069990E+00
         -2   -1    0    0    0  501 -0.00000000000E+00  0.00000000000E+00  0.13693203359E+03  0.13693203359E+03  0.00000000000E+00 0. -1.
          2   -1    0    0  501    0  0.00000000000E+00 -0.00000000000E+00 -0.85260272985E+03  0.85260272985E+03  0.00000000000E+00 0.  1.
         25    2    1    2    0    0  0.25879953052E+03  0.18616284563E+03 -0.38005216146E+03  0.51158669452E+03  0.12508996158E+03 0.  0.
          5    1    3    3  502    0  0.15767719859E+03  0.18245966946E+03 -0.26796861514E+03  0.36052500750E+03  0.41800000000E+01 0.  1.
         -5    1    3    3    0  502  0.10112233193E+03  0.37031761728E+01 -0.11208354632E+03  0.15106168701E+03  0.41800000000E+01 0.  1.
        -11    1    1    2    0    0 -0.18778925510E+03 -0.16116744988E+03 -0.18302525601E+03  0.30779537938E+03  0.00000000000E+00 0.  1.
         11    1    1    2    0    0 -0.71010275425E+02 -0.24995395751E+02 -0.15259327880E+03  0.17015268954E+03  0.00000000000E+00 0. -1.
</event>
<event>
 7    1  0.2844572E-009  0.1104424E+03  0.7561462E-02  0.1259753E+00
          2   -1    0    0  501    0  0.00000000000E+00  0.00000000000E+00  0.16344033949E+03  0.16344033949E+03  0.00000000000E+00 0. -1.
         -2   -1    0    0    0  501 -0.00000000000E+00 -0.00000000000E+00 -0.82476537831E+02  0.82476537831E+02  0.00000000000E+00 0.  1.
         25    2    1    2    0    0  0.30828731253E+02  0.10991987403E+02  0.12207228589E+02  0.12987634460E+03  0.12509042329E+03 0.  0.
          5    1    3    3  502    0 -0.27643985078E+02  0.50766622438E+02 -0.19907858099E+00  0.57956465533E+02  0.41800000000E+01 0. -1.
         -5    1    3    3    0  502  0.58472716331E+02 -0.39774635035E+02  0.12406307170E+02  0.71919879066E+02  0.41800000000E+01 0. -1.
        -11    1    1    2    0    0  0.14842422055E+02 -0.36763267735E+02  0.39617563470E+02  0.56048074742E+02  0.00000000000E+00 0. -1.
         11    1    1    2    0    0 -0.45671153308E+02  0.25771280332E+02  0.29139009604E+02  0.59992457985E+02  0.00000000000E+00 0.  1.
</event>
<event>
 7    1  0.2844572E-009  0.1027210E+03  0.7561462E-02  0.1274676E+00
         -2   -1    0    0    0  501 -0.00000000000E+00  0.00000000000E+00  0.44472417852E+02  0.44472417852E+02  0.00000000000E+00 0.  1.
          2   -1    0    0  501    0  0.00000000000E+00 -0.00000000000E+00 -0.30172316374E+03  0.30172316374E+03  0.00000000000E+00 0. -1.
         25    2    1    2    0    0 -0.40872656960E+02 -0.13360479033E+01 -0.13763017480E+03  0.19042663262E+03  0.12509147967E+03 0.  0.
          5    1    3    3  502    0 -0.36356917110E+02 -0.47176482204E+02 -0.13065619211E+03  0.14365221485E+03  0.41800000000E+01 0. -1.
         -5    1    3    3    0  502 -0.45157398496E+01  0.45840434300E+02 -0.69739826906E+01  0.46774417771E+02  0.41800000000E+01 0. -1.
        -11    1    1    2    0    0  0.65581719275E+02 -0.18114295851E+02 -0.87208502479E+02  0.11060927864E+03  0.00000000000E+00 0.  1.
         11    1    1    2    0    0 -0.24709062315E+02  0.19450343755E+02 -0.32412068611E+02  0.45159670330E+02  0.00000000000E+00 0. -1.
</event>
<event>
 7    1  0.2844572E-009  0.1420941E+03  0.7561462E-02  0.1210539E+00
          1   -1    0    0  501    0  0.00000000000E+00  0.00000000000E+00  0.12611621252E+04  0.12611621252E+04  0.00000000000E+00 0. -1.
         -1   -1    0    0    0  501 -0.00000000000E+00 -0.00000000000E+00 -0.18325536355E+02  0.18325536355E+02  0.00000000000E+00 0.  1.
         25    2    1    2    0    0 -0.86138371691E+02 -0.46137245690E+02  0.67910658000E+03  0.69741088252E+03  0.12509087716E+03 0.  0.
          5    1    3    3  502    0 -0.28669914873E+02  0.31769392967E+02  0.82958647465E+02  0.93439113531E+02  0.41800000000E+01 0. -1.
         -5    1    3    3    0  502 -0.57468456818E+02 -0.77906638657E+02  0.59614793253E+03  0.60397176899E+03  0.41800000000E+01 0. -1.
        -11    1    1    2    0    0  0.30212036264E+02 -0.34690365752E+02  0.15411127909E+03  0.16083057842E+03  0.00000000000E+00 0.  1.
         11    1    1    2    0    0  0.55926335427E+02  0.80827611442E+02  0.40961872981E+03  0.42124620066E+03  0.00000000000E+00 0. -1.
</event>
<event>
 7    1  0.2844572E-009  0.8180646E+02  0.7561462E-02  0.1324002E+00
          2   -1    0    0  501    0  0.00000000000E+00  0.00000000000E+00  0.17554550015E+03  0.17554550015E+03  0.00000000000E+00 0. -1.
         -2   -1    0    0    0  501 -0.00000000000E+00 -0.00000000000E+00 -0.68242760338E+02  0.68242760338E+02  0.00000000000E+00 0.  1.
         25    2    1    2    0    0  0.11469161060E+02  0.24517636719E+01  0.55827219192E+02  0.13748904300E+03  0.12509598611E+03 0.  0.
          5    1    3    3  502    0 -0.29906227728E+02  0.27809688360E+02 -0.21315983662E+02  0.46255862148E+02  0.41800000000E+01 0.  1.
         -5    1    3    3    0  502  0.41375388788E+02 -0.25357924688E+02  0.77143202854E+02  0.91233180852E+02  0.41800000000E+01 0.  1.
        -11    1    1    2    0    0  0.27746245017E+02  0.14295091802E+02 -0.88333259840E+01  0.32438116624E+02  0.00000000000E+00 0.  1.
         11    1    1    2    0    0 -0.39215406078E+02 -0.16746855474E+02  0.60308846606E+02  0.73861100865E+02  0.00000000000E+00 0. -1.
</event>
<event>
 7    1  0.2844572E-009  0.2201819E+03  0.7561462E-02  0.1133747E+00
          1   -1    0    0  501    0  0.00000000000E+00  0.00000000000E+00  0.18184942132E+04  0.18184942132E+04  0.00000000000E+00 0.  1.
         -1   -1    0    0    0  501 -0.00000000000E+00 -0.00000000000E+00 -0.29151257046E+02  0.29151257046E+02  0.00000000000E+00 0. -1.
         25    2    1    2    0    0 -0.72847487570E+02  0.18951480217E+03  0.90993056865E+03  0.94066112894E+03  0.12508838098E+03 0.  0.
          5    1    3    3  502    0  0.17812316424E+02  0.12371534439E+03  0.52878196708E+03  0.54336967725E+03  0.41800000000E+01 0. -1.
         -5    1    3    3    0  502 -0.90659803994E+02  0.65799457771E+02  0.38114860157E+03  0.39729145169E+03  0.41800000000E+01 0. -1.
        -11    1    1    2    0    0  0.23650737543E+02 -0.51156307252E+02  0.10906594390E+03  0.12276687369E+03  0.00000000000E+00 0. -1.
         11    1    1    2    0    0  0.49196750026E+02 -0.13835849491E+03  0.77034644358E+03  0.78421746759E+03  0.00000000000E+00 0.  1.
</event>
<event>
 6    1  0.2844572E-009  0.1302737E+03  0.7561462E-02  0.1227050E+00
         -2   -1    0    0    0  501 -0.00000000000E+00  0.00000000000E+00  0.14093213575E+02  0.14093213575E+02  0.00000000000E+00 0.  1.
          2   -1    0    0  501    0  0.00000000000E+00 -0.00000000000E+00 -0.13050507236E+04  0.13050507236E+04  0.00000000000E+00 0. -1.
          5    1    1    2  502    0 -0.16591616966E+02 -0.98016497364E+02 -0.64372440632E+03  0.65136863542E+03  0.41800000000E+01 0.  1.
         -5    1    1    2    0  502  0.35972225218E+02  0.26976345995E+02 -0.24699551758E+03  0.25108959026E+03  0.41800000000E+01 0.  1.
        -11    1    1    2    0    0 -0.21284468542E+02 -0.17362569369E+02 -0.98685015227E+02  0.10243641758E+03  0.00000000000E+00 0.  1.
         11    1    1    2    0    0  0.19038602891E+01  0.88402720739E+02 -0.30155257092E+03  0.31424929395E+03  0.00000000000E+00 0. -1.
</event>
<event>
 7    1  0.2844572E-009  0.1048867E+03  0.7561462E-02  0.1270343E+00
         -2   -1    0    0    0  501 -0.00000000000E+00  0.00000000000E+00  0.38599957645E+02  0.38599957645E+02  0.00000000000E+00 0. -1.
          2   -1    0    0  501    0  0.00000000000E+00 -0.00000000000E+00 -0.36888593273E+03  0.36888593273E+03  0.00000000000E+00 0.  1.
         25    2    1    2    0    0 -0.49449797479E+01  0.49481323224E+02 -0.20946679757E+03  0.24899128862E+03  0.12508984113E+03 0.  0.
          5    1    3    3  502    0 -0.19866193244E+02  0.89370762347E+02 -0.14853637919E+03  0.17453460155E+03  0.41800000000E+01 0. -1.
         -5    1    3    3    0  502  0.14921213496E+02 -0.39889439122E+02 -0.60930418378E+02  0.74456687070E+02  0.41800000000E+01 0. -1.
        -11    1    1    2    0    0 -0.25928531137E+02 -0.22784014172E+02 -0.39967595122E+01  0.34747289323E+02  0.00000000000E+00 0. -1.
         11    1    1    2    0    0  0.30873510885E+02 -0.26697309053E+02 -0.11682241800E+03  0.12374731243E+03  0.00000000000E+00 0.  1.
</event>
<event>
 7    1  0.2844572E-009  0.5654584E+02  0.7561462E-02  0.1412927E+00
          2   -1    0    0  501    0  0.00000000000E+00  0.00000000000E+00  0.52639300124E+03  0.52639300124E+03  0.00000000000E+00 0. -1.
         -2   -1    0    0    0  501 -0.00000000000E+00 -0.00000000000E+00 -0.36695714968E+02  0.36695714968E+02  0.00000000000E+00 0.  1.
         25    2    1    2    0    0  0.11182949311E+02 -0.80343521360E+01  0.44621535117E+03  0.46362204018E+03  0.12509055661E+03 0.  0.
          5    1    3    3  502    0  0.10830600517E+02 -0.25154501582E+02  0.13987699289E+02  0.31035125081E+02  0.41800000000E+01 0.  1.
         -5    1    3    3    0  502  0.35234879393E+00  0.17120149446E+02  0.43222765188E+03  0.43258691510E+03  0.41800000000E+01 0.  1.
        -11    1    1    2    0    0 -0.25256289065E+02  0.31514481509E+02  0.56261364533E+02  0.69255929864E+02  0.00000000000E+00 0. -1.
         11    1    1    2    0    0  0.14073339754E+02 -0.23480129373E+02 -0.12779429429E+02  0.30210746164E+02  0.00000000000E+00 0.  1.
</event>
<event>
 7    1  0.2844572E-009  0.1424842E+03  0.7561462E-02  0.1210025E+00
          2   -1    0    0  501    0  0.00000000000E+00  0.00000000000E+00  0.47797785812E+03  0.47797785812E+03  0.00000000000E+00 0. -1.
         -2   -1    0    0    0  501 -0.00000000000E+00 -0.00000000000E+00 -0.69125714936E+02  0.69125714936E+02  0.00000000000E+00 0.  1.
         25    2    1    2    0    0  0.48726986510E+02  0.81271388918E+02  0.49216139469E+02  0.16446591505E+03  0.12508977159E+03 0.  0.
          5    1    3    3  502    0  0.88626669652E+02  0.38084883927E+02  0.19696717406E+02  0.98542265216E+02  0.41800000000E+01 0. -1.
         -5    1    3    3    0  502 -0.39899683142E+02  0.43186504991E+02  0.29519422063E+02  0.65923649831E+02  0.41800000000E+01 0. -1.
        -11    1    1    2    0    0 -0.73938290353E+02 -0.49801432736E+02  0.22243440393E+03  0.23963329805E+03  0.00000000000E+00 0.  1.
         11    1    1    2    0    0  0.25211303843E+02 -0.31469956182E+02  0.13720159979E+03  0.14300435996E+03  0.00000000000E+00 0. -1.
</event>
<event>
 7    1  0.2844572E-009  0.8328201E+02  0.7561462E-02  0.1319987E+00
         -2   -1    0    0    0  501 -0.00000000000E+00  0.00000000000E+00  0.15534554957E+02  0.15534554957E+02  0.00000000000E+00 0.  1.
          2   -1    0    0  501    0  0.00000000000E+00 -0.00000000000E+00 -0.63758375839E+03  0.63758375839E+03  0.00000000000E+00 0. -1.
         25    2    1    2    0    0 -0.37186665917E+01  0.41866218153E+02 -0.36641456372E+03  0.38945353495E+03  0.12509122542E+03 0.  0.
          5    1    3    3  502    0 -0.47766057703E+02  0.29567367380E+02 -0.31711216178E+03  0.32207673159E+03  0.41800000000E+01 0. -1.
         -5    1    3    3    0  502  0.44047391111E+02  0.12298850773E+02 -0.49302401935E+02  0.67376803357E+02  0.41800000000E+01 0. -1.
        -11    1    1    2    0    0 -0.22153974566E+02 -0.25102447947E+02 -0.14500373963E+03  0.14881873534E+03  0.00000000000E+00 0.  1.
         11    1    1    2    0    0  0.25872641158E+02 -0.16763770207E+02 -0.11063090008E+03  0.11484604305E+03  0.00000000000E+00 0. -1.
</event>
<event>
 7    1  0.2844572E-009  0.1858783E+03  0.7561462E-02  0.1162232E+00
          2   -1    0    0  501    0  0.00000000000E+00  0.00000000000E+00  0.28046929329E+03  0.28046929329E+03  0.00000000000E+00 0.  1.
         -2   -1    0    0    0  501 -0.00000000000E+00 -0.00000000000E+00 -0.12963170504E+03  0.12963170504E+03  0.00000000000E+00 0. -1.
         25    2    1    2    0    0 -0.29365271112E+02 -0.15309520730E+03  0.64965636404E+02  0.21016176420E+03  0.12508785543E+03 0.  0.
          5    1    3    3  502    0 -0.10659051284E+02  0.17163574820E+02 -0.10258048884E+02  0.23041346354E+02  0.41800000000E+01 0.  1.
         -5    1    3    3    0  502 -0.18706219828E+02 -0.17025878212E+03  0.75223685288E+02  0.18712041785E+03  0.41800000000E+01 0.  1.
        -11    1    1    2    0    0  0.41795221460E+02  0.20388737710E+02  0.14305010597E+02  0.48653617445E+02  0.00000000000E+00 0.  1.
         11    1    1    2    0    0 -0.12429950348E+02  0.13270646959E+03  0.71566941245E+02  0.15128561668E+03  0.00000000000E+00 0. -1.
</event>
<event>
 7    1  0.2844572E-009  0.1531690E+03  0.7561462E-02  0.1196632E+00
          2   -1    0    0  501    0  0.00000000000E+00  0.00000000000E+00  0.10733932425E+04  0.10733932425E+04  0.00000000000E+00 0.  1.
         -2   -1    0    0    0  501 -0.00000000000E+00 -0.00000000000E+00 -0.23466720568E+02  0.23466720568E+02  0.00000000000E+00 0. -1.
         25    2    1    2    0    0  0.92819662087E+02 -0.57367095774E+02  0.42908867693E+03  0.46008091079E+03  0.12510347098E+03 0.  0.
          5    1    3    3  502    0  0.58844123135E+02 -0.96864609768E+02  0.28009731984E+03  0.30218763117E+03  0.41800000000E+01 0. -1.
         -5    1    3    3    0  502  0.33975538952E+02  0.39497513993E+02  0.14899135709E+03  0.15789327961E+03  0.41800000000E+01 0. -1.
        -11    1    1    2    0    0 -0.85616670040E+02  0.28485849807E+01  0.34156837223E+03  0.35214667616E+03  0.00000000000E+00 0. -1.
         11    1    1    2    0    0 -0.72029920471E+01  0.54518510793E+02  0.27926947278E+03  0.28463237613E+03  0.00000000000E+00 0.  1.
</event>
<event>
 7    1  0.2844572E-009  0.9351061E+02  0.7561462E-02  0.1294566E+00
         -1   -1    0    0    0  501 -0.00000000000E+00  0.00000000000E+00  0.55098076479E+03  0.55098076479E+03  0.00000000000E+00 0.  1.
          1   -1    0    0  501    0  0.00000000000E+00 -0.00000000000E+00 -0.17221764329E+02  0.17221764329E+02  0.00000000000E+00 0. -1.
         25    2    1    2    0    0 -0.17558392194E+02  0.11825621721E+02  0.29146426972E+03  0.31787936207E+03  0.12509087035E+03 0.  0.
          5    1    3    3  502    0  0.39179211946E+02 -0.35277518734E+02  0.11477055067E+03  0.12636955993E+03  0.41800000000E+01 0. -1.
         -5    1    3    3    0  502 -0.56737604140E+02  0.47103140455E+02  0.17669371905E+03  0.19150980214E+03  0.41800000000E+01 0. -1.
        -11    1    1    2    0    0 -0.20746072019E+02 -0.29456736271E+01  0.12139087994E+03  0.12318612840E+03  0.00000000000E+00 0.  1.
         11    1    1    2    0    0  0.38304464213E+02 -0.88799480938E+01  0.12090385079E+03  0.12713703864E+03  0.00000000000E+00 0. -1.
</event>
<event>
 7    1  0.2844572E-009  0.9508925E+02  0.7561462E-02  0.1290975E+00
          1   -1    0    0  501    0  0.00000000000E+00  0.00000000000E+00  0.40725998735E+02  0.40725998735E+02  0.00000000000E+00 0. -1.
         -1   -1    0    0    0  501 -0.00000000000E+00 -0.00000000000E+00 -0.30658231936E+03  0.30658231936E+03  0.00000000000E+00 0.  1.
         25    2    1    2    0    0 -0.43981917990E+01 -0.21960929898E+02 -0.17815984405E+03  0.21880574484E+03  0.12503358513E+03 0.  0.
          5    1    3    3  502    0  0.43137665943E+02 -0.44610183775E+02 -0.14133465056E+03  0.15441464493E+03  0.41800000000E+01 0. -1.
         -5    1    3    3    0  502 -0.47535857742E+02  0.22649253876E+02 -0.36825193485E+02  0.64391099910E+02  0.41800000000E+01 0. -1.
        -11    1    1    2    0    0 -0.89599164751E+01  0.46427845392E+02 -0.13396767458E+02  0.49145684544E+02  0.00000000000E+00 0. -1.
         11    1    1    2    0    0  0.13358108274E+02 -0.24466915494E+02 -0.74299709116E+02  0.79356888706E+02  0.00000000000E+00 0.  1.
</event>
<event>
 7    1  0.2844572E-009  0.1387761E+03  0.7561462E-02  0.1214985E+00
         -2   -1    0    0    0  501 -0.00000000000E+00  0.00000000000E+00  0.20015219611E+03  0.20015219611E+03  0.00000000000E+00 0.  1.
          2   -1    0    0  501    0  0.00000000000E+00 -0.00000000000E+00 -0.10739127683E+03  0.10739127683E+03  0.00000000000E+00 0. -1.
         25    2    1    2    0    0  0.40595697270E+02  0.86967166743E+02  0.24157325886E+02  0.15950736168E+03  0.12509086020E+03 0.  0.
          5    1    3    3  502    0  0.53206978590E+01 -0.26565674556E+02  0.29700390607E+02  0.40418195068E+02  0.41800000000E+01 0. -1.
         -5    1    3    3    0  502  0.35274999410E+02  0.11353284130E+03 -0.55430647211E+01  0.11908916661E+03  0.41800000000E+01 0. -1.
        -11    1    1    2    0    0 -0.69169982656E+02 -0.55587774598E+02  0.46041699929E+02  0.99971622562E+02  0.00000000000E+00 0.  1.
         11    1    1    2    0    0  0.28574285387E+02 -0.31379392146E+02  0.22561893463E+02  0.48064488694E+02  0.00000000000E+00 0. -1.
</event>
<event>
 7    1  0.2844572E-009  0.1310434E+03  0.7561462E-02  0.1225916E+00
         -1   -1    0    0    0  501 -0.00000000000E+00  0.00000000000E+00  0.58929414879E+03  0.58929414879E+03  0.00000000000E+00 0.  1.
          1   -1    0    0  501    0  0.00000000000E+00 -0.00000000000E+00 -0.37531599562E+02  0.37531599562E+02  0.00000000000E+00 0. -1.
         25    2    1    2    0    0 -0.16030032868E+01 -0.99887086878E+02  0.33385896148E+03  0.37025052795E+03  0.12507456792E+03 0.  0.
          5    1    3    3  502    0 -0.36999740715E+02  0.75312524863E+01  0.39126287461E+02  0.54534753575E+02  0.41800000000E+01 0. -1.
         -5    1    3    3    0  502  0.35396737428E+02 -0.10741833936E+03  0.29473267402E+03  0.31571577437E+03  0.41800000000E+01 0. -1.
        -11    1    1    2    0    0 -0.20017965965E+02  0.20543449113E+02  0.14131866995E+03  0.14420027302E+03  0.00000000000E+00 0.  1.
         11    1    1    2    0    0  0.21620969251E+02  0.79343637765E+02  0.76584917791E+02  0.11237494738E+03  0.00000000000E+00 0. -1.
</event>
<event>
 7    1  0.2844572E-009  0.1029762E+03  0.7561462E-02  0.1274159E+00
         -2   -1    0    0    0  501 -0.00000000000E+00  0.00000000000E+00  0.17226379908E+03  0.17226379908E+03  0.00000000000E+00 0.  1.
          2   -1    0    0  501    0  0.00000000000E+00 -0.00000000000E+00 -0.87148967253E+02  0.87148967253E+02  0.00000000000E+00 0. -1.
         25    2    1    2    0    0  0.36675467747E+02 -0.22938453347E+02  0.70073571938E+01  0.13254543319E+03  0.12509167129E+03 0.  0.
          5    1    3    3  502    0  0.43691981136E+02 -0.68420615333E+02 -0.12762365546E+02  0.82284386079E+02  0.41800000000E+01 0.  1.
         -5    1    3    3    0  502 -0.70165133892E+01  0.45482161986E+02  0.19769722740E+02  0.50261047107E+02  0.41800000000E+01 0.  1.
        -11    1    1    2    0    0 -0.55561307269E+02  0.12790359757E+02  0.86702614770E+02  0.10376895285E+03  0.00000000000E+00 0.  1.
         11    1    1    2    0    0  0.18885839523E+02  0.10148093590E+02 -0.85951401407E+01  0.23098380290E+02  0.00000000000E+00 0. -1.
</event>
<event>
 7    1  0.2844572E-009  0.8646780E+02  0.7561462E-02  0.1311638E+00
          1   -1    0    0  501    0  0.00000000000E+00  0.00000000000E+00  0.24306099526E+02  0.24306099526E+02  0.00000000000E+00 0. -1.
         -1   -1    0    0    0  501 -0.00000000000E+00 -0.00000000000E+00 -0.52277600793E+03  0.52277600793E+03  0.00000000000E+00 0.  1.
         25    2    1    2    0    0 -0.47663367727E+01 -0.18404732278E+02 -0.35637580335E+03  0.37816995812E+03  0.12508937554E+03 0.  0.
          5    1    3    3  502    0  0.88718900343E+01  0.42978914312E+02 -0.25515032938E+03  0.25893060942E+03  0.41800000000E+01 0. -1.
         -5    1    3    3    0  502 -0.13638226807E+02 -0.61383646589E+02 -0.10122547397E+03  0.11923934871E+03  0.41800000000E+01 0. -1.
        -11    1    1    2    0    0 -0.25338997171E+02  0.24353992302E+02 -0.13201298247E+03  0.13661116082E+03  0.00000000000E+00 0.  1.
         11    1    1    2    0    0  0.30105333944E+02 -0.59492600240E+01 -0.10081122575E+02  0.32300988515E+02  0.00000000000E+00 0. -1.
</event>
<event>
 7    1  0.2844572E-009  0.1248345E+03  0.7561462E-02  0.1235328E+00
         -2   -1    0    0    0  501 -0.00000000000E+00  0.00000000000E+00  0.14180181854E+03  0.14180181854E+03  0.00000000000E+00 0.  1.
          2   -1    0    0  501    0  0.00000000000E+00 -0.00000000000E+00 -0.16554938927E+03  0.16554938927E+03  0.00000000000E+00 0. -1.
         25    2    1    2    0    0  0.82620736981E+02  0.71660947584E+02 -0.22747736040E+02  0.16770904760E+03  0.12508951820E+03 0.  0.
          5    1    3    3  502    0  0.29448921646E+02  0.36686991799E+02 -0.72701000612E+02  0.86695341532E+02  0.41800000000E+01 0. -1.
         -5    1    3    3    0  502  0.53171815335E+02  0.34973955785E+02  0.49953264572E+02  0.81013706067E+02  0.41800000000E+01 0. -1.
        -11    1    1    2    0    0  0.70779490107E+01 -0.44326537906E+02 -0.80586941369E+01  0.45605721967E+02  0.00000000000E+00 0.  1.
         11    1    1    2    0    0 -0.89698685992E+02 -0.27334409677E+02  0.70588594417E+01  0.94036438245E+02  0.00000000000E+00 0. -1.
</event>
<event>
 7    1  0.2844572E-009  0.8453545E+02  0.7561462E-02  0.1316652E+00
          2   -1    0    0  501    0  0.00000000000E+00  0.00000000000E+00  0.22216491259E+03  0.22216491259E+03  0.00000000000E+00 0. -1.
         -2   -1    0    0    0  501 -0.00000000000E+00 -0.00000000000E+00 -0.77945040654E+02  0.77945040654E+02  0.00000000000E+00 0.  1.
         25    2    1    2    0    0 -0.49559669124E+02  0.25167179099E+02  0.24559466836E+02  0.13906907348E+03  0.12508993596E+03 0.  0.
          5    1    3    3  502    0  0.15523969880E+02  0.26137796827E+02 -0.37897289185E+02  0.48763254520E+02  0.41800000000E+01 0. -1.
         -5    1    3    3    0  502 -0.65083639003E+02 -0.97061772748E+00  0.62456756021E+02  0.90305818956E+02  0.41800000000E+01 0. -1.
        -11    1    1    2    0    0  0.20424986613E+02 -0.36558436173E+02  0.49821742526E+01  0.42172519415E+02  0.00000000000E+00 0.  1.
         11    1    1    2    0    0  0.29134682511E+02  0.11391257074E+02  0.11467823085E+03  0.11886836036E+03  0.00000000000E+00 0. -1.
</event>
<event>
 7    1  0.2844572E-009  0.1155938E+03  0.7561462E-02  0.1250548E+00
          2   -1    0    0  501    0  0.00000000000E+00  0.00000000000E+00  0.16650336865E+03  0.16650336865E+03  0.00000000000E+00 0.  1.
         -2   -1    0    0    0  501 -0.00000000000E+00 -0.00000000000E+00 -0.16353723134E+03  0.16353723134E+03  0.00000000000E+00 0. -1.
         25    2    1    2    0    0  0.11399876502E+03  0.78312696848E+01 -0.48027319536E+02  0.17609836082E+03  0.12508781735E+03 0.  0.
          5    1    3    3  502    0  0.22784162278E+02 -0.13535353946E+01 -0.76555921786E+02  0.79995197789E+02  0.41800000000E+01 0. -1.
         -5    1    3    3    0  502  0.91214602742E+02  0.91848050794E+01  0.28528602251E+02  0.96103163029E+02  0.41800000000E+01 0. -1.
        -11    1    1    2    0    0 -0.25273667317E+02  0.70723151423E+01 -0.24946307298E+02  0.36209034079E+02  0.00000000000E+00 0. -1.
         11    1    1    2    0    0 -0.88725097703E+02 -0.14903584827E+02  0.75939764150E+02  0.11773320510E+03  0.00000000000E+00 0.  1.
</event>
<event>
 7    1  0.2844572E-009  0.8218706E+02  0.7561462E-02  0.1322957E+00
          2   -1    0    0  501    0  0.00000000000E+00  0.00000000000E+00  0.14225181217E+04  0.14225181217E+04  0.00000000000E+00 0. -1.
         -2   -1    0    0    0  501 -0.00000000000E+00 -0.00000000000E+00 -0.95486462456E+01  0.95486462456E+01  0.00000000000E+00 0.  1.
         25    2    1    2    0    0  0.25729420437E+02 -0.25297772479E+02  0.96258671604E+03  0.97134436114E+03  0.12503880058E+03 0.  0.
          5    1    3    3  502    0 -0.15138741648E+02 -0.21087157087E+02  0.86474333725E+03  0.86514297166E+03  0.41800000000E+01 0. -1.
         -5    1    3    3    0  502  0.40868162085E+02 -0.42106153913E+01  0.97843378787E+02  0.10620138948E+03  0.41800000000E+01 0. -1.
        -11    1    1    2    0    0 -0.28741350048E+01  0.57347900207E+02  0.28398276116E+03  0.28972961697E+03  0.00000000000E+00 0.  1.
         11    1    1    2    0    0 -0.22855285433E+02 -0.32050127729E+02  0.16639999829E+03  0.17099278988E+03  0.00000000000E+00 0. -1.
</event>
<event>
 7    1  0.2844572E-009  0.1131238E+03  0.7561462E-02  0.1254892E+00
          1   -1    0    0  501    0  0.00000000000E+00  0.00000000000E+00  0.43027354449E+03  0.43027354449E+03  0.00000000000E+00 0. -1.
         -1   -1    0    0    0  501 -0.00000000000E+00 -0.00000000000E+00 -0.55879442536E+02  0.55879442536E+02  0.00000000000E+00 0.  1.
         25    2    1    2    0    0 -0.31410789874E+02 -0.98975821178E+02  0.14268880909E+03  0.21631009429E+03  0.12508840775E+03 0.  0.
          5    1    3    3  502    0 -0.11488535345E+02 -0.10027785555E+03  0.35313796087E+02  0.10701481838E+03  0.41800000000E+01 0.  1.
         -5    1    3    3    0  502 -0.19922254529E+02  0.13020343767E+01  0.10737501300E+03  0.10929527591E+03  0.41800000000E+01 0.  1.
        -11    1    1    2    0    0 -0.57761402082E+00  0.14321399951E+02 -0.59663846877E+01  0.15525265883E+02  0.00000000000E+00 0.  1.
         11    1    1    2    0    0  0.31988403895E+02  0.84654421228E+02  0.23767167756E+03  0.25431762686E+03  0.00000000000E+00 0. -1.
</event>
<event>
 6    1  0.3001428E-009  0.2101322E+03  0.7561462E-02  0.1141461E+00
         -1   -1    0    0    0  501 -0.00000000000E+00  0.00000000000E+00  0.63791892351E+02  0.63791892351E+02  0.00000000000E+00 0.  1.
          1   -1    0    0  501    0  0.00000000000E+00 -0.00000000000E+00 -0.84835259802E+03  0.84835259802E+03  0.00000000000E+00 0. -1.
          5    1    1    2  502    0  0.24114121776E+02  0.83381255225E+02 -0.91425668062E+02  0.12613504577E+03  0.41800000000E+01 0. -1.
         -5    1    1    2    0  502 -0.43582022436E+02  0.11546450656E+03 -0.40571488332E+03  0.42409136268E+03  0.41800000000E+01 0. -1.
        -11    1    1    2    0    0 -0.93146165327E+01 -0.16577793829E+03 -0.17491326002E+03  0.24117158920E+03  0.00000000000E+00 0.  1.
         11    1    1    2    0    0  0.28782517193E+02 -0.33067823492E+02 -0.11250689427E+03  0.12074649272E+03  0.00000000000E+00 0. -1.
</event>
<event>
 7    1  0.2844572E-009  0.1118350E+03  0.7561462E-02  0.1257209E+00
         -3   -1    0    0    0  501 -0.00000000000E+00  0.00000000000E+00  0.11041936580E+03  0.11041936580E+03  0.00000000000E+00 0.  1.
          3   -1    0    0  501    0  0.00000000000E+00 -0.00000000000E+00 -0.19690529975E+03  0.19690529975E+03  0.00000000000E+00 0. -1.
         25    2    1    2    0    0  0.61986675391E+02 -0.61482557328E+02 -0.99502888939E+02  0.18212962326E+03  0.12509165432E+03 0.  0.
          5    1    3    3  502    0 -0.76236935427E+01 -0.62381965284E+02 -0.29903517045E+01  0.63055887110E+02  0.41800000000E+01 0. -1.
         -5    1    3    3    0  502  0.69610368934E+02  0.89940795601E+00 -0.96512537235E+02  0.11907373615E+03  0.41800000000E+01 0. -1.
        -11    1    1    2    0    0 -0.49042815201E+02  0.31503904622E+02  0.49328331724E+02  0.76360841011E+02  0.00000000000E+00 0.  1.
         11    1    1    2    0    0 -0.12943860190E+02  0.29978652706E+02 -0.36311376734E+02  0.48834201283E+02  0.00000000000E+00 0. -1.
</event>
<event>
 7    1  0.2844572E-009  0.1155532E+03  0.7561462E-02  0.1250619E+00
          2   -1    0    0  501    0  0.00000000000E+00  0.00000000000E+00  0.16231521502E+03  0.16231521502E+03  0.00000000000E+00 0.  1.
         -2   -1    0    0    0  501 -0.00000000000E+00 -0.00000000000E+00 -0.19832280002E+03  0.19832280002E+03  0.00000000000E+00 0. -1.
         25    2    1    2    0    0 -0.77546430641E+02  0.67679780171E+02 -0.12481904433E+03  0.20450158133E+03  0.12508837432E+03 0.  0.
          5    1    3    3  502    0 -0.20366659256E+02  0.20954308190E+02  0.24178471530E+02  0.38156974808E+02  0.41800000000E+01 0.  1.
         -5    1    3    3    0  502 -0.57179771384E+02  0.46725471981E+02 -0.14899751586E+03  0.16634460652E+03  0.41800000000E+01 0.  1.
        -11    1    1    2    0    0  0.85410810276E+02 -0.32189672886E+02  0.71103334010E+02  0.11570162341E+03  0.00000000000E+00 0. -1.
         11    1    1    2    0    0 -0.78643796356E+01 -0.35490107285E+02  0.17708125317E+02  0.40434810305E+02  0.00000000000E+00 0.  1.
</event>
<event>
 7    1  0.2844572E-009  0.1170109E+03  0.7561462E-02  0.1248111E+00
         -2   -1    0    0    0  501 -0.00000000000E+00  0.00000000000E+00  0.49585989189E+02  0.49585989189E+02  0.00000000000E+00 0.  1.
          2   -1    0    0  501    0  0.00000000000E+00 -0.00000000000E+00 -0.37464386210E+03  0.37464386210E+03  0.00000000000E+00 0. -1.
         25    2    1    2    0    0 -0.57466681822E+02  0.54774695594E+02 -0.14207530650E+03  0.20526065367E+03  0.12507540298E+03 0.  0.
          5    1    3    3  502    0  0.36325625499E+01  0.54558631484E+02 -0.49270584592E+01  0.55059859109E+02  0.41800000000E+01 0.  1.
         -5    1    3    3    0  502 -0.61099244372E+02  0.21606411036E+00 -0.13714824804E+03  0.15020079456E+03  0.41800000000E+01 0.  1.
        -11    1    1    2    0    0 -0.23387451508E+02 -0.15453107497E+02 -0.63721430526E+02  0.69614597087E+02  0.00000000000E+00 0. -1.
         11    1    1    2    0    0  0.80854133330E+02 -0.39321588097E+02 -0.11926113589E+03  0.14935460054E+03  0.00000000000E+00 0.  1.
</event>
<event>
 7    1  0.2844572E-009  0.8078074E+02  0.7561462E-02  0.1326850E+00
         -2   -1    0    0    0  501 -0.00000000000E+00  0.00000000000E+00  0.28255182062E+02  0.28255182062E+02  0.00000000000E+00 0.  1.
          2   -1    0    0  501    0  0.00000000000E+00 -0.00000000000E+00 -0.54777951298E+03  0.54777951298E+03  0.00000000000E+00 0. -1.
         25    2    1    2    0    0  0.59138338068E+02 -0.59057616506E+01 -0.27269861824E+03  0.30584585236E+03  0.12507968646E+03 0.  0.
          5    1    3    3  502    0  0.19228350204E+02 -0.23870127476E+02 -0.25746322577E+03  0.25931505445E+03  0.41800000000E+01 0.  1.
         -5    1    3    3    0  502  0.39909987864E+02  0.17964365826E+02 -0.15235392468E+02  0.46530797914E+02  0.41800000000E+01 0.  1.
        -11    1    1    2    0    0  0.51814444795E+01  0.20130362680E+02 -0.77182083704E+01  0.22173173182E+02  0.00000000000E+00 0.  1.
         11    1    1    2    0    0 -0.64319782547E+02 -0.14224601030E+02 -0.23910750431E+03  0.24801566950E+03  0.00000000000E+00 0. -1.
</event>
<event>
 7    1  0.2844572E-009  0.9317131E+02  0.7561462E-02  0.1295349E+00
          1   -1    0    0  501    0  0.00000000000E+00  0.00000000000E+00  0.62582837449E+02  0.62582837449E+02  0.00000000000E+00 0. -1.
         -1   -1    0    0    0  501 -0.00000000000E+00 -0.00000000000E+00 -0.23867288190E+03  0.23867288190E+03  0.00000000000E+00 0.  1.
         25    2    1    2    0    0 -0.24940344578E+02 -0.15589929347E+02 -0.15975063053E+03  0.20503285555E+03  0.12511251423E+03 0.  0.
          5    1    3    3  502    0  0.44273015445E+02  0.23398802394E+01 -0.10756023610E+03  0.11641413886E+03  0.41800000000E+01 0. -1.
         -5    1    3    3    0  502 -0.69213360023E+02 -0.17929809587E+02 -0.52190394426E+02  0.88618716690E+02  0.41800000000E+01 0. -1.
        -11    1    1    2    0    0  0.41414707195E+02  0.27630439523E+02  0.20713486402E+02  0.53922793689E+02  0.00000000000E+00 0.  1.
         11    1    1    2    0    0 -0.16474362617E+02 -0.12040510176E+02 -0.37052900325E+02  0.42300070111E+02  0.00000000000E+00 0. -1.
</event>
<event>
 7    1  0.2844572E-009  0.7933376E+02  0.7561462E-02  0.1330953E+00
         -3   -1    0    0    0  501 -0.00000000000E+00  0.00000000000E+00  0.65587885574E+03  0.65587885574E+03  0.00000000000E+00 0.  1.
          3   -1    0    0  501    0  0.00000000000E+00 -0.00000000000E+00 -0.20043287423E+02  0.20043287423E+02  0.00000000000E+00 0. -1.
         25    2    1    2    0    0 -0.18998727106E+02  0.10021305560E+02  0.47736109322E+03  0.49394736517E+03  0.12509599532E+03 0.  0.
          5    1    3    3  502    0 -0.43604707700E+02 -0.11677073830E+02  0.44623442201E+03  0.44853133265E+03  0.41800000000E+01 0.  1.
         -5    1    3    3    0  502  0.24605980594E+02  0.21698379389E+02  0.31126671211E+02  0.45416032519E+02  0.41800000000E+01 0.  1.
        -11    1    1    2    0    0 -0.25854175446E+02  0.13978654305E+02  0.10114988985E+03  0.10533347701E+03  0.00000000000E+00 0.  1.
         11    1    1    2    0    0  0.44852902552E+02 -0.23999959865E+02  0.57324585252E+02  0.76641300975E+02  0.00000000000E+00 0. -1.
</event>
<event>
 7    1  0.2844572E-009  0.2335257E+03  0.7561462E-02  0.1124183E+00
         -2   -1    0    0    0  501 -0.00000000000E+00  0.00000000000E+00  0.57534149617E+03  0.57534149617E+03  0.00000000000E+00 0.  1.
          2   -1    0    0  501    0  0.00000000000E+00 -0.00000000000E+00 -0.11789352924E+03  0.11789352924E+03  0.00000000000E+00 0. -1.
         25    2    1    2    0    0  0.16885121470E+01 -0.20763615080E+03  0.84342645188E+02  0.25666437394E+03  0.12508915564E+03 0.  0.
          5    1    3    3  502    0  0.19128998947E+02  0.10044789353E+02  0.17889261857E+02  0.28360438707E+02  0.41800000000E+01 0. -1.
         -5    1    3    3    0  502 -0.17440486800E+02 -0.21768094015E+03  0.66453383331E+02  0.22830393523E+03  0.41800000000E+01 0. -1.
        -11    1    1    2    0    0 -0.44072497370E+02  0.14032018191E+03  0.24687381352E+03  0.28736530458E+03  0.00000000000E+00 0.  1.
         11    1    1    2    0    0  0.42383985223E+02  0.67315968891E+02  0.12623150822E+03  0.14920534688E+03  0.00000000000E+00 0. -1.
</event>
<event>
 7    1  0.2844572E-009  0.1310690E+03  0.7561462E-02  0.1225878E+00
         -1   -1    0    0    0  501 -0.00000000000E+00  0.00000000000E+00  0.27360582894E+02  0.27360582894E+02  0.00000000000E+00 0.  1.
          1   -1    0    0  501    0  0.00000000000E+00 -0.00000000000E+00 -0.69729205643E+03  0.69729205643E+03  0.00000000000E+00 0. -1.
         25    2    1    2    0    0 -0.13911701829E+02 -0.83390077341E+02 -0.37597167594E+03  0.40515493757E+03  0.12509349257E+03 0.  0.
          5    1    3    3  502    0  0.43416738088E+02 -0.77701340866E+02 -0.27189798540E+03  0.28612671735E+03  0.41800000000E+01 0.  1.
         -5    1    3    3    0  502 -0.57328439917E+02 -0.56887364752E+01 -0.10407369054E+03  0.11902822022E+03  0.41800000000E+01 0.  1.
        -11    1    1    2    0    0  0.21711861094E+02 -0.83032700364E+01 -0.12461252755E+03  0.12676210486E+03  0.00000000000E+00 0. -1.
         11    1    1    2    0    0 -0.78001592655E+01  0.91693347378E+02 -0.16934727005E+03  0.19273559690E+03  0.00000000000E+00 0.  1.
</event>
<event>
 7    1  0.2844572E-009  0.1575819E+03  0.7561462E-02  0.1191454E+00
         -2   -1    0    0    0  501 -0.00000000000E+00  0.00000000000E+00  0.16909744556E+03  0.16909744556E+03  0.00000000000E+00 0.  1.
          2   -1    0    0  501    0  0.00000000000E+00 -0.00000000000E+00 -0.17150242425E+03  0.17150242425E+03  0.00000000000E+00 0. -1.
         25    2    1    2    0    0 -0.11271077139E+03  0.60790177289E+02  0.21223090960E+02  0.18026853678E+03  0.12508861707E+03 0.  0.
          5    1    3    3  502    0 -0.70128629670E+02 -0.22379005949E+02 -0.22409688931E+02  0.77061736060E+02  0.41800000000E+01 0.  1.
         -5    1    3    3    0  502 -0.42582141719E+02  0.83169183238E+02  0.43632779891E+02  0.10320680072E+03  0.41800000000E+01 0.  1.
        -11    1    1    2    0    0 -0.70321307052E+01 -0.20325235825E+02 -0.26216217612E+02  0.33909528741E+02  0.00000000000E+00 0. -1.
         11    1    1    2    0    0  0.11974290209E+03 -0.40464941465E+02  0.25881479681E+01  0.12642180429E+03  0.00000000000E+00 0.  1.
</event>
<event>
 7    1  0.2844572E-009  0.1835794E+03  0.7561462E-02  0.1164383E+00
         -2   -1    0    0    0  501 -0.00000000000E+00  0.00000000000E+00  0.25130588879E+03  0.25130588879E+03  0.00000000000E+00 0.  1.
          2   -1    0    0  501    0  0.00000000000E+00 -0.00000000000E+00 -0.16672239486E+03  0.16672239486E+03  0.00000000000E+00 0. -1.
         25    2    1    2    0    0  0.12957079153E+03 -0.84060088462E+02 -0.35328264264E+02  0.20186729140E+03  0.12509048162E+03 0.  0.
          5    1    3    3  502    0  0.79697399628E+02  0.18196793534E+02  0.25177160217E+01  0.81893895354E+02  0.41800000000E+01 0.  1.
         -5    1    3    3    0  502  0.49873391905E+02 -0.10225688200E+03 -0.37845980286E+02  0.11997339605E+03  0.41800000000E+01 0.  1.
        -11    1    1    2    0    0 -0.74945038341E-01 -0.10883367287E+02  0.30477295176E+02  0.32362305565E+02  0.00000000000E+00 0.  1.
         11    1    1    2    0    0 -0.12949584649E+03  0.94943455749E+02  0.89434463026E+02  0.18379868668E+03  0.00000000000E+00 0. -1.
</event>
<event>
 7    1  0.2844572E-009  0.1705676E+03  0.7561462E-02  0.1177257E+00
          1   -1    0    0  501    0  0.00000000000E+00  0.00000000000E+00  0.50766780890E+03  0.50766780890E+03  0.00000000000E+00 0. -1.
         -1   -1    0    0    0  501 -0.00000000000E+00 -0.00000000000E+00 -0.66082231510E+02  0.66082231510E+02  0.00000000000E+00 0.  1.
         25    2    1    2    0    0  0.13424813563E+03 -0.23317856352E+02  0.14255287076E+03  0.23352306683E+03  0.12508164307E+03 0.  0.
          5    1    3    3  502    0  0.12419768393E+03  0.31847122199E+02  0.10648425489E+03  0.16672034316E+03  0.41800000000E+01 0.  1.
         -5    1    3    3    0  502  0.10050451702E+02 -0.55164978551E+02  0.36068615871E+02  0.66802723663E+02  0.41800000000E+01 0.  1.
        -11    1    1    2    0    0 -0.74651345043E+02 -0.26223682739E+02  0.19547278685E+03  0.21087938556E+03  0.00000000000E+00 0. -1.
         11    1    1    2    0    0 -0.59596790589E+02  0.49541539090E+02  0.10355991979E+03  0.12934758803E+03  0.00000000000E+00 0.  1.
</event>
<event>
 7    1  0.2844572E-009  0.9802736E+02  0.7561462E-02  0.1284500E+00
         -2   -1    0    0    0  501 -0.00000000000E+00  0.00000000000E+00  0.36958107476E+03  0.36958107476E+03  0.00000000000E+00 0.  1.
          2   -1    0    0  501    0  0.00000000000E+00 -0.00000000000E+00 -0.42351618806E+02  0.42351618806E+02  0.00000000000E+00 0. -1.
         25    2    1    2    0    0 -0.46682465179E+02 -0.36558821757E+02  0.20991229141E+03  0.25145888075E+03  0.12511034578E+03 0.  0.
          5    1    3    3  502    0  0.11057580048E+02  0.32083939406E+02  0.15971182771E+02  0.37738578715E+02  0.41800000000E+01 0. -1.
         -5    1    3    3    0  502 -0.57740045227E+02 -0.68642761162E+02  0.19394110864E+03  0.21372030204E+03  0.41800000000E+01 0. -1.
        -11    1    1    2    0    0  0.30888590550E+02  0.44671985115E+02  0.14608183263E+02  0.56241357545E+02  0.00000000000E+00 0. -1.
         11    1    1    2    0    0  0.15793874629E+02 -0.81131633586E+01  0.10270898128E+03  0.10423245527E+03  0.00000000000E+00 0.  1.
</event>
<event>
 7    1  0.2844572E-009  0.1166109E+03  0.7561462E-02  0.1248795E+00
          1   -1    0    0  501    0  0.00000000000E+00  0.00000000000E+00  0.30236834724E+03  0.30236834724E+03  0.00000000000E+00 0. -1.
         -1   -1    0    0    0  501 -0.00000000000E+00 -0.00000000000E+00 -0.10525465608E+03  0.10525465608E+03  0.00000000000E+00 0.  1.
         25    2    1    2    0    0  0.24359862989E+02 -0.86738722448E+02  0.22902376420E+03  0.27607153251E+03  0.12508636056E+03 0.  0.
          5    1    3    3  502    0  0.12032351557E+02 -0.96537639271E+02  0.79619983038E+02  0.12578198352E+03  0.41800000000E+01 0. -1.
         -5    1    3    3    0  502  0.12327511431E+02  0.97989168233E+01  0.14940378116E+03  0.15028954899E+03  0.41800000000E+01 0. -1.
        -11    1    1    2    0    0 -0.86993473816E+01 -0.14609526235E+02 -0.23015780557E+02  0.28615433883E+02  0.00000000000E+00 0.  1.
         11    1    1    2    0    0 -0.15660515607E+02  0.10134824868E+03 -0.88942924829E+01  0.10293603693E+03  0.00000000000E+00 0. -1.
</event>
<event>
 7    1  0.2844572E-009  0.1111653E+03  0.7561462E-02  0.1258427E+00
         -1   -1    0    0    0  501 -0.00000000000E+00  0.00000000000E+00  0.86161848186E+02  0.86161848186E+02  0.00000000000E+00 0.  1.
          1   -1    0    0  501    0  0.00000000000E+00 -0.00000000000E+00 -0.30506804756E+03  0.30506804756E+03  0.00000000000E+00 0. -1.
         25    2    1    2    0    0 -0.65969188175E+02 -0.31163672130E+02 -0.23114996466E+01  0.14482948990E+03  0.12508848814E+03 0.  0.
          5    1    3    3  502    0  0.97960278081E+01 -0.44056026600E+02 -0.38787346614E+02  0.59655899105E+02  0.41800000000E+01 0. -1.
         -5    1    3    3    0  502 -0.75765215983E+02  0.12892354470E+02  0.36475846968E+02  0.85173590794E+02  0.41800000000E+01 0. -1.
        -11    1    1    2    0    0  0.75835262980E+02  0.97488319980E+01 -0.92141479632E+02  0.11973336672E+03  0.00000000000E+00 0.  1.
         11    1    1    2    0    0 -0.98660748054E+01  0.21414840132E+02 -0.12445322009E+03  0.12666703913E+03  0.00000000000E+00 0. -1.
</event>
<event>
 7    1  0.2844572E-009  0.2628189E+03  0.7561462E-02  0.1105461E+00
         -1   -1    0    0    0  501 -0.00000000000E+00  0.00000000000E+00  0.31146063632E+03  0.31146063632E+03  0.00000000000E+00 0. -1.
          1   -1    0    0  501    0  0.00000000000E+00 -0.00000000000E+00 -0.29276216719E+03  0.29276216719E+03  0.00000000000E+00 0.  1.
         25    2    1    2    0    0 -0.19898824021E+03  0.13666566823E+03  0.15405751963E+03  0.31249815255E+03  0.12509017298E+03 0.  0.
          5    1    3    3  502    0  0.49612022753E+01  0.41876489322E+02  0.47313158859E+02  0.63515834932E+02  0.41800000000E+01 0. -1.
         -5    1    3    3    0  502 -0.20394944248E+03  0.94789178906E+02  0.10674436078E+03  0.24898231761E+03  0.41800000000E+01 0. -1.
        -11    1    1    2    0    0  0.81657225792E+02 -0.11169950543E+03 -0.68482288206E+02  0.15438427975E+03  0.00000000000E+00 0. -1.
         11    1    1    2    0    0  0.11733101442E+03 -0.24966162803E+02 -0.66876762297E+02  0.13734037121E+03  0.00000000000E+00 0.  1.
</event>
<event>
 7    1  0.2844572E-009  0.1539499E+03  0.7561462E-02  0.1195702E+00
         -2   -1    0    0    0  501 -0.00000000000E+00  0.00000000000E+00  0.11366140012E+03  0.11366140012E+03  0.00000000000E+00 0.  1.
          2   -1    0    0  501    0  0.00000000000E+00 -0.00000000000E+00 -0.40468119306E+03  0.40468119306E+03  0.00000000000E+00 0. -1.
         25    2    1    2    0    0  0.25195521279E+01  0.14662908943E+03 -0.28609190338E+03  0.34496791111E+03  0.12509134465E+03 0.  0.
          5    1    3    3  502    0  0.25087886864E+02  0.85357653714E+02 -0.54742989244E+02  0.10454471955E+03  0.41800000000E+01 0.  1.
         -5    1    3    3    0  502 -0.22568334736E+02  0.61271435718E+02 -0.23134891413E+03  0.24042319156E+03  0.41800000000E+01 0.  1.
        -11    1    1    2    0    0 -0.23798587078E+02 -0.75906651027E+02  0.37775228387E+02  0.88063387947E+02  0.00000000000E+00 0.  1.
         11    1    1    2    0    0  0.21279034950E+02 -0.70722438405E+02 -0.42703117950E+02  0.85311294123E+02  0.00000000000E+00 0. -1.
</event>
<event>
 7    1  0.2844572E-009  0.1901391E+03  0.7561462E-02  0.1158336E+00
         -1   -1    0    0    0  501 -0.00000000000E+00  0.00000000000E+00  0.28254012931E+03  0.28254012931E+03  0.00000000000E+00 0.  1.
          1   -1    0    0  501    0  0.00000000000E+00 -0.00000000000E+00 -0.14819394125E+03  0.14819394125E+03  0.00000000000E+00 0. -1.
         25    2    1    2    0    0  0.57070820973E+02 -0.14878893036E+03  0.17879109852E+02  0.20337755735E+03  0.12509014293E+03 0.  0.
          5    1    3    3  502    0  0.76809782020E+02 -0.71089609438E+02  0.51046768820E+02  0.11651918379E+03  0.41800000000E+01 0.  1.
         -5    1    3    3    0  502 -0.19738961046E+02 -0.77699320925E+02 -0.33167658967E+02  0.86858373556E+02  0.41800000000E+01 0.  1.
        -11    1    1    2    0    0  0.21839239124E+02  0.10028259452E+03  0.61410405643E+02  0.11960262978E+03  0.00000000000E+00 0. -1.
         11    1    1    2    0    0 -0.78910060098E+02  0.48506335847E+02  0.55056672563E+02  0.10775388344E+03  0.00000000000E+00 0.  1.
</event>
<event>
 7    1  0.2844572E-009  0.8773791E+02  0.7561462E-02  0.1308424E+00
         -2   -1    0    0    0  501 -0.00000000000E+00  0.00000000000E+00  0.33670957734E+03  0.33670957734E+03  0.00000000000E+00 0.  1.
          2   -1    0    0  501    0  0.00000000000E+00 -0.00000000000E+00 -0.50426370689E+02  0.50426370689E+02  0.00000000000E+00 0. -1.
         25    2    1    2    0    0  0.62569839737E+02 -0.11265597277E+02  0.10919322200E+03  0.17779949474E+03  0.12509037562E+03 0.  0.
          5    1    3    3  502    0 -0.42585503014E+01  0.17835375983E+02 -0.21211176141E+02  0.28348232403E+02  0.41800000000E+01 0. -1.
         -5    1    3    3    0  502  0.66828390038E+02 -0.29100973260E+02  0.13040439814E+03  0.14945126234E+03  0.41800000000E+01 0. -1.
        -11    1    1    2    0    0 -0.62114308919E+02 -0.95452485649E+01  0.17772745045E+03  0.18851086384E+03  0.00000000000E+00 0.  1.
         11    1    1    2    0    0 -0.45553081769E+00  0.20810845842E+02 -0.63746580261E+00  0.20825589443E+02  0.00000000000E+00 0. -1.
</event>
<event>
 7    1  0.2844572E-009  0.9007759E+02  0.7561462E-02  0.1302664E+00
         -1   -1    0    0    0  501 -0.00000000000E+00  0.00000000000E+00  0.17630085556E+03  0.17630085556E+03  0.00000000000E+00 0.  1.
          1   -1    0    0  501    0  0.00000000000E+00 -0.00000000000E+00 -0.10342297764E+03  0.10342297764E+03  0.00000000000E+00 0. -1.
         25    2    1    2    0    0 -0.58836864594E+02  0.28289836547E+02  0.85592456894E+02  0.16503412297E+03  0.12509237220E+03 0.  0.
          5    1    3    3  502    0 -0.51876969808E+02  0.40736950854E+00 -0.19821347258E+02  0.55693304386E+02  0.41800000000E+01 0. -1.
         -5    1    3    3    0  502 -0.69598947861E+01  0.27882467039E+02  0.10541380415E+03  0.10934081859E+03  0.41800000000E+01 0. -1.
        -11    1    1    2    0    0  0.75865440231E+02 -0.30754425736E+02 -0.32847298836E+02  0.88206262616E+02  0.00000000000E+00 0. -1.
         11    1    1    2    0    0 -0.17028575637E+02  0.24645891890E+01  0.20132719861E+02  0.26483447606E+02  0.00000000000E+00 0.  1.
</event>
<event>
 7    1  0.2844572E-009  0.1525266E+03  0.7561462E-02  0.1197402E+00
         -2   -1    0    0    0  501 -0.00000000000E+00  0.00000000000E+00  0.18941954873E+02  0.18941954873E+02  0.00000000000E+00 0.  1.
          2   -1    0    0  501    0  0.00000000000E+00 -0.00000000000E+00 -0.16738410255E+04  0.16738410255E+04  0.00000000000E+00 0. -1.
         25    2    1    2    0    0  0.38256700773E+02 -0.12725552660E+03 -0.11035179253E+04  0.11185063994E+04  0.12508880782E+03 0.  0.
          5    1    3    3  502    0 -0.28845853259E+02 -0.89588586058E+02 -0.79262623935E+03  0.79820550343E+03  0.41800000000E+01 0. -1.
         -5    1    3    3    0  502  0.67102554032E+02 -0.37666940545E+02 -0.31089168599E+03  0.32030089601E+03  0.41800000000E+01 0. -1.
        -11    1    1    2    0    0 -0.22784027333E+01  0.29898237696E+02 -0.29107149124E+02  0.41789016098E+02  0.00000000000E+00 0.  1.
         11    1    1    2    0    0 -0.35978298040E+02  0.97357288908E+02 -0.52227399614E+03  0.53248756481E+03  0.00000000000E+00 0. -1.
</event>
<event>
 7    1  0.2844572E-009  0.1232505E+03  0.7561462E-02  0.1237829E+00
          4   -1    0    0  501    0  0.00000000000E+00  0.00000000000E+00  0.37174341318E+02  0.37174341318E+02  0.00000000000E+00 0. -1.
         -4   -1    0    0    0  501 -0.00000000000E+00 -0.00000000000E+00 -0.65968489002E+03  0.65968489002E+03  0.00000000000E+00 0.  1.
         25    2    1    2    0    0 -0.10173209757E+03  0.21194651169E+02 -0.23704273274E+03  0.28745766251E+03  0.12507604758E+03 0.  0.
          5    1    3    3  502    0 -0.36138322793E+02  0.29729663435E+02 -0.63215643116E+01  0.47405335539E+02  0.41800000000E+01 0.  1.
         -5    1    3    3    0  502 -0.65593774775E+02 -0.85350122656E+01 -0.23072116843E+03  0.24005232697E+03  0.41800000000E+01 0.  1.
        -11    1    1    2    0    0  0.84318247939E+02 -0.51129183349E+02 -0.32597293538E+03  0.34056147012E+03  0.00000000000E+00 0.  1.
         11    1    1    2    0    0  0.17413849628E+02  0.29934532180E+02 -0.59494880585E+02  0.68840098718E+02  0.00000000000E+00 0. -1.
</event>
<event>
 7    1  0.2844572E-009  0.8189554E+02  0.7561462E-02  0.1323757E+00
          2   -1    0    0  501    0  0.00000000000E+00  0.00000000000E+00  0.73927958598E+02  0.73927958598E+02  0.00000000000E+00 0. -1.
         -2   -1    0    0    0  501 -0.00000000000E+00 -0.00000000000E+00 -0.22732645992E+03  0.22732645992E+03  0.00000000000E+00 0.  1.
         25    2    1    2    0    0  0.42456121096E+02  0.40514297068E+02 -0.13054375003E+03  0.19008289862E+03  0.12508360082E+03 0.  0.
          5    1    3    3  502    0  0.23725324554E+02 -0.25192208349E+02  0.78102961817E+01  0.35721303352E+02  0.41800000000E+01 0.  1.
         -5    1    3    3    0  502  0.18730796542E+02  0.65706505417E+02 -0.13835404621E+03  0.15436159527E+03  0.41800000000E+01 0.  1.
        -11    1    1    2    0    0 -0.10725446755E+02 -0.20009649870E+02  0.35212093903E+02  0.41896453944E+02  0.00000000000E+00 0. -1.
         11    1    1    2    0    0 -0.31730674341E+02 -0.20504647198E+02 -0.58066845196E+02  0.69275065946E+02  0.00000000000E+00 0.  1.
</event>
<event>
 7    1  0.2844572E-009  0.1069841E+03  0.7561462E-02  0.1266259E+00
          2   -1    0    0  501    0  0.00000000000E+00  0.00000000000E+00  0.15983042847E+03  0.15983042847E+03  0.00000000000E+00 0. -1.
         -2   -1    0    0    0  501 -0.00000000000E+00 -0.00000000000E+00 -0.10511690250E+03  0.10511690250E+03  0.00000000000E+00 0.  1.
         25    2    1    2    0    0  0.37080290061E+02 -0.59051545229E+02  0.47030924868E+02  0.15074108671E+03  0.12509570105E+03 0.  0.
          5    1    3    3  502    0  0.54448593820E+02 -0.86123027809E+01 -0.25276161800E+02  0.60787974826E+02  0.41800000000E+01 0.  1.
         -5    1    3    3    0  502 -0.17368303759E+02 -0.50439242448E+02  0.72307086668E+02  0.89953111879E+02  0.41800000000E+01 0.  1.
        -11    1    1    2    0    0 -0.19998328271E+01  0.68749777187E+02 -0.16216514978E+02  0.70664747595E+02  0.00000000000E+00 0.  1.
         11    1    1    2    0    0 -0.35080457234E+02 -0.96982319579E+01  0.23899116085E+02  0.43541496672E+02  0.00000000000E+00 0. -1.
</event>
<event>
 7    1  0.3346160E-009  0.1026606E+03  0.7561462E-02  0.1274799E+00
         -2   -1    0    0    0  501 -0.00000000000E+00  0.00000000000E+00  0.33344941493E+02  0.33344941493E+02  0.00000000000E+00 0.  1.
          2   -1    0    0  501    0  0.00000000000E+00 -0.00000000000E+00 -0.45432522964E+03  0.45432522964E+03  0.00000000000E+00 0. -1.
         25    2    1    2    0    0 -0.66201963629E+01 -0.57370176915E+02 -0.23366910643E+03  0.27126271392E+03  0.12508814676E+03 0.  0.
          5    1    3    3  502    0 -0.62168681042E+02 -0.28306744740E+02 -0.16251969473E+03  0.17634154439E+03  0.41800000000E+01 0. -1.
         -5    1    3    3    0  502  0.55548484679E+02 -0.29063432174E+02 -0.71149411701E+02  0.94921169532E+02  0.41800000000E+01 0. -1.
        -11    1    1    2    0    0  0.25369933723E+02  0.20232125745E+02 -0.95250993710E+01  0.33818633433E+02  0.00000000000E+00 0.  1.
         11    1    1    2    0    0 -0.18749737360E+02  0.37138051169E+02 -0.17778608234E+03  0.18258882378E+03  0.00000000000E+00 0. -1.
</event>
<event>
 7    1  0.2844572E-009  0.1013419E+03  0.7561462E-02  0.1277499E+00
         -1   -1    0    0    0  501 -0.00000000000E+00  0.00000000000E+00  0.19072085147E+03  0.19072085147E+03  0.00000000000E+00 0.  1.
          1   -1    0    0  501    0  0.00000000000E+00 -0.00000000000E+00 -0.11302288031E+03  0.11302288031E+03  0.00000000000E+00 0. -1.
         25    2    1    2    0    0 -0.16025239958E+02 -0.77071658123E+02 -0.20419552495E+02  0.14920531575E+03  0.12509364222E+03 0.  0.
          5    1    3    3  502    0 -0.22572672133E+02 -0.79657941732E+02 -0.64083075042E+02  0.10478084803E+03  0.41800000000E+01 0.  1.
         -5    1    3    3    0  502  0.65474321748E+01  0.25862836084E+01  0.43663522547E+02  0.44424467720E+02  0.41800000000E+01 0.  1.
        -11    1    1    2    0    0 -0.24650297055E+02  0.22766972905E+00  0.48566053394E+02  0.54464213211E+02  0.00000000000E+00 0.  1.
         11    1    1    2    0    0  0.40675537013E+02  0.76843988394E+02  0.49551470265E+02  0.10007420282E+03  0.00000000000E+00 0. -1.
</event>
<event>
 7    1  0.2844572E-009  0.1235783E+03  0.7561462E-02  0.1237308E+00
         -2   -1    0    0    0  501 -0.00000000000E+00  0.00000000000E+00  0.43968199970E+02  0.43968199970E+02  0.00000000000E+00 0. -1.
          2   -1    0    0  501    0  0.00000000000E+00 -0.00000000000E+00 -0.37408548104E+03  0.37408548104E+03  0.00000000000E+00 0.  1.
         25    2    1    2    0    0  0.53495785514E+02  0.39827098636E+02 -0.15752615639E+03  0.21191879352E+03  0.12508832177E+03 0.  0.
          5    1    3    3  502    0 -0.37305406113E+02  0.33357952222E+02 -0.63820696358E+02  0.81209605253E+02  0.41800000000E+01 0. -1.
         -5    1    3    3    0  502  0.90801191627E+02  0.64691464135E+01 -0.93705460035E+02  0.13070918826E+03  0.41800000000E+01 0. -1.
        -11    1    1    2    0    0 -0.94634884658E+01  0.25403745934E+02 -0.80785400585E+02  0.85212609801E+02  0.00000000000E+00 0.  1.
         11    1    1    2    0    0 -0.44032297048E+02 -0.65230844569E+02 -0.91805724097E+02  0.12092227770E+03  0.00000000000E+00 0. -1.
</event>
<event>
 7    1  0.2844572E-009  0.1304426E+03  0.7561462E-02  0.1226800E+00
          2   -1    0    0  501    0  0.00000000000E+00  0.00000000000E+00  0.20101210691E+03  0.20101210691E+03  0.00000000000E+00 0. -1.
         -2   -1    0    0    0  501 -0.00000000000E+00 -0.00000000000E+00 -0.91338677034E+02  0.91338677034E+02  0.00000000000E+00 0.  1.
         25    2    1    2    0    0 -0.61362514237E+01  0.77566051234E+02  0.32090203403E+02  0.15077216223E+03  0.12509323668E+03 0.  0.
          5    1    3    3  502    0 -0.56828768222E+02  0.71517142904E+02  0.38368934972E+02  0.99165811637E+02  0.41800000000E+01 0.  1.
         -5    1    3    3    0  502  0.50692516798E+02  0.60489083302E+01 -0.62787315695E+01  0.51606350592E+02  0.41800000000E+01 0.  1.
        -11    1    1    2    0    0  0.19343733894E+02 -0.94661071738E+02  0.66569885720E+02  0.11733050851E+03  0.00000000000E+00 0.  1.
         11    1    1    2    0    0 -0.13207482471E+02  0.17095020504E+02  0.11013340753E+02  0.24248113201E+02  0.00000000000E+00 0. -1.
</event>
<event>
 7    1  0.2844572E-009  0.1396025E+03  0.7561462E-02  0.1213865E+00
         -1   -1    0    0    0  501 -0.00000000000E+00  0.00000000000E+00  0.66855587055E+02  0.66855587055E+02  0.00000000000E+00 0.  1.
          1   -1    0    0  501    0  0.00000000000E+00 -0.00000000000E+00 -0.44523801144E+03  0.44523801144E+03  0.00000000000E+00 0. -1.
         25    2    1    2    0    0  0.11448978729E+03 -0.27060200337E+02 -0.29797684990E+03  0.34391432116E+03  0.12508673547E+03 0.  0.
          5    1    3    3  502    0  0.90778550780E+02  0.27164618312E+02 -0.25073063124E+03  0.26807085558E+03  0.41800000000E+01 0.  1.
         -5    1    3    3    0  502  0.23711236507E+02 -0.54224818649E+02 -0.47246218662E+02  0.75843465585E+02  0.41800000000E+01 0.  1.
        -11    1    1    2    0    0 -0.68077429690E+02 -0.55508839009E+01  0.17712072619E+01  0.68326319384E+02  0.00000000000E+00 0.  1.
         11    1    1    2    0    0 -0.46412357597E+02  0.32611084238E+02 -0.82176781753E+02  0.99852957954E+02  0.00000000000E+00 0. -1.
</event>
<event>
 7    1  0.2844572E-009  0.2365485E+03  0.7561462E-02  0.1122114E+00
         -1   -1    0    0    0  501 -0.00000000000E+00  0.00000000000E+00  0.47116282704E+02  0.47116282704E+02  0.00000000000E+00 0.  1.
          1   -1    0    0  501    0  0.00000000000E+00 -0.00000000000E+00 -0.12141887426E+04  0.12141887426E+04  0.00000000000E+00 0. -1.
         25    2    1    2    0    0  0.14193523527E+03 -0.15656905769E+03 -0.54345843707E+03  0.59636524380E+03  0.12507977595E+03 0.  0.
          5    1    3    3  502    0  0.82851178558E+02 -0.16389991992E+03 -0.44201032005E+03  0.47866282180E+03  0.41800000000E+01 0.  1.
         -5    1    3    3    0  502  0.59084056715E+02  0.73308622284E+01 -0.10144811702E+03  0.11770242200E+03  0.41800000000E+01 0.  1.
        -11    1    1    2    0    0 -0.91907458630E+02  0.35160508393E+02 -0.29882763450E+03  0.31461277381E+03  0.00000000000E+00 0.  1.
         11    1    1    2    0    0 -0.50027776643E+02  0.12140854930E+03 -0.32478638831E+03  0.35032700768E+03  0.00000000000E+00 0. -1.
</event>
<event>
 7    1  0.2844572E-009  0.2434693E+03  0.7561462E-02  0.1117503E+00
         -1   -1    0    0    0  501 -0.00000000000E+00  0.00000000000E+00  0.71892889821E+02  0.71892889821E+02  0.00000000000E+00 0.  1.
          1   -1    0    0  501    0  0.00000000000E+00 -0.00000000000E+00 -0.10546039560E+04  0.10546039560E+04  0.00000000000E+00 0. -1.
         25    2    1    2    0    0  0.13185189498E+03  0.17916101953E+03 -0.25754844257E+03  0.36257738356E+03  0.12509023011E+03 0.  0.
          5    1    3    3  502    0  0.12825274995E+03  0.72676853785E+02 -0.13263357175E+03  0.19834270770E+03  0.41800000000E+01 0. -1.
         -5    1    3    3    0  502  0.35991450323E+01  0.10648416575E+03 -0.12491487083E+03  0.16423467586E+03  0.41800000000E+01 0. -1.
        -11    1    1    2    0    0 -0.16116901864E+02 -0.76353574644E+02 -0.33939124313E+03  0.34824709446E+03  0.00000000000E+00 0. -1.
         11    1    1    2    0    0 -0.11573499312E+03 -0.10280744489E+03 -0.38577138045E+03  0.41567236777E+03  0.00000000000E+00 0.  1.
</event>
<event>
 7    1  0.2844572E-009  0.1156009E+03  0.7561462E-02  0.1250536E+00
         -1   -1    0    0    0  501 -0.00000000000E+00  0.00000000000E+00  0.27297754665E+03  0.27297754665E+03  0.00000000000E+00 0.  1.
          1   -1    0    0  501    0  0.00000000000E+00 -0.00000000000E+00 -0.57878732945E+02  0.57878732945E+02  0.00000000000E+00 0. -1.
         25    2    1    2    0    0 -0.53239743580E+02  0.32358740914E+02  0.10269888220E+03  0.17342547595E+03  0.12509107439E+03 0.  0.
          5    1    3    3  502    0  0.19547318122E+02  0.52922375616E+02  0.17052885805E+02  0.59085944190E+02  0.41800000000E+01 0.  1.
         -5    1    3    3    0  502 -0.72787061702E+02 -0.20563634702E+02  0.85645996398E+02  0.11433953176E+03  0.41800000000E+01 0.  1.
        -11    1    1    2    0    0  0.52817126751E+02  0.12289820932E+02  0.95240103057E+02  0.10959637680E+03  0.00000000000E+00 0.  1.
         11    1    1    2    0    0  0.42261682979E+00 -0.44648561845E+02  0.17159828443E+02  0.47834426850E+02  0.00000000000E+00 0. -1.
</event>
<event>
 7    1  0.2844572E-009  0.1528819E+03  0.7561462E-02  0.1196976E+00
         -2   -1    0    0    0  501 -0.00000000000E+00  0.00000000000E+00  0.46119198331E+02  0.46119198331E+02  0.00000000000E+00 0.  1.
          2   -1    0    0  501    0  0.00000000000E+00 -0.00000000000E+00 -0.78973716944E+03  0.78973716944E+03  0.00000000000E+00 0. -1.
         25    2    1    2    0    0  0.10606021537E+03 -0.38956029938E+02 -0.62746471669E+03  0.64971297198E+03  0.12509449912E+03 0.  0.
          5    1    3    3  502    0 -0.17487133231E+02  0.19126145561E+02 -0.51856664200E+02  0.58122244405E+02  0.41800000000E+01 0. -1.
         -5    1    3    3    0  502  0.12354734860E+03 -0.58082175500E+02 -0.57560805249E+03  0.59159072757E+03  0.41800000000E+01 0. -1.
        -11    1    1    2    0    0 -0.85082047499E+02 -0.13765437933E+02 -0.86544755231E+02  0.12214105267E+03  0.00000000000E+00 0. -1.
         11    1    1    2    0    0 -0.20978167868E+02  0.52721467871E+02 -0.29608499182E+02  0.64002343125E+02  0.00000000000E+00 0.  1.
</event>
<event>
 7    1  0.2844572E-009  0.1034847E+03  0.7561462E-02  0.1273134E+00
          2   -1    0    0  501    0  0.00000000000E+00  0.00000000000E+00  0.11525528278E+04  0.11525528278E+04  0.00000000000E+00 0. -1.
         -2   -1    0    0    0  501 -0.00000000000E+00 -0.00000000000E+00 -0.58415240935E+02  0.58415240935E+02  0.00000000000E+00 0.  1.
         25    2    1    2    0    0 -0.65739942190E+02  0.95644323926E+01  0.10895893942E+04  0.10987521917E+04  0.12505243881E+03 0.  0.
          5    1    3    3  502    0  0.34893632488E+02 -0.11867535587E+02  0.22266968850E+03  0.22573804856E+03  0.41800000000E+01 0.  1.
         -5    1    3    3    0  502 -0.10063357468E+03  0.21431967979E+02  0.86691970573E+03  0.87301414318E+03  0.41800000000E+01 0.  1.
        -11    1    1    2    0    0  0.25735038774E+02 -0.76607712618E+01  0.46827020249E+02  0.53979157667E+02  0.00000000000E+00 0. -1.
         11    1    1    2    0    0  0.40004903415E+02 -0.19036611308E+01 -0.42278827572E+02  0.58236719378E+02  0.00000000000E+00 0.  1.
</event>
<event>
 7    1  0.2844572E-009  0.1330383E+03  0.7561462E-02  0.1223016E+00
          1   -1    0    0  501    0  0.00000000000E+00  0.00000000000E+00  0.32179008273E+03  0.32179008273E+03  0.00000000000E+00 0. -1.
         -1   -1    0    0    0  501 -0.00000000000E+00 -0.00000000000E+00 -0.71986506532E+02  0.71986506532E+02  0.00000000000E+00 0.  1.
         25    2    1    2    0    0 -0.91002365225E+02  0.51288466613E+02  0.14744941652E+03  0.21977540136E+03  0.12509180361E+03 0.  0.
          5    1    3    3  502    0 -0.36795343203E+02 -0.35348236658E+02  0.87056815337E+02  0.10099384443E+03  0.41800000000E+01 0.  1.
         -5    1    3    3    0  502 -0.54207022022E+02  0.86636703271E+02  0.60392601181E+02  0.11878155693E+03  0.41800000000E+01 0.  1.
        -11    1    1    2    0    0  0.51959561437E+02 -0.52340929106E+01 -0.32847214967E+01  0.52325721673E+02  0.00000000000E+00 0.  1.
         11    1    1    2    0    0  0.39042803788E+02 -0.46054373703E+02  0.10563888118E+03  0.12167546623E+03  0.00000000000E+00 0. -1.
</event>
<event>
 7    1  0.2851967E-009  0.1018770E+03  0.7561462E-02  0.1276398E+00
         -1   -1    0    0    0  501 -0.00000000000E+00  0.00000000000E+00  0.26561437795E+02  0.26561437795E+02  0.00000000000E+00 0.  1.
          1   -1    0    0  501    0  0.00000000000E+00 -0.00000000000E+00 -0.55844651244E+03  0.55844651244E+03  0.00000000000E+00 0. -1.
         25    2    1    2    0    0  0.16737035431E+02 -0.44820533951E+02 -0.36744328517E+03  0.39108888199E+03  0.12508771796E+03 0.  0.
          5    1    3    3  502    0 -0.18211661110E+02  0.24114747329E+02 -0.24037254318E+03  0.24230067593E+03  0.41800000000E+01 0.  1.
         -5    1    3    3    0  502  0.34948696540E+02 -0.68935281280E+02 -0.12707074199E+03  0.14878820607E+03  0.41800000000E+01 0.  1.
        -11    1    1    2    0    0 -0.17210919414E+02 -0.22609158017E+02 -0.20726753119E+02  0.35170841164E+02  0.00000000000E+00 0.  1.
         11    1    1    2    0    0  0.47388398355E+00  0.67429691968E+02 -0.14371503636E+03  0.15874822708E+03  0.00000000000E+00 0. -1.
</event>
<event>
 6    1  0.2844572E-009  0.1110028E+03  0.7561462E-02  0.1258724E+00
         -4   -1    0    0    0  501 -0.00000000000E+00  0.00000000000E+00  0.14665097041E+02  0.14665097041E+02  0.00000000000E+00 0.  1.
          4   -1    0    0  501    0  0.00000000000E+00 -0.00000000000E+00 -0.12087978519E+04  0.12087978519E+04  0.00000000000E+00 0. -1.
          5    1    1    2  502    0 -0.72914679124E+02 -0.11454865164E+01 -0.17656218050E+03  0.19107469365E+03  0.41800000000E+01 0.  1.
         -5    1    1    2    0  502  0.46333880912E+01  0.36303249023E+02 -0.49255473526E+03  0.49393019123E+03  0.41800000000E+01 0.  1.
        -11    1    1    2    0    0 -0.16709109956E+02 -0.19545478486E+02 -0.57001219445E+02  0.62532864184E+02  0.00000000000E+00 0.  1.
         11    1    1    2    0    0  0.84990400989E+02 -0.15612284021E+02 -0.46801461964E+03  0.47592519987E+03  0.00000000000E+00 0. -1.
</event>
<event>
 7    1  0.2844572E-009  0.1517145E+03  0.7561462E-02  0.1198382E+00
          1   -1    0    0  501    0  0.00000000000E+00  0.00000000000E+00  0.27784859403E+03  0.27784859403E+03  0.00000000000E+00 0. -1.
         -1   -1    0    0    0  501 -0.00000000000E+00 -0.00000000000E+00 -0.94110988495E+02  0.94110988495E+02  0.00000000000E+00 0.  1.
         25    2    1    2    0    0 -0.94536099615E+02 -0.70375636207E+02  0.12369517642E+03  0.21174946731E+03  0.12509011126E+03 0.  0.
          5    1    3    3  502    0 -0.10207000144E+03 -0.98699640050E+02  0.98287425066E+02  0.17273619906E+03  0.41800000000E+01 0.  1.
         -5    1    3    3    0  502  0.75339018272E+01  0.28324003843E+02  0.25407751353E+02  0.39013268246E+02  0.41800000000E+01 0.  1.
        -11    1    1    2    0    0  0.35055694539E+02 -0.53736357896E+01 -0.14607604405E+02  0.38355700849E+02  0.00000000000E+00 0.  1.
         11    1    1    2    0    0  0.59480405077E+02  0.75749271997E+02  0.74650033522E+02  0.12185441437E+03  0.00000000000E+00 0. -1.
</event>
<event>
 7    1  0.2844572E-009  0.1746976E+03  0.7561462E-02  0.1173036E+00
          2   -1    0    0  501    0  0.00000000000E+00  0.00000000000E+00  0.78547314343E+03  0.78547314343E+03  0.00000000000E+00 0. -1.
         -2   -1    0    0    0  501 -0.00000000000E+00 -0.00000000000E+00 -0.57136528665E+02  0.57136528665E+02  0.00000000000E+00 0.  1.
         25    2    1    2    0    0 -0.11727682083E+03  0.78465304477E+02  0.22231121176E+03  0.29151441281E+03  0.12509085213E+03 0.  0.
          5    1    3    3  502    0 -0.42194669881E+02 -0.32062143528E+02  0.81924554390E+02  0.97660003205E+02  0.41800000000E+01 0.  1.
         -5    1    3    3    0  502 -0.75082150948E+02  0.11052744800E+03  0.14038665737E+03  0.19385440960E+03  0.41800000000E+01 0.  1.
        -11    1    1    2    0    0 -0.85479183856E+01 -0.23944720356E+02 -0.14038425413E+01  0.25463450582E+02  0.00000000000E+00 0.  1.
         11    1    1    2    0    0  0.12582473921E+03 -0.54520584121E+02  0.50742924554E+03  0.52563180871E+03  0.00000000000E+00 0. -1.
</event>
<event>
 7    1  0.2844572E-009  0.2298559E+03  0.7561462E-02  0.1126741E+00
         -2   -1    0    0    0  501 -0.00000000000E+00  0.00000000000E+00  0.17741952449E+03  0.17741952449E+03  0.00000000000E+00 0. -1.
          2   -1    0    0  501    0  0.00000000000E+00 -0.00000000000E+00 -0.34704453731E+03  0.34704453731E+03  0.00000000000E+00 0.  1.
         25    2    1    2    0    0 -0.60640324920E+02 -0.21421188453E+03 -0.83399673203E+02  0.26863578004E+03  0.12508275800E+03 0.  0.
          5    1    3    3  502    0 -0.49402994658E+01 -0.14825718098E+03 -0.10219974150E+03  0.18018562050E+03  0.41800000000E+01 0.  1.
         -5    1    3    3    0  502 -0.55700025454E+02 -0.65954703549E+02  0.18800068299E+02  0.88450159547E+02  0.41800000000E+01 0.  1.
        -11    1    1    2    0    0  0.59564985535E+02  0.16106184319E+03 -0.23052374288E+02  0.17326372037E+03  0.00000000000E+00 0. -1.
         11    1    1    2    0    0  0.10753393849E+01  0.53150041333E+02 -0.63172965326E+02  0.82564561384E+02  0.00000000000E+00 0.  1.
</event>
<event>
 7    1  0.2844572E-009  0.1259967E+03  0.7561462E-02  0.1233520E+00
         -3   -1    0    0    0  501 -0.00000000000E+00  0.00000000000E+00  0.15200766503E+03  0.15200766503E+03  0.00000000000E+00 0.  1.
          3   -1    0    0  501    0  0.00000000000E+00 -0.00000000000E+00 -0.12052310341E+03  0.12052310341E+03  0.00000000000E+00 0. -1.
         25    2    1    2    0    0  0.78027659695E+02  0.69292933329E+01  0.36240264213E+02  0.15197620731E+03  0.12508828903E+03 0.  0.
          5    1    3    3  502    0  0.53043013999E+02  0.61603960412E+02 -0.49741253788E+00  0.81402267116E+02  0.41800000000E+01 0. -1.
         -5    1    3    3    0  502  0.24984645696E+02 -0.54674667079E+02  0.36737676751E+02  0.70573940189E+02  0.41800000000E+01 0. -1.
        -11    1    1    2    0    0 -0.68966700710E+02  0.27862598603E+02 -0.25998895251E+02  0.78795131589E+02  0.00000000000E+00 0. -1.
         11    1    1    2    0    0 -0.90609589846E+01 -0.34791891936E+02  0.21243192657E+02  0.41759429552E+02  0.00000000000E+00 0.  1.
</event>
<event>
 7    1  0.2844572E-009  0.1146471E+03  0.7561462E-02  0.1252198E+00
          1   -1    0    0  501    0  0.00000000000E+00  0.00000000000E+00  0.16419711851E+03  0.16419711851E+03  0.00000000000E+00 0. -1.
         -1   -1    0    0    0  501 -0.00000000000E+00 -0.00000000000E+00 -0.10304333932E+03  0.10304333932E+03  0.00000000000E+00 0.  1.
         25    2    1    2    0    0  0.26425942921E+02  0.41932566667E+02 -0.21218211464E+02  0.13621207446E+03  0.12508735398E+03 0.  0.
          5    1    3    3  502    0  0.75122437763E+02  0.11345314098E+02 -0.46965532831E+01  0.76234026656E+02  0.41800000000E+01 0. -1.
         -5    1    3    3    0  502 -0.48696494841E+02  0.30587252568E+02 -0.16521658181E+02  0.59978047805E+02  0.41800000000E+01 0. -1.
        -11    1    1    2    0    0 -0.50605797535E+02 -0.48912473592E+02  0.37917920908E+02  0.79944640490E+02  0.00000000000E+00 0.  1.
         11    1    1    2    0    0  0.24179854614E+02  0.69799069256E+01  0.44454069744E+02  0.51083742880E+02  0.00000000000E+00 0. -1.
</event>
<event>
 7    1  0.2844572E-009  0.1001998E+03  0.7561462E-02  0.1279876E+00
          1   -1    0    0  501    0  0.00000000000E+00  0.00000000000E+00  0.39283414770E+03  0.39283414770E+03  0.00000000000E+00 0. -1.
         -1   -1    0    0    0  501 -0.00000000000E+00 -0.00000000000E+00 -0.36072063778E+02  0.36072063778E+02  0.00000000000E+00 0.  1.
         25    2    1    2    0    0 -0.41649140327E+02  0.17604149434E+02  0.23116291525E+03  0.26669786119E+03  0.12508756457E+03 0.  0.
          5    1    3    3  502    0 -0.17331721458E+02  0.58080318888E+02  0.20223645183E+03  0.21116525960E+03  0.41800000000E+01 0. -1.
         -5    1    3    3    0  502 -0.24317418869E+02 -0.40476169453E+02  0.28926463413E+02  0.55532601593E+02  0.41800000000E+01 0. -1.
        -11    1    1    2    0    0  0.53188541293E+02 -0.40332097861E+02  0.52902858559E+02  0.85172833031E+02  0.00000000000E+00 0.  1.
         11    1    1    2    0    0 -0.11539400966E+02  0.22727948427E+02  0.72696310119E+02  0.77035517259E+02  0.00000000000E+00 0. -1.
</event>
<event>
 7    1  0.2844572E-009  0.1562584E+03  0.7561462E-02  0.1192987E+00
         -1   -1    0    0    0  501 -0.00000000000E+00  0.00000000000E+00  0.29842884228E+03  0.29842884228E+03  0.00000000000E+00 0.  1.
          1   -1    0    0  501    0  0.00000000000E+00 -0.00000000000E+00 -0.12902655469E+03  0.12902655469E+03  0.00000000000E+00 0. -1.
         25    2    1    2    0    0  0.17828624580E+02 -0.12988583388E+03  0.19608749353E+03  0.26699519758E+03  0.12509172922E+03 0.  0.
          5    1    3    3  502    0  0.56850138782E+02 -0.41580773087E+02  0.13597356091E+03  0.15319001481E+03  0.41800000000E+01 0.  1.
         -5    1    3    3    0  502 -0.39021514202E+02 -0.88305060791E+02  0.60113932616E+02  0.11380518278E+03  0.41800000000E+01 0.  1.
        -11    1    1    2    0    0 -0.41165783436E+02  0.72416320777E+02 -0.46431511043E+02  0.95365771944E+02  0.00000000000E+00 0.  1.
         11    1    1    2    0    0  0.23337158855E+02  0.57469513102E+02  0.19746305104E+02  0.65094427449E+02  0.00000000000E+00 0. -1.
</event>
<event>
 7    1  0.2844572E-009  0.9512856E+02  0.7561462E-02  0.1290887E+00
         -1   -1    0    0    0  501 -0.00000000000E+00  0.00000000000E+00  0.20518877720E+03  0.20518877720E+03  0.00000000000E+00 0.  1.
          1   -1    0    0  501    0  0.00000000000E+00 -0.00000000000E+00 -0.64624924106E+02  0.64624924106E+02  0.00000000000E+00 0. -1.
         25    2    1    2    0    0 -0.21384643248E+02 -0.26706891079E+01  0.47015566295E+02  0.13535980754E+03  0.12508948188E+03 0.  0.
          5    1    3    3  502    0 -0.65052117747E+02 -0.12495841439E+02 -0.50591480848E+01  0.66565692785E+02  0.41800000000E+01 0. -1.
         -5    1    3    3    0  502  0.43667474499E+02  0.98251523314E+01  0.52074714380E+02  0.68794114757E+02  0.41800000000E+01 0. -1.
        -11    1    1    2    0    0  0.27902119962E+02 -0.32687190316E+02  0.10919720928E+02  0.44342090775E+02  0.00000000000E+00 0. -1.
         11    1    1    2    0    0 -0.65174767141E+01  0.35357879424E+02  0.82628565875E+02  0.90111802993E+02  0.00000000000E+00 0.  1.
</event>
<event>
 7    1  0.2844572E-009  0.1101340E+03  0.7561462E-02  0.1260322E+00
          1   -1    0    0  501    0  0.00000000000E+00  0.00000000000E+00  0.69501061588E+02  0.69501061588E+02  0.00000000000E+00 0. -1.
         -1   -1    0    0    0  501 -0.00000000000E+00 -0.00000000000E+00 -0.23029608118E+03  0.23029608118E+03  0.00000000000E+00 0.  1.
         25    2    1    2    0    0  0.14726981428E+02 -0.63040146338E+02 -0.10482960613E+03  0.17557828214E+03  0.12509013873E+03 0.  0.
          5    1    3    3  502    0 -0.16650912771E+02  0.17186630961E+02 -0.83182645840E+02  0.86657129821E+02  0.41800000000E+01 0. -1.
         -5    1    3    3    0  502  0.31377894199E+02 -0.80226777299E+02 -0.21646960288E+02  0.88921152320E+02  0.41800000000E+01 0. -1.
        -11    1    1    2    0    0 -0.32871836653E+02 -0.10087431384E+02 -0.94033493134E+01  0.35647396752E+02  0.00000000000E+00 0.  1.
         11    1    1    2    0    0  0.18144855225E+02  0.73127577721E+02 -0.46562064147E+02  0.88571463870E+02  0.00000000000E+00 0. -1.
</event>
<event>
 7    1  0.2844572E-009  0.1144701E+03  0.7561462E-02  0.1252509E+00
          1   -1    0    0  501    0  0.00000000000E+00  0.00000000000E+00  0.10983939131E+03  0.10983939131E+03  0.00000000000E+00 0. -1.
         -1   -1    0    0    0  501 -0.00000000000E+00 -0.00000000000E+00 -0.21585457179E+03  0.21585457179E+03  0.00000000000E+00 0.  1.
         25    2    1    2    0    0  0.10857092679E+03 -0.11027574805E+02 -0.65118705411E+02  0.17831855371E+03  0.12509119575E+03 0.  0.
          5    1    3    3  502    0  0.70164654525E+02 -0.11139432076E+02 -0.10235322967E+03  0.12466283213E+03  0.41800000000E+01 0.  1.
         -5    1    3    3    0  502  0.38406272261E+02  0.11185727138E+00  0.37234524261E+02  0.53655721577E+02  0.41800000000E+01 0.  1.
        -11    1    1    2    0    0 -0.27878933331E+02  0.24762377706E+02 -0.52823353693E+02  0.64658464014E+02  0.00000000000E+00 0.  1.
         11    1    1    2    0    0 -0.80691993455E+02 -0.13734802901E+02  0.11926878617E+02  0.82716945374E+02  0.00000000000E+00 0. -1.
</event>
<event>
 7    1  0.2844572E-009  0.1228132E+03  0.7561462E-02  0.1238527E+00
         -1   -1    0    0    0  501 -0.00000000000E+00  0.00000000000E+00  0.10261671983E+03  0.10261671983E+03  0.00000000000E+00 0.  1.
          1   -1    0    0  501    0  0.00000000000E+00 -0.00000000000E+00 -0.19383078864E+03  0.19383078864E+03  0.00000000000E+00 0. -1.
         25    2    1    2    0    0 -0.27986862604E+02 -0.70317742702E+02  0.17147887187E+01  0.14622306541E+03  0.12510153853E+03 0.  0.
          5    1    3    3  502    0  0.42331910024E+02 -0.61924900408E+02  0.41279041796E+01  0.75240918985E+02  0.41800000000E+01 0.  1.
         -5    1    3    3    0  502 -0.70318772627E+02 -0.83928422939E+01 -0.24131154610E+01  0.70982146430E+02  0.41800000000E+01 0.  1.
        -11    1    1    2    0    0 -0.20165223836E+02  0.32850577911E+02  0.60506474196E+00  0.38550782415E+02  0.00000000000E+00 0.  1.
         11    1    1    2    0    0  0.48152086439E+02  0.37467164791E+02 -0.93533922268E+02  0.11167366064E+03  0.00000000000E+00 0. -1.
</event>
<event>
 7    1  0.2844572E-009  0.8471193E+02  0.7561462E-02  0.1316188E+00
         -3   -1    0    0    0  501 -0.00000000000E+00  0.00000000000E+00  0.75863498584E+03  0.75863498584E+03  0.00000000000E+00 0.  1.
          3   -1    0    0  501    0  0.00000000000E+00 -0.00000000000E+00 -0.18040337019E+02  0.18040337019E+02  0.00000000000E+00 0. -1.
         25    2    1    2    0    0 -0.19988877930E+02 -0.32201952609E+02  0.35775912608E+03  0.38088759579E+03  0.12508895773E+03 0.  0.
          5    1    3    3  502    0  0.13323822450E+02  0.99223645756E+01  0.30502241640E+03  0.30550306786E+03  0.41800000000E+01 0. -1.
         -5    1    3    3    0  502 -0.33312700380E+02 -0.42124317185E+02  0.52736709677E+02  0.75384527938E+02  0.41800000000E+01 0. -1.
        -11    1    1    2    0    0 -0.19699257600E+02  0.50881737153E+02  0.17235589807E+03  0.18078597159E+03  0.00000000000E+00 0.  1.
         11    1    1    2    0    0  0.39688135530E+02 -0.18679784544E+02  0.21047962468E+03  0.21500175548E+03  0.00000000000E+00 0. -1.
</event>
<event>
 7    1  0.2844572E-009  0.8566520E+02  0.7561462E-02  0.1313702E+00
         -1   -1    0    0    0  501 -0.00000000000E+00  0.00000000000E+00  0.70115678069E+02  0.70115678069E+02  0.00000000000E+00 0.  1.
          1   -1    0    0  501    0  0.00000000000E+00 -0.00000000000E+00 -0.36696660337E+03  0.36696660337E+03  0.00000000000E+00 0. -1.
         25    2    1    2    0    0  0.62017042596E+02 -0.18637022682E+02 -0.24508422793E+02  0.14297082593E+03  0.12508613869E+03 0.  0.
          5    1    3    3  502    0  0.72921958321E+02  0.10405011880E+02 -0.60398223021E+02  0.95348277497E+02  0.41800000000E+01 0.  1.
         -5    1    3    3    0  502 -0.10904915725E+02 -0.29042034562E+02  0.35889800228E+02  0.47622548429E+02  0.41800000000E+01 0.  1.
        -11    1    1    2    0    0 -0.54698485553E+02  0.11235903114E+02 -0.27709765595E+03  0.28266814602E+03  0.00000000000E+00 0. -1.
         11    1    1    2    0    0 -0.73185570437E+01  0.74011195677E+01  0.47551534385E+01  0.11443309499E+02  0.00000000000E+00 0.  1.
</event>
<event>
 7    1  0.2844572E-009  0.1166886E+03  0.7561462E-02  0.1248662E+00
          2   -1    0    0  501    0  0.00000000000E+00  0.00000000000E+00  0.37727193420E+03  0.37727193420E+03  0.00000000000E+00 0. -1.
         -2   -1    0    0    0  501 -0.00000000000E+00 -0.00000000000E+00 -0.48151887921E+02  0.48151887921E+02  0.00000000000E+00 0.  1.
         25    2    1    2    0    0 -0.11726913849E+02  0.73746476476E+02  0.21990570664E+03  0.26378529217E+03  0.12509235487E+03 0.  0.
          5    1    3    3  502    0 -0.49624998764E+02  0.52520237737E+02  0.49019092133E+02  0.87414870976E+02  0.41800000000E+01 0.  1.
         -5    1    3    3    0  502  0.37898084915E+02  0.21226238738E+02  0.17088661451E+03  0.17637042119E+03  0.41800000000E+01 0.  1.
        -11    1    1    2    0    0  0.45012362236E+02 -0.11005730277E+02  0.57152169994E+02  0.73577234170E+02  0.00000000000E+00 0.  1.
         11    1    1    2    0    0 -0.33285448387E+02 -0.62740746199E+02  0.52062169639E+02  0.88061295786E+02  0.00000000000E+00 0. -1.
</event>
<event>
 7    1  0.2844572E-009  0.1718550E+03  0.7561462E-02  0.1175927E+00
         -2   -1    0    0    0  501 -0.00000000000E+00  0.00000000000E+00  0.57784020066E+02  0.57784020066E+02  0.00000000000E+00 0. -1.
          2   -1    0    0  501    0  0.00000000000E+00 -0.00000000000E+00 -0.57939205405E+03  0.57939205405E+03  0.00000000000E+00 0.  1.
         25    2    1    2    0    0  0.51374398402E+02  0.13599112343E+03 -0.31177045399E+03  0.36603457827E+03  0.12509029558E+03 0.  0.
          5    1    3    3  502    0 -0.36359474214E+01  0.11426107691E+03 -0.12211876381E+03  0.16732984995E+03  0.41800000000E+01 0.  1.
         -5    1    3    3    0  502  0.55010345824E+02  0.21730046517E+02 -0.18965169018E+03  0.19870472832E+03  0.41800000000E+01 0.  1.
        -11    1    1    2    0    0 -0.67085402305E+02 -0.52834987619E+02 -0.86385448225E+02  0.12146782613E+03  0.00000000000E+00 0. -1.
         11    1    1    2    0    0  0.15711003903E+02 -0.83156135812E+02 -0.12345213177E+03  0.14967366971E+03  0.00000000000E+00 0.  1.
</event>
<event>
 7    1  0.2844572E-009  0.1249088E+03  0.7561462E-02  0.1235212E+00
          2   -1    0    0  501    0  0.00000000000E+00  0.00000000000E+00  0.26884918480E+03  0.26884918480E+03  0.00000000000E+00 0. -1.
         -2   -1    0    0    0  501 -0.00000000000E+00 -0.00000000000E+00 -0.69004210534E+02  0.69004210534E+02  0.00000000000E+00 0.  1.
         25    2    1    2    0    0 -0.80736387343E+02  0.75482546518E+01  0.90211250479E+02  0.17424435562E+03  0.12509070855E+03 0.  0.
          5    1    3    3  502    0 -0.82192133590E+02  0.43125113130E+02  0.19460864093E+02  0.94929025265E+02  0.41800000000E+01 0. -1.
         -5    1    3    3    0  502  0.14557462469E+01 -0.35576858478E+02  0.70750386386E+02  0.79315330359E+02  0.41800000000E+01 0. -1.
        -11    1    1    2    0    0  0.41866268839E+02  0.41177694590E+02  0.46651933536E+02  0.74998599326E+02  0.00000000000E+00 0. -1.
         11    1    1    2    0    0  0.38870118504E+02 -0.48725949242E+02  0.62981790256E+02  0.88610440389E+02  0.00000000000E+00 0.  1.
</event>
<event>
 7    1  0.2844572E-009  0.1263105E+03  0.7561462E-02  0.1233035E+00
          2   -1    0    0  501    0  0.00000000000E+00  0.00000000000E+00  0.23563807478E+04  0.23563807478E+04  0.00000000000E+00 0. -1.
         -2   -1    0    0    0  501 -0.00000000000E+00 -0.00000000000E+00 -0.15064656156E+02  0.15064656156E+02  0.00000000000E+00 0.  1.
         25    2    1    2    0    0  0.15767008525E+02 -0.71632556218E+02  0.20774057509E+04  0.20824599752E+04  0.12508026388E+03 0.  0.
          5    1    3    3  502    0  0.28851531142E+02 -0.10461554000E+03  0.16447002657E+04  0.16482819111E+04  0.41800000000E+01 0. -1.
         -5    1    3    3    0  502 -0.13084522617E+02  0.32982983780E+02  0.43270548528E+03  0.43417806410E+03  0.41800000000E+01 0. -1.
        -11    1    1    2    0    0  0.15059822577E+02  0.75711735445E+02  0.23167095375E+03  0.24419356247E+03  0.00000000000E+00 0. -1.
         11    1    1    2    0    0 -0.30826831102E+02 -0.40791792278E+01  0.32239386979E+02  0.44791866356E+02  0.00000000000E+00 0.  1.
</event>
<event>
 7    1  0.2844572E-009  0.1062601E+03  0.7561462E-02  0.1267657E+00
          2   -1    0    0  501    0  0.00000000000E+00  0.00000000000E+00  0.27949258496E+03  0.27949258496E+03  0.00000000000E+00 0. -1.
         -2   -1    0    0    0  501 -0.00000000000E+00 -0.00000000000E+00 -0.93418161509E+02  0.93418161509E+02  0.00000000000E+00 0.  1.
         25    2    1    2    0    0 -0.29706012388E+02 -0.95426619487E+02  0.24081184295E+02  0.16191754653E+03  0.12509477030E+03 0.  0.
          5    1    3    3  502    0  0.11208334502E+02 -0.47394412168E+02 -0.46282197466E+02  0.67315460849E+02  0.41800000000E+01 0. -1.
         -5    1    3    3    0  502 -0.40914346890E+02 -0.48032207320E+02  0.70363381761E+02  0.94602085676E+02  0.41800000000E+01 0. -1.
        -11    1    1    2    0    0  0.17127970932E+02  0.39024203358E+02  0.14444322204E+03  0.15059913754E+03  0.00000000000E+00 0. -1.
         11    1    1    2    0    0  0.12578041456E+02  0.56402416129E+02  0.17550017114E+02  0.60394062397E+02  0.00000000000E+00 0.  1.
</event>
<event>
 7    1  0.2844572E-009  0.8302349E+02  0.7561462E-02  0.1320684E+00
         -1   -1    0    0    0  501 -0.00000000000E+00  0.00000000000E+00  0.14599858270E+03  0.14599858270E+03  0.00000000000E+00 0.  1.
          1   -1    0    0  501    0  0.00000000000E+00 -0.00000000000E+00 -0.18621238722E+03  0.18621238722E+03  0.00000000000E+00 0. -1.
         25    2    1    2    0    0  0.19592065069E+02  0.62262614802E+02 -0.13034376571E+03  0.19209480655E+03  0.12510169955E+03 0.  0.
          5    1    3    3  502    0  0.23069008205E+02  0.26724459591E+02 -0.14788076812E+03  0.15209395077E+03  0.41800000000E+01 0.  1.
         -5    1    3    3    0  502 -0.34769431360E+01  0.35538155210E+02  0.17537002419E+02  0.40000855780E+02  0.41800000000E+01 0.  1.
        -11    1    1    2    0    0 -0.36468041133E+02 -0.67629954212E+02  0.39327408935E+02  0.86315547988E+02  0.00000000000E+00 0. -1.
         11    1    1    2    0    0  0.16875976064E+02  0.53673394108E+01  0.50802552246E+02  0.53800615379E+02  0.00000000000E+00 0.  1.
</event>
<event>
 7    1  0.2844572E-009  0.2491376E+03  0.7561462E-02  0.1113851E+00
         -2   -1    0    0    0  501 -0.00000000000E+00  0.00000000000E+00  0.52824017048E+02  0.52824017048E+02  0.00000000000E+00 0.  1.
          2   -1    0    0  501    0  0.00000000000E+00 -0.00000000000E+00 -0.12877331011E+04  0.12877331011E+04  0.00000000000E+00 0. -1.
         25    2    1    2    0    0 -0.11747956287E+03 -0.20199013562E+03 -0.74207062795E+03  0.78798329821E+03  0.12508956311E+03 0.  0.
          5    1    3    3  502    0  0.15735091193E+02 -0.45639934110E+02 -0.25156432390E+03  0.25618875490E+03  0.41800000000E+01 0.  1.
         -5    1    3    3    0  502 -0.13321465406E+03 -0.15635020151E+03 -0.49050630406E+03  0.53179454330E+03  0.41800000000E+01 0.  1.
        -11    1    1    2    0    0  0.98867845752E+02  0.99734691423E+02 -0.33877712778E+03  0.36673123934E+03  0.00000000000E+00 0.  1.
         11    1    1    2    0    0  0.18611717114E+02  0.10225544420E+03 -0.15406132829E+03  0.18584258058E+03  0.00000000000E+00 0. -1.
</event>
<event>
 7    1  0.2844572E-009  0.9949773E+02  0.7561462E-02  0.1281356E+00
         -1   -1    0    0    0  501 -0.00000000000E+00  0.00000000000E+00  0.65978469869E+02  0.65978469869E+02  0.00000000000E+00 0.  1.
          1   -1    0    0  501    0  0.00000000000E+00 -0.00000000000E+00 -0.23995077306E+03  0.23995077306E+03  0.00000000000E+00 0. -1.
         25    2    1    2    0    0 -0.52359517200E+02  0.31084899716E+02 -0.11519351899E+03  0.18061492305E+03  0.12507763021E+03 0.  0.
          5    1    3    3  502    0 -0.45257164022E+01  0.63210557871E+02 -0.15472130628E+02  0.65367545170E+02  0.41800000000E+01 0.  1.
         -5    1    3    3    0  502 -0.47833800798E+02 -0.32125658155E+02 -0.99721388366E+02  0.11524737788E+03  0.41800000000E+01 0.  1.
        -11    1    1    2    0    0  0.15316929052E+02  0.13029627613E+02  0.19575551513E+02  0.28063886551E+02  0.00000000000E+00 0.  1.
         11    1    1    2    0    0  0.37042588148E+02 -0.44114527329E+02 -0.78354335712E+02  0.97250433331E+02  0.00000000000E+00 0. -1.
</event>
<event>
 7    1  0.2844572E-009  0.1175489E+03  0.7561462E-02  0.1247196E+00
         -2   -1    0    0    0  501 -0.00000000000E+00  0.00000000000E+00  0.15933922967E+03  0.15933922967E+03  0.00000000000E+00 0.  1.
          2   -1    0    0  501    0  0.00000000000E+00 -0.00000000000E+00 -0.14813467701E+03  0.14813467701E+03  0.00000000000E+00 0. -1.
         25    2    1    2    0    0 -0.79946237545E+02 -0.59889632694E+02 -0.33573482774E+02  0.16356382226E+03  0.12509107165E+03 0.  0.
          5    1    3    3  502    0  0.95025448176E+01 -0.31482317097E+01  0.35443738105E+02  0.37066705974E+02  0.41800000000E+01 0.  1.
         -5    1    3    3    0  502 -0.89448782362E+02 -0.56741400984E+02 -0.69017220879E+02  0.12649711629E+03  0.41800000000E+01 0.  1.
        -11    1    1    2    0    0  0.88700544705E+02  0.41617736602E+02  0.36317486971E+01  0.98045969980E+02  0.00000000000E+00 0. -1.
         11    1    1    2    0    0 -0.87543071600E+01  0.18271896091E+02  0.41146286739E+02  0.45864114436E+02  0.00000000000E+00 0.  1.
</event>
<event>
 7    1  0.2844572E-009  0.1243090E+03  0.7561462E-02  0.1236153E+00
         -1   -1    0    0    0  501 -0.00000000000E+00  0.00000000000E+00  0.13690352724E+03  0.13690352724E+03  0.00000000000E+00 0.  1.
          1   -1    0    0  501    0  0.00000000000E+00 -0.00000000000E+00 -0.14784257372E+03  0.14784257372E+03  0.00000000000E+00 0. -1.
         25    2    1    2    0    0  0.77335609870E+02 -0.15565310814E+02 -0.56104365691E+02  0.15817614145E+03  0.12509562910E+03 0.  0.
          5    1    3    3  502    0  0.10295743393E+03 -0.23507349518E+02 -0.70890379933E+02  0.12726251235E+03  0.41800000000E+01 0.  1.
         -5    1    3    3    0  502 -0.25621824058E+02  0.79420387036E+01  0.14786014241E+02  0.30913629098E+02  0.41800000000E+01 0.  1.
        -11    1    1    2    0    0 -0.90609883761E+02 -0.56152281211E+01  0.24222077433E+02  0.93959517119E+02  0.00000000000E+00 0. -1.
         11    1    1    2    0    0  0.13274273891E+02  0.21180538935E+02  0.20943241780E+02  0.32610442395E+02  0.00000000000E+00 0.  1.
</event>
<event>
 7    1  0.2844572E-009  0.9224297E+02  0.7561462E-02  0.1297509E+00
         -2   -1    0    0    0  501 -0.00000000000E+00  0.00000000000E+00  0.10509273845E+04  0.10509273845E+04  0.00000000000E+00 0.  1.
          2   -1    0    0  501    0  0.00000000000E+00 -0.00000000000E+00 -0.18251020781E+02  0.18251020781E+02  0.00000000000E+00 0. -1.
         25    2    1    2    0    0  0.35468538764E+02 -0.59194946644E+02  0.71454103538E+03  0.72868325485E+03  0.12509330798E+03 0.  0.
          5    1    3    3  502    0 -0.41336488315E+01 -0.72664381815E+02  0.63063958543E+03  0.63483931711E+03  0.41800000000E+01 0. -1.
         -5    1    3    3    0  502  0.39602187596E+02  0.13469435171E+02  0.83901449952E+02  0.93843937739E+02  0.41800000000E+01 0. -1.
        -11    1    1    2    0    0 -0.43943404454E+01  0.14192598807E+02 -0.26411242334E+01  0.15090249370E+02  0.00000000000E+00 0. -1.
         11    1    1    2    0    0 -0.31074198319E+02  0.45002347837E+02  0.32077645254E+03  0.32540490103E+03  0.00000000000E+00 0.  1.
</event>
<event>
 7    1  0.2844572E-009  0.1185912E+03  0.7561462E-02  0.1245439E+00
         -1   -1    0    0    0  501 -0.00000000000E+00  0.00000000000E+00  0.25952423183E+02  0.25952423183E+02  0.00000000000E+00 0.  1.
          1   -1    0    0  501    0  0.00000000000E+00 -0.00000000000E+00 -0.99926518503E+03  0.99926518503E+03  0.00000000000E+00 0. -1.
         25    2    1    2    0    0  0.60162819045E+02  0.41077708311E+02 -0.85673142594E+03  0.86887446360E+03  0.12508858612E+03 0.  0.
          5    1    3    3  502    0  0.90117605005E+02  0.58703498272E+02 -0.57611127652E+03  0.58607931100E+03  0.41800000000E+01 0.  1.
         -5    1    3    3    0  502 -0.29954785960E+02 -0.17625789961E+02 -0.28062014942E+03  0.28279515260E+03  0.41800000000E+01 0.  1.
        -11    1    1    2    0    0 -0.61330355543E+02 -0.84668583695E+01 -0.41658719153E+02  0.74622711578E+02  0.00000000000E+00 0.  1.
         11    1    1    2    0    0  0.11675364979E+01 -0.32610849941E+02 -0.74922616754E+02  0.81720433043E+02  0.00000000000E+00 0. -1.
</event>
<event>
 7    1  0.2844572E-009  0.7696499E+02  0.7561462E-02  0.1337892E+00
          2   -1    0    0  501    0  0.00000000000E+00  0.00000000000E+00  0.32108559528E+03  0.32108559528E+03  0.00000000000E+00 0. -1.
         -2   -1    0    0    0  501 -0.00000000000E+00 -0.00000000000E+00 -0.36662859512E+02  0.36662859512E+02  0.00000000000E+00 0.  1.
         25    2    1    2    0    0 -0.64181791737E+01 -0.51294554564E+01  0.18043634536E+03  0.21970826044E+03  0.12508773178E+03 0.  0.
          5    1    3    3  502    0  0.49118221270E+02 -0.19890609244E+02  0.13877469780E+03  0.14860728497E+03  0.41800000000E+01 0.  1.
         -5    1    3    3    0  502 -0.55536400444E+02  0.14761153788E+02  0.41661647563E+02  0.71100975472E+02  0.41800000000E+01 0.  1.
        -11    1    1    2    0    0 -0.10699179748E+02  0.18543639692E+02 -0.88215775612E+01  0.23155112847E+02  0.00000000000E+00 0.  1.
         11    1    1    2    0    0  0.17117358922E+02 -0.13414184235E+02  0.11280796797E+03  0.11488508151E+03  0.00000000000E+00 0. -1.
</event>
<event>
 7    1  0.2844572E-009  0.9383675E+02  0.7561462E-02  0.1293818E+00
          2   -1    0    0  501    0  0.00000000000E+00  0.00000000000E+00  0.84982170905E+03  0.84982170905E+03  0.00000000000E+00 0. -1.
         -2   -1    0    0    0  501 -0.00000000000E+00 -0.00000000000E+00 -0.17796947279E+02  0.17796947279E+02  0.00000000000E+00 0.  1.
         25    2    1    2    0    0 -0.30336520552E+02 -0.43575545400E+02  0.38826955916E+03  0.41136450180E+03  0.12509344560E+03 0.  0.
          5    1    3    3  502    0  0.15755168727E+02 -0.28846568219E+02  0.17583093211E+02  0.37509830799E+02  0.41800000000E+01 0. -1.
         -5    1    3    3    0  502 -0.46091689279E+02 -0.14728977180E+02  0.37068646595E+03  0.37385467100E+03  0.41800000000E+01 0. -1.
        -11    1    1    2    0    0 -0.14170033163E+02 -0.22329728847E+02  0.11907184978E+03  0.12197340710E+03  0.00000000000E+00 0. -1.
         11    1    1    2    0    0  0.44506553715E+02  0.65905274247E+02  0.32468335284E+03  0.33428074743E+03  0.00000000000E+00 0.  1.
</event>
<event>
 7    1  0.2844572E-009  0.1777427E+03  0.7561462E-02  0.1170006E+00
         -2   -1    0    0    0  501 -0.00000000000E+00  0.00000000000E+00  0.10638320249E+03  0.10638320249E+03  0.00000000000E+00 0.  1.
          2   -1    0    0  501    0  0.00000000000E+00 -0.00000000000E+00 -0.36339436569E+03  0.36339436569E+03  0.00000000000E+00 0. -1.
         25    2    1    2    0    0  0.71372244574E+02 -0.14154100810E+03 -0.18290253801E+03  0.27245042376E+03  0.12509212896E+03 0.  0.
          5    1    3    3  502    0 -0.27918826800E+02 -0.11103957710E+02 -0.54301027100E+01  0.30817481762E+02  0.41800000000E+01 0. -1.
         -5    1    3    3    0  502  0.99291071374E+02 -0.13043705039E+03 -0.17747243530E+03  0.24163294200E+03  0.41800000000E+01 0. -1.
        -11    1    1    2    0    0 -0.24460029142E+02  0.80796718299E+02 -0.85012319012E+02  0.11980608122E+03  0.00000000000E+00 0. -1.
         11    1    1    2    0    0 -0.46912215433E+02  0.60744289803E+02  0.10903693825E+02  0.77521063199E+02  0.00000000000E+00 0.  1.
</event>
<event>
 7    1  0.2844572E-009  0.8655144E+02  0.7561462E-02  0.1311424E+00
          2   -1    0    0  501    0  0.00000000000E+00  0.00000000000E+00  0.78924757451E+02  0.78924757451E+02  0.00000000000E+00 0. -1.
         -2   -1    0    0    0  501 -0.00000000000E+00 -0.00000000000E+00 -0.14305602255E+03  0.14305602255E+03  0.00000000000E+00 0.  1.
         25    2    1    2    0    0  0.29784401089E+02 -0.14507848684E+02 -0.54985642695E+02  0.14060166933E+03  0.12509124787E+03 0.  0.
          5    1    3    3  502    0  0.75064998016E+02 -0.14552044983E+02 -0.56402566701E+02  0.95106455463E+02  0.41800000000E+01 0.  1.
         -5    1    3    3    0  502 -0.45280596927E+02  0.44196299204E-01  0.14169240056E+01  0.45495213869E+02  0.41800000000E+01 0.  1.
        -11    1    1    2    0    0  0.27108992880E+01  0.18152679419E+02 -0.35114902566E+02  0.39622280692E+02  0.00000000000E+00 0.  1.
         11    1    1    2    0    0 -0.32495300377E+02 -0.36448307351E+01  0.25969280161E+02  0.41756829978E+02  0.00000000000E+00 0. -1.
</event>
<event>
 7    1  0.2844572E-009  0.8235071E+02  0.7561462E-02  0.1322510E+00
         -2   -1    0    0    0  501 -0.00000000000E+00  0.00000000000E+00  0.27855953999E+02  0.27855953999E+02  0.00000000000E+00 0.  1.
          2   -1    0    0  501    0  0.00000000000E+00 -0.00000000000E+00 -0.52719087243E+03  0.52719087243E+03  0.00000000000E+00 0. -1.
         25    2    1    2    0    0 -0.59161854671E+02  0.16180148503E+02 -0.27087579216E+03  0.30460167620E+03  0.12508622670E+03 0.  0.
          5    1    3    3  502    0 -0.24503537777E+02  0.10413980760E+02 -0.26772619827E+03  0.26907928942E+03  0.41800000000E+01 0. -1.
         -5    1    3    3    0  502 -0.34658316895E+02  0.57661677432E+01 -0.31495938949E+01  0.35522386774E+02  0.41800000000E+01 0. -1.
        -11    1    1    2    0    0  0.21464801082E+02  0.33632979227E+02 -0.80748196026E+02  0.90067675326E+02  0.00000000000E+00 0.  1.
         11    1    1    2    0    0  0.37697053590E+02 -0.49813127730E+02 -0.14771093025E+03  0.16037747491E+03  0.00000000000E+00 0. -1.
</event>
<event>
 7    1  0.2844572E-009  0.1341370E+03  0.7561462E-02  0.1221443E+00
         -2   -1    0    0    0  501 -0.00000000000E+00  0.00000000000E+00  0.58588597125E+03  0.58588597125E+03  0.00000000000E+00 0.  1.
          2   -1    0    0  501    0  0.00000000000E+00 -0.00000000000E+00 -0.35928257348E+02  0.35928257348E+02  0.00000000000E+00 0. -1.
         25    2    1    2    0    0 -0.86559274366E+02  0.14668044946E+02  0.38564275753E+03  0.41482372849E+03  0.12510287668E+03 0.  0.
          5    1    3    3  502    0  0.22341887293E+02  0.24019584214E+02  0.16819160100E+03  0.17141174814E+03  0.41800000000E+01 0.  1.
         -5    1    3    3    0  502 -0.10890116166E+03 -0.93515392681E+01  0.21745115654E+03  0.24341198035E+03  0.41800000000E+01 0.  1.
        -11    1    1    2    0    0 -0.18816505702E+02 -0.73241011945E+01  0.24141674258E+02  0.31472587773E+02  0.00000000000E+00 0. -1.
         11    1    1    2    0    0  0.10537578007E+03 -0.73439437517E+01  0.14017328211E+03  0.17551791234E+03  0.00000000000E+00 0.  1.
</event>
<event>
 7    1  0.2844572E-009  0.1462823E+03  0.7561462E-02  0.1205117E+00
         -2   -1    0    0    0  501 -0.00000000000E+00  0.00000000000E+00  0.64720319447E+02  0.64720319447E+02  0.00000000000E+00 0.  1.
          2   -1    0    0  501    0  0.00000000000E+00 -0.00000000000E+00 -0.40500518916E+03  0.40500518916E+03  0.00000000000E+00 0. -1.
         25    2    1    2    0    0  0.97824507589E+02 -0.50264429801E+01 -0.28082625962E+03  0.32265464081E+03  0.12509088588E+03 0.  0.
          5    1    3    3  502    0  0.86624662075E+02  0.51294383660E+02 -0.19128969563E+03  0.21620399147E+03  0.41800000000E+01 0. -1.
         -5    1    3    3    0  502  0.11199845514E+02 -0.56320826640E+02 -0.89536563990E+02  0.10645064934E+03  0.41800000000E+01 0. -1.
        -11    1    1    2    0    0 -0.74889305918E+02  0.45558717515E+02 -0.43354779941E+02  0.97793874175E+02  0.00000000000E+00 0.  1.
         11    1    1    2    0    0 -0.22935201671E+02 -0.40532274535E+02 -0.16103830149E+02  0.49276993619E+02  0.00000000000E+00 0. -1.
</event>
<event>
 7    1  0.2844572E-009  0.9203729E+02  0.7561462E-02  0.1297992E+00
          1   -1    0    0  501    0  0.00000000000E+00  0.00000000000E+00  0.24799327756E+03  0.24799327756E+03  0.00000000000E+00 0. -1.
         -1   -1    0    0    0  501 -0.00000000000E+00 -0.00000000000E+00 -0.59472539105E+02  0.59472539105E+02  0.00000000000E+00 0.  1.
         25    2    1    2    0    0 -0.30431781293E+02 -0.34552414469E+02  0.13642819681E+03  0.19073661203E+03  0.12509132514E+03 0.  0.
          5    1    3    3  502    0 -0.23658136000E+02  0.19144258873E+02  0.13282795133E+03  0.13633395432E+03  0.41800000000E+01 0. -1.
         -5    1    3    3    0  502 -0.67736452936E+01 -0.53696673342E+02  0.36002454847E+01  0.54402657712E+02  0.41800000000E+01 0. -1.
        -11    1    1    2    0    0  0.14270201265E+02  0.63950937576E+02  0.15991766319E+02  0.67446998829E+02  0.00000000000E+00 0.  1.
         11    1    1    2    0    0  0.16161580029E+02 -0.29398523107E+02  0.36100775324E+02  0.49282205804E+02  0.00000000000E+00 0. -1.
</event>
<event>
 7    1  0.2844572E-009  0.1244019E+03  0.7561462E-02  0.1236007E+00
          2   -1    0    0  501    0  0.00000000000E+00  0.00000000000E+00  0.27235105200E+02  0.27235105200E+02  0.00000000000E+00 0.  1.
         -2   -1    0    0    0  501 -0.00000000000E+00 -0.00000000000E+00 -0.77866759494E+03  0.77866759494E+03  0.00000000000E+00 0. -1.
         25    2    1    2    0    0  0.45919143774E+02 -0.77486008261E+02 -0.30988054637E+03  0.34609687287E+03  0.12507774844E+03 0.  0.
          5    1    3    3  502    0  0.64891368508E+01 -0.85642681506E+02 -0.97971629640E+02  0.13035601408E+03  0.41800000000E+01 0.  1.
         -5    1    3    3    0  502  0.39430006923E+02  0.81566732454E+01 -0.21190891673E+03  0.21574085879E+03  0.41800000000E+01 0.  1.
        -11    1    1    2    0    0  0.83127970424E+01  0.66476909184E+02 -0.17105824243E+03  0.18370956522E+03  0.00000000000E+00 0.  1.
         11    1    1    2    0    0 -0.54231940816E+02  0.11009099077E+02 -0.27049370094E+03  0.27609626205E+03  0.00000000000E+00 0. -1.
</event>
<event>
 7    1  0.2844572E-009  0.1203564E+03  0.7561462E-02  0.1242510E+00
          1   -1    0    0  501    0  0.00000000000E+00  0.00000000000E+00  0.20280440964E+03  0.20280440964E+03  0.00000000000E+00 0. -1.
         -1   -1    0    0    0  501 -0.00000000000E+00 -0.00000000000E+00 -0.11401162986E+03  0.11401162986E+03  0.00000000000E+00 0.  1.
         25    2    1    2    0    0  0.52610540699E+02 -0.65719779831E+02 -0.76158039978E+01  0.15097118876E+03  0.12508933173E+03 0.  0.
          5    1    3    3  502    0  0.67008029592E+02 -0.84065648073E+02  0.25199278406E+02  0.11049699203E+03  0.41800000000E+01 0.  1.
         -5    1    3    3    0  502 -0.14397488893E+02  0.18345868242E+02 -0.32815082404E+02  0.40474196733E+02  0.41800000000E+01 0.  1.
        -11    1    1    2    0    0 -0.37398930310E+02  0.80163712169E+02  0.10976832948E+03  0.14097512864E+03  0.00000000000E+00 0. -1.
         11    1    1    2    0    0 -0.15211610389E+02 -0.14443932338E+02 -0.13359745702E+02  0.24869722098E+02  0.00000000000E+00 0.  1.
</event>
<event>
 7    1  0.3156679E-009  0.1083677E+03  0.7561462E-02  0.1263623E+00
          1   -1    0    0  501    0  0.00000000000E+00  0.00000000000E+00  0.17922644601E+03  0.17922644601E+03  0.00000000000E+00 0. -1.
         -1   -1    0    0    0  501 -0.00000000000E+00 -0.00000000000E+00 -0.12029058179E+03  0.12029058179E+03  0.00000000000E+00 0.  1.
         25    2    1    2    0    0 -0.65977388641E+02 -0.55522740556E+02  0.80952173147E+02  0.17215536918E+03  0.12509366998E+03 0.  0.
          5    1    3    3  502    0 -0.76606486922E+02 -0.47033186859E+02  0.28301025452E-01  0.89989708888E+02  0.41800000000E+01 0. -1.
         -5    1    3    3    0  502  0.10629098282E+02 -0.84895536965E+01  0.80923872122E+02  0.82165660293E+02  0.41800000000E+01 0. -1.
        -11    1    1    2    0    0 -0.11628540013E+02  0.27751596503E+02 -0.32479270301E+02  0.44275016099E+02  0.00000000000E+00 0.  1.
         11    1    1    2    0    0  0.77605928654E+02  0.27771144052E+02  0.10462961375E+02  0.83086642518E+02  0.00000000000E+00 0. -1.
</event>
<event>
 7    1  0.2844572E-009  0.1207742E+03  0.7561462E-02  0.1241825E+00
         -2   -1    0    0    0  501 -0.00000000000E+00  0.00000000000E+00  0.44420018491E+02  0.44420018491E+02  0.00000000000E+00 0. -1.
          2   -1    0    0  501    0  0.00000000000E+00 -0.00000000000E+00 -0.56846723721E+03  0.56846723721E+03  0.00000000000E+00 0.  1.
         25    2    1    2    0    0  0.87809908145E+02  0.32449124136E+01 -0.42499237132E+03  0.45164933883E+03  0.12508996827E+03 0.  0.
          5    1    3    3  502    0  0.93987476390E+02  0.47510082975E+02 -0.33314328252E+03  0.34941776256E+03  0.41800000000E+01 0.  1.
         -5    1    3    3    0  502 -0.61775682451E+01 -0.44265170561E+02 -0.91849088802E+02  0.10223157628E+03  0.41800000000E+01 0.  1.
        -11    1    1    2    0    0 -0.17572747965E+02 -0.10791318746E+02 -0.87204321735E+02  0.89609417812E+02  0.00000000000E+00 0.  1.
         11    1    1    2    0    0 -0.70237160180E+02  0.75464063324E+01 -0.11850525663E+02  0.71628499057E+02  0.00000000000E+00 0. -1.
</event>
<event>
 7    1  0.2844572E-009  0.9803797E+02  0.7561462E-02  0.1284477E+00
         -2   -1    0    0    0  501 -0.00000000000E+00  0.00000000000E+00  0.30717983839E+03  0.30717983839E+03  0.00000000000E+00 0.  1.
          2   -1    0    0  501    0  0.00000000000E+00 -0.00000000000E+00 -0.58032353286E+02  0.58032353286E+02  0.00000000000E+00 0. -1.
         25    2    1    2    0    0  0.26495417195E+02 -0.99191159440E+01  0.38419292710E+02  0.13388017751E+03  0.12508982326E+03 0.  0.
          5    1    3    3  502    0 -0.49207119211E+02 -0.14567201898E+02  0.22899561265E+02  0.56350743192E+02  0.41800000000E+01 0. -1.
         -5    1    3    3    0  502  0.75702536405E+02  0.46480859545E+01  0.15519731444E+02  0.77529434316E+02  0.41800000000E+01 0. -1.
        -11    1    1    2    0    0 -0.45022086802E+02 -0.43659213682E+01  0.20094703452E+03  0.20597514474E+03  0.00000000000E+00 0.  1.
         11    1    1    2    0    0  0.18526669608E+02  0.14285037312E+02  0.97811578757E+01  0.25356869428E+02  0.00000000000E+00 0. -1.
</event>
<event>
 7    1  0.2844572E-009  0.1624495E+03  0.7561462E-02  0.1185959E+00
          2   -1    0    0  501    0  0.00000000000E+00  0.00000000000E+00  0.84289630752E+03  0.84289630752E+03  0.00000000000E+00 0. -1.
         -2   -1    0    0    0  501 -0.00000000000E+00 -0.00000000000E+00 -0.33957297425E+02  0.33957297425E+02  0.00000000000E+00 0.  1.
         25    2    1    2    0    0 -0.49802297890E+01  0.12894247055E+03  0.44947504038E+03  0.48407342105E+03  0.12509317185E+03 0.  0.
          5    1    3    3  502    0  0.21536742365E+02  0.14602129811E+03  0.37902193266E+03  0.40676915888E+03  0.41800000000E+01 0.  1.
         -5    1    3    3    0  502 -0.26516972154E+02 -0.17078827565E+02  0.70453107717E+02  0.77304262174E+02  0.41800000000E+01 0.  1.
        -11    1    1    2    0    0  0.32645430347E+02 -0.36691010859E+02  0.20459316507E+03  0.21040512730E+03  0.00000000000E+00 0. -1.
         11    1    1    2    0    0 -0.27665200558E+02 -0.92251459689E+02  0.15487080465E+03  0.18237505660E+03  0.00000000000E+00 0.  1.
</event>
<event>
 7    1  0.2844572E-009  0.1633494E+03  0.7561462E-02  0.1184966E+00
         -2   -1    0    0    0  501 -0.00000000000E+00  0.00000000000E+00  0.24920088613E+02  0.24920088613E+02  0.00000000000E+00 0.  1.
          2   -1    0    0  501    0  0.00000000000E+00 -0.00000000000E+00 -0.10984812779E+04  0.10984812779E+04  0.00000000000E+00 0. -1.
         25    2    1    2    0    0 -0.53913461024E+02  0.11120997299E+03 -0.58151005983E+03  0.60751715072E+03  0.12509524117E+03 0.  0.
          5    1    3    3  502    0 -0.61748189088E+01 -0.26101339088E+02 -0.14196241456E+03  0.14453445208E+03  0.41800000000E+01 0. -1.
         -5    1    3    3    0  502 -0.47738642115E+02  0.13731131208E+03 -0.43954764527E+03  0.46298269864E+03  0.41800000000E+01 0. -1.
        -11    1    1    2    0    0  0.95737452563E+01  0.16420073987E+02 -0.44670564083E+02  0.48546212246E+02  0.00000000000E+00 0. -1.
         11    1    1    2    0    0  0.44339715768E+02 -0.12763004698E+03 -0.44738056539E+03  0.46733800357E+03  0.00000000000E+00 0.  1.
</event>
<event>
 7    1  0.2844572E-009  0.1093498E+03  0.7561462E-02  0.1261779E+00
         -2   -1    0    0    0  501 -0.00000000000E+00  0.00000000000E+00  0.42951208635E+03  0.42951208635E+03  0.00000000000E+00 0.  1.
          2   -1    0    0  501    0  0.00000000000E+00 -0.00000000000E+00 -0.31519938475E+02  0.31519938475E+02  0.00000000000E+00 0. -1.
         25    2    1    2    0    0 -0.34645849475E+02  0.29859644524E+00  0.18299849364E+03  0.22435814916E+03  0.12509079253E+03 0.  0.
          5    1    3    3  502    0 -0.17761908515E+01  0.57165661617E+02  0.12117427032E+03  0.13405873306E+03  0.41800000000E+01 0. -1.
         -5    1    3    3    0  502 -0.32869658624E+02 -0.56867065171E+02  0.61824223319E+02  0.90299416101E+02  0.41800000000E+01 0. -1.
        -11    1    1    2    0    0  0.21268737148E+02 -0.44518791516E+02  0.79971121279E+02  0.93966282339E+02  0.00000000000E+00 0. -1.
         11    1    1    2    0    0  0.13377112327E+02  0.44220195071E+02  0.13502253296E+03  0.14270759333E+03  0.00000000000E+00 0.  1.
</event>
<event>
 7    1  0.2844572E-009  0.9146505E+02  0.7561462E-02  0.1299342E+00
          1   -1    0    0  501    0  0.00000000000E+00  0.00000000000E+00  0.99142316745E+02  0.99142316745E+02  0.00000000000E+00 0. -1.
         -1   -1    0    0    0  501 -0.00000000000E+00 -0.00000000000E+00 -0.16555317240E+03  0.16555317240E+03  0.00000000000E+00 0.  1.
         25    2    1    2    0    0  0.66010885888E+02  0.37087776143E+01 -0.54595907236E+02  0.15167962910E+03  0.12511916204E+03 0.  0.
          5    1    3    3  502    0  0.29772579690E+02 -0.12100681511E+02  0.38574371481E+02  0.50381420480E+02  0.41800000000E+01 0.  1.
         -5    1    3    3    0  502  0.36238306198E+02  0.15809459125E+02 -0.93170278717E+02  0.10129820862E+03  0.41800000000E+01 0.  1.
        -11    1    1    2    0    0 -0.35888397723E+02 -0.46310792083E+02 -0.15818581938E+02  0.60686852687E+02  0.00000000000E+00 0.  1.
         11    1    1    2    0    0 -0.30122488164E+02  0.42602014469E+02  0.40036335143E+01  0.52329007360E+02  0.00000000000E+00 0. -1.
</event>
<event>
 7    1  0.2844572E-009  0.1015974E+03  0.7561462E-02  0.1276972E+00
          1   -1    0    0  501    0  0.00000000000E+00  0.00000000000E+00  0.13028957568E+03  0.13028957568E+03  0.00000000000E+00 0. -1.
         -1   -1    0    0    0  501 -0.00000000000E+00 -0.00000000000E+00 -0.17251275344E+03  0.17251275344E+03  0.00000000000E+00 0.  1.
         25    2    1    2    0    0 -0.50897465084E+01  0.76435440339E+02 -0.95928493598E+02  0.17525904713E+03  0.12508067660E+03 0.  0.
          5    1    3    3  502    0 -0.31824161428E+02  0.67883034693E+01 -0.95031004928E+02  0.10053468363E+03  0.41800000000E+01 0. -1.
         -5    1    3    3    0  502  0.26734414919E+02  0.69647136870E+02 -0.89748867006E+00  0.74724363505E+02  0.41800000000E+01 0. -1.
        -11    1    1    2    0    0  0.29360668297E+02 -0.24122436433E+02 -0.12256121699E+02  0.39926849380E+02  0.00000000000E+00 0.  1.
         11    1    1    2    0    0 -0.24270921788E+02 -0.52313003906E+02  0.65961437536E+02  0.87616432614E+02  0.00000000000E+00 0. -1.
</event>
<event>
 7    1  0.2844572E-009  0.8304964E+02  0.7561462E-02  0.1320613E+00
         -4   -1    0    0    0  501 -0.00000000000E+00  0.00000000000E+00  0.14932004859E+03  0.14932004859E+03  0.00000000000E+00 0.  1.
          4   -1    0    0  501    0  0.00000000000E+00 -0.00000000000E+00 -0.74306665238E+02  0.74306665238E+02  0.00000000000E+00 0. -1.
         25    2    1    2    0    0  0.29718960009E+02 -0.19789061601E+02  0.47081954363E+02  0.13834129050E+03  0.12508708442E+03 0.  0.
          5    1    3    3  502    0  0.43671482427E+02  0.44873565532E+02  0.31652150660E+02  0.70286316609E+02  0.41800000000E+01 0. -1.
         -5    1    3    3    0  502 -0.13952522418E+02 -0.64662627133E+02  0.15429803703E+02  0.68054973895E+02  0.41800000000E+01 0. -1.
        -11    1    1    2    0    0 -0.17712112827E+02  0.17378994974E+02  0.52369308304E+02  0.57950779627E+02  0.00000000000E+00 0.  1.
         11    1    1    2    0    0 -0.12006847182E+02  0.24100666267E+01 -0.24437879318E+02  0.27334643695E+02  0.00000000000E+00 0. -1.
</event>
<event>
 7    1  0.2844572E-009  0.1202529E+03  0.7561462E-02  0.1242680E+00
         -1   -1    0    0    0  501 -0.00000000000E+00  0.00000000000E+00  0.90909588560E+02  0.90909588560E+02  0.00000000000E+00 0.  1.
          1   -1    0    0  501    0  0.00000000000E+00 -0.00000000000E+00 -0.20573417843E+03  0.20573417843E+03  0.00000000000E+00 0. -1.
         25    2    1    2    0    0  0.25935397346E+01 -0.57607473299E+02 -0.13028048765E+03  0.18959287871E+03  0.12508839580E+03 0.  0.
          5    1    3    3  502    0 -0.50385173272E+02 -0.65480230924E+02 -0.91381331001E+02  0.12326534948E+03  0.41800000000E+01 0. -1.
         -5    1    3    3    0  502  0.52978713007E+02  0.78727576254E+01 -0.38899156653E+02  0.66327529223E+02  0.41800000000E+01 0. -1.
        -11    1    1    2    0    0 -0.43812309525E+02  0.39666144618E+02 -0.11923960120E+01  0.59112970683E+02  0.00000000000E+00 0.  1.
         11    1    1    2    0    0  0.41218769790E+02  0.17941328680E+02  0.16648293794E+02  0.47937917602E+02  0.00000000000E+00 0. -1.
</event>
<event>
 7    1  0.2844572E-009  0.1826505E+03  0.7561462E-02  0.1165262E+00
          4   -1    0    0  501    0  0.00000000000E+00  0.00000000000E+00  0.19935076337E+03  0.19935076337E+03  0.00000000000E+00 0. -1.
         -4   -1    0    0    0  501 -0.00000000000E+00 -0.00000000000E+00 -0.20795395504E+03  0.20795395504E+03  0.00000000000E+00 0.  1.
         25    2    1    2    0    0  0.14723055687E+03 -0.60859173077E+02  0.66375672821E+02  0.21315378696E+03  0.12509249031E+03 0.  0.
          5    1    3    3  502    0  0.15748035341E+03 -0.38769793063E+02  0.84107137697E+02  0.18274200824E+03  0.41800000000E+01 0. -1.
         -5    1    3    3    0  502 -0.10249796540E+02 -0.22089380014E+02 -0.17731464876E+02  0.30411778724E+02  0.41800000000E+01 0. -1.
        -11    1    1    2    0    0 -0.17315172118E+02 -0.19121120111E+02 -0.17253906921E+02  0.31034331373E+02  0.00000000000E+00 0.  1.
         11    1    1    2    0    0 -0.12991538475E+03  0.79980293188E+02 -0.57724957575E+02  0.16311660007E+03  0.00000000000E+00 0. -1.
</event>
<event>
 7    1  0.2844572E-009  0.2166731E+03  0.7561462E-02  0.1136388E+00
         -2   -1    0    0    0  501 -0.00000000000E+00  0.00000000000E+00  0.49313729187E+02  0.49313729187E+02  0.00000000000E+00 0.  1.
          2   -1    0    0  501    0  0.00000000000E+00 -0.00000000000E+00 -0.18382421731E+04  0.18382421731E+04  0.00000000000E+00 0. -1.
         25    2    1    2    0    0  0.19311961668E+03  0.28355072321E+02 -0.15445482322E+04  0.15618503464E+04  0.12509223221E+03 0.  0.
          5    1    3    3  502    0  0.61168693698E+02 -0.45864030520E+02 -0.66050462314E+03  0.66492777651E+03  0.41800000000E+01 0. -1.
         -5    1    3    3    0  502  0.13195092298E+03  0.74219102841E+02 -0.88404360903E+03  0.89692256989E+03  0.41800000000E+01 0. -1.
        -11    1    1    2    0    0 -0.94880079169E+02  0.18210868921E+02 -0.66686840309E+02  0.11739250334E+03  0.00000000000E+00 0. -1.
         11    1    1    2    0    0 -0.98239537511E+02 -0.46565941242E+02 -0.17769337146E+03  0.20831305258E+03  0.00000000000E+00 0.  1.
</event>
<event>
 7    1  0.2844572E-009  0.9490578E+02  0.7561462E-02  0.1291388E+00
          1   -1    0    0  501    0  0.00000000000E+00  0.00000000000E+00  0.54727308690E+03  0.54727308690E+03  0.00000000000E+00 0. -1.
         -1   -1    0    0    0  501 -0.00000000000E+00 -0.00000000000E+00 -0.46213015815E+02  0.46213015815E+02  0.00000000000E+00 0.  1.
         25    2    1    2    0    0 -0.45311201910E+01  0.51670588529E+02  0.46476861320E+03  0.48409785202E+03  0.12510190144E+03 0.  0.
          5    1    3    3  502    0 -0.20503898394E+02  0.68168882007E+02  0.12801025428E+03  0.14653157995E+03  0.41800000000E+01 0.  1.
         -5    1    3    3    0  502  0.15972778203E+02 -0.16498293478E+02  0.33675835892E+03  0.33756627207E+03  0.41800000000E+01 0.  1.
        -11    1    1    2    0    0 -0.37690498437E+02 -0.24537737280E+02 -0.38260847389E+01  0.45136605407E+02  0.00000000000E+00 0.  1.
         11    1    1    2    0    0  0.42221618628E+02 -0.27132851249E+02  0.40117542629E+02  0.64251645295E+02  0.00000000000E+00 0. -1.
</event>
<event>
 7    1  0.3190804E-009  0.8403779E+02  0.7561462E-02  0.1317968E+00
         -1   -1    0    0    0  501 -0.00000000000E+00  0.00000000000E+00  0.49414517292E+02  0.49414517292E+02  0.00000000000E+00 0.  1.
          1   -1    0    0  501    0  0.00000000000E+00 -0.00000000000E+00 -0.38344829140E+03  0.38344829140E+03  0.00000000000E+00 0. -1.
         25    2    1    2    0    0  0.67968870902E+02 -0.46393656994E+02 -0.21695595644E+03  0.26360802582E+03  0.12508863025E+03 0.  0.
          5    1    3    3  502    0  0.18163764189E+02 -0.16308976006E+02  0.11869316126E+02  0.27463759633E+02  0.41800000000E+01 0.  1.
         -5    1    3    3    0  502  0.49805106713E+02 -0.30084680988E+02 -0.22882527257E+03  0.23614426618E+03  0.41800000000E+01 0.  1.
        -11    1    1    2    0    0 -0.41909844071E+02  0.40446454744E+02 -0.10256405873E+02  0.59140042212E+02  0.00000000000E+00 0.  1.
         11    1    1    2    0    0 -0.26059026831E+02  0.59472022498E+01 -0.10682141179E+03  0.11011474066E+03  0.00000000000E+00 0. -1.
</event>
<event>
 7    1  0.2844572E-009  0.1372113E+03  0.7561462E-02  0.1217131E+00
          1   -1    0    0  501    0  0.00000000000E+00  0.00000000000E+00  0.13248180071E+04  0.13248180071E+04  0.00000000000E+00 0. -1.
         -1   -1    0    0    0  501 -0.00000000000E+00 -0.00000000000E+00 -0.16507190120E+02  0.16507190120E+02  0.00000000000E+00 0.  1.
         25    2    1    2    0    0 -0.84843997140E+02 -0.21999500087E+02  0.93322868925E+03  0.94564751425E+03  0.12510376862E+03 0.  0.
          5    1    3    3  502    0  0.40558025014E+00 -0.59412573302E+02  0.36479152822E+03  0.36962190117E+03  0.41800000000E+01 0.  1.
         -5    1    3    3    0  502 -0.85249577391E+02  0.37413073215E+02  0.56843716103E+03  0.57602561309E+03  0.41800000000E+01 0.  1.
        -11    1    1    2    0    0  0.99597805988E+02  0.31093606979E+02  0.34976869327E+03  0.36499955362E+03  0.00000000000E+00 0. -1.
         11    1    1    2    0    0 -0.14753808848E+02 -0.90941068912E+01  0.25313434447E+02  0.30678129330E+02  0.00000000000E+00 0.  1.
</event>
<event>
 7    1  0.2844572E-009  0.9117064E+02  0.7561462E-02  0.1300041E+00
          1   -1    0    0  501    0  0.00000000000E+00  0.00000000000E+00  0.22437846474E+03  0.22437846474E+03  0.00000000000E+00 0. -1.
         -1   -1    0    0    0  501 -0.00000000000E+00 -0.00000000000E+00 -0.58112696162E+02  0.58112696162E+02  0.00000000000E+00 0.  1.
         25    2    1    2    0    0 -0.65576694004E+01  0.27790569418E+02  0.67483069398E+02  0.14497239185E+03  0.12509081088E+03 0.  0.
          5    1    3    3  502    0 -0.26930240824E+02 -0.26141605108E+02 -0.17957449951E+02  0.41815831896E+02  0.41800000000E+01 0. -1.
         -5    1    3    3    0  502  0.20372571423E+02  0.53932174526E+02  0.85440519349E+02  0.10315655996E+03  0.41800000000E+01 0. -1.
        -11    1    1    2    0    0 -0.36624003957E+02 -0.24483406498E+01  0.14459700485E+02  0.39451172047E+02  0.00000000000E+00 0. -1.
         11    1    1    2    0    0  0.43181673357E+02 -0.25342228768E+02  0.84322998699E+02  0.98067597005E+02  0.00000000000E+00 0.  1.
</event>
<event>
 7    1  0.2844572E-009  0.1698372E+03  0.7561462E-02  0.1178018E+00
          1   -1    0    0  501    0  0.00000000000E+00  0.00000000000E+00  0.81639649319E+03  0.81639649319E+03  0.00000000000E+00 0. -1.
         -1   -1    0    0    0  501 -0.00000000000E+00 -0.00000000000E+00 -0.36602892007E+02  0.36602892007E+02  0.00000000000E+00 0.  1.
         25    2    1    2    0    0 -0.39385964738E+02 -0.12645660547E+03  0.35874456282E+03  0.40235368975E+03  0.12509317735E+03 0.  0.
          5    1    3    3  502    0  0.18096205743E+02  0.18365448317E+02  0.45229101707E+02  0.52229363345E+02  0.41800000000E+01 0. -1.
         -5    1    3    3    0  502 -0.57482170481E+02 -0.14482205379E+03  0.31351546111E+03  0.35012432641E+03  0.41800000000E+01 0. -1.
        -11    1    1    2    0    0 -0.94357610289E+01 -0.94026970453E+01  0.66701025177E+02  0.68018167115E+02  0.00000000000E+00 0.  1.
         11    1    1    2    0    0  0.48821725767E+02  0.13585930251E+03  0.35434801318E+03  0.38262752833E+03  0.00000000000E+00 0. -1.
</event>
<event>
 7    1  0.2844572E-009  0.8418355E+02  0.7561462E-02  0.1317582E+00
          1   -1    0    0  501    0  0.00000000000E+00  0.00000000000E+00  0.17755605761E+03  0.17755605761E+03  0.00000000000E+00 0. -1.
         -1   -1    0    0    0  501 -0.00000000000E+00 -0.00000000000E+00 -0.81520178070E+02  0.81520178070E+02  0.00000000000E+00 0.  1.
         25    2    1    2    0    0 -0.25513712542E+02 -0.26916994275E+02  0.14217602945E+02  0.13124479092E+03  0.12509029060E+03 0.  0.
          5    1    3    3  502    0 -0.38778732263E+02 -0.66573032820E+02 -0.16859855519E+02  0.78977755747E+02  0.41800000000E+01 0.  1.
         -5    1    3    3    0  502  0.13265019721E+02  0.39656038545E+02  0.31077458463E+02  0.52267035173E+02  0.41800000000E+01 0.  1.
        -11    1    1    2    0    0  0.39455078250E+01  0.27330208231E+02 -0.13049635510E+02  0.30541779596E+02  0.00000000000E+00 0.  1.
         11    1    1    2    0    0  0.21568204717E+02 -0.41321395591E+00  0.94867912108E+02  0.97289665166E+02  0.00000000000E+00 0. -1.
</event>
<event>
 7    1  0.2844572E-009  0.1769965E+03  0.7561462E-02  0.1170742E+00
          3   -1    0    0  501    0  0.00000000000E+00  0.00000000000E+00  0.68119870039E+02  0.68119870039E+02  0.00000000000E+00 0. -1.
         -3   -1    0    0    0  501 -0.00000000000E+00 -0.00000000000E+00 -0.52886483940E+03  0.52886483940E+03  0.00000000000E+00 0.  1.
         25    2    1    2    0    0 -0.11568206066E+03 -0.10416129226E+03 -0.27443609188E+03  0.33940250539E+03  0.12508788181E+03 0.  0.
          5    1    3    3  502    0 -0.11726765823E+03 -0.29076736504E+02 -0.19921534488E+03  0.23302657854E+03  0.41800000000E+01 0. -1.
         -5    1    3    3    0  502  0.15855975758E+01 -0.75084555761E+02 -0.75220747000E+02  0.10637592685E+03  0.41800000000E+01 0. -1.
        -11    1    1    2    0    0  0.59940443409E+02  0.71414228871E+02 -0.16498538257E+03  0.18950732256E+03  0.00000000000E+00 0.  1.
         11    1    1    2    0    0  0.55741617248E+02  0.32747063394E+02 -0.21323494908E+02  0.68074881486E+02  0.00000000000E+00 0. -1.
</event>
<event>
 7    1  0.2844572E-009  0.1107056E+03  0.7561462E-02  0.1259269E+00
          4   -1    0    0  501    0  0.00000000000E+00  0.00000000000E+00  0.28528912150E+02  0.28528912150E+02  0.00000000000E+00 0. -1.
         -4   -1    0    0    0  501 -0.00000000000E+00 -0.00000000000E+00 -0.63711441719E+03  0.63711441719E+03  0.00000000000E+00 0.  1.
         25    2    1    2    0    0 -0.51352248496E+02 -0.28112282950E+02 -0.46329009597E+03  0.48343820048E+03  0.12508967497E+03 0.  0.
          5    1    3    3  502    0 -0.19158216494E+02  0.35245254158E+02 -0.50871394812E+02  0.64920231131E+02  0.41800000000E+01 0. -1.
         -5    1    3    3    0  502 -0.32194032001E+02 -0.63357537108E+02 -0.41241870116E+03  0.41851796935E+03  0.41800000000E+01 0. -1.
        -11    1    1    2    0    0 -0.22927060855E+02  0.27238561461E+02 -0.44342900994E+02  0.56867233259E+02  0.00000000000E+00 0. -1.
         11    1    1    2    0    0  0.74279309350E+02  0.87372148889E+00 -0.10095250808E+03  0.12533789560E+03  0.00000000000E+00 0.  1.
</event>
<event>
 7    1  0.2844572E-009  0.7846123E+02  0.7561462E-02  0.1333476E+00
         -1   -1    0    0    0  501 -0.00000000000E+00  0.00000000000E+00  0.51532264619E+02  0.51532264619E+02  0.00000000000E+00 0.  1.
          1   -1    0    0  501    0  0.00000000000E+00 -0.00000000000E+00 -0.27760438916E+03  0.27760438916E+03  0.00000000000E+00 0. -1.
         25    2    1    2    0    0 -0.14164912026E+01  0.50832122587E+02 -0.10475625278E+03  0.17089819506E+03  0.12508560847E+03 0.  0.
          5    1    3    3  502    0  0.35784715813E+02  0.53431447079E+02 -0.53735517233E+01  0.64666938082E+02  0.41800000000E+01 0. -1.
         -5    1    3    3    0  502 -0.37201207015E+02 -0.25993244924E+01 -0.99382701052E+02  0.10623125698E+03  0.41800000000E+01 0. -1.
        -11    1    1    2    0    0 -0.97292839853E+01 -0.24334394308E+02  0.66873677644E+01  0.27047044216E+02  0.00000000000E+00 0.  1.
         11    1    1    2    0    0  0.11145775188E+02 -0.26497728279E+02 -0.12800323953E+03  0.13119141450E+03  0.00000000000E+00 0. -1.
</event>
<event>
 7    1  0.4209878E-009  0.1142777E+03  0.7561462E-02  0.1252847E+00
         -2   -1    0    0    0  501 -0.00000000000E+00  0.00000000000E+00  0.13834767000E+02  0.13834767000E+02  0.00000000000E+00 0.  1.
          2   -1    0    0  501    0  0.00000000000E+00 -0.00000000000E+00 -0.12071683244E+04  0.12071683244E+04  0.00000000000E+00 0. -1.
         25    2    1    2    0    0  0.67304312897E+02  0.46960883996E+01 -0.74416679094E+03  0.75761542096E+03  0.12507993265E+03 0.  0.
          5    1    3    3  502    0 -0.34395783984E+02  0.42264789719E+00 -0.29567483989E+03  0.29769839088E+03  0.41800000000E+01 0. -1.
         -5    1    3    3    0  502  0.10170009688E+03  0.42734405024E+01 -0.44849195104E+03  0.45991703007E+03  0.41800000000E+01 0. -1.
        -11    1    1    2    0    0 -0.66547276856E+02 -0.25459544057E+02 -0.42739234922E+03  0.43329083606E+03  0.00000000000E+00 0. -1.
         11    1    1    2    0    0 -0.75703604090E+00  0.20763455657E+02 -0.21774417271E+02  0.30096834416E+02  0.00000000000E+00 0.  1.
</event>
<event>
 6    1  0.2844572E-009  0.1131511E+03  0.7561462E-02  0.1254843E+00
         -3   -1    0    0    0  501 -0.00000000000E+00  0.00000000000E+00  0.72373199833E+02  0.72373199833E+02  0.00000000000E+00 0.  1.
          3   -1    0    0  501    0  0.00000000000E+00 -0.00000000000E+00 -0.27539172373E+03  0.27539172373E+03  0.00000000000E+00 0. -1.
          5    1    1    2  502    0 -0.85850187143E+01 -0.30913109197E+02 -0.76740888504E+02  0.83282406515E+02  0.41800000000E+01 0. -1.
         -5    1    1    2    0  502  0.15231135493E+02  0.10374266763E+03 -0.10046036905E+03  0.14527314523E+03  0.41800000000E+01 0. -1.
        -11    1    1    2    0    0  0.16407676391E+02 -0.60861946162E+02  0.20348543291E+02  0.66237840765E+02  0.00000000000E+00 0.  1.
         11    1    1    2    0    0 -0.23053793169E+02 -0.11967612269E+02 -0.46165809630E+02  0.52971531049E+02  0.00000000000E+00 0. -1.
</event>
<event>
 7    1  0.2844572E-009  0.2969426E+03  0.7561462E-02  0.1086779E+00
         -1   -1    0    0    0  501 -0.00000000000E+00  0.00000000000E+00  0.15814250459E+03  0.15814250459E+03  0.00000000000E+00 0.  1.
          1   -1    0    0  501    0  0.00000000000E+00 -0.00000000000E+00 -0.66085350592E+03  0.66085350592E+03  0.00000000000E+00 0. -1.
         25    2    1    2    0    0 -0.22538574329E+03  0.18078591952E+03 -0.37604739704E+03  0.49044955537E+03  0.12508732775E+03 0.  0.
          5    1    3    3  502    0 -0.12172492260E+03  0.14824752846E+03 -0.16505819701E+03  0.25309280369E+03  0.41800000000E+01 0.  1.
         -5    1    3    3    0  502 -0.10366082069E+03  0.32538391056E+02 -0.21098920003E+03  0.23735675168E+03  0.41800000000E+01 0.  1.
        -11    1    1    2    0    0  0.82699400381E+02 -0.36584719155E+02 -0.20234708938E+01  0.90452898978E+02  0.00000000000E+00 0.  1.
         11    1    1    2    0    0  0.14268634291E+03 -0.14420120036E+03 -0.12464013339E+03  0.23809355617E+03  0.00000000000E+00 0. -1.
</event>
<event>
 7    1  0.2844572E-009  0.2473034E+03  0.7561462E-02  0.1115021E+00
         -3   -1    0    0    0  501 -0.00000000000E+00  0.00000000000E+00  0.14397535067E+03  0.14397535067E+03  0.00000000000E+00 0.  1.
          3   -1    0    0  501    0  0.00000000000E+00 -0.00000000000E+00 -0.54411206219E+03  0.54411206219E+03  0.00000000000E+00 0. -1.
         25    2    1    2    0    0 -0.23298608910E+03 -0.40463174340E+02 -0.80091881071E+02  0.27925345969E+03  0.12509196275E+03 0.  0.
          5    1    3    3  502    0 -0.14099821414E+03  0.18814534239E+02  0.21050351956E+01  0.14232493338E+03  0.41800000000E+01 0.  1.
         -5    1    3    3    0  502 -0.91987874964E+02 -0.59277708579E+02 -0.82196916267E+02  0.13692852631E+03  0.41800000000E+01 0.  1.
        -11    1    1    2    0    0  0.19348637198E+03  0.11545093116E+02 -0.19681319673E+03  0.27623486334E+03  0.00000000000E+00 0.  1.
         11    1    1    2    0    0  0.39499717117E+02  0.28918081224E+02 -0.12323163372E+03  0.13259908983E+03  0.00000000000E+00 0. -1.
</event>
<event>
 7    1  0.2844572E-009  0.1693916E+03  0.7561462E-02  0.1178484E+00
          2   -1    0    0  501    0  0.00000000000E+00  0.00000000000E+00  0.38091723085E+03  0.38091723085E+03  0.00000000000E+00 0. -1.
         -2   -1    0    0    0  501 -0.00000000000E+00 -0.00000000000E+00 -0.98614457133E+02  0.98614457133E+02  0.00000000000E+00 0.  1.
         25    2    1    2    0    0 -0.23082407874E+02 -0.15798350570E+03  0.13610493539E+03  0.24426168024E+03  0.12509048472E+03 0.  0.
          5    1    3    3  502    0  0.15566877952E+02 -0.23246103180E+02 -0.19829368705E+02  0.34545408747E+02  0.41800000000E+01 0.  1.
         -5    1    3    3    0  502 -0.38649285826E+02 -0.13473740252E+03  0.15593430410E+03  0.20971627149E+03  0.41800000000E+01 0.  1.
        -11    1    1    2    0    0  0.23169241949E+02  0.15720064175E+02 -0.41258216513E+01  0.28301176556E+02  0.00000000000E+00 0.  1.
         11    1    1    2    0    0 -0.86834074639E-01  0.14226344153E+03  0.15032365998E+03  0.20696883119E+03  0.00000000000E+00 0. -1.
</event>
<event>
 7    1  0.2844572E-009  0.1333672E+03  0.7561462E-02  0.1222543E+00
         -2   -1    0    0    0  501 -0.00000000000E+00  0.00000000000E+00  0.91531750620E+02  0.91531750620E+02  0.00000000000E+00 0.  1.
          2   -1    0    0  501    0  0.00000000000E+00 -0.00000000000E+00 -0.20051065930E+03  0.20051065930E+03  0.00000000000E+00 0. -1.
         25    2    1    2    0    0 -0.32686394658E+02  0.70525932604E+02 -0.74430694761E+02  0.16501595366E+03  0.12509208238E+03 0.  0.
          5    1    3    3  502    0 -0.69725029757E+02  0.80786230496E+02 -0.65683543101E+02  0.12537860681E+03  0.41800000000E+01 0.  1.
         -5    1    3    3    0  502  0.37038635098E+02 -0.10260297892E+02 -0.87471516596E+01  0.39637346845E+02  0.41800000000E+01 0.  1.
        -11    1    1    2    0    0  0.55867320267E+02 -0.10385191516E+02 -0.24133688625E+02  0.61736898231E+02  0.00000000000E+00 0. -1.
         11    1    1    2    0    0 -0.23180925608E+02 -0.60140741088E+02 -0.10414525294E+02  0.65289558030E+02  0.00000000000E+00 0.  1.
</event>
<event>
 7    1  0.2844572E-009  0.1036107E+03  0.7561462E-02  0.1272881E+00
         -1   -1    0    0    0  501 -0.00000000000E+00  0.00000000000E+00  0.18104391554E+03  0.18104391554E+03  0.00000000000E+00 0.  1.
          1   -1    0    0  501    0  0.00000000000E+00 -0.00000000000E+00 -0.89751142852E+02  0.89751142852E+02  0.00000000000E+00 0. -1.
         25    2    1    2    0    0 -0.11218692726E+02  0.14874246570E+02 -0.19985227470E+02  0.12804127821E+03  0.12509219532E+03 0.  0.
          5    1    3    3  502    0 -0.31236193275E+02  0.63739716715E+02 -0.23670669916E+02  0.74941472307E+02  0.41800000000E+01 0. -1.
         -5    1    3    3    0  502  0.20017500549E+02 -0.48865470145E+02  0.36854424459E+01  0.53099805901E+02  0.41800000000E+01 0. -1.
        -11    1    1    2    0    0 -0.30848019692E+02 -0.25195926808E+02  0.27376321368E+02  0.48331128874E+02  0.00000000000E+00 0. -1.
         11    1    1    2    0    0  0.42066712418E+02  0.10321680238E+02  0.83901678787E+02  0.94422651307E+02  0.00000000000E+00 0.  1.
</event>
<event>
 7    1  0.2844572E-009  0.2323917E+03  0.7561462E-02  0.1124968E+00
          2   -1    0    0  501    0  0.00000000000E+00  0.00000000000E+00  0.14246769756E+04  0.14246769756E+04  0.00000000000E+00 0. -1.
         -2   -1    0    0    0  501 -0.00000000000E+00 -0.00000000000E+00 -0.46027893807E+02  0.46027893807E+02  0.00000000000E+00 0.  1.
         25    2    1    2    0    0 -0.12557562091E+03 -0.17828666833E+03  0.70444727884E+03  0.74796261103E+03  0.12508687445E+03 0.  0.
          5    1    3    3  502    0 -0.10506724032E+03 -0.13606904276E+03  0.34543714996E+03  0.38587330350E+03  0.41800000000E+01 0.  1.
         -5    1    3    3    0  502 -0.20508380587E+02 -0.42217625576E+02  0.35901012889E+03  0.36208930753E+03  0.41800000000E+01 0.  1.
        -11    1    1    2    0    0  0.10047758434E+03  0.45042425233E+02  0.42511259115E+03  0.43914152637E+03  0.00000000000E+00 0. -1.
         11    1    1    2    0    0  0.25098036565E+02  0.13324424310E+03  0.24908921176E+03  0.28360073197E+03  0.00000000000E+00 0.  1.
</event>
<event>
 7    1  0.2844572E-009  0.1228393E+03  0.7561462E-02  0.1238485E+00
         -2   -1    0    0    0  501 -0.00000000000E+00  0.00000000000E+00  0.29692345417E+02  0.29692345417E+02  0.00000000000E+00 0.  1.
          2   -1    0    0  501    0  0.00000000000E+00 -0.00000000000E+00 -0.71871633695E+03  0.71871633695E+03  0.00000000000E+00 0. -1.
         25    2    1    2    0    0  0.56396368335E+02 -0.80264367574E+02 -0.36019711904E+03  0.39372424633E+03  0.12511554071E+03 0.  0.
          5    1    3    3  502    0  0.74925538822E+02 -0.52252435264E+02 -0.11855163277E+03  0.14972012353E+03  0.41800000000E+01 0.  1.
         -5    1    3    3    0  502 -0.18529170487E+02 -0.28011932310E+02 -0.24164548627E+03  0.24400412280E+03  0.41800000000E+01 0.  1.
        -11    1    1    2    0    0  0.12458038386E+02 -0.25253942534E+01 -0.54137710605E+01  0.13816267719E+02  0.00000000000E+00 0.  1.
         11    1    1    2    0    0 -0.68854406722E+02  0.82789761827E+02 -0.32341310144E+03  0.34086816831E+03  0.00000000000E+00 0. -1.
</event>
<event>
 7    1  0.2844572E-009  0.1992495E+03  0.7561462E-02  0.1150374E+00
          1   -1    0    0  501    0  0.00000000000E+00  0.00000000000E+00  0.96788519954E+03  0.96788519954E+03  0.00000000000E+00 0. -1.
         -1   -1    0    0    0  501 -0.00000000000E+00 -0.00000000000E+00 -0.49451492672E+02  0.49451492672E+02  0.00000000000E+00 0.  1.
         25    2    1    2    0    0  0.15196892754E+03 -0.90544166708E+02  0.63238367259E+03  0.66846883677E+03  0.12509466542E+03 0.  0.
          5    1    3    3  502    0  0.87296255839E+02  0.93105438688E+01  0.17477668383E+03  0.19563150084E+03  0.41800000000E+01 0. -1.
         -5    1    3    3    0  502  0.64672671699E+02 -0.99854710577E+02  0.45760698876E+03  0.47283733593E+03  0.41800000000E+01 0. -1.
        -11    1    1    2    0    0 -0.58838185656E+02  0.77835912102E+02  0.96186050354E+02  0.13701137758E+03  0.00000000000E+00 0.  1.
         11    1    1    2    0    0 -0.93130741883E+02  0.12708254605E+02  0.18986398393E+03  0.21185647786E+03  0.00000000000E+00 0. -1.
</event>
<event>
 7    1  0.2844572E-009  0.1084853E+03  0.7561462E-02  0.1263401E+00
         -2   -1    0    0    0  501 -0.00000000000E+00  0.00000000000E+00  0.17272854690E+03  0.17272854690E+03  0.00000000000E+00 0.  1.
          2   -1    0    0  501    0  0.00000000000E+00 -0.00000000000E+00 -0.10595885066E+03  0.10595885066E+03  0.00000000000E+00 0. -1.
         25    2    1    2    0    0 -0.57884404966E+02 -0.47117383080E+02  0.44786310428E+01  0.14573522450E+03  0.12509214763E+03 0.  0.
          5    1    3    3  502    0 -0.22987237318E+02 -0.61199174197E+02  0.52948086925E+02  0.84230186459E+02  0.41800000000E+01 0.  1.
         -5    1    3    3    0  502 -0.34897167649E+02  0.14081791117E+02 -0.48469455882E+02  0.61505038042E+02  0.41800000000E+01 0.  1.
        -11    1    1    2    0    0  0.63530163820E+02 -0.25809888664E+01  0.17843501334E+02  0.66038880657E+02  0.00000000000E+00 0. -1.
         11    1    1    2    0    0 -0.56457588539E+01  0.49698371946E+02  0.44447563866E+02  0.66913292407E+02  0.00000000000E+00 0.  1.
</event>
<event>
 7    1  0.2844572E-009  0.1203917E+03  0.7561462E-02  0.1242452E+00
          1   -1    0    0  501    0  0.00000000000E+00  0.00000000000E+00  0.29978180191E+03  0.29978180191E+03  0.00000000000E+00 0. -1.
         -1   -1    0    0    0  501 -0.00000000000E+00 -0.00000000000E+00 -0.65390599028E+02  0.65390599028E+02  0.00000000000E+00 0.  1.
         25    2    1    2    0    0  0.61764399925E+02 -0.62353583437E+02  0.13784896298E+03  0.20579359804E+03  0.12508340392E+03 0.  0.
          5    1    3    3  502    0  0.97428801753E+02 -0.24516303887E+02  0.94008986401E+02  0.13765385026E+03  0.41800000000E+01 0.  1.
         -5    1    3    3    0  502 -0.35664401828E+02 -0.37837279550E+02  0.43839976576E+02  0.68139747781E+02  0.41800000000E+01 0.  1.
        -11    1    1    2    0    0 -0.48673956181E+02  0.44669043513E+02  0.61528736392E+01  0.66350096554E+02  0.00000000000E+00 0.  1.
         11    1    1    2    0    0 -0.13090443744E+02  0.17684539923E+02  0.90389366266E+02  0.93028706342E+02  0.00000000000E+00 0. -1.
</event>
<event>
 7    1  0.2844572E-009  0.2078571E+03  0.7561462E-02  0.1143274E+00
         -1   -1    0    0    0  501 -0.00000000000E+00  0.00000000000E+00  0.68324380333E+02  0.68324380333E+02  0.00000000000E+00 0.  1.
          1   -1    0    0  501    0  0.00000000000E+00 -0.00000000000E+00 -0.77424795744E+03  0.77424795744E+03  0.00000000000E+00 0. -1.
         25    2    1    2    0    0  0.17708235139E+03  0.57533923374E+02 -0.52127672052E+03  0.56748933616E+03  0.12508563383E+03 0.  0.
          5    1    3    3  502    0  0.96542380360E+02  0.91490256123E+02 -0.36316909039E+03  0.38678179738E+03  0.41800000000E+01 0. -1.
         -5    1    3    3    0  502  0.80539971027E+02 -0.33956332749E+02 -0.15810763013E+03  0.18070753878E+03  0.41800000000E+01 0. -1.
        -11    1    1    2    0    0 -0.57388835415E+02 -0.48436848307E+02 -0.11176444828E+03  0.13465102526E+03  0.00000000000E+00 0.  1.
         11    1    1    2    0    0 -0.11969351597E+03 -0.90970750677E+01 -0.72882408305E+02  0.14043197635E+03  0.00000000000E+00 0. -1.
</event>
<event>
 7    1  0.2844572E-009  0.1118190E+03  0.7561462E-02  0.1257238E+00
          2   -1    0    0  501    0  0.00000000000E+00  0.00000000000E+00  0.55199726493E+03  0.55199726493E+03  0.00000000000E+00 0. -1.
         -2   -1    0    0    0  501 -0.00000000000E+00 -0.00000000000E+00 -0.27137304187E+02  0.27137304187E+02  0.00000000000E+00 0.  1.
         25    2    1    2    0    0 -0.38269700974E+02  0.46703960896E+01  0.38587401948E+03  0.40747157888E+03  0.12509175061E+03 0.  0.
          5    1    3    3  502    0  0.42681965403E+02  0.65555055318E+00  0.77289801614E+02  0.88393244938E+02  0.41800000000E+01 0.  1.
         -5    1    3    3    0  502 -0.80951666377E+02  0.40148455365E+01  0.30858421787E+03  0.31907833394E+03  0.41800000000E+01 0.  1.
        -11    1    1    2    0    0  0.35208800737E+02 -0.46121164298E+02  0.67877168069E+02  0.89297992087E+02  0.00000000000E+00 0. -1.
         11    1    1    2    0    0  0.30609002363E+01  0.41450768209E+02  0.71108773192E+02  0.82364998150E+02  0.00000000000E+00 0.  1.
</event>
<event>
 7    1  0.2844572E-009  0.1765374E+03  0.7561462E-02  0.1171197E+00
          1   -1    0    0  501    0  0.00000000000E+00  0.00000000000E+00  0.13899918720E+04  0.13899918720E+04  0.00000000000E+00 0. -1.
         -1   -1    0    0    0  501 -0.00000000000E+00 -0.00000000000E+00 -0.24277586031E+02  0.24277586031E+02  0.00000000000E+00 0.  1.
         25    2    1    2    0    0  0.25909619778E+02 -0.14489297468E+03  0.65331843312E+03  0.68127678545E+03  0.12509117003E+03 0.  0.
          5    1    3    3  502    0  0.54767882449E+02 -0.11688022706E+02  0.21688382861E+03  0.22403615408E+03  0.41800000000E+01 0. -1.
         -5    1    3    3    0  502 -0.28858262672E+02 -0.13320495197E+03  0.43643460451E+03  0.45724063137E+03  0.41800000000E+01 0. -1.
        -11    1    1    2    0    0 -0.40528925082E+02  0.49144882707E+02  0.16080837737E+03  0.17296574082E+03  0.00000000000E+00 0.  1.
         11    1    1    2    0    0  0.14619305304E+02  0.95748091969E+02  0.55158747542E+03  0.56002693171E+03  0.00000000000E+00 0. -1.
</event>
<event>
 7    1  0.2844572E-009  0.4932598E+02  0.7561462E-02  0.1449011E+00
         -2   -1    0    0    0  501 -0.00000000000E+00  0.00000000000E+00  0.17848978479E+02  0.17848978479E+02  0.00000000000E+00 0.  1.
          2   -1    0    0  501    0  0.00000000000E+00 -0.00000000000E+00 -0.89695291264E+03  0.89695291264E+03  0.00000000000E+00 0. -1.
         25    2    1    2    0    0 -0.65554382530E+01 -0.25827601459E+02 -0.72333433891E+03  0.73455360964E+03  0.12508557399E+03 0.  0.
          5    1    3    3  502    0 -0.25128097637E+02 -0.22186278739E+02 -0.46674655079E+02  0.57616387269E+02  0.41800000000E+01 0.  1.
         -5    1    3    3    0  502  0.18572659384E+02 -0.36413227204E+01 -0.67665968383E+03  0.67693722237E+03  0.41800000000E+01 0.  1.
        -11    1    1    2    0    0 -0.96716214908E+01 -0.48233942491E+01  0.76165432082E+01  0.13221842715E+02  0.00000000000E+00 0.  1.
         11    1    1    2    0    0  0.16227059744E+02  0.30650995709E+02 -0.16338613846E+03  0.16702643877E+03  0.00000000000E+00 0. -1.
</event>
<event>
 7    1  0.2844572E-009  0.9946811E+02  0.7561462E-02  0.1281418E+00
          4   -1    0    0  501    0  0.00000000000E+00  0.00000000000E+00  0.27656661592E+02  0.27656661592E+02  0.00000000000E+00 0. -1.
         -4   -1    0    0    0  501 -0.00000000000E+00 -0.00000000000E+00 -0.44275358960E+03  0.44275358960E+03  0.00000000000E+00 0.  1.
         25    2    1    2    0    0 -0.15059679588E+02  0.14840257303E+02 -0.22456351660E+03  0.25794839521E+03  0.12514621217E+03 0.  0.
          5    1    3    3  502    0 -0.86373351380E+01  0.59461437947E+02 -0.52088322366E+02  0.79629968528E+02  0.41800000000E+01 0.  1.
         -5    1    3    3    0  502 -0.64223444502E+01 -0.44621180644E+02 -0.17247519423E+03  0.17831842668E+03  0.41800000000E+01 0.  1.
        -11    1    1    2    0    0  0.10534884985E+02  0.38491824347E+02 -0.69949232906E+02  0.80532599159E+02  0.00000000000E+00 0. -1.
         11    1    1    2    0    0  0.45247946031E+01 -0.53332081650E+02 -0.12058417851E+03  0.13192925682E+03  0.00000000000E+00 0.  1.
</event>
<event>
 7    1  0.2844572E-009  0.2411073E+03  0.7561462E-02  0.1119057E+00
          1   -1    0    0  501    0  0.00000000000E+00  0.00000000000E+00  0.23148320060E+04  0.23148320060E+04  0.00000000000E+00 0. -1.
         -1   -1    0    0    0  501 -0.00000000000E+00 -0.00000000000E+00 -0.28522206022E+02  0.28522206022E+02  0.00000000000E+00 0.  1.
         25    2    1    2    0    0  0.47853760262E+02  0.21836963918E+03  0.15061728107E+04  0.15278021013E+04  0.12508974065E+03 0.  0.
          5    1    3    3  502    0 -0.34401031114E+02  0.18989073873E+02  0.28420901230E+03  0.28694294021E+03  0.41800000000E+01 0. -1.
         -5    1    3    3    0  502  0.82254791376E+02  0.19938056531E+03  0.12219637984E+04  0.12408591610E+04  0.41800000000E+01 0. -1.
        -11    1    1    2    0    0 -0.24497298929E+02 -0.38741767248E+02  0.78429703529E+02  0.90841953854E+02  0.00000000000E+00 0.  1.
         11    1    1    2    0    0 -0.23356461332E+02 -0.17962787193E+03  0.70170728577E+03  0.72471015693E+03  0.00000000000E+00 0. -1.
</event>
<event>
 7    1  0.2844572E-009  0.1102198E+03  0.7561462E-02  0.1260163E+00
          2   -1    0    0  501    0  0.00000000000E+00  0.00000000000E+00  0.61999844659E+02  0.61999844659E+02  0.00000000000E+00 0. -1.
         -2   -1    0    0    0  501 -0.00000000000E+00 -0.00000000000E+00 -0.24355951207E+03  0.24355951207E+03  0.00000000000E+00 0.  1.
         25    2    1    2    0    0  0.21949798002E+02 -0.44028252823E+02 -0.59912749569E+02  0.14716276526E+03  0.12508821383E+03 0.  0.
          5    1    3    3  502    0 -0.16574962398E+02 -0.72798230977E+02 -0.63255512784E+01  0.75045298393E+02  0.41800000000E+01 0.  1.
         -5    1    3    3    0  502  0.38524760400E+02  0.28769978154E+02 -0.53587198291E+02  0.72117466869E+02  0.41800000000E+01 0.  1.
        -11    1    1    2    0    0 -0.12190696976E+02 -0.24930865791E+02 -0.16533124342E+02  0.32303333610E+02  0.00000000000E+00 0. -1.
         11    1    1    2    0    0 -0.97591010258E+01  0.68959118614E+02 -0.10511379350E+03  0.12609325786E+03  0.00000000000E+00 0.  1.
</event>
<event>
 7    1  0.2844572E-009  0.1288867E+03  0.7561462E-02  0.1229117E+00
          1   -1    0    0  501    0  0.00000000000E+00  0.00000000000E+00  0.67097758366E+02  0.67097758366E+02  0.00000000000E+00 0. -1.
         -1   -1    0    0    0  501 -0.00000000000E+00 -0.00000000000E+00 -0.27272177291E+03  0.27272177291E+03  0.00000000000E+00 0.  1.
         25    2    1    2    0    0  0.10712160063E+02 -0.75932506513E+02 -0.14521135829E+03  0.20643288251E+03  0.12509076898E+03 0.  0.
          5    1    3    3  502    0  0.59535240535E+02 -0.44653238085E+01 -0.64959731453E+02  0.88326797139E+02  0.41800000000E+01 0. -1.
         -5    1    3    3    0  502 -0.48823080473E+02 -0.71467182705E+02 -0.80251626838E+02  0.11810608537E+03  0.41800000000E+01 0. -1.
        -11    1    1    2    0    0 -0.76543519260E+01  0.93312034363E+02 -0.66367815481E+02  0.11476241454E+03  0.00000000000E+00 0.  1.
         11    1    1    2    0    0 -0.30578081365E+01 -0.17379527850E+02  0.59551592314E+01  0.18624234222E+02  0.00000000000E+00 0. -1.
</event>
<event>
 7    1  0.2844572E-009  0.1977391E+03  0.7561462E-02  0.1151661E+00
         -1   -1    0    0    0  501 -0.00000000000E+00  0.00000000000E+00  0.18530327668E+02  0.18530327668E+02  0.00000000000E+00 0.  1.
          1   -1    0    0  501    0  0.00000000000E+00 -0.00000000000E+00 -0.27753942371E+04  0.27753942371E+04  0.00000000000E+00 0. -1.
         25    2    1    2    0    0 -0.12924210409E+03  0.12029672528E+03 -0.19799576983E+04  0.19917466806E+04  0.12509008380E+03 0.  0.
          5    1    3    3  502    0 -0.14087088843E+03  0.13524936561E+03 -0.18603049527E+04  0.18705317393E+04  0.41800000000E+01 0.  1.
         -5    1    3    3    0  502  0.11628784346E+02 -0.14952640324E+02 -0.11965274557E+03  0.12121494132E+03  0.41800000000E+01 0.  1.
        -11    1    1    2    0    0  0.75820862123E+01 -0.25246179791E+02 -0.32088858014E+02  0.41527730903E+02  0.00000000000E+00 0.  1.
         11    1    1    2    0    0  0.12166001787E+03 -0.95050545493E+02 -0.74481735312E+03  0.76065015326E+03  0.00000000000E+00 0. -1.
</event>
<event>
 7    1  0.2844572E-009  0.1384577E+03  0.7561462E-02  0.1215419E+00
         -2   -1    0    0    0  501 -0.00000000000E+00  0.00000000000E+00  0.68218260706E+02  0.68218260706E+02  0.00000000000E+00 0.  1.
          2   -1    0    0  501    0  0.00000000000E+00 -0.00000000000E+00 -0.41194219542E+03  0.41194219542E+03  0.00000000000E+00 0. -1.
         25    2    1    2    0    0  0.94624152073E+02 -0.95394715139E+01 -0.29680277266E+03  0.33583772110E+03  0.12510138843E+03 0.  0.
          5    1    3    3  502    0  0.21182654148E+02 -0.52150968282E+02 -0.19604308781E+03  0.20400684549E+03  0.41800000000E+01 0. -1.
         -5    1    3    3    0  502  0.73441497924E+02  0.42611496768E+02 -0.10075968485E+03  0.13183087561E+03  0.41800000000E+01 0. -1.
        -11    1    1    2    0    0  0.10743765574E+02  0.26630074597E+02 -0.17379313743E+02  0.33565308250E+02  0.00000000000E+00 0.  1.
         11    1    1    2    0    0 -0.10536791765E+03 -0.17090603083E+02 -0.29541848311E+02  0.11075742677E+03  0.00000000000E+00 0. -1.
</event>
<event>
 7    1  0.2844572E-009  0.1687835E+03  0.7561462E-02  0.1179122E+00
         -2   -1    0    0    0  501 -0.00000000000E+00  0.00000000000E+00  0.36265098588E+03  0.36265098588E+03  0.00000000000E+00 0.  1.
          2   -1    0    0  501    0  0.00000000000E+00 -0.00000000000E+00 -0.93873594006E+02  0.93873594006E+02  0.00000000000E+00 0. -1.
         25    2    1    2    0    0  0.55633490393E+02  0.12699837464E+03  0.20924307123E+03  0.28045296605E+03  0.12509009110E+03 0.  0.
          5    1    3    3  502    0  0.13799569999E+02 -0.19340297517E+02  0.70313126823E+02  0.74336286185E+02  0.41800000000E+01 0.  1.
         -5    1    3    3    0  502  0.41833920395E+02  0.14633867216E+03  0.13892994441E+03  0.20611667986E+03  0.41800000000E+01 0.  1.
        -11    1    1    2    0    0 -0.74825411498E+02 -0.11861117904E+03  0.36446760852E+02  0.14489934567E+03  0.00000000000E+00 0. -1.
         11    1    1    2    0    0  0.19191921105E+02 -0.83871956000E+01  0.23087559786E+02  0.31172268166E+02  0.00000000000E+00 0.  1.
</event>
<event>
 7    1  0.2844572E-009  0.1007224E+03  0.7561462E-02  0.1278784E+00
          2   -1    0    0  501    0  0.00000000000E+00  0.00000000000E+00  0.25095021245E+03  0.25095021245E+03  0.00000000000E+00 0. -1.
         -2   -1    0    0    0  501 -0.00000000000E+00 -0.00000000000E+00 -0.48469574908E+02  0.48469574908E+02  0.00000000000E+00 0.  1.
         25    2    1    2    0    0 -0.18052920776E+02 -0.68458342224E+01  0.10874217530E+03  0.16686778285E+03  0.12508885989E+03 0.  0.
          5    1    3    3  502    0  0.28337855130E+02  0.46224819623E+02  0.60508528080E+02  0.81354301379E+02  0.41800000000E+01 0. -1.
         -5    1    3    3    0  502 -0.46390775905E+02 -0.53070653845E+02  0.48233647216E+02  0.85513481466E+02  0.41800000000E+01 0. -1.
        -11    1    1    2    0    0  0.32552308394E+02  0.33122299792E+02  0.91311264335E+02  0.10244260110E+03  0.00000000000E+00 0. -1.
         11    1    1    2    0    0 -0.14499387618E+02 -0.26276465569E+02  0.24271979084E+01  0.30109403412E+02  0.00000000000E+00 0.  1.
</event>
<event>
 7    1  0.2844572E-009  0.1554451E+03  0.7561462E-02  0.1193937E+00
          1   -1    0    0  501    0  0.00000000000E+00  0.00000000000E+00  0.38022410161E+02  0.38022410161E+02  0.00000000000E+00 0. -1.
         -1   -1    0    0    0  501 -0.00000000000E+00 -0.00000000000E+00 -0.70113539849E+03  0.70113539849E+03  0.00000000000E+00 0.  1.
         25    2    1    2    0    0  0.53639104026E+02 -0.10551514586E+03 -0.41259081669E+03  0.44708928553E+03  0.12508815983E+03 0.  0.
          5    1    3    3  502    0 -0.29897680014E+02  0.53484939560E+01 -0.48124095786E+02  0.57060307158E+02  0.41800000000E+01 0. -1.
         -5    1    3    3    0  502  0.83536784040E+02 -0.11086363982E+03 -0.36446672091E+03  0.39002897837E+03  0.41800000000E+01 0. -1.
        -11    1    1    2    0    0 -0.68364651104E+02  0.52118835013E+02 -0.19747084847E+03  0.21537138733E+03  0.00000000000E+00 0.  1.
         11    1    1    2    0    0  0.14725547078E+02  0.53396310848E+02 -0.53051323162E+02  0.76697135789E+02  0.00000000000E+00 0. -1.
</event>
<event>
 7    1  0.2844572E-009  0.8406758E+02  0.7561462E-02  0.1317889E+00
         -1   -1    0    0    0  501 -0.00000000000E+00  0.00000000000E+00  0.17966687677E+03  0.17966687677E+03  0.00000000000E+00 0.  1.
          1   -1    0    0  501    0  0.00000000000E+00 -0.00000000000E+00 -0.11100828192E+03  0.11100828192E+03  0.00000000000E+00 0. -1.
         25    2    1    2    0    0  0.46074689263E+02 -0.57793882094E+01  0.11833461250E+03  0.17835261020E+03  0.12510113801E+03 0.  0.
          5    1    3    3  502    0  0.22409710584E+02 -0.44861218253E+02  0.12235400579E+03  0.13229776705E+03  0.41800000000E+01 0. -1.
         -5    1    3    3    0  502  0.23664978678E+02  0.39081830044E+02 -0.40193932926E+01  0.46054843153E+02  0.41800000000E+01 0. -1.
        -11    1    1    2    0    0 -0.45258703042E+02 -0.17586124208E+02  0.87996005122E+01  0.49346275796E+02  0.00000000000E+00 0.  1.
         11    1    1    2    0    0 -0.81598622014E+00  0.23365512418E+02 -0.58475618156E+02  0.62976272697E+02  0.00000000000E+00 0. -1.
</event>
<event>
 7    1  0.2844572E-009  0.1763721E+03  0.7561462E-02  0.1171361E+00
         -1   -1    0    0    0  501 -0.00000000000E+00  0.00000000000E+00  0.38778556920E+02  0.38778556920E+02  0.00000000000E+00 0.  1.
          1   -1    0    0  501    0  0.00000000000E+00 -0.00000000000E+00 -0.88861569757E+03  0.88861569757E+03  0.00000000000E+00 0. -1.
         25    2    1    2    0    0 -0.17916018052E+02  0.14349864151E+03 -0.34172405218E+03  0.39158143565E+03  0.12509136295E+03 0.  0.
          5    1    3    3  502    0 -0.65175591939E+02  0.72843180188E+02 -0.23856890029E+03  0.25784991618E+03  0.41800000000E+01 0. -1.
         -5    1    3    3    0  502  0.47259573887E+02  0.70655461326E+02 -0.10315515189E+03  0.13373151947E+03  0.41800000000E+01 0. -1.
        -11    1    1    2    0    0 -0.27180517197E+02 -0.11083907762E+03 -0.32775636814E+03  0.34705665027E+03  0.00000000000E+00 0. -1.
         11    1    1    2    0    0  0.45096535249E+02 -0.32659563899E+02 -0.18035672033E+03  0.18875616857E+03  0.00000000000E+00 0.  1.
</event>
<event>
 7    1  0.2844572E-009  0.1084026E+03  0.7561462E-02  0.1263557E+00
         -1   -1    0    0    0  501 -0.00000000000E+00  0.00000000000E+00  0.14712965378E+03  0.14712965378E+03  0.00000000000E+00 0.  1.
          1   -1    0    0  501    0  0.00000000000E+00 -0.00000000000E+00 -0.94645742313E+02  0.94645742313E+02  0.00000000000E+00 0. -1.
         25    2    1    2    0    0  0.91489476253E+01  0.40002914870E+02  0.19955629527E+02  0.13315424366E+03  0.12509152255E+03 0.  0.
          5    1    3    3  502    0  0.58512541632E+02  0.12937588587E+01  0.35250651701E+02  0.68450509023E+02  0.41800000000E+01 0.  1.
         -5    1    3    3    0  502 -0.49363594006E+02  0.38709156012E+02 -0.15295022174E+02  0.64703734635E+02  0.41800000000E+01 0.  1.
        -11    1    1    2    0    0 -0.20127374348E+02 -0.64953380375E+02  0.24725652898E+01  0.68045326066E+02  0.00000000000E+00 0. -1.
         11    1    1    2    0    0  0.10978426723E+02  0.24950465505E+02  0.30055716649E+02  0.40575826369E+02  0.00000000000E+00 0.  1.
</event>
<event>
 7    1  0.2844572E-009  0.1040992E+03  0.7561462E-02  0.1271905E+00
          1   -1    0    0  501    0  0.00000000000E+00  0.00000000000E+00  0.27519661030E+03  0.27519661030E+03  0.00000000000E+00 0. -1.
         -1   -1    0    0    0  501 -0.00000000000E+00 -0.00000000000E+00 -0.45452391521E+02  0.45452391521E+02  0.00000000000E+00 0.  1.
         25    2    1    2    0    0  0.16207899989E+01  0.24934931019E+01  0.15199970899E+03  0.19687701872E+03  0.12509118475E+03 0.  0.
          5    1    3    3  502    0 -0.54902451329E+02 -0.22403386643E+01  0.11895460454E+03  0.13109907941E+03  0.41800000000E+01 0. -1.
         -5    1    3    3    0  502  0.56523241328E+02  0.47338317661E+01  0.33045104444E+02  0.65777939319E+02  0.41800000000E+01 0. -1.
        -11    1    1    2    0    0 -0.19261213886E+02  0.43165689239E+02  0.35492789000E+02  0.59110144297E+02  0.00000000000E+00 0.  1.
         11    1    1    2    0    0  0.17640423887E+02 -0.45659182341E+02  0.42251720794E+02  0.64661838800E+02  0.00000000000E+00 0. -1.
</event>
<event>
 7    1  0.2844572E-009  0.8550703E+02  0.7561462E-02  0.1314112E+00
          2   -1    0    0  501    0  0.00000000000E+00  0.00000000000E+00  0.42474732542E+03  0.42474732542E+03  0.00000000000E+00 0. -1.
         -2   -1    0    0    0  501 -0.00000000000E+00 -0.00000000000E+00 -0.30509341132E+02  0.30509341132E+02  0.00000000000E+00 0.  1.
         25    2    1    2    0    0  0.83369818342E+01 -0.10632274870E+01  0.16473602957E+03  0.20701374774E+03  0.12508435792E+03 0.  0.
          5    1    3    3  502    0 -0.25871198324E+02 -0.25685485217E+02 -0.23136758136E+00  0.36695898743E+02  0.41800000000E+01 0. -1.
         -5    1    3    3    0  502  0.34208180159E+02  0.24622257730E+02  0.16496739715E+03  0.17031784900E+03  0.41800000000E+01 0. -1.
        -11    1    1    2    0    0 -0.50147342379E+02  0.47143816834E+00  0.95474384720E+02  0.10784403711E+03  0.00000000000E+00 0.  1.
         11    1    1    2    0    0  0.41810360545E+02  0.59178931862E+00  0.13402757000E+03  0.14039888171E+03  0.00000000000E+00 0. -1.
</event>
<event>
 7    1  0.2844572E-009  0.9616991E+02  0.7561462E-02  0.1288563E+00
          1   -1    0    0  501    0  0.00000000000E+00  0.00000000000E+00  0.11499666378E+03  0.11499666378E+03  0.00000000000E+00 0. -1.
         -1   -1    0    0    0  501 -0.00000000000E+00 -0.00000000000E+00 -0.13640157058E+03  0.13640157058E+03  0.00000000000E+00 0.  1.
         25    2    1    2    0    0 -0.40759819845E+02 -0.25936554211E+02 -0.52082251199E+02  0.14385355944E+03  0.12508884010E+03 0.  0.
          5    1    3    3  502    0 -0.74942581010E+02 -0.31289137635E+02 -0.16023290154E+00  0.81319731044E+02  0.41800000000E+01 0. -1.
         -5    1    3    3    0  502  0.34182761166E+02  0.53525834239E+01 -0.51922018298E+02  0.62533828399E+02  0.41800000000E+01 0. -1.
        -11    1    1    2    0    0  0.34372108776E+02 -0.12973108585E+02 -0.21174046417E+02  0.42403816452E+02  0.00000000000E+00 0.  1.
         11    1    1    2    0    0  0.63877110690E+01  0.38909662796E+02  0.51851390822E+02  0.65140858466E+02  0.00000000000E+00 0. -1.
</event>
<event>
 7    1  0.2844572E-009  0.1835847E+03  0.7561462E-02  0.1164378E+00
          1   -1    0    0  501    0  0.00000000000E+00  0.00000000000E+00  0.52580923839E+03  0.52580923839E+03  0.00000000000E+00 0. -1.
         -1   -1    0    0    0  501 -0.00000000000E+00 -0.00000000000E+00 -0.67424817913E+02  0.67424817913E+02  0.00000000000E+00 0.  1.
         25    2    1    2    0    0 -0.11364631826E+03 -0.10310746554E+03  0.21757983374E+03  0.29416848788E+03  0.12508988812E+03 0.  0.
          5    1    3    3  502    0 -0.49799480143E+02  0.23310124212E+02  0.47306792658E+02  0.72655042116E+02  0.41800000000E+01 0. -1.
         -5    1    3    3    0  502 -0.63846838114E+02 -0.12641758976E+03  0.17027304108E+03  0.22151344576E+03  0.41800000000E+01 0. -1.
        -11    1    1    2    0    0  0.10235429283E+03  0.11499075684E+03  0.18381377269E+03  0.23976400575E+03  0.00000000000E+00 0.  1.
         11    1    1    2    0    0  0.11292025427E+02 -0.11883291293E+02  0.56990814045E+02  0.59301562675E+02  0.00000000000E+00 0. -1.
</event>
<event>
 7    1  0.2844572E-009  0.1321438E+03  0.7561462E-02  0.1224309E+00
          3   -1    0    0  501    0  0.00000000000E+00  0.00000000000E+00  0.12163858805E+04  0.12163858805E+04  0.00000000000E+00 0. -1.
         -3   -1    0    0    0  501 -0.00000000000E+00 -0.00000000000E+00 -0.15587663954E+02  0.15587663954E+02  0.00000000000E+00 0.  1.
         25    2    1    2    0    0  0.27419804536E+02 -0.69825870911E+02  0.82501565115E+03  0.83780959143E+03  0.12508632587E+03 0.  0.
          5    1    3    3  502    0 -0.49629746395E+02 -0.20717981664E+02  0.27496114625E+03  0.28020251755E+03  0.41800000000E+01 0.  1.
         -5    1    3    3    0  502  0.77049550930E+02 -0.49107889248E+02  0.55005450489E+03  0.55760707388E+03  0.41800000000E+01 0.  1.
        -11    1    1    2    0    0 -0.59414730067E+02  0.26588257979E+02  0.21311731095E+03  0.22283633868E+03  0.00000000000E+00 0. -1.
         11    1    1    2    0    0  0.31994925531E+02  0.43237612932E+02  0.16266525445E+03  0.17132761434E+03  0.00000000000E+00 0.  1.
</event>
<event>
 7    1  0.2844572E-009  0.1716395E+03  0.7561462E-02  0.1176149E+00
         -2   -1    0    0    0  501 -0.00000000000E+00  0.00000000000E+00  0.26118870951E+02  0.26118870951E+02  0.00000000000E+00 0. -1.
          2   -1    0    0  501    0  0.00000000000E+00 -0.00000000000E+00 -0.12285304902E+04  0.12285304902E+04  0.00000000000E+00 0.  1.
         25    2    1    2    0    0 -0.13285305107E+03 -0.21581825648E+02 -0.46908043380E+03  0.50378698759E+03  0.12509663111E+03 0.  0.
          5    1    3    3  502    0 -0.12229016062E+03  0.32587292093E+02 -0.29241890997E+03  0.31865829080E+03  0.41800000000E+01 0. -1.
         -5    1    3    3    0  502 -0.10562890445E+02 -0.54169117741E+02 -0.17666152384E+03  0.18512869679E+03  0.41800000000E+01 0. -1.
        -11    1    1    2    0    0  0.14253053825E+03  0.33036821004E+02 -0.66429214498E+03  0.68021352512E+03  0.00000000000E+00 0.  1.
         11    1    1    2    0    0 -0.96774871844E+01 -0.11454995357E+02 -0.69039040496E+02  0.70648848465E+02  0.00000000000E+00 0. -1.
</event>
<event>
 7    1  0.2844572E-009  0.7089656E+02  0.7561462E-02  0.1357071E+00
         -3   -1    0    0    0  501 -0.00000000000E+00  0.00000000000E+00  0.75316346225E+02  0.75316346225E+02  0.00000000000E+00 0. -1.
          3   -1    0    0  501    0  0.00000000000E+00 -0.00000000000E+00 -0.18809293514E+03  0.18809293514E+03  0.00000000000E+00 0.  1.
         25    2    1    2    0    0  0.30618346994E+02  0.26309360945E+02 -0.10757769070E+03  0.16985355951E+03  0.12509039330E+03 0.  0.
          5    1    3    3  502    0 -0.90083036827E+01  0.65579023992E+01 -0.12239861481E+03  0.12297580626E+03  0.41800000000E+01 0.  1.
         -5    1    3    3    0  502  0.39626650677E+02  0.19751458546E+02  0.14820924104E+02  0.46877753251E+02  0.41800000000E+01 0.  1.
        -11    1    1    2    0    0 -0.50418944730E+02 -0.37352082101E+02 -0.20720110185E+02  0.66080034739E+02  0.00000000000E+00 0.  1.
         11    1    1    2    0    0  0.19800597736E+02  0.11042721156E+02  0.15521211974E+02  0.27475687114E+02  0.00000000000E+00 0. -1.
</event>
<event>
 7    1  0.2844572E-009  0.6626413E+02  0.7561462E-02  0.1373278E+00
          2   -1    0    0  501    0  0.00000000000E+00  0.00000000000E+00  0.38728127380E+02  0.38728127380E+02  0.00000000000E+00 0. -1.
         -2   -1    0    0    0  501 -0.00000000000E+00 -0.00000000000E+00 -0.35689199038E+03  0.35689199038E+03  0.00000000000E+00 0.  1.
         25    2    1    2    0    0  0.97678379075E+01 -0.40944790082E+02 -0.14971418477E+03  0.19958363417E+03  0.12508958156E+03 0.  0.
          5    1    3    3  502    0  0.15400899295E+02 -0.33930268190E+02 -0.17155010237E+03  0.17560000234E+03  0.41800000000E+01 0. -1.
         -5    1    3    3    0  502 -0.56330613879E+01 -0.70145218918E+01  0.21835917602E+02  0.23983631825E+02  0.41800000000E+01 0. -1.
        -11    1    1    2    0    0  0.20121062372E+02  0.49987976709E+02 -0.15086307187E+03  0.16019775723E+03  0.00000000000E+00 0.  1.
         11    1    1    2    0    0 -0.29888900279E+02 -0.90431866271E+01 -0.17586606358E+02  0.35838726365E+02  0.00000000000E+00 0. -1.
</event>
<event>
 7    1  0.2844572E-009  0.1027253E+03  0.7561462E-02  0.1274667E+00
          2   -1    0    0  501    0  0.00000000000E+00  0.00000000000E+00  0.77041541902E+03  0.77041541902E+03  0.00000000000E+00 0. -1.
         -2   -1    0    0    0  501 -0.00000000000E+00 -0.00000000000E+00 -0.19266974067E+02  0.19266974067E+02  0.00000000000E+00 0.  1.
         25    2    1    2    0    0  0.50947854527E+02 -0.22741725341E+02  0.41871391215E+03  0.44054676982E+03  0.12508895325E+03 0.  0.
          5    1    3    3  502    0  0.23624035236E+01 -0.45962294882E+02  0.50741270734E+02  0.68631351851E+02  0.41800000000E+01 0.  1.
         -5    1    3    3    0  502  0.48585451004E+02  0.23220569540E+02  0.36797264141E+03  0.37191541797E+03  0.41800000000E+01 0.  1.
        -11    1    1    2    0    0 -0.76840812752E+02  0.17514033603E+02  0.22162104244E+03  0.23521721520E+03  0.00000000000E+00 0.  1.
         11    1    1    2    0    0  0.25892958225E+02  0.52276917385E+01  0.11081349037E+03  0.11391840806E+03  0.00000000000E+00 0. -1.
</event>
<event>
 7    1  0.2844572E-009  0.1484584E+03  0.7561462E-02  0.1202380E+00
         -2   -1    0    0    0  501 -0.00000000000E+00  0.00000000000E+00  0.32913404011E+02  0.32913404011E+02  0.00000000000E+00 0.  1.
          2   -1    0    0  501    0  0.00000000000E+00 -0.00000000000E+00 -0.14683950699E+04  0.14683950699E+04  0.00000000000E+00 0. -1.
         25    2    1    2    0    0 -0.11645673873E+03  0.54425024367E+02 -0.12461671028E+04  0.12590093350E+04  0.12509117600E+03 0.  0.
          5    1    3    3  502    0  0.12953027343E+02  0.30368963113E+02 -0.10208229743E+03  0.10737002695E+03  0.41800000000E+01 0. -1.
         -5    1    3    3    0  502 -0.12940976607E+03  0.24056061255E+02 -0.11440848054E+04  0.11516393081E+04  0.41800000000E+01 0. -1.
        -11    1    1    2    0    0  0.28871581362E+02 -0.28581160589E+02 -0.12274159620E+03  0.12929017901E+03  0.00000000000E+00 0. -1.
         11    1    1    2    0    0  0.87585157367E+02 -0.25843863779E+02 -0.66572966832E+02  0.11300895982E+03  0.00000000000E+00 0.  1.
</event>
<event>
 7    1  0.2844572E-009  0.1155667E+03  0.7561462E-02  0.1250595E+00
         -2   -1    0    0    0  501 -0.00000000000E+00  0.00000000000E+00  0.60667113484E+02  0.60667113484E+02  0.00000000000E+00 0.  1.
          2   -1    0    0  501    0  0.00000000000E+00 -0.00000000000E+00 -0.26985393493E+03  0.26985393493E+03  0.00000000000E+00 0. -1.
         25    2    1    2    0    0  0.64232336692E+02  0.62752402032E+01 -0.92478073758E+02  0.16841702684E+03  0.12508768559E+03 0.  0.
          5    1    3    3  502    0  0.94914978954E+02  0.19104282797E+02 -0.37265809818E+02  0.10382697064E+03  0.41800000000E+01 0. -1.
         -5    1    3    3    0  502 -0.30682642262E+02 -0.12829042593E+02 -0.55212263940E+02  0.64590056196E+02  0.41800000000E+01 0. -1.
        -11    1    1    2    0    0 -0.43848794540E+02  0.34053552096E+02 -0.27173843485E+02  0.61812449901E+02  0.00000000000E+00 0.  1.
         11    1    1    2    0    0 -0.20383542151E+02 -0.40328792299E+02 -0.89534904203E+02  0.10029157168E+03  0.00000000000E+00 0. -1.
</event>
<event>
 7    1  0.2844572E-009  0.1521667E+03  0.7561462E-02  0.1197836E+00
          1   -1    0    0  501    0  0.00000000000E+00  0.00000000000E+00  0.79752889263E+03  0.79752889263E+03  0.00000000000E+00 0. -1.
         -1   -1    0    0    0  501 -0.00000000000E+00 -0.00000000000E+00 -0.56510089066E+02  0.56510089066E+02  0.00000000000E+00 0.  1.
         25    2    1    2    0    0 -0.10689656808E+03  0.37181939982E+02  0.98561634643E+02  0.19537521713E+03  0.12509079390E+03 0.  0.
          5    1    3    3  502    0  0.25027058918E+02 -0.22943440135E+01  0.35914381879E+02  0.44033316004E+02  0.41800000000E+01 0.  1.
         -5    1    3    3    0  502 -0.13192362699E+03  0.39476283995E+02  0.62647252764E+02  0.15134190112E+03  0.41800000000E+01 0.  1.
        -11    1    1    2    0    0  0.91972574472E+02  0.91372410666E+01  0.48958547577E+03  0.49823326034E+03  0.00000000000E+00 0. -1.
         11    1    1    2    0    0  0.14923993604E+02 -0.46319181048E+02  0.15287169316E+03  0.16043050423E+03  0.00000000000E+00 0.  1.
</event>
<event>
 7    1  0.2844572E-009  0.6146492E+02  0.7561462E-02  0.1391785E+00
         -1   -1    0    0    0  501 -0.00000000000E+00  0.00000000000E+00  0.64087722864E+02  0.64087722864E+02  0.00000000000E+00 0.  1.
          1   -1    0    0  501    0  0.00000000000E+00 -0.00000000000E+00 -0.27274973845E+03  0.27274973845E+03  0.00000000000E+00 0. -1.
         25    2    1    2    0    0  0.10322211177E+02 -0.31859838962E+02 -0.20104288005E+03  0.23914234149E+03  0.12509685244E+03 0.  0.
          5    1    3    3  502    0  0.13003672069E+02 -0.23556499236E+02  0.91504777798E+01  0.28726430115E+02  0.41800000000E+01 0.  1.
         -5    1    3    3    0  502 -0.26814608928E+01 -0.83033397265E+01 -0.21019335783E+03  0.21041591138E+03  0.41800000000E+01 0.  1.
        -11    1    1    2    0    0  0.25629672126E+02 -0.12835656219E+02  0.19071388703E+02  0.34428941763E+02  0.00000000000E+00 0.  1.
         11    1    1    2    0    0 -0.35951883302E+02  0.44695495181E+02 -0.26690524236E+02  0.63266178061E+02  0.00000000000E+00 0. -1.
</event>
<event>
 7    1  0.2844572E-009  0.1332738E+03  0.7561462E-02  0.1222677E+00
         -1   -1    0    0    0  501 -0.00000000000E+00  0.00000000000E+00  0.36792081693E+03  0.36792081693E+03  0.00000000000E+00 0.  1.
          1   -1    0    0  501    0  0.00000000000E+00 -0.00000000000E+00 -0.68972357739E+02  0.68972357739E+02  0.00000000000E+00 0. -1.
         25    2    1    2    0    0 -0.29074983451E+02  0.80821693390E+02  0.52910140862E+02  0.16069953214E+03  0.12508939139E+03 0.  0.
          5    1    3    3  502    0  0.27528755345E+02  0.83141617183E+02  0.55613254750E+02  0.10382999269E+03  0.41800000000E+01 0. -1.
         -5    1    3    3    0  502 -0.56603738797E+02 -0.23199237921E+01 -0.27031138877E+01  0.56869539446E+02  0.41800000000E+01 0. -1.
        -11    1    1    2    0    0  0.30160122903E+02 -0.99183783802E+02  0.22785189646E+03  0.25032687172E+03  0.00000000000E+00 0.  1.
         11    1    1    2    0    0 -0.10851394519E+01  0.18362090411E+02  0.18186421867E+02  0.25866770812E+02  0.00000000000E+00 0. -1.
</event>
<event>
 7    1  0.2844572E-009  0.9776910E+02  0.7561462E-02  0.1285058E+00
         -1   -1    0    0    0  501 -0.00000000000E+00  0.00000000000E+00  0.67231048191E+02  0.67231048191E+02  0.00000000000E+00 0.  1.
          1   -1    0    0  501    0  0.00000000000E+00 -0.00000000000E+00 -0.32491281389E+03  0.32491281389E+03  0.00000000000E+00 0. -1.
         25    2    1    2    0    0 -0.36651147917E+02  0.68243885327E+02 -0.55837363504E+02  0.15737142988E+03  0.12508965286E+03 0.  0.
          5    1    3    3  502    0 -0.44329135466E+02  0.93206874377E+01 -0.80846535125E+02  0.92766276777E+02  0.41800000000E+01 0. -1.
         -5    1    3    3    0  502  0.76779875484E+01  0.58923197890E+02  0.25009171621E+02  0.64605153103E+02  0.41800000000E+01 0. -1.
        -11    1    1    2    0    0  0.42376382707E+02 -0.30272602486E+02 -0.18613433518E+03  0.19328264021E+03  0.00000000000E+00 0.  1.
         11    1    1    2    0    0 -0.57252347902E+01 -0.37971282841E+02 -0.15710067017E+02  0.41489791994E+02  0.00000000000E+00 0. -1.
</event>
<event>
 7    1  0.2844572E-009  0.1229884E+03  0.7561462E-02  0.1238247E+00
         -1   -1    0    0    0  501 -0.00000000000E+00  0.00000000000E+00  0.87764185486E+02  0.87764185486E+02  0.00000000000E+00 0.  1.
          1   -1    0    0  501    0  0.00000000000E+00 -0.00000000000E+00 -0.21858939546E+03  0.21858939546E+03  0.00000000000E+00 0. -1.
         25    2    1    2    0    0  0.56908445313E+02 -0.91664207211E+01 -0.12037636525E+03  0.18291982909E+03  0.12508637074E+03 0.  0.
          5    1    3    3  502    0  0.93023658302E+02  0.94221824443E+01 -0.64300942322E+02  0.11355290445E+03  0.41800000000E+01 0. -1.
         -5    1    3    3    0  502 -0.36115212989E+02 -0.18588603165E+02 -0.56075422926E+02  0.69366924634E+02  0.41800000000E+01 0. -1.
        -11    1    1    2    0    0 -0.83925357939E+02  0.10015132313E+02 -0.30417407157E+02  0.89827541648E+02  0.00000000000E+00 0. -1.
         11    1    1    2    0    0  0.27016912626E+02 -0.84871159157E+00  0.19968562432E+02  0.33606210212E+02  0.00000000000E+00 0.  1.
</event>
<event>
 7    1  0.2844572E-009  0.8742522E+02  0.7561462E-02  0.1309209E+00
          1   -1    0    0  501    0  0.00000000000E+00  0.00000000000E+00  0.28287307071E+03  0.28287307071E+03  0.00000000000E+00 0. -1.
         -1   -1    0    0    0  501 -0.00000000000E+00 -0.00000000000E+00 -0.62419999470E+02  0.62419999470E+02  0.00000000000E+00 0.  1.
         25    2    1    2    0    0  0.37938804395E+02  0.20246543128E+02  0.39977542651E+02  0.13818029891E+03  0.12508523375E+03 0.  0.
          5    1    3    3  502    0  0.73639855988E+02  0.26040205659E+02 -0.72412768642E+01  0.78554625525E+02  0.41800000000E+01 0. -1.
         -5    1    3    3    0  502 -0.35701051594E+02 -0.57936625310E+01  0.47218819515E+02  0.59625673387E+02  0.41800000000E+01 0. -1.
        -11    1    1    2    0    0 -0.95343496435E+01 -0.28977243468E+02  0.17405897383E+03  0.17671194310E+03  0.00000000000E+00 0. -1.
         11    1    1    2    0    0 -0.28404454751E+02  0.87307003409E+01  0.64165547507E+01  0.30400828163E+02  0.00000000000E+00 0.  1.
</event>
<event>
 7    1  0.2844572E-009  0.2147451E+03  0.7561462E-02  0.1137863E+00
          2   -1    0    0  501    0  0.00000000000E+00  0.00000000000E+00  0.24271451562E+03  0.24271451562E+03  0.00000000000E+00 0. -1.
         -2   -1    0    0    0  501 -0.00000000000E+00 -0.00000000000E+00 -0.20103685010E+03  0.20103685010E+03  0.00000000000E+00 0.  1.
         25    2    1    2    0    0  0.19188796927E+03 -0.13830110077E+01  0.34947045752E+02  0.23171553222E+03  0.12509151209E+03 0.  0.
          5    1    3    3  502    0  0.13064249826E+03  0.57707038658E+02  0.32201945858E+02  0.14646502101E+03  0.41800000000E+01 0. -1.
         -5    1    3    3    0  502  0.61245471009E+02 -0.59090049666E+02  0.27450998944E+01  0.85250511213E+02  0.41800000000E+01 0. -1.
        -11    1    1    2    0    0 -0.83427218541E+02  0.30951524658E+02  0.35806397560E+02  0.95917651026E+02  0.00000000000E+00 0.  1.
         11    1    1    2    0    0 -0.10846075072E+03 -0.29568513650E+02 -0.29075777787E+02  0.11611818247E+03  0.00000000000E+00 0. -1.
</event>
<event>
 7    1  0.2844572E-009  0.8089282E+02  0.7561462E-02  0.1326537E+00
         -2   -1    0    0    0  501 -0.00000000000E+00  0.00000000000E+00  0.29240993337E+03  0.29240993337E+03  0.00000000000E+00 0.  1.
          2   -1    0    0  501    0  0.00000000000E+00 -0.00000000000E+00 -0.41172034931E+02  0.41172034931E+02  0.00000000000E+00 0. -1.
         25    2    1    2    0    0 -0.88633037456E+00 -0.15055390235E+02  0.16689317010E+03  0.20911413746E+03  0.12509173395E+03 0.  0.
          5    1    3    3  502    0 -0.61576010098E+02 -0.19639443225E+02  0.92169194592E+02  0.11264965859E+03  0.41800000000E+01 0. -1.
         -5    1    3    3    0  502  0.60689679723E+02  0.45840529902E+01  0.74723975510E+02  0.96464478865E+02  0.41800000000E+01 0. -1.
        -11    1    1    2    0    0  0.14131098788E+01  0.25507781338E+02  0.10133899327E+03  0.10450949882E+03  0.00000000000E+00 0.  1.
         11    1    1    2    0    0 -0.52677950425E+00 -0.10452391103E+02 -0.16994264929E+02  0.19958332017E+02  0.00000000000E+00 0. -1.
</event>
<event>
 7    1  0.2844572E-009  0.7148517E+02  0.7561462E-02  0.1355114E+00
          3   -1    0    0  501    0  0.00000000000E+00  0.00000000000E+00  0.13612998575E+03  0.13612998575E+03  0.00000000000E+00 0. -1.
         -3   -1    0    0    0  501 -0.00000000000E+00 -0.00000000000E+00 -0.84498109261E+02  0.84498109261E+02  0.00000000000E+00 0.  1.
         25    2    1    2    0    0 -0.34378665647E+01 -0.22841594055E+01  0.23944815030E+02  0.12736846859E+03  0.12502934181E+03 0.  0.
          5    1    3    3  502    0 -0.25288385659E+02 -0.46283476491E+02 -0.24449040033E+02  0.58282849998E+02  0.41800000000E+01 0.  1.
         -5    1    3    3    0  502  0.21850519095E+02  0.43999317086E+02  0.48393855063E+02  0.69085618595E+02  0.41800000000E+01 0.  1.
        -11    1    1    2    0    0  0.13209236918E+02 -0.15562844511E+02  0.55307281081E+02  0.58954061860E+02  0.00000000000E+00 0. -1.
         11    1    1    2    0    0 -0.97713703537E+01  0.17847003916E+02 -0.27620219625E+02  0.34305564556E+02  0.00000000000E+00 0.  1.
</event>
<event>
 7    1  0.2844572E-009  0.1491809E+03  0.7561462E-02  0.1201483E+00
         -2   -1    0    0    0  501 -0.00000000000E+00  0.00000000000E+00  0.15436649436E+02  0.15436649436E+02  0.00000000000E+00 0.  1.
          2   -1    0    0  501    0  0.00000000000E+00 -0.00000000000E+00 -0.42361006822E+04  0.42361006822E+04  0.00000000000E+00 0. -1.
         25    2    1    2    0    0 -0.12054025708E+02  0.12818810056E+03 -0.37680831302E+04  0.37723568107E+04  0.12509173652E+03 0.  0.
          5    1    3    3  502    0  0.97209065224E+00 -0.68900744717E+01 -0.16031865799E+04  0.16032071296E+04  0.41800000000E+01 0. -1.
         -5    1    3    3    0  502 -0.13026116361E+02  0.13507817503E+03 -0.21648965503E+04  0.21691496811E+04  0.41800000000E+01 0. -1.
        -11    1    1    2    0    0 -0.36883567869E+02 -0.62334291822E+02 -0.25884671197E+03  0.26878910286E+03  0.00000000000E+00 0. -1.
         11    1    1    2    0    0  0.48937593577E+02 -0.65853808739E+02 -0.19373419051E+03  0.21039141798E+03  0.00000000000E+00 0.  1.
</event>
<event>
 7    1  0.2844572E-009  0.1886132E+03  0.7561462E-02  0.1159718E+00
         -2   -1    0    0    0  501 -0.00000000000E+00  0.00000000000E+00  0.25239846762E+02  0.25239846762E+02  0.00000000000E+00 0.  1.
          2   -1    0    0  501    0  0.00000000000E+00 -0.00000000000E+00 -0.17277484369E+04  0.17277484369E+04  0.00000000000E+00 0. -1.
         25    2    1    2    0    0 -0.17607060672E+03 -0.24822781577E+02 -0.85167688202E+03  0.87898777899E+03  0.12509586404E+03 0.  0.
          5    1    3    3  502    0 -0.17697064754E+03 -0.24688434520E+02 -0.85505573107E+03  0.87353643572E+03  0.41800000000E+01 0. -1.
         -5    1    3    3    0  502  0.90004081489E+00 -0.13434705664E+00  0.33788490453E+01  0.54513432722E+01  0.41800000000E+01 0. -1.
        -11    1    1    2    0    0 -0.36364505459E+01  0.13688766604E+02 -0.24672864037E+02  0.28449188451E+02  0.00000000000E+00 0.  1.
         11    1    1    2    0    0  0.17970705727E+03  0.11134014972E+02 -0.82615884408E+03  0.84555131623E+03  0.00000000000E+00 0. -1.
</event>
<event>
 7    1  0.2844572E-009  0.9862362E+02  0.7561462E-02  0.1283217E+00
         -1   -1    0    0    0  501 -0.00000000000E+00  0.00000000000E+00  0.86216891161E+02  0.86216891161E+02  0.00000000000E+00 0.  1.
          1   -1    0    0  501    0  0.00000000000E+00 -0.00000000000E+00 -0.21505678201E+03  0.21505678201E+03  0.00000000000E+00 0. -1.
         25    2    1    2    0    0  0.90298212220E+02 -0.11422868061E+02 -0.49798505610E+02  0.16251563777E+03  0.12508873776E+03 0.  0.
          5    1    3    3  502    0  0.54409497930E+02 -0.32329521521E+01  0.38431576770E+02  0.66822929730E+02  0.41800000000E+01 0. -1.
         -5    1    3    3    0  502  0.35888714290E+02 -0.81899159088E+01 -0.88230082380E+02  0.95692708044E+02  0.41800000000E+01 0. -1.
        -11    1    1    2    0    0 -0.37773931290E+02  0.31618692022E+02 -0.11022632733E+02  0.50478807460E+02  0.00000000000E+00 0.  1.
         11    1    1    2    0    0 -0.52524280930E+02 -0.20195823961E+02 -0.68018752505E+02  0.88279227936E+02  0.00000000000E+00 0. -1.
</event>
<event>
 7    1  0.2844572E-009  0.1018638E+03  0.7561462E-02  0.1276425E+00
         -3   -1    0    0    0  501 -0.00000000000E+00  0.00000000000E+00  0.36667734684E+02  0.36667734684E+02  0.00000000000E+00 0.  1.
          3   -1    0    0  501    0  0.00000000000E+00 -0.00000000000E+00 -0.41842068320E+03  0.41842068320E+03  0.00000000000E+00 0. -1.
         25    2    1    2    0    0 -0.17082023623E+02 -0.38953453616E+02 -0.13529452070E+03  0.18910642492E+03  0.12508982985E+03 0.  0.
          5    1    3    3  502    0  0.26108238284E+02  0.19648608693E+02 -0.10517360902E+03  0.11021192478E+03  0.41800000000E+01 0. -1.
         -5    1    3    3    0  502 -0.43190261907E+02 -0.58602062309E+02 -0.30120911683E+02  0.78894500132E+02  0.41800000000E+01 0. -1.
        -11    1    1    2    0    0  0.21496031381E+02 -0.25449642977E+02 -0.59479933186E+02  0.68173500311E+02  0.00000000000E+00 0.  1.
         11    1    1    2    0    0 -0.44140077582E+01  0.64403096593E+02 -0.18697849462E+03  0.19780849266E+03  0.00000000000E+00 0. -1.
</event>
<event>
 7    1  0.2844572E-009  0.1012138E+03  0.7561462E-02  0.1277764E+00
          3   -1    0    0  501    0  0.00000000000E+00  0.00000000000E+00  0.81285691737E+02  0.81285691737E+02  0.00000000000E+00 0. -1.
         -3   -1    0    0    0  501 -0.00000000000E+00 -0.00000000000E+00 -0.15874619753E+03  0.15874619753E+03  0.00000000000E+00 0.  1.
         25    2    1    2    0    0  0.98104021196E-01 -0.31684138178E+02 -0.40867569418E+02  0.13535135324E+03  0.12508371740E+03 0.  0.
          5    1    3    3  502    0 -0.58521290301E+01  0.41618862465E+02 -0.44817240276E+02  0.61582745579E+02  0.41800000000E+01 0.  1.
         -5    1    3    3    0  502  0.59502330513E+01 -0.73303000643E+02  0.39496708578E+01  0.73768607663E+02  0.41800000000E+01 0.  1.
        -11    1    1    2    0    0 -0.30159889838E+02  0.44575366381E+02 -0.45833020399E+02  0.70691215875E+02  0.00000000000E+00 0.  1.
         11    1    1    2    0    0  0.30061785817E+02 -0.12891228203E+02  0.92400840282E+01  0.33989320145E+02  0.00000000000E+00 0. -1.
</event>
<event>
 7    1  0.2844572E-009  0.1181648E+03  0.7561462E-02  0.1246156E+00
         -1   -1    0    0    0  501 -0.00000000000E+00  0.00000000000E+00  0.24398120819E+02  0.24398120819E+02  0.00000000000E+00 0.  1.
          1   -1    0    0  501    0  0.00000000000E+00 -0.00000000000E+00 -0.80488094565E+03  0.80488094565E+03  0.00000000000E+00 0. -1.
         25    2    1    2    0    0 -0.65169957549E+02 -0.52658119036E+02 -0.33871223714E+03  0.37066540683E+03  0.12508742288E+03 0.  0.
          5    1    3    3  502    0 -0.47181910774E+01  0.20556419978E+02 -0.29387197493E+01  0.21701064562E+02  0.41800000000E+01 0.  1.
         -5    1    3    3    0  502 -0.60451766472E+02 -0.73214539014E+02 -0.33577351739E+03  0.34896434226E+03  0.41800000000E+01 0.  1.
        -11    1    1    2    0    0  0.84854804112E+02  0.30545751518E+02 -0.37288132775E+03  0.38363246122E+03  0.00000000000E+00 0. -1.
         11    1    1    2    0    0 -0.19684846563E+02  0.22112367518E+02 -0.68889259949E+02  0.74981198429E+02  0.00000000000E+00 0.  1.
</event>
<event>
 7    1  0.2844572E-009  0.1391218E+03  0.7561462E-02  0.1214516E+00
          1   -1    0    0  501    0  0.00000000000E+00  0.00000000000E+00  0.18337564797E+03  0.18337564797E+03  0.00000000000E+00 0. -1.
         -1   -1    0    0    0  501 -0.00000000000E+00 -0.00000000000E+00 -0.11600411011E+03  0.11600411011E+03  0.00000000000E+00 0.  1.
         25    2    1    2    0    0  0.92453164374E+02  0.18807634518E+02  0.11725562850E+02  0.15711880530E+03  0.12509002932E+03 0.  0.
          5    1    3    3  502    0  0.15848092465E+02 -0.48190577904E+02  0.20524755626E+02  0.54883802957E+02  0.41800000000E+01 0.  1.
         -5    1    3    3    0  502  0.76605071909E+02  0.66998212422E+02 -0.87991927753E+01  0.10223500234E+03  0.41800000000E+01 0.  1.
        -11    1    1    2    0    0 -0.43555008348E+02 -0.50904707400E+02  0.93072986779E+01  0.67638404744E+02  0.00000000000E+00 0.  1.
         11    1    1    2    0    0 -0.48898156026E+02  0.32097072882E+02  0.46338676336E+02  0.74622548032E+02  0.00000000000E+00 0. -1.
</event>
<event>
 7    1  0.2844572E-009  0.6441517E+02  0.7561462E-02  0.1380185E+00
          1   -1    0    0  501    0  0.00000000000E+00  0.00000000000E+00  0.26171630593E+03  0.26171630593E+03  0.00000000000E+00 0. -1.
         -1   -1    0    0    0  501 -0.00000000000E+00 -0.00000000000E+00 -0.50076469367E+02  0.50076469367E+02  0.00000000000E+00 0.  1.
         25    2    1    2    0    0  0.32118057923E+02 -0.82374904623E+01  0.10002387256E+03  0.16355916665E+03  0.12508956799E+03 0.  0.
          5    1    3    3  502    0  0.27735816349E+02 -0.25793656491E+02 -0.19358296719E+02  0.42741130959E+02  0.41800000000E+01 0. -1.
         -5    1    3    3    0  502  0.43822415738E+01  0.17556166029E+02  0.11938216927E+03  0.12081803569E+03  0.41800000000E+01 0. -1.
        -11    1    1    2    0    0 -0.11319063231E+02  0.35843793779E+02  0.10694065364E+03  0.11335432125E+03  0.00000000000E+00 0. -1.
         11    1    1    2    0    0 -0.20798994692E+02 -0.27606303317E+02  0.46753103759E+01  0.34879287408E+02  0.00000000000E+00 0.  1.
</event>
<event>
 7    1  0.2844572E-009  0.1052296E+03  0.7561462E-02  0.1269668E+00
          3   -1    0    0  501    0  0.00000000000E+00  0.00000000000E+00  0.21990374908E+03  0.21990374908E+03  0.00000000000E+00 0. -1.
         -3   -1    0    0    0  501 -0.00000000000E+00 -0.00000000000E+00 -0.57982778142E+02  0.57982778142E+02  0.00000000000E+00 0.  1.
         25    2    1    2    0    0 -0.26094835314E+02 -0.69515197452E+01  0.75366757054E+02  0.14851376616E+03  0.12508767571E+03 0.  0.
          5    1    3    3  502    0 -0.70496146572E+02 -0.57936380169E+01  0.13328025211E+02  0.72099802905E+02  0.41800000000E+01 0. -1.
         -5    1    3    3    0  502  0.44401311258E+02 -0.11578817283E+01  0.62038731843E+02  0.76413963254E+02  0.41800000000E+01 0. -1.
        -11    1    1    2    0    0  0.58935433635E+02  0.15724690562E+02  0.45649063444E+02  0.76187191996E+02  0.00000000000E+00 0.  1.
         11    1    1    2    0    0 -0.32840598321E+02 -0.87731708168E+01  0.40905150438E+02  0.53185569063E+02  0.00000000000E+00 0. -1.
</event>
<event>
 7    1  0.2844572E-009  0.8347666E+02  0.7561462E-02  0.1319465E+00
         -1   -1    0    0    0  501 -0.00000000000E+00  0.00000000000E+00  0.85445268298E+01  0.85445268298E+01  0.00000000000E+00 0.  1.
          1   -1    0    0  501    0  0.00000000000E+00 -0.00000000000E+00 -0.14204934850E+04  0.14204934850E+04  0.00000000000E+00 0. -1.
         25    2    1    2    0    0  0.14474725090E+02  0.27269710359E+01 -0.91077383461E+03  0.91944193873E+03  0.12509015490E+03 0.  0.
          5    1    3    3  502    0  0.24439766522E+02  0.33767509906E+02 -0.10572514428E+03  0.11372258107E+03  0.41800000000E+01 0.  1.
         -5    1    3    3    0  502 -0.99650414327E+01 -0.31040538870E+02 -0.80504869033E+03  0.80571935766E+03  0.41800000000E+01 0.  1.
        -11    1    1    2    0    0 -0.49975327955E+02  0.15450054631E+02 -0.29386259175E+03  0.29848192646E+03  0.00000000000E+00 0.  1.
         11    1    1    2    0    0  0.35500602865E+02 -0.18177025667E+02 -0.20731253184E+03  0.21111414667E+03  0.00000000000E+00 0. -1.
</event>
<event>
 7    1  0.2844572E-009  0.1341471E+03  0.7561462E-02  0.1221429E+00
          1   -1    0    0  501    0  0.00000000000E+00  0.00000000000E+00  0.56375870195E+02  0.56375870195E+02  0.00000000000E+00 0. -1.
         -1   -1    0    0    0  501 -0.00000000000E+00 -0.00000000000E+00 -0.37291281535E+03  0.37291281535E+03  0.00000000000E+00 0.  1.
         25    2    1    2    0    0  0.88085919644E+02 -0.11514486695E+01 -0.22471376023E+03  0.27185462231E+03  0.12509279181E+03 0.  0.
          5    1    3    3  502    0  0.23882520445E+02 -0.60624588783E+02 -0.91372370263E+02  0.11230359743E+03  0.41800000000E+01 0.  1.
         -5    1    3    3    0  502  0.64203399198E+02  0.59473140114E+02 -0.13334138997E+03  0.15955102489E+03  0.41800000000E+01 0.  1.
        -11    1    1    2    0    0 -0.26577841918E+02 -0.35070496622E+02 -0.38897514024E+01  0.44175237185E+02  0.00000000000E+00 0. -1.
         11    1    1    2    0    0 -0.61508077726E+02  0.36221945292E+02 -0.87933433524E+02  0.11325882605E+03  0.00000000000E+00 0.  1.
</event>
<event>
 7    1  0.3527978E-009  0.9704496E+02  0.7561462E-02  0.1286636E+00
         -1   -1    0    0    0  501 -0.00000000000E+00  0.00000000000E+00  0.18275437790E+03  0.18275437790E+03  0.00000000000E+00 0.  1.
          1   -1    0    0  501    0  0.00000000000E+00 -0.00000000000E+00 -0.11991228573E+03  0.11991228573E+03  0.00000000000E+00 0. -1.
         25    2    1    2    0    0  0.46059211308E+02  0.83497244977E+02  0.65968958467E+02  0.17056468137E+03  0.12508863332E+03 0.  0.
          5    1    3    3  502    0  0.35995005788E+02  0.40750012715E+02  0.10063452507E+03  0.11445953003E+03  0.41800000000E+01 0.  1.
         -5    1    3    3    0  502  0.10064205520E+02  0.42747232262E+02 -0.34665566607E+02  0.56105151341E+02  0.41800000000E+01 0.  1.
        -11    1    1    2    0    0 -0.21299441617E+02 -0.34478187286E+02 -0.46820054332E+02  0.61923574666E+02  0.00000000000E+00 0. -1.
         11    1    1    2    0    0 -0.24759769691E+02 -0.49019057690E+02  0.43693188035E+02  0.70178407596E+02  0.00000000000E+00 0.  1.
</event>
<event>
 7    1  0.2844572E-009  0.2510416E+03  0.7561462E-02  0.1112648E+00
         -2   -1    0    0    0  501 -0.00000000000E+00  0.00000000000E+00  0.37189106818E+03  0.37189106818E+03  0.00000000000E+00 0.  1.
          2   -1    0    0  501    0  0.00000000000E+00 -0.00000000000E+00 -0.18333765273E+03  0.18333765273E+03  0.00000000000E+00 0. -1.
         25    2    1    2    0    0 -0.13372251533E+03  0.19576634140E+03  0.92572977976E+02  0.28358562075E+03  0.12507948077E+03 0.  0.
          5    1    3    3  502    0 -0.12021473998E+03  0.71514947554E+02  0.27510108604E+02  0.14261924802E+03  0.41800000000E+01 0. -1.
         -5    1    3    3    0  502 -0.13507775358E+02  0.12425139385E+03  0.65062869372E+02  0.14096637272E+03  0.41800000000E+01 0. -1.
        -11    1    1    2    0    0  0.40630979519E+02 -0.61317960259E+02  0.77858920399E+02  0.10711106494E+03  0.00000000000E+00 0.  1.
         11    1    1    2    0    0  0.93091535816E+02 -0.13444838114E+03  0.18121517072E+02  0.16453203522E+03  0.00000000000E+00 0. -1.
</event>
<event>
 6    1  0.2844572E-009  0.1054726E+03  0.7561462E-02  0.1269191E+00
         -2   -1    0    0    0  501 -0.00000000000E+00  0.00000000000E+00  0.23933665961E+02  0.23933665961E+02  0.00000000000E+00 0.  1.
          2   -1    0    0  501    0  0.00000000000E+00 -0.00000000000E+00 -0.49937858160E+03  0.49937858160E+03  0.00000000000E+00 0. -1.
          5    1    1    2  502    0  0.19654330527E+02  0.57183165695E+02 -0.81178208737E+02  0.10130933383E+03  0.41800000000E+01 0. -1.
         -5    1    1    2    0  502 -0.18892853002E+02 -0.55205963538E+02 -0.15949391709E+03  0.16988354921E+03  0.41800000000E+01 0. -1.
        -11    1    1    2    0    0  0.24852506210E+02  0.37373797664E+02 -0.11952331129E+03  0.12767250980E+03  0.00000000000E+00 0. -1.
         11    1    1    2    0    0 -0.25613983736E+02 -0.39350999821E+02 -0.11524947853E+03  0.12444685472E+03  0.00000000000E+00 0.  1.
</event>
<event>
 7    1  0.2844572E-009  0.1039466E+03  0.7561462E-02  0.1272209E+00
         -1   -1    0    0    0  501 -0.00000000000E+00  0.00000000000E+00  0.18848606695E+03  0.18848606695E+03  0.00000000000E+00 0.  1.
          1   -1    0    0  501    0  0.00000000000E+00 -0.00000000000E+00 -0.10845557150E+03  0.10845557150E+03  0.00000000000E+00 0. -1.
         25    2    1    2    0    0 -0.15767344322E+02 -0.17006545805E+02 -0.52252975663E+02  0.13753535681E+03  0.12509104349E+03 0.  0.
          5    1    3    3  502    0 -0.63245336253E+02 -0.35136759013E+02 -0.14053794694E+02  0.73821039935E+02  0.41800000000E+01 0.  1.
         -5    1    3    3    0  502  0.47477991932E+02  0.18130213208E+02 -0.38199180969E+02  0.63714316880E+02  0.41800000000E+01 0.  1.
        -11    1    1    2    0    0  0.20793609898E+02 -0.30358992329E+02  0.83385621482E+02  0.91143867033E+02  0.00000000000E+00 0.  1.
         11    1    1    2    0    0 -0.50262655759E+01  0.47365538134E+02  0.48897849632E+02  0.68262414600E+02  0.00000000000E+00 0. -1.
</event>
<event>
 7    1  0.2844572E-009  0.1532766E+03  0.7561462E-02  0.1196504E+00
          1   -1    0    0  501    0  0.00000000000E+00  0.00000000000E+00  0.56018408365E+02  0.56018408365E+02  0.00000000000E+00 0. -1.
         -1   -1    0    0    0  501 -0.00000000000E+00 -0.00000000000E+00 -0.48167424891E+03  0.48167424891E+03  0.00000000000E+00 0.  1.
         25    2    1    2    0    0  0.11702033086E+03 -0.33103274714E+02 -0.18203401084E+03  0.25213685847E+03  0.12508808763E+03 0.  0.
          5    1    3    3  502    0  0.56568815894E+02  0.37126792009E+02 -0.12785124472E+03  0.14471296692E+03  0.41800000000E+01 0. -1.
         -5    1    3    3    0  502  0.60451514962E+02 -0.70230066723E+02 -0.54182766114E+02  0.10742389156E+03  0.41800000000E+01 0. -1.
        -11    1    1    2    0    0 -0.51146856181E+02  0.56392774861E+02 -0.98519573540E+02  0.12450804120E+03  0.00000000000E+00 0. -1.
         11    1    1    2    0    0 -0.65873474674E+02 -0.23289500147E+02 -0.14510225617E+03  0.16104775760E+03  0.00000000000E+00 0.  1.
</event>
<event>
 7    1  0.2844572E-009  0.9163160E+02  0.7561462E-02  0.1298948E+00
          2   -1    0    0  501    0  0.00000000000E+00  0.00000000000E+00  0.33018352391E+03  0.33018352391E+03  0.00000000000E+00 0. -1.
         -2   -1    0    0    0  501 -0.00000000000E+00 -0.00000000000E+00 -0.57580788281E+02  0.57580788281E+02  0.00000000000E+00 0.  1.
         25    2    1    2    0    0 -0.18579799229E+02 -0.14584422101E+02  0.26034452115E+03  0.28980286128E+03  0.12509402227E+03 0.  0.
          5    1    3    3  502    0  0.52638015907E+02  0.53734497558E+01  0.10181818054E+03  0.11482181400E+03  0.41800000000E+01 0. -1.
         -5    1    3    3    0  502 -0.71217815137E+02 -0.19957871857E+02  0.15852634061E+03  0.17498104729E+03  0.41800000000E+01 0. -1.
        -11    1    1    2    0    0  0.35915057997E+02  0.48927022226E+01 -0.32696627955E+02  0.48814950636E+02  0.00000000000E+00 0.  1.
         11    1    1    2    0    0 -0.17335258768E+02  0.96917198782E+01  0.44954842434E+02  0.49146500272E+02  0.00000000000E+00 0. -1.
</event>
<event>
 7    1  0.2844572E-009  0.1322967E+03  0.7561462E-02  0.1224087E+00
         -3   -1    0    0    0  501 -0.00000000000E+00  0.00000000000E+00  0.86588553653E+02  0.86588553653E+02  0.00000000000E+00 0.  1.
          3   -1    0    0  501    0  0.00000000000E+00 -0.00000000000E+00 -0.22290263752E+03  0.22290263752E+03  0.00000000000E+00 0. -1.
         25    2    1    2    0    0  0.83760472128E+02 -0.16569842521E+02 -0.56091301601E+02  0.16151906033E+03  0.12510713954E+03 0.  0.
          5    1    3    3  502    0  0.41085993922E+02  0.54499172088E+02 -0.22641046418E+02  0.72029910716E+02  0.41800000000E+01 0.  1.
         -5    1    3    3    0  502  0.42674478206E+02 -0.71069014609E+02 -0.33450255184E+02  0.89489149619E+02  0.41800000000E+01 0.  1.
        -11    1    1    2    0    0 -0.81307939762E+02 -0.14033877850E+02 -0.83138505711E+02  0.11713215582E+03  0.00000000000E+00 0. -1.
         11    1    1    2    0    0 -0.24525323667E+01  0.30603720371E+02  0.29157234478E+01  0.30839975013E+02  0.00000000000E+00 0.  1.
</event>
<event>
 7    1  0.2844572E-009  0.1096040E+03  0.7561462E-02  0.1261305E+00
         -1   -1    0    0    0  501 -0.00000000000E+00  0.00000000000E+00  0.13587172936E+04  0.13587172936E+04  0.00000000000E+00 0.  1.
          1   -1    0    0  501    0  0.00000000000E+00 -0.00000000000E+00 -0.11011972440E+02  0.11011972440E+02  0.00000000000E+00 0. -1.
         25    2    1    2    0    0 -0.30510458525E+02 -0.26480586459E+02  0.97712113901E+03  0.98592300898E+03  0.12508537004E+03 0.  0.
          5    1    3    3  502    0 -0.67565731175E+01 -0.72067422552E+02  0.40132684548E+03  0.40782358193E+03  0.41800000000E+01 0. -1.
         -5    1    3    3    0  502 -0.23753885408E+02  0.45586836092E+02  0.57579429353E+03  0.57809942705E+03  0.41800000000E+01 0. -1.
        -11    1    1    2    0    0 -0.29801850312E+02  0.16287737655E+02  0.80989198120E+02  0.87821927171E+02  0.00000000000E+00 0. -1.
         11    1    1    2    0    0  0.60312308837E+02  0.10192848804E+02  0.28959498404E+03  0.29598432990E+03  0.00000000000E+00 0.  1.
</event>
<event>
 7    1  0.2844572E-009  0.1263155E+03  0.7561462E-02  0.1233028E+00
         -2   -1    0    0    0  501 -0.00000000000E+00  0.00000000000E+00  0.35302943123E+02  0.35302943123E+02  0.00000000000E+00 0. -1.
          2   -1    0    0  501    0  0.00000000000E+00 -0.00000000000E+00 -0.45745163339E+03  0.45745163339E+03  0.00000000000E+00 0.  1.
         25    2    1    2    0    0 -0.40510826135E+02 -0.52809576293E+02 -0.22835237847E+03  0.26874256782E+03  0.12509108931E+03 0.  0.
          5    1    3    3  502    0 -0.24587666159E+02  0.39387175932E+02 -0.58746754349E+02  0.74997043286E+02  0.41800000000E+01 0.  1.
         -5    1    3    3    0  502 -0.15923159975E+02 -0.92196752224E+02 -0.16960562412E+03  0.19374552453E+03  0.41800000000E+01 0.  1.
        -11    1    1    2    0    0 -0.20174462810E+02  0.47298640447E+02 -0.89311151247E+02  0.10305654795E+03  0.00000000000E+00 0.  1.
         11    1    1    2    0    0  0.60685288945E+02  0.55109358453E+01 -0.10448516055E+03  0.12095546074E+03  0.00000000000E+00 0. -1.
</event>
<event>
 7    1  0.2844572E-009  0.1550054E+03  0.7561462E-02  0.1194454E+00
         -2   -1    0    0    0  501 -0.00000000000E+00  0.00000000000E+00  0.42771011591E+02  0.42771011591E+02  0.00000000000E+00 0.  1.
          2   -1    0    0  501    0  0.00000000000E+00 -0.00000000000E+00 -0.75945196865E+03  0.75945196865E+03  0.00000000000E+00 0. -1.
         25    2    1    2    0    0  0.72378763741E+02 -0.10762975384E+03 -0.23883605614E+03  0.29918144412E+03  0.12507607861E+03 0.  0.
          5    1    3    3  502    0  0.17639402035E+02  0.23546915919E+02 -0.13296520363E+02  0.32555730790E+02  0.41800000000E+01 0. -1.
         -5    1    3    3    0  502  0.54739361706E+02 -0.13117666976E+03 -0.22553953578E+03  0.26662571333E+03  0.41800000000E+01 0. -1.
        -11    1    1    2    0    0 -0.23996051609E+02  0.77419549512E+02 -0.15217974009E+03  0.17241888074E+03  0.00000000000E+00 0.  1.
         11    1    1    2    0    0 -0.48382712132E+02  0.30210204331E+02 -0.32566516083E+03  0.33062265539E+03  0.00000000000E+00 0. -1.
</event>
<event>
 7    1  0.2844572E-009  0.1295374E+03  0.7561462E-02  0.1228144E+00
         -1   -1    0    0    0  501 -0.00000000000E+00  0.00000000000E+00  0.24314484760E+03  0.24314484760E+03  0.00000000000E+00 0.  1.
          1   -1    0    0  501    0  0.00000000000E+00 -0.00000000000E+00 -0.12224926138E+03  0.12224926138E+03  0.00000000000E+00 0. -1.
         25    2    1    2    0    0  0.25270630494E+01  0.12904954423E+03  0.69458486013E+02  0.19269576122E+03  0.12508798584E+03 0.  0.
          5    1    3    3  502    0  0.78317856861E+01  0.78933714130E+02 -0.26909411422E+02  0.83865707631E+02  0.41800000000E+01 0.  1.
         -5    1    3    3    0  502 -0.53047226367E+01  0.50115830102E+02  0.96367897434E+02  0.10883005359E+03  0.41800000000E+01 0.  1.
        -11    1    1    2    0    0 -0.71233564239E+00 -0.31028869355E+02 -0.31546909351E+02  0.44255007006E+02  0.00000000000E+00 0. -1.
         11    1    1    2    0    0 -0.18147274070E+01 -0.98020674878E+02  0.82984009566E+02  0.12844334075E+03  0.00000000000E+00 0.  1.
</event>
<event>
 7    1  0.2844572E-009  0.8174977E+02  0.7561462E-02  0.1324158E+00
         -2   -1    0    0    0  501 -0.00000000000E+00  0.00000000000E+00  0.14628454153E+03  0.14628454153E+03  0.00000000000E+00 0. -1.
          2   -1    0    0  501    0  0.00000000000E+00 -0.00000000000E+00 -0.10375259628E+03  0.10375259628E+03  0.00000000000E+00 0.  1.
         25    2    1    2    0    0 -0.30037674910E+02  0.40935532567E+02 -0.28463117446E+01  0.13503495218E+03  0.12509339343E+03 0.  0.
          5    1    3    3  502    0  0.25289129819E+02  0.14602223962E+02 -0.49694190256E+02  0.57790569964E+02  0.41800000000E+01 0. -1.
         -5    1    3    3    0  502 -0.55326804729E+02  0.26333308605E+02  0.46847878511E+02  0.77244382220E+02  0.41800000000E+01 0. -1.
        -11    1    1    2    0    0  0.14275135201E+01 -0.43806303591E+02 -0.16449960926E+02  0.46814861354E+02  0.00000000000E+00 0.  1.
         11    1    1    2    0    0  0.28610161390E+02  0.28707710237E+01  0.61828217921E+02  0.68187324279E+02  0.00000000000E+00 0. -1.
</event>
<event>
 7    1  0.2844572E-009  0.1421611E+03  0.7561462E-02  0.1210450E+00
         -1   -1    0    0    0  501 -0.00000000000E+00  0.00000000000E+00  0.62599923211E+02  0.62599923211E+02  0.00000000000E+00 0.  1.
          1   -1    0    0  501    0  0.00000000000E+00 -0.00000000000E+00 -0.35196858684E+03  0.35196858684E+03  0.00000000000E+00 0. -1.
         25    2    1    2    0    0  0.58174200321E+02 -0.80376920064E+02 -0.13783162865E+03  0.21093721572E+03  0.12510900950E+03 0.  0.
          5    1    3    3  502    0  0.58824858369E+02  0.14511515666E+02 -0.77307368966E+02  0.98309967682E+02  0.41800000000E+01 0.  1.
         -5    1    3    3    0  502 -0.65065804830E+00 -0.94888435730E+02 -0.60524259681E+02  0.11262724804E+03  0.41800000000E+01 0.  1.
        -11    1    1    2    0    0 -0.64818035737E+02  0.19953784647E+02 -0.11258681326E+03  0.13143561846E+03  0.00000000000E+00 0. -1.
         11    1    1    2    0    0  0.66438354160E+01  0.60423135417E+02 -0.38950221719E+02  0.72195675872E+02  0.00000000000E+00 0.  1.
</event>
<event>
 7    1  0.2844572E-009  0.1076672E+03  0.7561462E-02  0.1264952E+00
          1   -1    0    0  501    0  0.00000000000E+00  0.00000000000E+00  0.58967092301E+02  0.58967092301E+02  0.00000000000E+00 0. -1.
         -1   -1    0    0    0  501 -0.00000000000E+00 -0.00000000000E+00 -0.23163973174E+03  0.23163973174E+03  0.00000000000E+00 0.  1.
         25    2    1    2    0    0  0.45968755512E+01  0.42431156187E+02 -0.90362334728E+02  0.16012540737E+03  0.12511299001E+03 0.  0.
          5    1    3    3  502    0 -0.38034988356E+02  0.58338345394E+02 -0.90700889489E+02  0.11442965803E+03  0.41800000000E+01 0. -1.
         -5    1    3    3    0  502  0.42631863908E+02 -0.15907189207E+02  0.33855476148E+00  0.45695749343E+02  0.41800000000E+01 0. -1.
        -11    1    1    2    0    0  0.39043852126E+02 -0.40401553559E+02 -0.56787756183E+02  0.79884649158E+02  0.00000000000E+00 0.  1.
         11    1    1    2    0    0 -0.43640727678E+02 -0.20296026286E+01 -0.25522548526E+02  0.50596767508E+02  0.00000000000E+00 0. -1.
</event>
<event>
 7    1  0.2844572E-009  0.2136397E+03  0.7561462E-02  0.1138716E+00
         -1   -1    0    0    0  501 -0.00000000000E+00  0.00000000000E+00  0.58227529497E+02  0.58227529497E+02  0.00000000000E+00 0.  1.
          1   -1    0    0  501    0  0.00000000000E+00 -0.00000000000E+00 -0.87953139630E+03  0.87953139630E+03  0.00000000000E+00 0. -1.
         25    2    1    2    0    0  0.17784022233E+03 -0.78753680540E+02 -0.50764059456E+03  0.55782959548E+03  0.12508236276E+03 0.  0.
          5    1    3    3  502    0  0.24496408624E+02 -0.71613189142E+02 -0.20255816978E+03  0.21627715422E+03  0.41800000000E+01 0.  1.
         -5    1    3    3    0  502  0.15334381370E+03 -0.71404913978E+01 -0.30508242478E+03  0.34155244126E+03  0.41800000000E+01 0.  1.
        -11    1    1    2    0    0 -0.30905643469E+02 -0.61073786679E+00 -0.84985031769E+01  0.32058639323E+02  0.00000000000E+00 0.  1.
         11    1    1    2    0    0 -0.14693457886E+03  0.79364418407E+02 -0.30516476907E+03  0.34787069100E+03  0.00000000000E+00 0. -1.
</event>
<event>
 7    1  0.2844572E-009  0.9058388E+02  0.7561462E-02  0.1301444E+00
         -2   -1    0    0    0  501 -0.00000000000E+00  0.00000000000E+00  0.55990956083E+02  0.55990956083E+02  0.00000000000E+00 0. -1.
          2   -1    0    0  501    0  0.00000000000E+00 -0.00000000000E+00 -0.60147832379E+03  0.60147832379E+03  0.00000000000E+00 0.  1.
         25    2    1    2    0    0 -0.22558256489E+02 -0.41368382677E+02 -0.53883274825E+03  0.55516366312E+03  0.12508294943E+03 0.  0.
          5    1    3    3  502    0  0.46193304113E+02 -0.44856809142E+02 -0.27455193374E+03  0.28203225240E+03  0.41800000000E+01 0.  1.
         -5    1    3    3    0  502 -0.68751560603E+02  0.34884264652E+01 -0.26428081451E+03  0.27313141072E+03  0.41800000000E+01 0.  1.
        -11    1    1    2    0    0  0.19688193396E+02  0.29504781523E+02 -0.47723294584E+02  0.59461499627E+02  0.00000000000E+00 0.  1.
         11    1    1    2    0    0  0.28700630938E+01  0.11863601154E+02  0.41068675135E+02  0.42844117121E+02  0.00000000000E+00 0. -1.
</event>
<event>
 7    1  0.2844572E-009  0.1097837E+03  0.7561462E-02  0.1260971E+00
         -2   -1    0    0    0  501 -0.00000000000E+00  0.00000000000E+00  0.34505700329E+02  0.34505700329E+02  0.00000000000E+00 0.  1.
          2   -1    0    0  501    0  0.00000000000E+00 -0.00000000000E+00 -0.71091338008E+03  0.71091338008E+03  0.00000000000E+00 0. -1.
         25    2    1    2    0    0  0.99726113320E+02  0.11228707619E+02 -0.48030405017E+03  0.50637076656E+03  0.12509193042E+03 0.  0.
          5    1    3    3  502    0  0.86982927720E+02 -0.23111450995E+01 -0.13579777961E+03  0.16133778371E+03  0.41800000000E+01 0.  1.
         -5    1    3    3    0  502  0.12743185600E+02  0.13539852718E+02 -0.34450627057E+03  0.34503298284E+03  0.41800000000E+01 0.  1.
        -11    1    1    2    0    0 -0.78370801950E+02  0.14770449937E+02 -0.62641505672E+02  0.10141058634E+03  0.00000000000E+00 0.  1.
         11    1    1    2    0    0 -0.21355311370E+02 -0.25999157556E+02 -0.13346212391E+03  0.13763772751E+03  0.00000000000E+00 0. -1.
</event>
<event>
 7    1  0.2844572E-009  0.1645356E+03  0.7561462E-02  0.1183669E+00
          1   -1    0    0  501    0  0.00000000000E+00  0.00000000000E+00  0.16922149034E+03  0.16922149034E+03  0.00000000000E+00 0. -1.
         -1   -1    0    0    0  501 -0.00000000000E+00 -0.00000000000E+00 -0.24130028674E+03  0.24130028674E+03  0.00000000000E+00 0.  1.
         25    2    1    2    0    0 -0.86909576570E+02 -0.13422504865E+03 -0.95615958485E+02  0.22440820152E+03  0.12508793390E+03 0.  0.
          5    1    3    3  502    0 -0.77787354632E+02 -0.95245618924E+02 -0.26171766249E+01  0.12307283404E+03  0.41800000000E+01 0. -1.
         -5    1    3    3    0  502 -0.91222219371E+01 -0.38979429730E+02 -0.92998781860E+02  0.10133536748E+03  0.41800000000E+01 0. -1.
        -11    1    1    2    0    0  0.48704876083E+02  0.36546633578E+02 -0.30526738970E+02  0.68115366638E+02  0.00000000000E+00 0.  1.
         11    1    1    2    0    0  0.38204700487E+02  0.97678415076E+02  0.54063901056E+02  0.11799820892E+03  0.00000000000E+00 0. -1.
</event>
<event>
 7    1  0.2844572E-009  0.1602236E+03  0.7561462E-02  0.1188445E+00
          2   -1    0    0  501    0  0.00000000000E+00  0.00000000000E+00  0.68121382678E+03  0.68121382678E+03  0.00000000000E+00 0.  1.
         -2   -1    0    0    0  501 -0.00000000000E+00 -0.00000000000E+00 -0.53607526671E+02  0.53607526671E+02  0.00000000000E+00 0. -1.
         25    2    1    2    0    0 -0.13112373260E+03 -0.97347762180E+01  0.16489143761E+03  0.24520398586E+03  0.12509040477E+03 0.  0.
          5    1    3    3  502    0  0.11511831066E+01  0.24209981019E+02 -0.70543057112E+01  0.25586794104E+02  0.41800000000E+01 0. -1.
         -5    1    3    3    0  502 -0.13227491571E+03 -0.33944757237E+02  0.17194574332E+03  0.21961719175E+03  0.41800000000E+01 0. -1.
        -11    1    1    2    0    0  0.21536763925E+01 -0.25452270157E+02  0.94284138385E+02  0.97682931616E+02  0.00000000000E+00 0. -1.
         11    1    1    2    0    0  0.12897005621E+03  0.35187046375E+02  0.36843072412E+03  0.39193443598E+03  0.00000000000E+00 0.  1.
</event>
<event>
 7    1  0.2844572E-009  0.1779405E+03  0.7561462E-02  0.1169811E+00
         -1   -1    0    0    0  501 -0.00000000000E+00  0.00000000000E+00  0.61381912359E+02  0.61381912359E+02  0.00000000000E+00 0.  1.
          1   -1    0    0  501    0  0.00000000000E+00 -0.00000000000E+00 -0.94216730163E+03  0.94216730163E+03  0.00000000000E+00 0. -1.
         25    2    1    2    0    0  0.11248124790E+03 -0.12287175252E+03 -0.17264743548E+03  0.27056099434E+03  0.12508643406E+03 0.  0.
          5    1    3    3  502    0  0.14683362628E+02 -0.25223649736E+02  0.18381940262E+02  0.34744809280E+02  0.41800000000E+01 0. -1.
         -5    1    3    3    0  502  0.97797885269E+02 -0.97648102780E+02 -0.19102937574E+03  0.23581618506E+03  0.41800000000E+01 0. -1.
        -11    1    1    2    0    0 -0.68187633456E+02  0.12659833794E+02 -0.22388923227E+03  0.23438475436E+03  0.00000000000E+00 0.  1.
         11    1    1    2    0    0 -0.44293614441E+02  0.11021191872E+03 -0.48424872152E+03  0.49860346529E+03  0.00000000000E+00 0. -1.
</event>
<event>
 7    1  0.2844572E-009  0.2674276E+03  0.7561462E-02  0.1102761E+00
          2   -1    0    0  501    0  0.00000000000E+00  0.00000000000E+00  0.11288774405E+04  0.11288774405E+04  0.00000000000E+00 0. -1.
         -2   -1    0    0    0  501 -0.00000000000E+00 -0.00000000000E+00 -0.80049103565E+02  0.80049103565E+02  0.00000000000E+00 0.  1.
         25    2    1    2    0    0 -0.19724541330E+03  0.15082978432E+03  0.26825786445E+03  0.38634832260E+03  0.12508943851E+03 0.  0.
          5    1    3    3  502    0 -0.21012255233E+03  0.11783433776E+03  0.24582556264E+03  0.34421519112E+03  0.41800000000E+01 0. -1.
         -5    1    3    3    0  502  0.12877139029E+02  0.32995446557E+02  0.22432301813E+02  0.42133131472E+02  0.41800000000E+01 0. -1.
        -11    1    1    2    0    0  0.50266116207E+02 -0.38935365848E+01  0.18690705882E+03  0.19358742393E+03  0.00000000000E+00 0.  1.
         11    1    1    2    0    0  0.14697929710E+03 -0.14693624773E+03  0.59366341367E+03  0.62899079755E+03  0.00000000000E+00 0. -1.
</event>
<event>
 6    1  0.3226965E-009  0.8449432E+02  0.7561462E-02  0.1316760E+00
         -2   -1    0    0    0  501 -0.00000000000E+00  0.00000000000E+00  0.17626570504E+02  0.17626570504E+02  0.00000000000E+00 0.  1.
          2   -1    0    0  501    0  0.00000000000E+00 -0.00000000000E+00 -0.82590715430E+03  0.82590715430E+03  0.00000000000E+00 0. -1.
          5    1    1    2  502    0 -0.41437153757E+02 -0.39024122807E+02 -0.15367289499E+03  0.16392910336E+03  0.41800000000E+01 0.  1.
         -5    1    1    2    0  502  0.27830039426E+02  0.34124074098E+02 -0.48323199958E+03  0.48525210081E+03  0.41800000000E+01 0.  1.
        -11    1    1    2    0    0  0.26244512174E+02 -0.24362118630E+02 -0.15388111817E+03  0.15799267633E+03  0.00000000000E+00 0. -1.
         11    1    1    2    0    0 -0.12637397843E+02  0.29262167339E+02 -0.17494571054E+02  0.36359844307E+02  0.00000000000E+00 0.  1.
</event>
<event>
 7    1  0.2844572E-009  0.1133091E+03  0.7561462E-02  0.1254562E+00
         -1   -1    0    0    0  501 -0.00000000000E+00  0.00000000000E+00  0.79319239963E+02  0.79319239963E+02  0.00000000000E+00 0.  1.
          1   -1    0    0  501    0  0.00000000000E+00 -0.00000000000E+00 -0.27364964348E+03  0.27364964348E+03  0.00000000000E+00 0. -1.
         25    2    1    2    0    0  0.35383158230E+02  0.82083657401E+02 -0.51470352791E+02  0.16212871902E+03  0.12508728798E+03 0.  0.
          5    1    3    3  502    0  0.45149938139E+02  0.34781408500E+02  0.32077255379E+02  0.65533853876E+02  0.41800000000E+01 0.  1.
         -5    1    3    3    0  502 -0.97667799083E+01  0.47302248900E+02 -0.83547608170E+02  0.96594865142E+02  0.41800000000E+01 0.  1.
        -11    1    1    2    0    0 -0.42516149289E+02 -0.41350022504E+01 -0.79044859416E+02  0.89848822998E+02  0.00000000000E+00 0.  1.
         11    1    1    2    0    0  0.71329910589E+01 -0.77948655150E+02 -0.63815191306E+02  0.10099134142E+03  0.00000000000E+00 0. -1.
</event>
<event>
 7    1  0.2844572E-009  0.1205161E+03  0.7561462E-02  0.1242248E+00
          1   -1    0    0  501    0  0.00000000000E+00  0.00000000000E+00  0.86354348030E+03  0.86354348030E+03  0.00000000000E+00 0. -1.
         -1   -1    0    0    0  501 -0.00000000000E+00 -0.00000000000E+00 -0.73735583036E+02  0.73735583036E+02  0.00000000000E+00 0.  1.
         25    2    1    2    0    0 -0.28793915749E+02  0.96866327476E+02  0.78474055640E+03  0.80104909569E+03  0.12509891231E+03 0.  0.
          5    1    3    3  502    0 -0.35455958704E+02  0.42564766722E+02  0.68469824739E+03  0.68694835814E+03  0.41800000000E+01 0. -1.
         -5    1    3    3    0  502  0.66620429555E+01  0.54301560754E+02  0.10004230901E+03  0.11410073755E+03  0.41800000000E+01 0. -1.
        -11    1    1    2    0    0 -0.20092461133E+02 -0.73926074095E+02 -0.16006753239E+02  0.78262299831E+02  0.00000000000E+00 0.  1.
         11    1    1    2    0    0  0.48886376882E+02 -0.22940253381E+02  0.21074094103E+02  0.57967667816E+02  0.00000000000E+00 0. -1.
</event>
<event>
 7    1  0.2844572E-009  0.1360169E+03  0.7561462E-02  0.1218791E+00
         -2   -1    0    0    0  501 -0.00000000000E+00  0.00000000000E+00  0.62963930163E+02  0.62963930163E+02  0.00000000000E+00 0.  1.
          2   -1    0    0  501    0  0.00000000000E+00 -0.00000000000E+00 -0.43084953457E+03  0.43084953457E+03  0.00000000000E+00 0. -1.
         25    2    1    2    0    0  0.50369257774E+02 -0.10879822612E+03 -0.20070977379E+03  0.26515149711E+03  0.12508711759E+03 0.  0.
          5    1    3    3  502    0  0.60574748824E+02 -0.11906946215E+03 -0.20890010046E+03  0.24799911569E+03  0.41800000000E+01 0. -1.
         -5    1    3    3    0  502 -0.10205491050E+02  0.10271236033E+02  0.81903266677E+01  0.17152381413E+02  0.41800000000E+01 0. -1.
        -11    1    1    2    0    0 -0.52054876565E+02  0.86580411761E+02 -0.56469086854E+02  0.11573519622E+03  0.00000000000E+00 0.  1.
         11    1    1    2    0    0  0.16856187910E+01  0.22217814360E+02 -0.11070674376E+03  0.11292677140E+03  0.00000000000E+00 0. -1.
</event>
<event>
 7    1  0.3154262E-009  0.1445773E+03  0.7561462E-02  0.1207299E+00
         -1   -1    0    0    0  501 -0.00000000000E+00  0.00000000000E+00  0.54371152080E+03  0.54371152080E+03  0.00000000000E+00 0.  1.
          1   -1    0    0  501    0  0.00000000000E+00 -0.00000000000E+00 -0.45523350018E+02  0.45523350018E+02  0.00000000000E+00 0. -1.
         25    2    1    2    0    0 -0.45391097110E+02  0.10061126281E+03  0.21690212286E+03  0.27363973536E+03  0.12509674642E+03 0.  0.
          5    1    3    3  502    0 -0.29308723796E+02  0.12967090734E+03  0.18009939703E+03  0.22389017556E+03  0.41800000000E+01 0. -1.
         -5    1    3    3    0  502 -0.16082373314E+02 -0.29059644532E+02  0.36802725831E+02  0.49749559800E+02  0.41800000000E+01 0. -1.
        -11    1    1    2    0    0  0.51404311398E+01 -0.74536616196E+02  0.24300687993E+03  0.25423311130E+03  0.00000000000E+00 0.  1.
         11    1    1    2    0    0  0.40250665970E+02 -0.26074646615E+02  0.38279167992E+02  0.61362024162E+02  0.00000000000E+00 0. -1.
</event>
<event>
 7    1  0.2844572E-009  0.1282996E+03  0.7561462E-02  0.1230001E+00
         -4   -1    0    0    0  501 -0.00000000000E+00  0.00000000000E+00  0.13864626609E+03  0.13864626609E+03  0.00000000000E+00 0.  1.
          4   -1    0    0  501    0  0.00000000000E+00 -0.00000000000E+00 -0.21750541658E+03  0.21750541658E+03  0.00000000000E+00 0. -1.
         25    2    1    2    0    0  0.10709514180E+03 -0.18768894419E+02  0.40010585805E+02  0.17049418189E+03  0.12508308553E+03 0.  0.
          5    1    3    3  502    0  0.13908928999E+02  0.12204753083E+02 -0.39665325616E+02  0.43968451871E+02  0.41800000000E+01 0. -1.
         -5    1    3    3    0  502  0.93186212798E+02 -0.30973647503E+02  0.79675911421E+02  0.12652573002E+03  0.41800000000E+01 0. -1.
        -11    1    1    2    0    0 -0.16472015937E+02  0.42568668437E+02 -0.21251159970E+02  0.50349087793E+02  0.00000000000E+00 0.  1.
         11    1    1    2    0    0 -0.90623125860E+02 -0.23799774017E+02 -0.97618576323E+02  0.13530841300E+03  0.00000000000E+00 0. -1.
</event>
<event>
 7    1  0.2844572E-009  0.2124170E+03  0.7561462E-02  0.1139666E+00
          1   -1    0    0  501    0  0.00000000000E+00  0.00000000000E+00  0.15831415287E+04  0.15831415287E+04  0.00000000000E+00 0. -1.
         -1   -1    0    0    0  501 -0.00000000000E+00 -0.00000000000E+00 -0.36339301946E+02  0.36339301946E+02  0.00000000000E+00 0.  1.
         25    2    1    2    0    0  0.11772405173E+03 -0.14361316951E+03  0.11510809510E+04  0.11726543933E+04  0.12508907000E+03 0.  0.
          5    1    3    3  502    0  0.11694871939E+03 -0.55329020858E+02  0.54493102002E+03  0.56009427108E+03  0.41800000000E+01 0. -1.
         -5    1    3    3    0  502  0.77533234422E+00 -0.88284148655E+02  0.60614993099E+03  0.61256012218E+03  0.41800000000E+01 0. -1.
        -11    1    1    2    0    0 -0.10826476590E+02  0.83826394441E+02  0.17702404750E+03  0.19616725108E+03  0.00000000000E+00 0. -1.
         11    1    1    2    0    0 -0.10689757514E+03  0.59786775072E+02  0.21869722826E+03  0.25065918633E+03  0.00000000000E+00 0.  1.
</event>
<event>
 7    1  0.2844572E-009  0.1278754E+03  0.7561462E-02  0.1230643E+00
         -2   -1    0    0    0  501 -0.00000000000E+00  0.00000000000E+00  0.28434904757E+02  0.28434904757E+02  0.00000000000E+00 0.  1.
          2   -1    0    0  501    0  0.00000000000E+00 -0.00000000000E+00 -0.61311516586E+03  0.61311516586E+03  0.00000000000E+00 0. -1.
         25    2    1    2    0    0  0.66283031989E+02  0.34654207034E+02 -0.33997559608E+03  0.36989911752E+03  0.12509035460E+03 0.  0.
          5    1    3    3  502    0  0.70972807524E+02 -0.29057944669E+02 -0.13692753677E+03  0.15699721744E+03  0.41800000000E+01 0. -1.
         -5    1    3    3    0  502 -0.46897755349E+01  0.63712151703E+02 -0.20304805931E+03  0.21290190008E+03  0.41800000000E+01 0. -1.
        -11    1    1    2    0    0 -0.27198260269E+02  0.29296978744E+02 -0.57785383641E+02  0.70265275121E+02  0.00000000000E+00 0. -1.
         11    1    1    2    0    0 -0.39084771720E+02 -0.63951185779E+02 -0.18691928138E+03  0.20138567798E+03  0.00000000000E+00 0.  1.
</event>
<event>
 7    1  0.5596394E-009  0.1280052E+03  0.7561462E-02  0.1230446E+00
          3   -1    0    0  501    0  0.00000000000E+00  0.00000000000E+00  0.81330146204E+03  0.81330146204E+03  0.00000000000E+00 0. -1.
         -3   -1    0    0    0  501 -0.00000000000E+00 -0.00000000000E+00 -0.26652968503E+02  0.26652968503E+02  0.00000000000E+00 0.  1.
         25    2    1    2    0    0 -0.70677774579E+02  0.40042521071E+02  0.58704554447E+03  0.60569704393E+03  0.12509071282E+03 0.  0.
          5    1    3    3  502    0  0.30278841591E+02 -0.15021473135E+02  0.13847065246E+03  0.14259749961E+03  0.41800000000E+01 0.  1.
         -5    1    3    3    0  502 -0.10095661617E+03  0.55063994206E+02  0.44857489200E+03  0.46309954431E+03  0.41800000000E+01 0.  1.
        -11    1    1    2    0    0  0.43801457930E+02  0.14447153964E+02  0.32420762518E+02  0.56377245558E+02  0.00000000000E+00 0.  1.
         11    1    1    2    0    0  0.26876316649E+02 -0.54489675036E+02  0.16718218656E+03  0.17788014106E+03  0.00000000000E+00 0. -1.
</event>
<event>
 7    1  0.2844572E-009  0.8791449E+02  0.7561462E-02  0.1307982E+00
         -2   -1    0    0    0  501 -0.00000000000E+00  0.00000000000E+00  0.42632909400E+02  0.42632909400E+02  0.00000000000E+00 0.  1.
          2   -1    0    0  501    0  0.00000000000E+00 -0.00000000000E+00 -0.29020334508E+03  0.29020334508E+03  0.00000000000E+00 0. -1.
         25    2    1    2    0    0 -0.12207996893E+02 -0.12597550204E+02 -0.11519134759E+03  0.17095148340E+03  0.12509048588E+03 0.  0.
          5    1    3    3  502    0 -0.32350509635E+02 -0.37937158264E+02  0.12237772277E+01  0.50047512241E+02  0.41800000000E+01 0. -1.
         -5    1    3    3    0  502  0.20142512741E+02  0.25339608060E+02 -0.11641512481E+03  0.12090397116E+03  0.41800000000E+01 0. -1.
        -11    1    1    2    0    0  0.10582607334E+02 -0.39572098862E+02 -0.56465209136E+02  0.69758601111E+02  0.00000000000E+00 0.  1.
         11    1    1    2    0    0  0.16253895597E+01  0.52169649066E+02 -0.75913878954E+02  0.92126169967E+02  0.00000000000E+00 0. -1.
</event>
<event>
 7    1  0.3386664E-009  0.1406507E+03  0.7561462E-02  0.1212456E+00
         -2   -1    0    0    0  501 -0.00000000000E+00  0.00000000000E+00  0.38832493220E+02  0.38832493220E+02  0.00000000000E+00 0.  1.
          2   -1    0    0  501    0  0.00000000000E+00 -0.00000000000E+00 -0.10860515240E+04  0.10860515240E+04  0.00000000000E+00 0. -1.
         25    2    1    2    0    0  0.11324149096E+03  0.32268107994E+02 -0.89687277431E+03  0.91317758445E+03  0.12509061268E+03 0.  0.
          5    1    3    3  502    0  0.10055572149E+03  0.49703732478E+02 -0.87503563627E+03  0.88220561735E+03  0.41800000000E+01 0.  1.
         -5    1    3    3    0  502  0.12685769467E+02 -0.17435624484E+02 -0.21837138034E+02  0.30971967094E+02  0.41800000000E+01 0.  1.
        -11    1    1    2    0    0 -0.37307107507E+02 -0.56216568136E+02 -0.52079240824E+02  0.85231274356E+02  0.00000000000E+00 0.  1.
         11    1    1    2    0    0 -0.75934383454E+02  0.23948460142E+02 -0.98267015694E+02  0.12647515846E+03  0.00000000000E+00 0. -1.
</event>
<event>
 7    1  0.2844572E-009  0.1467673E+03  0.7561462E-02  0.1204503E+00
          1   -1    0    0  501    0  0.00000000000E+00  0.00000000000E+00  0.79713559242E+03  0.79713559242E+03  0.00000000000E+00 0. -1.
         -1   -1    0    0    0  501 -0.00000000000E+00 -0.00000000000E+00 -0.34099853526E+02  0.34099853526E+02  0.00000000000E+00 0.  1.
         25    2    1    2    0    0  0.24409587016E+02 -0.11955977132E+03  0.43016197322E+03  0.46430224467E+03  0.12508750672E+03 0.  0.
          5    1    3    3  502    0 -0.34830054581E+02 -0.82758368408E+01  0.38094087141E+02  0.52442864650E+02  0.41800000000E+01 0.  1.
         -5    1    3    3    0  502  0.59239641598E+02 -0.11128393448E+03  0.39206788608E+03  0.41185938002E+03  0.41800000000E+01 0.  1.
        -11    1    1    2    0    0  0.47219663796E+01  0.89028268721E+02  0.11766381274E+03  0.14762487062E+03  0.00000000000E+00 0.  1.
         11    1    1    2    0    0 -0.29131553396E+02  0.30531502602E+02  0.21520995294E+03  0.21930833066E+03  0.00000000000E+00 0. -1.
</event>
<event>
 7    1  0.2844572E-009  0.1104719E+03  0.7561462E-02  0.1259699E+00
          2   -1    0    0  501    0  0.00000000000E+00  0.00000000000E+00  0.28003447453E+03  0.28003447453E+03  0.00000000000E+00 0. -1.
         -2   -1    0    0    0  501 -0.00000000000E+00 -0.00000000000E+00 -0.57418559649E+02  0.57418559649E+02  0.00000000000E+00 0.  1.
         25    2    1    2    0    0 -0.49621155274E+02 -0.84047317090E+01  0.67010901424E+02  0.15057040095E+03  0.12509231058E+03 0.  0.
          5    1    3    3  502    0  0.10421144049E+02 -0.55584936074E+02  0.40280953003E+02  0.69557982551E+02  0.41800000000E+01 0. -1.
         -5    1    3    3    0  502 -0.60042299323E+02  0.47180204365E+02  0.26729948421E+02  0.81012418397E+02  0.41800000000E+01 0. -1.
        -11    1    1    2    0    0  0.58574496871E+01 -0.29370235768E+02  0.12337044054E+02  0.32390170143E+02  0.00000000000E+00 0.  1.
         11    1    1    2    0    0  0.43763705587E+02  0.37774967477E+02  0.14326796941E+03  0.15449246309E+03  0.00000000000E+00 0. -1.
</event>
<event>
 7    1  0.2844572E-009  0.1338875E+03  0.7561462E-02  0.1221799E+00
         -1   -1    0    0    0  501 -0.00000000000E+00  0.00000000000E+00  0.20660394515E+02  0.20660394515E+02  0.00000000000E+00 0.  1.
          1   -1    0    0  501    0  0.00000000000E+00 -0.00000000000E+00 -0.99496021992E+03  0.99496021992E+03  0.00000000000E+00 0. -1.
         25    2    1    2    0    0 -0.39701812293E+02  0.70165161525E+02 -0.38343253292E+03  0.41130011219E+03  0.12509153127E+03 0.  0.
          5    1    3    3  502    0  0.80921270241E+01 -0.31271165790E+02 -0.13210584931E+03  0.13606173654E+03  0.41800000000E+01 0.  1.
         -5    1    3    3    0  502 -0.47793939317E+02  0.10143632732E+03 -0.25132668362E+03  0.27523837565E+03  0.41800000000E+01 0.  1.
        -11    1    1    2    0    0 -0.28523947886E+02 -0.56140781973E+01 -0.85714116932E+02  0.90509907294E+02  0.00000000000E+00 0.  1.
         11    1    1    2    0    0  0.68225760179E+02 -0.64551083328E+02 -0.50515317555E+03  0.51381059494E+03  0.00000000000E+00 0. -1.
</event>
<event>
 7    1  0.2844572E-009  0.1036708E+03  0.7561462E-02  0.1272761E+00
         -2   -1    0    0    0  501 -0.00000000000E+00  0.00000000000E+00  0.30209290623E+02  0.30209290623E+02  0.00000000000E+00 0.  1.
          2   -1    0    0  501    0  0.00000000000E+00 -0.00000000000E+00 -0.45826239085E+03  0.45826239085E+03  0.00000000000E+00 0. -1.
         25    2    1    2    0    0  0.38334844255E+02 -0.19645643352E+02 -0.25591941254E+03  0.28809329625E+03  0.12508992782E+03 0.  0.
          5    1    3    3  502    0 -0.31930083400E+02  0.35259946187E+01 -0.17658634598E+03  0.17953320822E+03  0.41800000000E+01 0.  1.
         -5    1    3    3    0  502  0.70264927655E+02 -0.23171637970E+02 -0.79333066555E+02  0.10856008803E+03  0.41800000000E+01 0.  1.
        -11    1    1    2    0    0  0.14946661563E+02  0.40847822726E+02 -0.56473443189E+02  0.71282516082E+02  0.00000000000E+00 0.  1.
         11    1    1    2    0    0 -0.53281505818E+02 -0.21202179375E+02 -0.11566024449E+03  0.12909586914E+03  0.00000000000E+00 0. -1.
</event>
<event>
 7    1  0.3294861E-009  0.1119724E+03  0.7561462E-02  0.1256960E+00
          1   -1    0    0  501    0  0.00000000000E+00  0.00000000000E+00  0.29913919005E+03  0.29913919005E+03  0.00000000000E+00 0. -1.
         -1   -1    0    0    0  501 -0.00000000000E+00 -0.00000000000E+00 -0.71980818488E+02  0.71980818488E+02  0.00000000000E+00 0.  1.
         25    2    1    2    0    0 -0.88493860391E+02 -0.71323516106E+00  0.67213556136E+02  0.16732436132E+03  0.12509239678E+03 0.  0.
          5    1    3    3  502    0 -0.71476323619E+02 -0.29224709023E+02 -0.14808032580E+02  0.78738165361E+02  0.41800000000E+01 0. -1.
         -5    1    3    3    0  502 -0.17017536772E+02  0.28511473862E+02  0.82021588716E+02  0.88586195963E+02  0.41800000000E+01 0. -1.
        -11    1    1    2    0    0  0.69881152468E+02  0.31907080817E+02  0.60064458019E+02  0.97515005992E+02  0.00000000000E+00 0.  1.
         11    1    1    2    0    0  0.18612707923E+02 -0.31193845656E+02  0.99880357411E+02  0.10628064123E+03  0.00000000000E+00 0. -1.
</event>
<event>
 7    1  0.2844572E-009  0.1270574E+03  0.7561462E-02  0.1231889E+00
          2   -1    0    0  501    0  0.00000000000E+00  0.00000000000E+00  0.63664379279E+03  0.63664379279E+03  0.00000000000E+00 0. -1.
         -2   -1    0    0    0  501 -0.00000000000E+00 -0.00000000000E+00 -0.31056731963E+02  0.31056731963E+02  0.00000000000E+00 0.  1.
         25    2    1    2    0    0 -0.81199941249E+02  0.71569944142E+01  0.25201046070E+03  0.29291831289E+03  0.12508881924E+03 0.  0.
          5    1    3    3  502    0 -0.42089265967E+02 -0.46797203536E+02  0.51026202407E+02  0.81133410507E+02  0.41800000000E+01 0. -1.
         -5    1    3    3    0  502 -0.39110675281E+02  0.53954197950E+02  0.20098425829E+03  0.21178490238E+03  0.41800000000E+01 0. -1.
        -11    1    1    2    0    0  0.28603289547E+02  0.42962927395E+02  0.14420988713E+03  0.15316805427E+03  0.00000000000E+00 0. -1.
         11    1    1    2    0    0  0.52596651701E+02 -0.50119921809E+02  0.20936671301E+03  0.22161415760E+03  0.00000000000E+00 0.  1.
</event>
<event>
 7    1  0.2844572E-009  0.1007412E+03  0.7561462E-02  0.1278745E+00
          2   -1    0    0  501    0  0.00000000000E+00  0.00000000000E+00  0.47877795520E+03  0.47877795520E+03  0.00000000000E+00 0. -1.
         -2   -1    0    0    0  501 -0.00000000000E+00 -0.00000000000E+00 -0.26805375950E+02  0.26805375950E+02  0.00000000000E+00 0.  1.
         25    2    1    2    0    0 -0.28760645884E+02  0.85459866933E+01  0.21799791806E+03  0.25312204773E+03  0.12508984821E+03 0.  0.
          5    1    3    3  502    0 -0.49428619036E+02  0.44494782398E+02  0.59828191946E+02  0.89553665430E+02  0.41800000000E+01 0.  1.
         -5    1    3    3    0  502  0.20667973152E+02 -0.35948795705E+02  0.15816972612E+03  0.16356838230E+03  0.41800000000E+01 0.  1.
        -11    1    1    2    0    0  0.53739373039E+02 -0.28836686659E+02  0.17430708186E+03  0.18466844207E+03  0.00000000000E+00 0. -1.
         11    1    1    2    0    0 -0.24978727155E+02  0.20290699966E+02  0.59667579324E+02  0.67792841346E+02  0.00000000000E+00 0.  1.
</event>
<event>
 7    1  0.2844572E-009  0.9320840E+02  0.7561462E-02  0.1295263E+00
          3   -1    0    0  501    0  0.00000000000E+00  0.00000000000E+00  0.17927287075E+02  0.17927287075E+02  0.00000000000E+00 0. -1.
         -3   -1    0    0    0  501 -0.00000000000E+00 -0.00000000000E+00 -0.94087977805E+03  0.94087977805E+03  0.00000000000E+00 0.  1.
         25    2    1    2    0    0  0.17023201325E+02 -0.47552300902E+02 -0.69752254854E+03  0.71044799261E+03  0.12509050232E+03 0.  0.
          5    1    3    3  502    0 -0.28593315499E+02 -0.31648996004E+02 -0.60006847917E+03  0.60159694874E+03  0.41800000000E+01 0. -1.
         -5    1    3    3    0  502  0.45616516825E+02 -0.15903304897E+02 -0.97454069372E+02  0.10885104387E+03  0.41800000000E+01 0. -1.
        -11    1    1    2    0    0 -0.49629582211E+02  0.26545631089E+02 -0.18015085935E+03  0.18873817336E+03  0.00000000000E+00 0.  1.
         11    1    1    2    0    0  0.32606380885E+02  0.21006669812E+02 -0.45279083082E+02  0.59620899152E+02  0.00000000000E+00 0. -1.
</event>
<event>
 7    1  0.2844572E-009  0.1429234E+03  0.7561462E-02  0.1209449E+00
          2   -1    0    0  501    0  0.00000000000E+00  0.00000000000E+00  0.11547264074E+03  0.11547264074E+03  0.00000000000E+00 0. -1.
         -2   -1    0    0    0  501 -0.00000000000E+00 -0.00000000000E+00 -0.29142270614E+03  0.29142270614E+03  0.00000000000E+00 0.  1.
         25    2    1    2    0    0  0.10320191191E+03  0.68180331419E+02 -0.51712304047E+01  0.17599643189E+03  0.12509520455E+03 0.  0.
          5    1    3    3  502    0  0.63912591530E+02  0.94672640490E+02 -0.35369306407E+02  0.11965027559E+03  0.41800000000E+01 0. -1.
         -5    1    3    3    0  502  0.39289320377E+02 -0.26492309072E+02  0.30198076002E+02  0.56346156301E+02  0.41800000000E+01 0. -1.
        -11    1    1    2    0    0 -0.84418504500E+02 -0.51751459996E+02 -0.17905292442E+03  0.20460852196E+03  0.00000000000E+00 0.  1.
         11    1    1    2    0    0 -0.18783407407E+02 -0.16428871422E+02  0.82740894299E+01  0.26290393035E+02  0.00000000000E+00 0. -1.
</event>
<event>
 7    1  0.2844572E-009  0.1999754E+03  0.7561462E-02  0.1149760E+00
         -1   -1    0    0    0  501 -0.00000000000E+00  0.00000000000E+00  0.23385290795E+03  0.23385290795E+03  0.00000000000E+00 0.  1.
          1   -1    0    0  501    0  0.00000000000E+00 -0.00000000000E+00 -0.18883056299E+03  0.18883056299E+03  0.00000000000E+00 0. -1.
         25    2    1    2    0    0  0.61175381635E+01  0.17803757376E+03  0.42160505982E+02  0.22171981989E+03  0.12508944131E+03 0.  0.
          5    1    3    3  502    0 -0.23200567415E+02 -0.35288394339E+01  0.28634442063E+02  0.37257518817E+02  0.41800000000E+01 0. -1.
         -5    1    3    3    0  502  0.29318105579E+02  0.18156641319E+03  0.13526063919E+02  0.18446230108E+03  0.41800000000E+01 0. -1.
        -11    1    1    2    0    0 -0.36127422899E+02 -0.57309899786E+02 -0.27164086183E+02  0.72989745012E+02  0.00000000000E+00 0. -1.
         11    1    1    2    0    0  0.30009884735E+02 -0.12072767397E+03  0.30025925158E+02  0.12797390603E+03  0.00000000000E+00 0.  1.
</event>
<event>
 7    1  0.3420167E-009  0.1123916E+03  0.7561462E-02  0.1256204E+00
          1   -1    0    0  501    0  0.00000000000E+00  0.00000000000E+00  0.36094965071E+03  0.36094965071E+03  0.00000000000E+00 0. -1.
         -1   -1    0    0    0  501 -0.00000000000E+00 -0.00000000000E+00 -0.61946443594E+02  0.61946443594E+02  0.00000000000E+00 0.  1.
         25    2    1    2    0    0  0.74982067599E+02 -0.58506373374E+02  0.10718478303E+03  0.19021407772E+03  0.12509001343E+03 0.  0.
          5    1    3    3  502    0  0.60879535763E+02 -0.56822943953E+02  0.13501704357E+03  0.15868912782E+03  0.41800000000E+01 0.  1.
         -5    1    3    3    0  502  0.14102531836E+02 -0.16834294216E+01 -0.27832260540E+02  0.31524949891E+02  0.41800000000E+01 0.  1.
        -11    1    1    2    0    0 -0.44547464140E+02 -0.15026368612E+02  0.42014757688E+02  0.63051631054E+02  0.00000000000E+00 0. -1.
         11    1    1    2    0    0 -0.30434603459E+02  0.73532741987E+02  0.14980366639E+03  0.16963038553E+03  0.00000000000E+00 0.  1.
</event>
<event>
 7    1  0.2844572E-009  0.9457295E+02  0.7561462E-02  0.1292141E+00
         -2   -1    0    0    0  501 -0.00000000000E+00  0.00000000000E+00  0.15570431811E+03  0.15570431811E+03  0.00000000000E+00 0.  1.
          2   -1    0    0  501    0  0.00000000000E+00 -0.00000000000E+00 -0.10433742952E+03  0.10433742952E+03  0.00000000000E+00 0. -1.
         25    2    1    2    0    0 -0.42657163603E+02 -0.22142749086E+02 -0.19704756426E+02  0.13544888147E+03  0.12509271410E+03 0.  0.
          5    1    3    3  502    0 -0.82962455399E+02 -0.17178541103E+02 -0.35123754057E+02  0.91809704168E+02  0.41800000000E+01 0. -1.
         -5    1    3    3    0  502  0.40305291796E+02 -0.49642079826E+01  0.15418997631E+02  0.43639177302E+02  0.41800000000E+01 0. -1.
        -11    1    1    2    0    0  0.37408112098E+02 -0.32664034676E+01 -0.10502841664E+02  0.38991613526E+02  0.00000000000E+00 0. -1.
         11    1    1    2    0    0  0.52490515052E+01  0.25409152554E+02  0.81574486685E+02  0.85601252638E+02  0.00000000000E+00 0.  1.
</event>
<event>
 7    1  0.2844572E-009  0.1353668E+03  0.7561462E-02  0.1219703E+00
          2   -1    0    0  501    0  0.00000000000E+00  0.00000000000E+00  0.45221460339E+02  0.45221460339E+02  0.00000000000E+00 0. -1.
         -2   -1    0    0    0  501 -0.00000000000E+00 -0.00000000000E+00 -0.10376199952E+04  0.10376199952E+04  0.00000000000E+00 0.  1.
         25    2    1    2    0    0 -0.35409147837E+02 -0.10045280541E+03 -0.90747062523E+03  0.92222274485E+03  0.12508909461E+03 0.  0.
          5    1    3    3  502    0  0.31382807661E+02 -0.62725458360E+02 -0.64277562568E+03  0.64660447038E+03  0.41800000000E+01 0. -1.
         -5    1    3    3    0  502 -0.66791955498E+02 -0.37727347055E+02 -0.26469499955E+03  0.27561827447E+03  0.41800000000E+01 0. -1.
        -11    1    1    2    0    0  0.14492738618E+02  0.10166723363E+03 -0.92627378059E+02  0.13829713313E+03  0.00000000000E+00 0.  1.
         11    1    1    2    0    0  0.20916409219E+02 -0.12144282128E+01  0.76994684322E+01  0.22321577557E+02  0.00000000000E+00 0. -1.
</event>
<event>
 7    1  0.2844572E-009  0.1257666E+03  0.7561462E-02  0.1233876E+00
          1   -1    0    0  501    0  0.00000000000E+00  0.00000000000E+00  0.39807951129E+03  0.39807951129E+03  0.00000000000E+00 0. -1.
         -1   -1    0    0    0  501 -0.00000000000E+00 -0.00000000000E+00 -0.53285397973E+02  0.53285397973E+02  0.00000000000E+00 0.  1.
         25    2    1    2    0    0 -0.70860811007E+02 -0.30751652089E+02  0.27231973509E+03  0.30948304259E+03  0.12511913080E+03 0.  0.
          5    1    3    3  502    0  0.36163191842E+02 -0.10902179157E+02  0.65231509382E+02  0.75493418063E+02  0.41800000000E+01 0.  1.
         -5    1    3    3    0  502 -0.10702400285E+03 -0.19849472932E+02  0.20708822571E+03  0.23398962453E+03  0.41800000000E+01 0.  1.
        -11    1    1    2    0    0 -0.24878821013E+01  0.31153443027E+02 -0.87354345702E+01  0.32450491320E+02  0.00000000000E+00 0.  1.
         11    1    1    2    0    0  0.73348693108E+02 -0.40179093762E+00  0.81209812805E+02  0.10943137536E+03  0.00000000000E+00 0. -1.
</event>
<event>
 7    1  0.2844572E-009  0.1058810E+03  0.7561462E-02  0.1268393E+00
          1   -1    0    0  501    0  0.00000000000E+00  0.00000000000E+00  0.25327213051E+02  0.25327213051E+02  0.00000000000E+00 0. -1.
         -1   -1    0    0    0  501 -0.00000000000E+00 -0.00000000000E+00 -0.78214752584E+03  0.78214752584E+03  0.00000000000E+00 0.  1.
         25    2    1    2    0    0  0.55434855071E+02  0.14037677462E+02 -0.61529100799E+03  0.63047612366E+03  0.12508812277E+03 0.  0.
          5    1    3    3  502    0  0.79654368429E+02  0.46159537971E+02 -0.34160671822E+03  0.35381936590E+03  0.41800000000E+01 0.  1.
         -5    1    3    3    0  502 -0.24219513358E+02 -0.32121860509E+02 -0.27368428977E+03  0.27665675776E+03  0.41800000000E+01 0.  1.
        -11    1    1    2    0    0  0.49742915459E+01 -0.17946625434E+02 -0.10426023594E+03  0.10591044207E+03  0.00000000000E+00 0.  1.
         11    1    1    2    0    0 -0.60409146617E+02  0.39089479726E+01 -0.37269068866E+02  0.71088173161E+02  0.00000000000E+00 0. -1.
</event>
<event>
 7    1  0.2844572E-009  0.1695478E+03  0.7561462E-02  0.1178320E+00
         -2   -1    0    0    0  501 -0.00000000000E+00  0.00000000000E+00  0.19050080512E+02  0.19050080512E+02  0.00000000000E+00 0.  1.
          2   -1    0    0  501    0  0.00000000000E+00 -0.00000000000E+00 -0.15934457092E+04  0.15934457092E+04  0.00000000000E+00 0. -1.
         25    2    1    2    0    0 -0.11699260298E+03  0.66447039977E+02 -0.91730212487E+03  0.93552475859E+03  0.12514354702E+03 0.  0.
          5    1    3    3  502    0 -0.14389158467E+03  0.54473949594E+02 -0.75735337040E+03  0.77283491082E+03  0.41800000000E+01 0.  1.
         -5    1    3    3    0  502  0.26898981696E+02  0.11973090383E+02 -0.15994875447E+03  0.16268984777E+03  0.41800000000E+01 0.  1.
        -11    1    1    2    0    0  0.11156694896E+03 -0.82331789725E+02 -0.63016516193E+03  0.64523936567E+03  0.00000000000E+00 0. -1.
         11    1    1    2    0    0  0.54256540177E+01  0.15884749748E+02 -0.26928341901E+02  0.31731665472E+02  0.00000000000E+00 0.  1.
</event>
<event>
 7    1  0.2844572E-009  0.1217654E+03  0.7561462E-02  0.1240213E+00
         -2   -1    0    0    0  501 -0.00000000000E+00  0.00000000000E+00  0.39259460724E+02  0.39259460724E+02  0.00000000000E+00 0.  1.
          2   -1    0    0  501    0  0.00000000000E+00 -0.00000000000E+00 -0.38124109483E+03  0.38124109483E+03  0.00000000000E+00 0. -1.
         25    2    1    2    0    0 -0.80767776180E+01  0.46890899906E+02 -0.19003549457E+03  0.23243297609E+03  0.12509040070E+03 0.  0.
          5    1    3    3  502    0  0.50957937321E+02  0.52781761389E+02 -0.91713334950E+02  0.11752205716E+03  0.41800000000E+01 0. -1.
         -5    1    3    3    0  502 -0.59034714939E+02 -0.58908614832E+01 -0.98322159624E+02  0.11491091893E+03  0.41800000000E+01 0. -1.
        -11    1    1    2    0    0 -0.37685777171E+02  0.85891574910E+01 -0.59273714016E+02  0.70762734548E+02  0.00000000000E+00 0. -1.
         11    1    1    2    0    0  0.45762554789E+02 -0.55480057397E+02 -0.92672425516E+02  0.11730484492E+03  0.00000000000E+00 0.  1.
</event>
<event>
 7    1  0.2844572E-009  0.1218161E+03  0.7561462E-02  0.1240131E+00
          1   -1    0    0  501    0  0.00000000000E+00  0.00000000000E+00  0.72779659479E+03  0.72779659479E+03  0.00000000000E+00 0. -1.
         -1   -1    0    0    0  501 -0.00000000000E+00 -0.00000000000E+00 -0.22203419228E+02  0.22203419228E+02  0.00000000000E+00 0.  1.
         25    2    1    2    0    0  0.59595575014E+02  0.14157283751E+01  0.47852340032E+03  0.49818114180E+03  0.12508464549E+03 0.  0.
          5    1    3    3  502    0  0.62544688937E+02 -0.53542583026E+02  0.25775501906E+03  0.27061738407E+03  0.41800000000E+01 0.  1.
         -5    1    3    3    0  502 -0.29491139232E+01  0.54958311401E+02  0.22076838126E+03  0.22756375773E+03  0.41800000000E+01 0.  1.
        -11    1    1    2    0    0 -0.73307735919E+02  0.23985324138E+02  0.18828451378E+03  0.20347082850E+03  0.00000000000E+00 0.  1.
         11    1    1    2    0    0  0.13712160906E+02 -0.25401052514E+02  0.38785261460E+02  0.48348043725E+02  0.00000000000E+00 0. -1.
</event>
<event>
 7    1  0.3073184E-009  0.8039432E+02  0.7561462E-02  0.1327936E+00
         -1   -1    0    0    0  501 -0.00000000000E+00  0.00000000000E+00  0.18010640844E+02  0.18010640844E+02  0.00000000000E+00 0.  1.
          1   -1    0    0  501    0  0.00000000000E+00 -0.00000000000E+00 -0.15049816370E+04  0.15049816370E+04  0.00000000000E+00 0. -1.
         25    2    1    2    0    0  0.39816070231E+02 -0.30079755348E+01 -0.13346693712E+04  0.13411131102E+04  0.12509067352E+03 0.  0.
          5    1    3    3  502    0 -0.34819994161E+02 -0.42092181930E+01 -0.15063723809E+03  0.15472297635E+03  0.41800000000E+01 0. -1.
         -5    1    3    3    0  502  0.74636064392E+02  0.12012426581E+01 -0.11840321331E+04  0.11863901339E+04  0.41800000000E+01 0. -1.
        -11    1    1    2    0    0 -0.40076982715E+02 -0.70078406522E+01 -0.16253970595E+03  0.16755426102E+03  0.00000000000E+00 0. -1.
         11    1    1    2    0    0  0.26091248410E+00  0.10015816187E+02  0.10238080950E+02  0.14324906658E+02  0.00000000000E+00 0.  1.
</event>
<event>
 7    1  0.2844572E-009  0.1136133E+03  0.7561462E-02  0.1254021E+00
         -2   -1    0    0    0  501 -0.00000000000E+00  0.00000000000E+00  0.18640636377E+02  0.18640636377E+02  0.00000000000E+00 0.  1.
          2   -1    0    0  501    0  0.00000000000E+00 -0.00000000000E+00 -0.85979427678E+03  0.85979427678E+03  0.00000000000E+00 0. -1.
         25    2    1    2    0    0  0.33741485702E+02 -0.56259588030E+02 -0.47756344029E+03  0.49801380993E+03  0.12508911334E+03 0.  0.
          5    1    3    3  502    0  0.64404522222E+02 -0.12918632207E+02 -0.12328586600E+03  0.13975589682E+03  0.41800000000E+01 0.  1.
         -5    1    3    3    0  502 -0.30663036521E+02 -0.43340955823E+02 -0.35427757429E+03  0.35825791311E+03  0.41800000000E+01 0.  1.
        -11    1    1    2    0    0  0.29168882542E+02  0.13922433187E+02 -0.68480817146E+02  0.75725030020E+02  0.00000000000E+00 0.  1.
         11    1    1    2    0    0 -0.62910368243E+02  0.42337154843E+02 -0.29510938297E+03  0.30469607321E+03  0.00000000000E+00 0. -1.
</event>
<event>
 7    1  0.2844572E-009  0.1235080E+03  0.7561462E-02  0.1237420E+00
         -2   -1    0    0    0  501 -0.00000000000E+00  0.00000000000E+00  0.12059141073E+03  0.12059141073E+03  0.00000000000E+00 0.  1.
          2   -1    0    0  501    0  0.00000000000E+00 -0.00000000000E+00 -0.19468806374E+03  0.19468806374E+03  0.00000000000E+00 0. -1.
         25    2    1    2    0    0 -0.10574741378E+03 -0.18975621602E+02 -0.17943006615E+02  0.16586973423E+03  0.12509287554E+03 0.  0.
          5    1    3    3  502    0 -0.10718275584E+03 -0.22640144618E+02  0.33091701991E+02  0.11451311033E+03  0.41800000000E+01 0.  1.
         -5    1    3    3    0  502  0.14353420581E+01  0.36645230155E+01 -0.51034708606E+02  0.51356623899E+02  0.41800000000E+01 0.  1.
        -11    1    1    2    0    0  0.47150430815E+02 -0.29482438759E+02 -0.47023017663E+02  0.72825418031E+02  0.00000000000E+00 0.  1.
         11    1    1    2    0    0  0.58596982965E+02  0.48458060361E+02 -0.91306287298E+01  0.76584322205E+02  0.00000000000E+00 0. -1.
</event>
<event>
 6    1  0.2844572E-009  0.2036532E+03  0.7561462E-02  0.1146693E+00
          1   -1    0    0  501    0  0.00000000000E+00  0.00000000000E+00  0.14800754479E+03  0.14800754479E+03  0.00000000000E+00 0. -1.
         -1   -1    0    0    0  501 -0.00000000000E+00 -0.00000000000E+00 -0.34471500205E+03  0.34471500205E+03  0.00000000000E+00 0.  1.
          5    1    1    2  502    0  0.31644056584E+02  0.54499206217E+02 -0.12658372123E+03  0.14146526314E+03  0.41800000000E+01 0.  1.
         -5    1    1    2    0  502  0.10596692285E+03  0.77853716587E+02 -0.29088877155E+02  0.13473613138E+03  0.41800000000E+01 0.  1.
        -11    1    1    2    0    0 -0.37746778693E+02  0.96749380758E+01 -0.82354511973E+01  0.39827708758E+02  0.00000000000E+00 0. -1.
         11    1    1    2    0    0 -0.99864200741E+02 -0.14202786088E+03 -0.32799407676E+02  0.17669344357E+03  0.00000000000E+00 0.  1.
</event>
<event>
 7    1  0.2844572E-009  0.8280217E+02  0.7561462E-02  0.1321282E+00
          2   -1    0    0  501    0  0.00000000000E+00  0.00000000000E+00  0.94776636748E+02  0.94776636748E+02  0.00000000000E+00 0.  1.
         -2   -1    0    0    0  501 -0.00000000000E+00 -0.00000000000E+00 -0.32155544669E+03  0.32155544669E+03  0.00000000000E+00 0. -1.
         25    2    1    2    0    0 -0.33423198813E+01  0.55441502401E+02 -0.26882915941E+03  0.30166526561E+03  0.12509150345E+03 0.  0.
          5    1    3    3  502    0  0.32753775520E+02  0.19327597058E+02 -0.23969551135E+03  0.24272984238E+03  0.41800000000E+01 0.  1.
         -5    1    3    3    0  502 -0.36096095401E+02  0.36113905343E+02 -0.29133648059E+02  0.58935423232E+02  0.41800000000E+01 0.  1.
        -11    1    1    2    0    0  0.13044917800E+02  0.56789283835E+01  0.50263624959E+02  0.52238415960E+02  0.00000000000E+00 0.  1.
         11    1    1    2    0    0 -0.97025979187E+01 -0.61120430785E+02 -0.82132754941E+01  0.62428401870E+02  0.00000000000E+00 0. -1.
</event>
<event>
 7    1  0.2844572E-009  0.2356201E+03  0.7561462E-02  0.1122745E+00
          1   -1    0    0  501    0  0.00000000000E+00  0.00000000000E+00  0.21724784807E+03  0.21724784807E+03  0.00000000000E+00 0. -1.
         -1   -1    0    0    0  501 -0.00000000000E+00 -0.00000000000E+00 -0.50944101875E+03  0.50944101875E+03  0.00000000000E+00 0.  1.
         25    2    1    2    0    0  0.17404661298E+03  0.11874924836E+03 -0.40278575238E+03  0.47146352253E+03  0.12509149963E+03 0.  0.
          5    1    3    3  502    0  0.15237431244E+03  0.35906614065E+02 -0.22560903404E+03  0.27463452927E+03  0.41800000000E+01 0.  1.
         -5    1    3    3    0  502  0.21672300547E+02  0.82842634296E+02 -0.17717671833E+03  0.19682899326E+03  0.41800000000E+01 0.  1.
        -11    1    1    2    0    0 -0.39402456423E+02  0.12033474247E+02  0.29927234999E+02  0.50921483377E+02  0.00000000000E+00 0. -1.
         11    1    1    2    0    0 -0.13464415656E+03 -0.13078272261E+03  0.80665346694E+02  0.20430386092E+03  0.00000000000E+00 0.  1.
</event>
<event>
 7    1  0.2844572E-009  0.1135371E+03  0.7561462E-02  0.1254156E+00
          1   -1    0    0  501    0  0.00000000000E+00  0.00000000000E+00  0.12129729139E+03  0.12129729139E+03  0.00000000000E+00 0. -1.
         -1   -1    0    0    0  501 -0.00000000000E+00 -0.00000000000E+00 -0.12075229585E+03  0.12075229585E+03  0.00000000000E+00 0.  1.
         25    2    1    2    0    0 -0.15578974644E+02 -0.44382215304E+02  0.21829008286E+02  0.13541042510E+03  0.12508793762E+03 0.  0.
          5    1    3    3  502    0 -0.52780424108E+02  0.21285775959E+02  0.12825147014E+01  0.57078670895E+02  0.41800000000E+01 0.  1.
         -5    1    3    3    0  502  0.37201449464E+02 -0.65667991263E+02  0.20546493584E+02  0.78331754209E+02  0.41800000000E+01 0.  1.
        -11    1    1    2    0    0 -0.21994625953E+02  0.51661492549E+02 -0.34790717422E+02  0.66053519225E+02  0.00000000000E+00 0.  1.
         11    1    1    2    0    0  0.37573600597E+02 -0.72792772454E+01  0.13506704682E+02  0.40585642909E+02  0.00000000000E+00 0. -1.
</event>
<event>
 7    1  0.2844572E-009  0.1228286E+03  0.7561462E-02  0.1238502E+00
          2   -1    0    0  501    0  0.00000000000E+00  0.00000000000E+00  0.15004818647E+03  0.15004818647E+03  0.00000000000E+00 0. -1.
         -2   -1    0    0    0  501 -0.00000000000E+00 -0.00000000000E+00 -0.15449786269E+03  0.15449786269E+03  0.00000000000E+00 0.  1.
         25    2    1    2    0    0  0.24434789422E+02  0.71942732188E+02 -0.79949480658E+02  0.16676684914E+03  0.12508575805E+03 0.  0.
          5    1    3    3  502    0  0.70935411131E+02  0.16585810022E+02 -0.49699449342E+02  0.88286065216E+02  0.41800000000E+01 0.  1.
         -5    1    3    3    0  502 -0.46500621709E+02  0.55356922166E+02 -0.30250031316E+02  0.78480783926E+02  0.41800000000E+01 0.  1.
        -11    1    1    2    0    0  0.19605522895E+02 -0.43853593223E+02  0.70493348531E+02  0.85304316149E+02  0.00000000000E+00 0. -1.
         11    1    1    2    0    0 -0.44040312317E+02 -0.28089138965E+02  0.50064559033E+01  0.52474883873E+02  0.00000000000E+00 0.  1.
</event>
<event>
 7    1  0.2844572E-009  0.7380031E+02  0.7561462E-02  0.1347627E+00
          1   -1    0    0  501    0  0.00000000000E+00  0.00000000000E+00  0.24955508785E+03  0.24955508785E+03  0.00000000000E+00 0. -1.
         -1   -1    0    0    0  501 -0.00000000000E+00 -0.00000000000E+00 -0.46592253516E+02  0.46592253516E+02  0.00000000000E+00 0.  1.
         25    2    1    2    0    0  0.64923514294E+01  0.57168602161E+01  0.12790642820E+03  0.17911552854E+03  0.12508990795E+03 0.  0.
          5    1    3    3  502    0 -0.46166717134E+02 -0.14125761771E+02  0.10952789633E+03  0.11976950944E+03  0.41800000000E+01 0.  1.
         -5    1    3    3    0  502  0.52659068564E+02  0.19842621987E+02  0.18378531869E+02  0.59346019100E+02  0.41800000000E+01 0.  1.
        -11    1    1    2    0    0  0.16002445053E+02 -0.11232203082E+02 -0.14619958565E+02  0.24412779894E+02  0.00000000000E+00 0.  1.
         11    1    1    2    0    0 -0.22494796482E+02  0.55153428655E+01  0.89676364703E+02  0.92619032936E+02  0.00000000000E+00 0. -1.
</event>
<event>
 7    1  0.2844572E-009  0.6948602E+02  0.7561462E-02  0.1361850E+00
         -1   -1    0    0    0  501 -0.00000000000E+00  0.00000000000E+00  0.37869603151E+02  0.37869603151E+02  0.00000000000E+00 0. -1.
          1   -1    0    0  501    0  0.00000000000E+00 -0.00000000000E+00 -0.34190656014E+03  0.34190656014E+03  0.00000000000E+00 0.  1.
         25    2    1    2    0    0  0.24267359205E+02  0.55192957085E+00 -0.11434210499E+03  0.17120338840E+03  0.12508906379E+03 0.  0.
          5    1    3    3  502    0  0.44930930118E+02 -0.31389159429E+02 -0.12049482663E+03  0.13244071676E+03  0.41800000000E+01 0. -1.
         -5    1    3    3    0  502 -0.20663570913E+02  0.31941089000E+02  0.61527216439E+01  0.38762671645E+02  0.41800000000E+01 0. -1.
        -11    1    1    2    0    0 -0.31866937861E+02 -0.10191791626E+02 -0.19298548254E+03  0.19586416420E+03  0.00000000000E+00 0.  1.
         11    1    1    2    0    0  0.75995786555E+01  0.96398620547E+01  0.32906305427E+01  0.12708610685E+02  0.00000000000E+00 0. -1.
</event>
<event>
 7    1  0.2844572E-009  0.2159660E+03  0.7561462E-02  0.1136927E+00
         -2   -1    0    0    0  501 -0.00000000000E+00  0.00000000000E+00  0.13219745342E+03  0.13219745342E+03  0.00000000000E+00 0.  1.
          2   -1    0    0  501    0  0.00000000000E+00 -0.00000000000E+00 -0.47925485393E+03  0.47925485393E+03  0.00000000000E+00 0. -1.
         25    2    1    2    0    0  0.20739277390E+03 -0.54645389788E+02 -0.26773517404E+03  0.36514069305E+03  0.12509085100E+03 0.  0.
          5    1    3    3  502    0  0.67465437017E+02 -0.98887964595E+01 -0.10830918313E+02  0.69167584018E+02  0.41800000000E+01 0.  1.
         -5    1    3    3    0  502  0.13992733689E+03 -0.44756593328E+02 -0.25690425573E+03  0.29597310903E+03  0.41800000000E+01 0.  1.
        -11    1    1    2    0    0 -0.80567271575E+02  0.59220387129E+01  0.13311704582E+02  0.81874032944E+02  0.00000000000E+00 0.  1.
         11    1    1    2    0    0 -0.12682550233E+03  0.48723351075E+02 -0.92633931052E+02  0.16443758136E+03  0.00000000000E+00 0. -1.
</event>
<event>
 7    1  0.2844572E-009  0.1084907E+03  0.7561462E-02  0.1263391E+00
         -2   -1    0    0    0  501 -0.00000000000E+00  0.00000000000E+00  0.14725398016E+03  0.14725398016E+03  0.00000000000E+00 0.  1.
          2   -1    0    0  501    0  0.00000000000E+00 -0.00000000000E+00 -0.84908056080E+02  0.84908056080E+02  0.00000000000E+00 0. -1.
         25    2    1    2    0    0 -0.91032577490E+00  0.31497776378E+02  0.33240151847E+02  0.13321822581E+03  0.12509695993E+03 0.  0.
          5    1    3    3  502    0  0.60637928177E+02  0.21549993615E+02  0.28638701162E+02  0.70562087289E+02  0.41800000000E+01 0. -1.
         -5    1    3    3    0  502 -0.61548253952E+02  0.99477827638E+01  0.46014506857E+01  0.62656138525E+02  0.41800000000E+01 0. -1.
        -11    1    1    2    0    0  0.11935061700E+02 -0.59094685084E+02  0.33393585689E+02  0.68918495834E+02  0.00000000000E+00 0.  1.
         11    1    1    2    0    0 -0.11024735925E+02  0.27596908705E+02 -0.42878134543E+01  0.30025314595E+02  0.00000000000E+00 0. -1.
</event>
<event>
 7    1  0.2844572E-009  0.1889787E+03  0.7561462E-02  0.1159386E+00
         -1   -1    0    0    0  501 -0.00000000000E+00  0.00000000000E+00  0.27082932405E+02  0.27082932405E+02  0.00000000000E+00 0.  1.
          1   -1    0    0  501    0  0.00000000000E+00 -0.00000000000E+00 -0.14680162103E+04  0.14680162103E+04  0.00000000000E+00 0. -1.
         25    2    1    2    0    0 -0.75009476372E+02  0.14944300207E+03 -0.81597453208E+03  0.84226930831E+03  0.12507405130E+03 0.  0.
          5    1    3    3  502    0 -0.42502914074E+02  0.45034876945E+01 -0.36327932082E+03  0.36580885233E+03  0.41800000000E+01 0. -1.
         -5    1    3    3    0  502 -0.32506562298E+02  0.14493951437E+03 -0.45269521126E+03  0.47646045598E+03  0.41800000000E+01 0. -1.
        -11    1    1    2    0    0  0.58451422762E+02 -0.29760944345E+02 -0.27073722509E+03  0.27856943063E+03  0.00000000000E+00 0. -1.
         11    1    1    2    0    0  0.16558053610E+02 -0.11968205772E+03 -0.35422152069E+03  0.37426040373E+03  0.00000000000E+00 0.  1.
</event>
<event>
 7    1  0.2844572E-009  0.8132889E+02  0.7561462E-02  0.1325322E+00
         -2   -1    0    0    0  501 -0.00000000000E+00  0.00000000000E+00  0.21847279501E+03  0.21847279501E+03  0.00000000000E+00 0.  1.
          2   -1    0    0  501    0  0.00000000000E+00 -0.00000000000E+00 -0.63078433166E+02  0.63078433166E+02  0.00000000000E+00 0. -1.
         25    2    1    2    0    0 -0.10387701694E+02 -0.35605907997E+02  0.91458007216E+02  0.15933538815E+03  0.12509002279E+03 0.  0.
          5    1    3    3  502    0 -0.41554105670E+02 -0.49754132922E+01 -0.14624240658E+02  0.44529083196E+02  0.41800000000E+01 0.  1.
         -5    1    3    3    0  502  0.31166403976E+02 -0.30630494704E+02  0.10608224787E+03  0.11480630495E+03  0.41800000000E+01 0.  1.
        -11    1    1    2    0    0  0.46583914244E+01  0.55654622753E+02  0.78817587012E+02  0.96598911313E+02  0.00000000000E+00 0.  1.
         11    1    1    2    0    0  0.57293102697E+01 -0.20048714756E+02 -0.14881232384E+02  0.25616928715E+02  0.00000000000E+00 0. -1.
</event>
<event>
 7    1  0.2844572E-009  0.1073995E+03  0.7561462E-02  0.1265463E+00
         -2   -1    0    0    0  501 -0.00000000000E+00  0.00000000000E+00  0.14067372712E+02  0.14067372712E+02  0.00000000000E+00 0.  1.
          2   -1    0    0  501    0  0.00000000000E+00 -0.00000000000E+00 -0.11834420072E+04  0.11834420072E+04  0.00000000000E+00 0. -1.
         25    2    1    2    0    0  0.37304372627E+02 -0.43937805009E+02 -0.84702205999E+03  0.85814688680E+03  0.12509021661E+03 0.  0.
          5    1    3    3  502    0  0.48272957456E+02  0.22702135058E+02 -0.18232660518E+03  0.19001612751E+03  0.41800000000E+01 0. -1.
         -5    1    3    3    0  502 -0.10968584829E+02 -0.66639940067E+02 -0.66469545481E+03  0.66813075929E+03  0.41800000000E+01 0. -1.
        -11    1    1    2    0    0 -0.46903334946E+02 -0.17536094709E+01 -0.81698449080E+02  0.94221200148E+02  0.00000000000E+00 0.  1.
         11    1    1    2    0    0  0.95989623192E+01  0.45691414480E+02 -0.24065412539E+03  0.24514129294E+03  0.00000000000E+00 0. -1.
</event>
<event>
 7    1  0.2844572E-009  0.1254676E+03  0.7561462E-02  0.1234340E+00
          2   -1    0    0  501    0  0.00000000000E+00  0.00000000000E+00  0.32469740337E+02  0.32469740337E+02  0.00000000000E+00 0. -1.
         -2   -1    0    0    0  501 -0.00000000000E+00 -0.00000000000E+00 -0.72922407122E+03  0.72922407122E+03  0.00000000000E+00 0.  1.
         25    2    1    2    0    0  0.54717879150E+02 -0.33000885540E+02 -0.58820346420E+03  0.60474125607E+03  0.12508223995E+03 0.  0.
          5    1    3    3  502    0  0.41674392910E+02 -0.80650971256E+02 -0.38178093802E+03  0.39244807456E+03  0.41800000000E+01 0. -1.
         -5    1    3    3    0  502  0.13043486240E+02  0.47650085716E+02 -0.20642252618E+03  0.21229318151E+03  0.41800000000E+01 0. -1.
        -11    1    1    2    0    0 -0.38117198340E+02  0.64471738693E+02 -0.89116975965E+02  0.11641031442E+03  0.00000000000E+00 0.  1.
         11    1    1    2    0    0 -0.16600680810E+02 -0.31470853153E+02 -0.19433890712E+02  0.40542241055E+02  0.00000000000E+00 0. -1.
</event>
<event>
 7    1  0.2844572E-009  0.1236329E+03  0.7561462E-02  0.1237221E+00
          1   -1    0    0  501    0  0.00000000000E+00  0.00000000000E+00  0.69013553816E+02  0.69013553816E+02  0.00000000000E+00 0. -1.
         -1   -1    0    0    0  501 -0.00000000000E+00 -0.00000000000E+00 -0.28612058858E+03  0.28612058858E+03  0.00000000000E+00 0.  1.
         25    2    1    2    0    0 -0.40184390308E+02  0.79934539842E+02 -0.13001219879E+03  0.20138947870E+03  0.12510089692E+03 0.  0.
          5    1    3    3  502    0 -0.20827557988E+02  0.10436435613E+03 -0.13231868053E+03  0.16985703288E+03  0.41800000000E+01 0. -1.
         -5    1    3    3    0  502 -0.19356832319E+02 -0.24429816287E+02  0.23064817361E+01  0.31532445818E+02  0.41800000000E+01 0. -1.
        -11    1    1    2    0    0  0.89557264254E+00 -0.68345111789E+02 -0.89613179632E+02  0.11270482829E+03  0.00000000000E+00 0.  1.
         11    1    1    2    0    0  0.39288817665E+02 -0.11589428053E+02  0.25183436559E+01  0.41039835415E+02  0.00000000000E+00 0. -1.
</event>
<event>
 7    1  0.2844572E-009  0.7651145E+02  0.7561462E-02  0.1339253E+00
          4   -1    0    0  501    0  0.00000000000E+00  0.00000000000E+00  0.34290445721E+03  0.34290445721E+03  0.00000000000E+00 0. -1.
         -4   -1    0    0    0  501 -0.00000000000E+00 -0.00000000000E+00 -0.49568284955E+02  0.49568284955E+02  0.00000000000E+00 0.  1.
         25    2    1    2    0    0  0.31327210591E+02  0.43999344320E+02  0.91828470483E+02  0.16431086039E+03  0.12509298312E+03 0.  0.
          5    1    3    3  502    0  0.15570869794E+02  0.60721951527E+02  0.11523375739E+03  0.13124747093E+03  0.41800000000E+01 0.  1.
         -5    1    3    3    0  502  0.15756340797E+02 -0.16722607206E+02 -0.23405286909E+02  0.33063389457E+02  0.41800000000E+01 0.  1.
        -11    1    1    2    0    0 -0.11506922978E+02  0.60587796615E+01 -0.56085014078E+01  0.14162392999E+02  0.00000000000E+00 0.  1.
         11    1    1    2    0    0 -0.19820287613E+02 -0.50058123982E+02  0.20711620318E+03  0.21399948878E+03  0.00000000000E+00 0. -1.
</event>
<event>
 7    1  0.2844572E-009  0.3053490E+03  0.7561462E-02  0.1082597E+00
         -2   -1    0    0    0  501 -0.00000000000E+00  0.00000000000E+00  0.43478991574E+03  0.43478991574E+03  0.00000000000E+00 0.  1.
          2   -1    0    0  501    0  0.00000000000E+00 -0.00000000000E+00 -0.22946577999E+03  0.22946577999E+03  0.00000000000E+00 0. -1.
         25    2    1    2    0    0 -0.28824184815E+03 -0.46281801269E+02  0.51137697441E+02  0.32169529554E+03  0.12508969151E+03 0.  0.
          5    1    3    3  502    0 -0.18895109512E+03  0.31112660264E+02  0.34859912052E+02  0.19468744142E+03  0.41800000000E+01 0. -1.
         -5    1    3    3    0  502 -0.99290753023E+02 -0.77394461533E+02  0.16277785390E+02  0.12700785412E+03  0.41800000000E+01 0. -1.
        -11    1    1    2    0    0  0.79787226179E+02  0.25231438049E+02  0.21762894227E+01  0.83709994403E+02  0.00000000000E+00 0. -1.
         11    1    1    2    0    0  0.20845462197E+03  0.21050363220E+02  0.15201014889E+03  0.25885040579E+03  0.00000000000E+00 0.  1.
</event>
<event>
 7    1  0.2844572E-009  0.1024934E+03  0.7561462E-02  0.1275138E+00
          1   -1    0    0  501    0  0.00000000000E+00  0.00000000000E+00  0.89994355566E+03  0.89994355566E+03  0.00000000000E+00 0. -1.
         -1   -1    0    0    0  501 -0.00000000000E+00 -0.00000000000E+00 -0.22781889677E+02  0.22781889677E+02  0.00000000000E+00 0.  1.
         25    2    1    2    0    0 -0.53527635439E+01  0.76782195790E+02  0.64102480320E+03  0.65763557650E+03  0.12509034932E+03 0.  0.
          5    1    3    3  502    0 -0.14531034120E+02  0.12979649488E+02  0.82420867093E+01  0.21564476501E+02  0.41800000000E+01 0. -1.
         -5    1    3    3    0  502  0.91782705759E+01  0.63802546302E+02  0.63278271649E+03  0.63607110000E+03  0.41800000000E+01 0. -1.
        -11    1    1    2    0    0  0.42692672899E+02 -0.98387394387E+01  0.86416971868E+02  0.96888379798E+02  0.00000000000E+00 0.  1.
         11    1    1    2    0    0 -0.37339909355E+02 -0.66943456352E+02  0.14971989091E+03  0.16820148903E+03  0.00000000000E+00 0. -1.
</event>
<event>
 7    1  0.2844572E-009  0.9588813E+02  0.7561462E-02  0.1289188E+00
         -1   -1    0    0    0  501 -0.00000000000E+00  0.00000000000E+00  0.17082640247E+02  0.17082640247E+02  0.00000000000E+00 0.  1.
          1   -1    0    0  501    0  0.00000000000E+00 -0.00000000000E+00 -0.70599356223E+03  0.70599356223E+03  0.00000000000E+00 0. -1.
         25    2    1    2    0    0  0.45175824335E+01 -0.11806837641E+02 -0.45851755935E+03  0.47544178817E+03  0.12508689677E+03 0.  0.
          5    1    3    3  502    0 -0.61655527523E+01 -0.64318038821E+02 -0.32729036171E+03  0.33363344770E+03  0.41800000000E+01 0. -1.
         -5    1    3    3    0  502  0.10683135186E+02  0.52511201180E+02 -0.13122719764E+03  0.14180834047E+03  0.41800000000E+01 0. -1.
        -11    1    1    2    0    0 -0.22650785384E+02 -0.24087148351E+02 -0.35009988190E+02  0.48155457294E+02  0.00000000000E+00 0.  1.
         11    1    1    2    0    0  0.18133202951E+02  0.35893985992E+02 -0.19538337445E+03  0.19947895701E+03  0.00000000000E+00 0. -1.
</event>
<event>
 7    1  0.2844572E-009  0.1259988E+03  0.7561462E-02  0.1233516E+00
          2   -1    0    0  501    0  0.00000000000E+00  0.00000000000E+00  0.11787078979E+03  0.11787078979E+03  0.00000000000E+00 0. -1.
         -2   -1    0    0    0  501 -0.00000000000E+00 -0.00000000000E+00 -0.21191590840E+03  0.21191590840E+03  0.00000000000E+00 0.  1.
         25    2    1    2    0    0  0.80894635088E+01  0.86021287014E+02  0.30329952115E+02  0.15502501955E+03  0.12509096471E+03 0.  0.
          5    1    3    3  502    0 -0.44345148964E+02  0.22019814703E+02 -0.24781754106E+02  0.55524519023E+02  0.41800000000E+01 0.  1.
         -5    1    3    3    0  502  0.52434612473E+02  0.64001472311E+02  0.55111706221E+02  0.99500500530E+02  0.41800000000E+01 0.  1.
        -11    1    1    2    0    0 -0.40481619304E+02 -0.18358209175E+02 -0.27621374045E+02  0.52332835292E+02  0.00000000000E+00 0. -1.
         11    1    1    2    0    0  0.32392155795E+02 -0.67663077839E+02 -0.96753696682E+02  0.12242884334E+03  0.00000000000E+00 0.  1.
</event>
<event>
 7    1  0.2844572E-009  0.1256846E+03  0.7561462E-02  0.1234003E+00
          1   -1    0    0  501    0  0.00000000000E+00  0.00000000000E+00  0.23692467053E+02  0.23692467053E+02  0.00000000000E+00 0. -1.
         -1   -1    0    0    0  501 -0.00000000000E+00 -0.00000000000E+00 -0.75762811968E+03  0.75762811968E+03  0.00000000000E+00 0.  1.
         25    2    1    2    0    0  0.11604371977E+02 -0.72385270631E+02 -0.47602144347E+03  0.49761248739E+03  0.12508990414E+03 0.  0.
          5    1    3    3  502    0 -0.33726151370E+02  0.21593947397E+02 -0.11855487727E+03  0.12520576334E+03  0.41800000000E+01 0. -1.
         -5    1    3    3    0  502  0.45330523347E+02 -0.93979218028E+02 -0.35746656620E+03  0.37240672405E+03  0.41800000000E+01 0. -1.
        -11    1    1    2    0    0  0.31289934938E+02  0.14118834961E+02 -0.14934217221E+03  0.15323669903E+03  0.00000000000E+00 0. -1.
         11    1    1    2    0    0 -0.42894306915E+02  0.58266435669E+02 -0.10857203695E+03  0.13047140031E+03  0.00000000000E+00 0.  1.
</event>
<event>
 7    1  0.2844572E-009  0.1506073E+03  0.7561462E-02  0.1199729E+00
         -2   -1    0    0    0  501 -0.00000000000E+00  0.00000000000E+00  0.36710509827E+02  0.36710509827E+02  0.00000000000E+00 0.  1.
          2   -1    0    0  501    0  0.00000000000E+00 -0.00000000000E+00 -0.76119186888E+03  0.76119186888E+03  0.00000000000E+00 0. -1.
         25    2    1    2    0    0  0.84401397883E+02  0.79540913446E+02 -0.51090459086E+03  0.53863084564E+03  0.12509729828E+03 0.  0.
          5    1    3    3  502    0  0.83103843056E+02  0.74452856903E+01 -0.16138006664E+03  0.18172143330E+03  0.41800000000E+01 0.  1.
         -5    1    3    3    0  502  0.12975548274E+01  0.72095627755E+02 -0.34952452422E+03  0.35690941234E+03  0.41800000000E+01 0.  1.
        -11    1    1    2    0    0  0.14115957769E+02 -0.34192067128E+02 -0.71811516066E+02  0.80779029197E+02  0.00000000000E+00 0. -1.
         11    1    1    2    0    0 -0.98517355652E+02 -0.45348846317E+02 -0.14176525213E+03  0.17849250387E+03  0.00000000000E+00 0.  1.
</event>
