<event>
 8    1  0.6185113E-009  0.9358027E+02  0.7561462E-02  0.1294406E+00
         -2   -1    0    0    0  501 -0.00000000000E+00  0.00000000000E+00  0.67503225422E+02  0.67503225422E+02  0.00000000000E+00 0.  1.
          2   -1    0    0  501    0  0.00000000000E+00 -0.00000000000E+00 -0.21209133304E+03  0.21209133304E+03  0.00000000000E+00 0. -1.
         25    2    1    2    0    0 -0.47100509301E+02 -0.12225066000E+02 -0.98986614692E+02  0.16677339775E+03  0.12508839312E+03 0.  0.
         23    2    1    2    0    0  0.47100509301E+02  0.12225066000E+02 -0.45601492928E+02  0.11282116071E+03  0.91001142480E+02 0.  0.
          5    1    3    3  502    0 -0.86452361007E+02 -0.22686358232E+02 -0.85278064489E+02  0.12360623874E+03  0.41800000000E+01 0.  1.
         -5    1    3    3    0  502  0.39351851706E+02  0.10461292232E+02 -0.13708550203E+02  0.43167159004E+02  0.41800000000E+01 0.  1.
        -11    1    4    4    0    0  0.63408589535E+01 -0.88326130548E+01  0.25773591132E+02  0.27973193337E+02  0.00000000000E+00 0.  1.
         11    1    4    4    0    0  0.40759650348E+02  0.21057679054E+02 -0.71375084060E+02  0.84847967378E+02  0.00000000000E+00 0. -1.
</event>
<event>
 8    1  0.6185113E-009  0.1713089E+03  0.7561462E-02  0.1176490E+00
          1   -1    0    0  501    0  0.00000000000E+00  0.00000000000E+00  0.70214777587E+03  0.70214777587E+03  0.00000000000E+00 0. -1.
         -1   -1    0    0    0  501 -0.00000000000E+00 -0.00000000000E+00 -0.45520149900E+02  0.45520149900E+02  0.00000000000E+00 0.  1.
         25    2    1    2    0    0 -0.49330196724E+02 -0.13043066100E+03  0.28884230395E+03  0.34427195431E+03  0.12509067245E+03 0.  0.
         23    2    1    2    0    0  0.49330196724E+02  0.13043066100E+03  0.36778532202E+03  0.40339597146E+03  0.89535697139E+02 0.  0.
          5    1    3    3  502    0  0.22542653107E+02  0.69414219077E+01  0.83938753860E+02  0.87289984230E+02  0.41800000000E+01 0. -1.
         -5    1    3    3    0  502 -0.71872849832E+02 -0.13737208291E+03  0.20490355009E+03  0.25698197008E+03  0.41800000000E+01 0. -1.
        -11    1    4    4    0    0  0.12363952911E+02  0.12569361053E+03  0.30871353439E+03  0.33355029212E+03  0.00000000000E+00 0.  1.
         11    1    4    4    0    0  0.36966243813E+02  0.47370504706E+01  0.59071787627E+02  0.69845679338E+02  0.00000000000E+00 0. -1.
</event>
<event>
 8    1  0.6185113E-009  0.1347290E+03  0.7561462E-02  0.1220603E+00
         -1   -1    0    0    0  501 -0.00000000000E+00  0.00000000000E+00  0.41571130541E+02  0.41571130541E+02  0.00000000000E+00 0.  1.
          1   -1    0    0  501    0  0.00000000000E+00 -0.00000000000E+00 -0.49267009123E+03  0.49267009123E+03  0.00000000000E+00 0. -1.
         25    2    1    2    0    0 -0.70416135325E+02  0.12373755434E+02 -0.26394496014E+03  0.30070911689E+03  0.12508992389E+03 0.  0.
         23    2    1    2    0    0  0.70416135325E+02 -0.12373755434E+02 -0.18715400055E+03  0.23353210488E+03  0.11999617557E+03 0.  0.
          5    1    3    3  502    0 -0.96360958813E+02  0.37185003364E+02 -0.15838363096E+03  0.18913224425E+03  0.41800000000E+01 0. -1.
         -5    1    3    3    0  502  0.25944823487E+02 -0.24811247930E+02 -0.10556132918E+03  0.11157687264E+03  0.41800000000E+01 0. -1.
        -11    1    4    4    0    0  0.74087159263E+02  0.35344367616E+02 -0.15643168835E+03  0.17666070477E+03  0.00000000000E+00 0. -1.
         11    1    4    4    0    0 -0.36710239379E+01 -0.47718123049E+02 -0.30722312201E+02  0.56871400115E+02  0.00000000000E+00 0.  1.
</event>
<event>
 8    1  0.6185113E-009  0.9050037E+02  0.7561462E-02  0.1301644E+00
          1   -1    0    0  501    0  0.00000000000E+00  0.00000000000E+00  0.14908577581E+03  0.14908577581E+03  0.00000000000E+00 0. -1.
         -1   -1    0    0    0  501 -0.00000000000E+00 -0.00000000000E+00 -0.13643592122E+03  0.13643592122E+03  0.00000000000E+00 0.  1.
         25    2    1    2    0    0  0.67012533696E+00 -0.33620890462E+02  0.93273301679E+02  0.15961919540E+03  0.12509022899E+03 0.  0.
         23    2    1    2    0    0 -0.67012533696E+00  0.33620890462E+02 -0.80623447097E+02  0.12590250163E+03  0.90666897776E+02 0.  0.
          5    1    3    3  502    0 -0.25698253566E+02  0.35024953574E+02  0.39138623949E+01  0.43817100863E+02  0.41800000000E+01 0. -1.
         -5    1    3    3    0  502  0.26368378903E+02 -0.68645844035E+02  0.89359439284E+02  0.11580209453E+03  0.41800000000E+01 0. -1.
        -11    1    4    4    0    0  0.23939469393E+02  0.25604347352E+01  0.10703866379E+02  0.26348183548E+02  0.00000000000E+00 0.  1.
         11    1    4    4    0    0 -0.24609594730E+02  0.31060455726E+02 -0.91327313476E+02  0.99554318085E+02  0.00000000000E+00 0. -1.
</event>
<event>
 8    1  0.6185113E-009  0.1072145E+03  0.7561462E-02  0.1265817E+00
          1   -1    0    0  501    0  0.00000000000E+00  0.00000000000E+00  0.89552024952E+02  0.89552024952E+02  0.00000000000E+00 0. -1.
         -1   -1    0    0    0  501 -0.00000000000E+00 -0.00000000000E+00 -0.19392056969E+03  0.19392056969E+03  0.00000000000E+00 0.  1.
         25    2    1    2    0    0  0.34402410518E+02 -0.60615860860E+02 -0.91583188831E+02  0.16997895741E+03  0.12509019566E+03 0.  0.
         23    2    1    2    0    0 -0.34402410518E+02  0.60615860860E+02 -0.12785355906E+02  0.11349363723E+03  0.88654001198E+02 0.  0.
          5    1    3    3  502    0  0.38166373081E+02  0.23428052909E+01 -0.99119606513E+02  0.10632182074E+03  0.41800000000E+01 0. -1.
         -5    1    3    3    0  502 -0.37639625634E+01 -0.62958666151E+02  0.75364176816E+01  0.63657136671E+02  0.41800000000E+01 0. -1.
        -11    1    4    4    0    0 -0.47301401232E+02 -0.34263373764E+01 -0.63663438141E+01  0.47850733327E+02  0.00000000000E+00 0. -1.
         11    1    4    4    0    0  0.12898990715E+02  0.64042198236E+02 -0.64190120922E+01  0.65642903901E+02  0.00000000000E+00 0.  1.
</event>
<event>
 8    1  0.6185113E-009  0.3179028E+03  0.7561462E-02  0.1076619E+00
         -2   -1    0    0    0  501 -0.00000000000E+00  0.00000000000E+00  0.16359866558E+03  0.16359866558E+03  0.00000000000E+00 0.  1.
          2   -1    0    0  501    0  0.00000000000E+00 -0.00000000000E+00 -0.67679150130E+03  0.67679150130E+03  0.00000000000E+00 0. -1.
         25    2    1    2    0    0  0.29125263188E+03 -0.11807875095E+03 -0.25691693516E+03  0.42476413787E+03  0.12509026441E+03 0.  0.
         23    2    1    2    0    0 -0.29125263188E+03  0.11807875095E+03 -0.25627590057E+03  0.41562602900E+03  0.91087714715E+02 0.  0.
          5    1    3    3  502    0  0.10600342983E+03 -0.30615116730E+02 -0.16883113926E+03  0.20173110442E+03  0.41800000000E+01 0. -1.
         -5    1    3    3    0  502  0.18524920205E+03 -0.87463634220E+02 -0.88085795898E+02  0.22303303345E+03  0.41800000000E+01 0. -1.
        -11    1    4    4    0    0 -0.26707482034E+03  0.86532964511E+02 -0.19222680673E+03  0.34024705558E+03  0.00000000000E+00 0.  1.
         11    1    4    4    0    0 -0.24177811541E+02  0.31545786439E+02 -0.64049093840E+02  0.75378973425E+02  0.00000000000E+00 0. -1.
</event>
<event>
 8    1  0.6185113E-009  0.1226200E+03  0.7561462E-02  0.1238836E+00
          1   -1    0    0  501    0  0.00000000000E+00  0.00000000000E+00  0.17788603783E+03  0.17788603783E+03  0.00000000000E+00 0. -1.
         -1   -1    0    0    0  501 -0.00000000000E+00 -0.00000000000E+00 -0.15082073080E+03  0.15082073080E+03  0.00000000000E+00 0.  1.
         25    2    1    2    0    0 -0.11953535031E+03 -0.11212844348E+02  0.40160072774E+02  0.17797537566E+03  0.12509186641E+03 0.  0.
         23    2    1    2    0    0  0.11953535031E+03  0.11212844348E+02 -0.13094765743E+02  0.15073139298E+03  0.90188979853E+02 0.  0.
          5    1    3    3  502    0 -0.92738779911E+02  0.49064867117E+01  0.83100732155E+02  0.12469065320E+03  0.41800000000E+01 0.  1.
         -5    1    3    3    0  502 -0.26796570402E+02 -0.16119331060E+02 -0.42940659381E+02  0.53284722456E+02  0.41800000000E+01 0.  1.
        -11    1    4    4    0    0  0.66360597310E+02  0.12549014341E+02 -0.51661039603E+02  0.85029816235E+02  0.00000000000E+00 0.  1.
         11    1    4    4    0    0  0.53174753004E+02 -0.13361699928E+01  0.38566273860E+02  0.65701576744E+02  0.00000000000E+00 0. -1.
</event>
<event>
 8    1  0.6185113E-009  0.1580956E+03  0.7561462E-02  0.1190864E+00
          2   -1    0    0  501    0  0.00000000000E+00  0.00000000000E+00  0.46758183693E+02  0.46758183693E+02  0.00000000000E+00 0. -1.
         -2   -1    0    0    0  501 -0.00000000000E+00 -0.00000000000E+00 -0.58224535809E+03  0.58224535809E+03  0.00000000000E+00 0.  1.
         25    2    1    2    0    0  0.65414116074E+02  0.95013256890E+02 -0.19705753947E+03  0.26035609317E+03  0.12508835207E+03 0.  0.
         23    2    1    2    0    0 -0.65414116074E+02 -0.95013256890E+02 -0.33842963493E+03  0.36864744861E+03  0.89776377764E+02 0.  0.
          5    1    3    3  502    0 -0.65360725352E+01 -0.27128008175E+02 -0.29118469498E+02  0.40546352951E+02  0.41800000000E+01 0.  1.
         -5    1    3    3    0  502  0.71950188609E+02  0.12214126507E+03 -0.16793906997E+03  0.21980974022E+03  0.41800000000E+01 0.  1.
        -11    1    4    4    0    0 -0.87480149379E+02 -0.65393409821E+02 -0.25049649041E+03  0.27327196397E+03  0.00000000000E+00 0. -1.
         11    1    4    4    0    0  0.22066033306E+02 -0.29619847069E+02 -0.87933144519E+02  0.95375484645E+02  0.00000000000E+00 0.  1.
</event>
<event>
 8    1  0.6185113E-009  0.1479750E+03  0.7561462E-02  0.1202984E+00
         -2   -1    0    0    0  501 -0.00000000000E+00  0.00000000000E+00  0.31798744676E+02  0.31798744676E+02  0.00000000000E+00 0.  1.
          2   -1    0    0  501    0  0.00000000000E+00 -0.00000000000E+00 -0.72166743439E+03  0.72166743439E+03  0.00000000000E+00 0. -1.
         25    2    1    2    0    0  0.97275425694E+02  0.32076707712E+02 -0.30701159364E+03  0.34698053789E+03  0.12509177198E+03 0.  0.
         23    2    1    2    0    0 -0.97275425694E+02 -0.32076707712E+02 -0.38285709607E+03  0.40648564117E+03  0.90330486838E+02 0.  0.
          5    1    3    3  502    0  0.12476038695E+03  0.83808869103E+01 -0.24065825547E+03  0.27123654204E+03  0.41800000000E+01 0.  1.
         -5    1    3    3    0  502 -0.27484961253E+02  0.23695820802E+02 -0.66353338179E+02  0.75743995842E+02  0.41800000000E+01 0.  1.
        -11    1    4    4    0    0 -0.25232574676E+02 -0.53497415248E+02 -0.20592043495E+03  0.21424724454E+03  0.00000000000E+00 0.  1.
         11    1    4    4    0    0 -0.72042851018E+02  0.21420707536E+02 -0.17693666111E+03  0.19223839663E+03  0.00000000000E+00 0. -1.
</event>
<event>
 8    1  0.6185113E-009  0.5977216E+02  0.7561462E-02  0.1398790E+00
          4   -1    0    0  501    0  0.00000000000E+00  0.00000000000E+00  0.79164404935E+02  0.79164404935E+02  0.00000000000E+00 0. -1.
         -4   -1    0    0    0  501 -0.00000000000E+00 -0.00000000000E+00 -0.15912355496E+03  0.15912355496E+03  0.00000000000E+00 0.  1.
         25    2    1    2    0    0 -0.91127276023E+01 -0.24411251187E+02 -0.31520829269E+02  0.13161835210E+03  0.12510346495E+03 0.  0.
         23    2    1    2    0    0  0.91127276023E+01  0.24411251187E+02 -0.48438320754E+02  0.10666960780E+03  0.91395751111E+02 0.  0.
          5    1    3    3  502    0 -0.37054061363E+01  0.25804055353E+01 -0.77565774747E+02  0.77809448909E+02  0.41800000000E+01 0. -1.
         -5    1    3    3    0  502 -0.54073214660E+01 -0.26991656722E+02  0.46044945479E+02  0.53808903187E+02  0.41800000000E+01 0. -1.
        -11    1    4    4    0    0 -0.16775199272E+02  0.47800548511E+02 -0.50746516433E+02  0.71704314226E+02  0.00000000000E+00 0.  1.
         11    1    4    4    0    0  0.25887926874E+02 -0.23389297324E+02  0.23081956790E+01  0.34965293571E+02  0.00000000000E+00 0. -1.
</event>
<event>
 8    1  0.6185113E-009  0.6573158E+02  0.7561462E-02  0.1375241E+00
         -2   -1    0    0    0  501 -0.00000000000E+00  0.00000000000E+00  0.14328857202E+03  0.14328857202E+03  0.00000000000E+00 0.  1.
          2   -1    0    0  501    0  0.00000000000E+00 -0.00000000000E+00 -0.11222680185E+03  0.11222680185E+03  0.00000000000E+00 0. -1.
         25    2    1    2    0    0  0.59505509724E+02  0.25933209277E+02  0.22886685016E+02  0.14276871406E+03  0.12508264601E+03 0.  0.
         23    2    1    2    0    0 -0.59505509724E+02 -0.25933209277E+02  0.81750851459E+01  0.11274665981E+03  0.91823418853E+02 0.  0.
          5    1    3    3  502    0  0.49020347276E+02  0.21574501333E+02  0.73325638915E+02  0.90898708886E+02  0.41800000000E+01 0. -1.
         -5    1    3    3    0  502  0.10485162448E+02  0.43587079446E+01 -0.50438953899E+02  0.51870005176E+02  0.41800000000E+01 0. -1.
        -11    1    4    4    0    0 -0.14556006013E+02 -0.19240997597E+01  0.46641993762E+02  0.48898415649E+02  0.00000000000E+00 0.  1.
         11    1    4    4    0    0 -0.44949503712E+02 -0.24009109518E+02 -0.38466908616E+02  0.63848244159E+02  0.00000000000E+00 0. -1.
</event>
<event>
 8    1  0.6185113E-009  0.8875503E+02  0.7561462E-02  0.1305895E+00
         -2   -1    0    0    0  501 -0.00000000000E+00  0.00000000000E+00  0.11111123795E+03  0.11111123795E+03  0.00000000000E+00 0.  1.
          2   -1    0    0  501    0  0.00000000000E+00 -0.00000000000E+00 -0.27395129275E+03  0.27395129275E+03  0.00000000000E+00 0. -1.
         25    2    1    2    0    0  0.71632218145E+02 -0.53298099782E+01 -0.21420768848E+03  0.25824595267E+03  0.12508579742E+03 0.  0.
         23    2    1    2    0    0 -0.71632218145E+02  0.53298099782E+01  0.51367633679E+02  0.12681657803E+03  0.91017740704E+02 0.  0.
          5    1    3    3  502    0  0.80013802195E+02 -0.10472318917E+02 -0.22736477364E+03  0.24129668604E+03  0.41800000000E+01 0. -1.
         -5    1    3    3    0  502 -0.83815840505E+01  0.51425089388E+01  0.13157085155E+02  0.16949266626E+02  0.41800000000E+01 0. -1.
        -11    1    4    4    0    0 -0.28156742103E+02  0.25597488486E+02  0.66415101048E+02  0.76544099641E+02  0.00000000000E+00 0.  1.
         11    1    4    4    0    0 -0.43475476041E+02 -0.20267678508E+02 -0.15047467369E+02  0.50272478389E+02  0.00000000000E+00 0. -1.
</event>
<event>
 8    1  0.6185113E-009  0.1838341E+03  0.7561462E-02  0.1164143E+00
         -2   -1    0    0    0  501 -0.00000000000E+00  0.00000000000E+00  0.13564403809E+03  0.13564403809E+03  0.00000000000E+00 0.  1.
          2   -1    0    0  501    0  0.00000000000E+00 -0.00000000000E+00 -0.26076985283E+03  0.26076985283E+03  0.00000000000E+00 0. -1.
         25    2    1    2    0    0  0.28821959017E+01  0.15165135639E+03 -0.92486395021E+02  0.21727360227E+03  0.12509054334E+03 0.  0.
         23    2    1    2    0    0 -0.28821959017E+01 -0.15165135639E+03 -0.32639419716E+02  0.17914028866E+03  0.89551495533E+02 0.  0.
          5    1    3    3  502    0  0.42627762825E+02  0.14908370185E+03 -0.83767761835E+02  0.17628836219E+03  0.41800000000E+01 0.  1.
         -5    1    3    3    0  502 -0.39745566923E+02  0.25676545399E+01 -0.87186331854E+01  0.40985240081E+02  0.41800000000E+01 0.  1.
        -11    1    4    4    0    0 -0.40937837112E+02 -0.54463903147E+02  0.46848763001E+01  0.68294738592E+02  0.00000000000E+00 0.  1.
         11    1    4    4    0    0  0.38055641211E+02 -0.97187453242E+02 -0.37324296017E+02  0.11084555006E+03  0.00000000000E+00 0. -1.
</event>
<event>
 8    1  0.6185113E-009  0.1106758E+03  0.7561462E-02  0.1259324E+00
          2   -1    0    0  501    0  0.00000000000E+00  0.00000000000E+00  0.83465839674E+03  0.83465839674E+03  0.00000000000E+00 0. -1.
         -2   -1    0    0    0  501 -0.00000000000E+00 -0.00000000000E+00 -0.17173095736E+02  0.17173095736E+02  0.00000000000E+00 0.  1.
         25    2    1    2    0    0 -0.46381384803E+02 -0.15910772914E+02  0.52445238325E+03  0.54138948753E+03  0.12509152391E+03 0.  0.
         23    2    1    2    0    0  0.46381384803E+02  0.15910772914E+02  0.29303291775E+03  0.31044200494E+03  0.90008677360E+02 0.  0.
          5    1    3    3  502    0 -0.59698565068E+00 -0.58369656400E+02  0.13790069424E+03  0.14980469636E+03  0.41800000000E+01 0.  1.
         -5    1    3    3    0  502 -0.45784399152E+02  0.42458883486E+02  0.38655168902E+03  0.39158479117E+03  0.41800000000E+01 0.  1.
        -11    1    4    4    0    0  0.37179959430E+02 -0.33464712708E+02  0.11388343977E+03  0.12438518494E+03  0.00000000000E+00 0.  1.
         11    1    4    4    0    0  0.92014253723E+01  0.49375485622E+02  0.17914947798E+03  0.18605682000E+03  0.00000000000E+00 0. -1.
</event>
<event>
 8    1  0.6185113E-009  0.1125733E+03  0.7561462E-02  0.1255877E+00
         -2   -1    0    0    0  501 -0.00000000000E+00  0.00000000000E+00  0.55109031021E+02  0.55109031021E+02  0.00000000000E+00 0. -1.
          2   -1    0    0  501    0  0.00000000000E+00 -0.00000000000E+00 -0.34681938020E+03  0.34681938020E+03  0.00000000000E+00 0.  1.
         25    2    1    2    0    0  0.48595233964E+02  0.44339659612E+02 -0.23566591244E+03  0.27480003269E+03  0.12509649676E+03 0.  0.
         23    2    1    2    0    0 -0.48595233964E+02 -0.44339659612E+02 -0.56044436736E+02  0.12712837853E+03  0.93237028911E+02 0.  0.
          5    1    3    3  502    0  0.79335805675E+02  0.18752288892E+02 -0.81019922257E+02  0.11501094993E+03  0.41800000000E+01 0. -1.
         -5    1    3    3    0  502 -0.30740571711E+02  0.25587370720E+02 -0.15464599019E+03  0.15978908276E+03  0.41800000000E+01 0. -1.
        -11    1    4    4    0    0  0.21095717335E+02 -0.21107593830E+02 -0.43272828022E+02  0.52565173377E+02  0.00000000000E+00 0.  1.
         11    1    4    4    0    0 -0.69690951299E+02 -0.23232065783E+02 -0.12771608714E+02  0.74563205153E+02  0.00000000000E+00 0. -1.
</event>
<event>
 8    1  0.6185113E-009  0.1529115E+03  0.7561462E-02  0.1196940E+00
          1   -1    0    0  501    0  0.00000000000E+00  0.00000000000E+00  0.86421735957E+02  0.86421735957E+02  0.00000000000E+00 0. -1.
         -1   -1    0    0    0  501 -0.00000000000E+00 -0.00000000000E+00 -0.29789108754E+03  0.29789108754E+03  0.00000000000E+00 0.  1.
         25    2    1    2    0    0  0.89271057996E+02 -0.75061013653E+02 -0.98472900210E+02  0.19735378596E+03  0.12509247455E+03 0.  0.
         23    2    1    2    0    0 -0.89271057996E+02  0.75061013653E+02 -0.11299645137E+03  0.18695903754E+03  0.92639117704E+02 0.  0.
          5    1    3    3  502    0  0.45624767839E+02  0.26469480299E+02 -0.60613913370E+02  0.80459752185E+02  0.41800000000E+01 0. -1.
         -5    1    3    3    0  502  0.43646290157E+02 -0.10153049395E+03 -0.37858986840E+02  0.11689403377E+03  0.41800000000E+01 0. -1.
        -11    1    4    4    0    0 -0.37345148131E+02  0.81832737951E+02 -0.96808988967E+02  0.13214854307E+03  0.00000000000E+00 0.  1.
         11    1    4    4    0    0 -0.51925909865E+02 -0.67717242988E+01 -0.16187462402E+02  0.54810494472E+02  0.00000000000E+00 0. -1.
</event>
<event>
 8    1  0.6185113E-009  0.1765730E+03  0.7561462E-02  0.1171162E+00
         -1   -1    0    0    0  501 -0.00000000000E+00  0.00000000000E+00  0.43289752076E+02  0.43289752076E+02  0.00000000000E+00 0.  1.
          1   -1    0    0  501    0  0.00000000000E+00 -0.00000000000E+00 -0.76617269408E+03  0.76617269408E+03  0.00000000000E+00 0. -1.
         25    2    1    2    0    0 -0.56514279953E+02  0.13500546176E+03 -0.38311065717E+03  0.42876756357E+03  0.12509000515E+03 0.  0.
         23    2    1    2    0    0  0.56514279953E+02 -0.13500546176E+03 -0.33977228483E+03  0.38069488259E+03  0.89794485025E+02 0.  0.
          5    1    3    3  502    0 -0.78470559482E+02  0.32758777234E+02 -0.13660027747E+03  0.16095923209E+03  0.41800000000E+01 0.  1.
         -5    1    3    3    0  502  0.21956279528E+02  0.10224668453E+03 -0.24651037970E+03  0.26780833148E+03  0.41800000000E+01 0.  1.
        -11    1    4    4    0    0  0.62259514276E+02 -0.54812106939E+02 -0.11362657831E+03  0.14068266945E+03  0.00000000000E+00 0.  1.
         11    1    4    4    0    0 -0.57452343229E+01 -0.80193354825E+02 -0.22614570652E+03  0.24001221313E+03  0.00000000000E+00 0. -1.
</event>
<event>
 8    1  0.6185113E-009  0.9427874E+02  0.7561462E-02  0.1292809E+00
          2   -1    0    0  501    0  0.00000000000E+00  0.00000000000E+00  0.11869801456E+03  0.11869801456E+03  0.00000000000E+00 0. -1.
         -2   -1    0    0    0  501 -0.00000000000E+00 -0.00000000000E+00 -0.16629132876E+03  0.16629132876E+03  0.00000000000E+00 0.  1.
         25    2    1    2    0    0  0.66362943070E+02  0.33275988698E+02  0.21117405802E+02  0.14697227358E+03  0.12507426888E+03 0.  0.
         23    2    1    2    0    0 -0.66362943070E+02 -0.33275988698E+02 -0.68710720005E+02  0.13801706975E+03  0.93894711575E+02 0.  0.
          5    1    3    3  502    0  0.21686683943E+02  0.14155438448E+02 -0.52484793464E+02  0.58675502921E+02  0.41800000000E+01 0. -1.
         -5    1    3    3    0  502  0.44676259127E+02  0.19120550250E+02  0.73602199265E+02  0.88296770655E+02  0.41800000000E+01 0. -1.
        -11    1    4    4    0    0  0.20840366428E+02 -0.10910347290E+02 -0.34401500693E+02  0.41675170075E+02  0.00000000000E+00 0.  1.
         11    1    4    4    0    0 -0.87203309498E+02 -0.22365641409E+02 -0.34309219312E+02  0.96341899674E+02  0.00000000000E+00 0. -1.
</event>
<event>
 8    1  0.6185113E-009  0.6003433E+02  0.7561462E-02  0.1397688E+00
         -1   -1    0    0    0  501 -0.00000000000E+00  0.00000000000E+00  0.13361646535E+03  0.13361646535E+03  0.00000000000E+00 0.  1.
          1   -1    0    0  501    0  0.00000000000E+00 -0.00000000000E+00 -0.10640198860E+03  0.10640198860E+03  0.00000000000E+00 0. -1.
         25    2    1    2    0    0  0.28225841326E+02 -0.38054996403E+02  0.33285802645E+02  0.13784338349E+03  0.12509185762E+03 0.  0.
         23    2    1    2    0    0 -0.28225841326E+02  0.38054996403E+02 -0.60713258866E+01  0.10217507046E+03  0.90321664935E+02 0.  0.
          5    1    3    3  502    0  0.18037979180E+02 -0.58487735043E+01 -0.46884770289E+02  0.50746733190E+02  0.41800000000E+01 0. -1.
         -5    1    3    3    0  502  0.10187862146E+02 -0.32206222898E+02  0.80170572934E+02  0.87096650297E+02  0.41800000000E+01 0. -1.
        -11    1    4    4    0    0 -0.35374782372E+02  0.87379517965E+01 -0.41770922633E+02  0.55430470024E+02  0.00000000000E+00 0.  1.
         11    1    4    4    0    0  0.71489410460E+01  0.29317044606E+02  0.35699596746E+02  0.46744600441E+02  0.00000000000E+00 0. -1.
</event>
<event>
 8    1  0.6185113E-009  0.1160747E+03  0.7561462E-02  0.1249717E+00
         -1   -1    0    0    0  501 -0.00000000000E+00  0.00000000000E+00  0.73778609630E+02  0.73778609630E+02  0.00000000000E+00 0.  1.
          1   -1    0    0  501    0  0.00000000000E+00 -0.00000000000E+00 -0.27358231219E+03  0.27358231219E+03  0.00000000000E+00 0. -1.
         25    2    1    2    0    0 -0.49507993203E+02  0.45342098580E+02 -0.34894649221E+02  0.14619616739E+03  0.12509490605E+03 0.  0.
         23    2    1    2    0    0  0.49507993203E+02 -0.45342098580E+02 -0.16490905334E+03  0.20116475443E+03  0.93623262370E+02 0.  0.
          5    1    3    3  502    0 -0.69336505958E+02  0.68247886887E+02  0.30914902529E+01  0.97428716686E+02  0.41800000000E+01 0. -1.
         -5    1    3    3    0  502  0.19828512754E+02 -0.22905788308E+02 -0.37986139474E+02  0.48767450704E+02  0.41800000000E+01 0. -1.
        -11    1    4    4    0    0 -0.18050026776E+02  0.63359253304E+01 -0.45795820789E+01  0.19670281860E+02  0.00000000000E+00 0.  1.
         11    1    4    4    0    0  0.67558019980E+02 -0.51678023910E+02 -0.16032947126E+03  0.18149447257E+03  0.00000000000E+00 0. -1.
</event>
<event>
 8    1  0.6185113E-009  0.1108744E+03  0.7561462E-02  0.1258959E+00
         -1   -1    0    0    0  501 -0.00000000000E+00  0.00000000000E+00  0.28429626727E+02  0.28429626727E+02  0.00000000000E+00 0.  1.
          1   -1    0    0  501    0  0.00000000000E+00 -0.00000000000E+00 -0.72403441247E+03  0.72403441247E+03  0.00000000000E+00 0. -1.
         25    2    1    2    0    0 -0.77489968564E+02 -0.37729448783E+01 -0.51450519875E+03  0.53514708366E+03  0.12509145161E+03 0.  0.
         23    2    1    2    0    0  0.77489968564E+02  0.37729448783E+01 -0.18109958699E+03  0.21731695554E+03  0.91709696400E+02 0.  0.
          5    1    3    3  502    0 -0.71274347978E+01  0.51906331945E+02 -0.25989701097E+03  0.26515843629E+03  0.41800000000E+01 0.  1.
         -5    1    3    3    0  502 -0.70362533766E+02 -0.55679276823E+02 -0.25460818778E+03  0.26998864737E+03  0.41800000000E+01 0.  1.
        -11    1    4    4    0    0  0.31595597159E+02 -0.66801706347E+01 -0.22446630740E+01  0.32371977880E+02  0.00000000000E+00 0.  1.
         11    1    4    4    0    0  0.45894371405E+02  0.10453115513E+02 -0.17885492392E+03  0.18494497766E+03  0.00000000000E+00 0. -1.
</event>
<event>
 8    1  0.6185113E-009  0.1046674E+03  0.7561462E-02  0.1270776E+00
          2   -1    0    0  501    0  0.00000000000E+00  0.00000000000E+00  0.52511105124E+02  0.52511105124E+02  0.00000000000E+00 0. -1.
         -2   -1    0    0    0  501 -0.00000000000E+00 -0.00000000000E+00 -0.31668583285E+03  0.31668583285E+03  0.00000000000E+00 0.  1.
         25    2    1    2    0    0  0.27607931265E+02  0.65334895444E+02 -0.15396273177E+03  0.21067291060E+03  0.12509079125E+03 0.  0.
         23    2    1    2    0    0 -0.27607931265E+02 -0.65334895444E+02 -0.11021199596E+03  0.15852402737E+03  0.89175875491E+02 0.  0.
          5    1    3    3  502    0 -0.23062295398E+02  0.80450729382E+02 -0.61015293717E+02  0.10365581409E+03  0.41800000000E+01 0. -1.
         -5    1    3    3    0  502  0.50670226663E+02 -0.15115833938E+02 -0.92947438053E+02  0.10701709651E+03  0.41800000000E+01 0. -1.
        -11    1    4    4    0    0 -0.12774907639E+02 -0.48057841898E+02 -0.12281354991E+03  0.13249876405E+03  0.00000000000E+00 0.  1.
         11    1    4    4    0    0 -0.14833023626E+02 -0.17277053547E+02  0.12601553950E+02  0.26025263324E+02  0.00000000000E+00 0. -1.
</event>
<event>
 7    1  0.6185113E-009  0.1050236E+03  0.7561462E-02  0.1270073E+00
         -1   -1    0    0    0  501 -0.00000000000E+00  0.00000000000E+00  0.17570817568E+03  0.17570817568E+03  0.00000000000E+00 0.  1.
          1   -1    0    0  501    0  0.00000000000E+00 -0.00000000000E+00 -0.80758352918E+02  0.80758352918E+02  0.00000000000E+00 0. -1.
         23    2    1    2    0    0  0.33111146645E+02 -0.29643121328E+02  0.61413041585E+02  0.11948270491E+03  0.92355251184E+02 0.  0.
          5    1    1    2  502    0 -0.11322239105E+02  0.72284536396E+02  0.47005596902E+02  0.87064607278E+02  0.41800000000E+01 0.  1.
         -5    1    1    2    0  502 -0.21788907540E+02 -0.42641415068E+02 -0.13468815720E+02  0.49919216417E+02  0.41800000000E+01 0.  1.
        -11    1    3    3    0    0  0.58145970531E+02 -0.24706336740E+02  0.12627356309E+02  0.64426757573E+02  0.00000000000E+00 0. -1.
         11    1    3    3    0    0 -0.25034823886E+02 -0.49367845884E+01  0.48785685276E+02  0.55055947335E+02  0.00000000000E+00 0.  1.
</event>
<event>
 8    1  0.6185113E-009  0.2361527E+03  0.7561462E-02  0.1122383E+00
         -1   -1    0    0    0  501 -0.00000000000E+00  0.00000000000E+00  0.80431119548E+03  0.80431119548E+03  0.00000000000E+00 0.  1.
          1   -1    0    0  501    0  0.00000000000E+00 -0.00000000000E+00 -0.88770074123E+02  0.88770074123E+02  0.00000000000E+00 0. -1.
         25    2    1    2    0    0  0.29444312767E+02 -0.21828666646E+03  0.54216015291E+03  0.59841517669E+03  0.12508819283E+03 0.  0.
         23    2    1    2    0    0 -0.29444312767E+02  0.21828666646E+03  0.17338096845E+03  0.29466609291E+03  0.90835619565E+02 0.  0.
          5    1    3    3  502    0  0.69278621004E+02 -0.71600439103E+02  0.24753921903E+03  0.26686942044E+03  0.41800000000E+01 0. -1.
         -5    1    3    3    0  502 -0.39834308237E+02 -0.14668622736E+03  0.29462093388E+03  0.33154575626E+03  0.41800000000E+01 0. -1.
        -11    1    4    4    0    0 -0.47857094474E+01  0.73852225856E+02  0.91468899685E+01  0.74570234510E+02  0.00000000000E+00 0. -1.
         11    1    4    4    0    0 -0.24658603320E+02  0.14443444061E+03  0.16423407848E+03  0.22009585840E+03  0.00000000000E+00 0.  1.
</event>
<event>
 8    1  0.6185113E-009  0.9750847E+02  0.7561462E-02  0.1285624E+00
         -2   -1    0    0    0  501 -0.00000000000E+00  0.00000000000E+00  0.78077273314E+02  0.78077273314E+02  0.00000000000E+00 0.  1.
          2   -1    0    0  501    0  0.00000000000E+00 -0.00000000000E+00 -0.20335882883E+03  0.20335882883E+03  0.00000000000E+00 0. -1.
         25    2    1    2    0    0 -0.26043785756E+02  0.35063729077E+02 -0.12126643043E+03  0.17961208964E+03  0.12508881533E+03 0.  0.
         23    2    1    2    0    0  0.26043785756E+02 -0.35063729077E+02 -0.40151250872E+01  0.10182401251E+03  0.91892678820E+02 0.  0.
          5    1    3    3  502    0  0.50163022380E+02  0.13679266389E+02 -0.59492747020E+02  0.79122123904E+02  0.41800000000E+01 0. -1.
         -5    1    3    3    0  502 -0.76206808136E+02  0.21384462688E+02 -0.61773683413E+02  0.10048996573E+03  0.41800000000E+01 0. -1.
        -11    1    4    4    0    0  0.27773457502E+02 -0.45341485483E+02  0.33528919616E+02  0.62860191679E+02  0.00000000000E+00 0.  1.
         11    1    4    4    0    0 -0.17296717453E+01  0.10277756405E+02 -0.37544044703E+02  0.38963820830E+02  0.00000000000E+00 0. -1.
</event>
<event>
 8    1  0.6185113E-009  0.9622281E+02  0.7561462E-02  0.1288446E+00
          2   -1    0    0  501    0  0.00000000000E+00  0.00000000000E+00  0.37721868942E+03  0.37721868942E+03  0.00000000000E+00 0. -1.
         -2   -1    0    0    0  501 -0.00000000000E+00 -0.00000000000E+00 -0.51420230979E+02  0.51420230979E+02  0.00000000000E+00 0.  1.
         25    2    1    2    0    0 -0.79794831693E+02 -0.36266233054E+02  0.21781859358E+03  0.26603531112E+03  0.12508953685E+03 0.  0.
         23    2    1    2    0    0  0.79794831693E+02  0.36266233054E+02  0.10797986486E+03  0.16260360928E+03  0.84248606580E+02 0.  0.
          5    1    3    3  502    0 -0.53750927907E+02 -0.51250215013E+02  0.37725772810E+02  0.83405354287E+02  0.41800000000E+01 0.  1.
         -5    1    3    3    0  502 -0.26043903786E+02  0.14983981959E+02  0.18009282077E+03  0.18262995683E+03  0.41800000000E+01 0.  1.
        -11    1    4    4    0    0  0.59894365141E+02  0.28919173288E+02  0.16269141007E+02  0.68471443014E+02  0.00000000000E+00 0.  1.
         11    1    4    4    0    0  0.19900466552E+02  0.73470597660E+01  0.91710723854E+02  0.94132166266E+02  0.00000000000E+00 0. -1.
</event>
<event>
 8    1  0.6185113E-009  0.1064837E+03  0.7561462E-02  0.1267224E+00
          3   -1    0    0  501    0  0.00000000000E+00  0.00000000000E+00  0.10049609706E+03  0.10049609706E+03  0.00000000000E+00 0. -1.
         -3   -1    0    0    0  501 -0.00000000000E+00 -0.00000000000E+00 -0.17279614544E+03  0.17279614544E+03  0.00000000000E+00 0.  1.
         25    2    1    2    0    0  0.19107278007E+01 -0.70875566555E+02 -0.28420720066E+02  0.14656889717E+03  0.12509079692E+03 0.  0.
         23    2    1    2    0    0 -0.19107278007E+01  0.70875566555E+02 -0.43879328313E+02  0.12672334533E+03  0.95427532623E+02 0.  0.
          5    1    3    3  502    0  0.31695962354E+02 -0.28169312661E+02 -0.68539988760E+02  0.80705307536E+02  0.41800000000E+01 0.  1.
         -5    1    3    3    0  502 -0.29785234554E+02 -0.42706253894E+02  0.40119268693E+02  0.65863589635E+02  0.41800000000E+01 0.  1.
        -11    1    4    4    0    0 -0.23849655226E+02 -0.15869116570E+02 -0.16936657308E+02  0.33278901362E+02  0.00000000000E+00 0.  1.
         11    1    4    4    0    0  0.21938927425E+02  0.86744683126E+02 -0.26942671005E+02  0.93444443965E+02  0.00000000000E+00 0. -1.
</event>
<event>
 8    1  0.6185113E-009  0.1303541E+03  0.7561462E-02  0.1226931E+00
          1   -1    0    0  501    0  0.00000000000E+00  0.00000000000E+00  0.16882791855E+03  0.16882791855E+03  0.00000000000E+00 0. -1.
         -1   -1    0    0    0  501 -0.00000000000E+00 -0.00000000000E+00 -0.14756890388E+03  0.14756890388E+03  0.00000000000E+00 0.  1.
         25    2    1    2    0    0  0.46559708676E+02  0.10299285438E+03  0.29404661178E+01  0.16862437801E+03  0.12510075936E+03 0.  0.
         23    2    1    2    0    0 -0.46559708676E+02 -0.10299285438E+03  0.18318548546E+02  0.14777244442E+03  0.93411945611E+02 0.  0.
          5    1    3    3  502    0  0.25117999556E+02  0.71727147113E+02 -0.58712842450E+02  0.96126831859E+02  0.41800000000E+01 0.  1.
         -5    1    3    3    0  502  0.21441709119E+02  0.31265707267E+02  0.61653308567E+02  0.72497546153E+02  0.41800000000E+01 0.  1.
        -11    1    4    4    0    0  0.26532521419E+02 -0.10423008561E+02  0.69047612937E+00  0.28514742812E+02  0.00000000000E+00 0. -1.
         11    1    4    4    0    0 -0.73092230095E+02 -0.92569845819E+02  0.17628072416E+02  0.11925770161E+03  0.00000000000E+00 0.  1.
</event>
<event>
 8    1  0.6185113E-009  0.1388059E+03  0.7561462E-02  0.1214945E+00
          2   -1    0    0  501    0  0.00000000000E+00  0.00000000000E+00  0.13128167925E+03  0.13128167925E+03  0.00000000000E+00 0. -1.
         -2   -1    0    0    0  501 -0.00000000000E+00 -0.00000000000E+00 -0.18820274565E+03  0.18820274565E+03  0.00000000000E+00 0.  1.
         25    2    1    2    0    0 -0.69129280858E+02 -0.89933684640E+02 -0.33927054078E+02  0.17223627379E+03  0.12508942363E+03 0.  0.
         23    2    1    2    0    0  0.69129280858E+02  0.89933684640E+02 -0.22994012325E+02  0.14724815111E+03  0.91029491363E+02 0.  0.
          5    1    3    3  502    0  0.33692759079E+02 -0.22539578524E+02 -0.27291061456E+02  0.49045989130E+02  0.41800000000E+01 0.  1.
         -5    1    3    3    0  502 -0.10282203994E+03 -0.67394106116E+02 -0.66359926221E+01  0.12319028466E+03  0.41800000000E+01 0.  1.
        -11    1    4    4    0    0  0.74813353267E+01  0.15418808897E+02 -0.44924310938E+02  0.48082260339E+02  0.00000000000E+00 0.  1.
         11    1    4    4    0    0  0.61647945532E+02  0.74514875743E+02  0.21930298613E+02  0.99165890771E+02  0.00000000000E+00 0. -1.
</event>
<event>
 8    1  0.6185113E-009  0.2944830E+03  0.7561462E-02  0.1088031E+00
         -1   -1    0    0    0  501 -0.00000000000E+00  0.00000000000E+00  0.57018556670E+03  0.57018556670E+03  0.00000000000E+00 0.  1.
          1   -1    0    0  501    0  0.00000000000E+00 -0.00000000000E+00 -0.15670563456E+03  0.15670563456E+03  0.00000000000E+00 0. -1.
         25    2    1    2    0    0  0.25230323059E+03 -0.11633293910E+03  0.18955349935E+03  0.35884477471E+03  0.12509504519E+03 0.  0.
         23    2    1    2    0    0 -0.25230323059E+03  0.11633293910E+03  0.22392643280E+03  0.36804642656E+03  0.90137960405E+02 0.  0.
          5    1    3    3  502    0  0.15634770765E+03 -0.92542510815E+01  0.69140343208E+02  0.17125450741E+03  0.41800000000E+01 0. -1.
         -5    1    3    3    0  502  0.95955522944E+02 -0.10707868802E+03  0.12041315614E+03  0.18759026729E+03  0.41800000000E+01 0. -1.
        -11    1    4    4    0    0 -0.12847734695E+03  0.10150249044E+03  0.98027209930E+02  0.19083636480E+03  0.00000000000E+00 0. -1.
         11    1    4    4    0    0 -0.12382588365E+03  0.14830448665E+02  0.12589922287E+03  0.17721006175E+03  0.00000000000E+00 0.  1.
</event>
<event>
 8    1  0.6185113E-009  0.1337389E+03  0.7561462E-02  0.1222011E+00
         -1   -1    0    0    0  501 -0.00000000000E+00  0.00000000000E+00  0.22677720973E+03  0.22677720973E+03  0.00000000000E+00 0.  1.
          1   -1    0    0  501    0  0.00000000000E+00 -0.00000000000E+00 -0.12663922321E+03  0.12663922321E+03  0.00000000000E+00 0. -1.
         25    2    1    2    0    0  0.96053434602E+02 -0.41524924255E+02 -0.25924875798E+02  0.16513604332E+03  0.12508889633E+03 0.  0.
         23    2    1    2    0    0 -0.96053434602E+02  0.41524924255E+02  0.12606286232E+03  0.18828038963E+03  0.92774340354E+02 0.  0.
          5    1    3    3  502    0  0.62597075760E+02 -0.84874228051E+02 -0.28911653964E+01  0.10558342540E+03  0.41800000000E+01 0. -1.
         -5    1    3    3    0  502  0.33456358842E+02  0.43349303796E+02 -0.23033710401E+02  0.59552617922E+02  0.41800000000E+01 0. -1.
        -11    1    4    4    0    0 -0.66829686269E+02  0.39707207276E+02  0.13659320658E+03  0.15716416055E+03  0.00000000000E+00 0.  1.
         11    1    4    4    0    0 -0.29223748333E+02  0.18177169790E+01 -0.10530344263E+02  0.31116229077E+02  0.00000000000E+00 0. -1.
</event>
<event>
 8    1  0.6185113E-009  0.1397428E+03  0.7561462E-02  0.1213675E+00
         -2   -1    0    0    0  501 -0.00000000000E+00  0.00000000000E+00  0.33056802822E+02  0.33056802822E+02  0.00000000000E+00 0. -1.
          2   -1    0    0  501    0  0.00000000000E+00 -0.00000000000E+00 -0.65687970524E+03  0.65687970524E+03  0.00000000000E+00 0.  1.
         25    2    1    2    0    0  0.98366217590E+02 -0.98702849272E+01 -0.37154741800E+03  0.40431138720E+03  0.12508748420E+03 0.  0.
         23    2    1    2    0    0 -0.98366217590E+02  0.98702849272E+01 -0.25227548441E+03  0.28562512087E+03  0.90362903592E+02 0.  0.
          5    1    3    3  502    0  0.38643183582E+02 -0.57266606082E+02 -0.26054523807E+03  0.26958125545E+03  0.41800000000E+01 0. -1.
         -5    1    3    3    0  502  0.59723034008E+02  0.47396321155E+02 -0.11100217994E+03  0.13473013175E+03  0.41800000000E+01 0. -1.
        -11    1    4    4    0    0 -0.32220090881E+02 -0.39791758180E+02 -0.94013837043E+02  0.10705194922E+03  0.00000000000E+00 0. -1.
         11    1    4    4    0    0 -0.66146126709E+02  0.49662043108E+02 -0.15826164737E+03  0.17857317165E+03  0.00000000000E+00 0.  1.
</event>
<event>
 8    1  0.6185113E-009  0.2084608E+03  0.7561462E-02  0.1142791E+00
         -2   -1    0    0    0  501 -0.00000000000E+00  0.00000000000E+00  0.14132007177E+03  0.14132007177E+03  0.00000000000E+00 0.  1.
          2   -1    0    0  501    0  0.00000000000E+00 -0.00000000000E+00 -0.45023036466E+03  0.45023036466E+03  0.00000000000E+00 0. -1.
         25    2    1    2    0    0 -0.19494662363E+03 -0.12621551486E+02 -0.26032591506E+02  0.23342598763E+03  0.12508599544E+03 0.  0.
         23    2    1    2    0    0  0.19494662363E+03  0.12621551486E+02 -0.28287770139E+03  0.35812444880E+03  0.10034857876E+03 0.  0.
          5    1    3    3  502    0 -0.17817994010E+03 -0.44800940537E+02  0.73824960936E+01  0.18392169251E+03  0.41800000000E+01 0.  1.
         -5    1    3    3    0  502 -0.16766683529E+02  0.32179389051E+02 -0.33415087599E+02  0.49504295122E+02  0.41800000000E+01 0.  1.
        -11    1    4    4    0    0  0.81467714358E+02 -0.57320906884E+01 -0.20109856212E+03  0.21704948061E+03  0.00000000000E+00 0.  1.
         11    1    4    4    0    0  0.11347890927E+03  0.18353642174E+02 -0.81779139270E+02  0.14107496819E+03  0.00000000000E+00 0. -1.
</event>
<event>
 8    1  0.6185113E-009  0.8578088E+02  0.7561462E-02  0.1313403E+00
          2   -1    0    0  501    0  0.00000000000E+00  0.00000000000E+00  0.14329979329E+03  0.14329979329E+03  0.00000000000E+00 0. -1.
         -2   -1    0    0    0  501 -0.00000000000E+00 -0.00000000000E+00 -0.13933716531E+03  0.13933716531E+03  0.00000000000E+00 0.  1.
         25    2    1    2    0    0  0.60154897575E+02  0.25239037292E+02 -0.57319124583E+02  0.15227907514E+03  0.12509122262E+03 0.  0.
         23    2    1    2    0    0 -0.60154897575E+02 -0.25239037292E+02  0.61281752562E+02  0.13035788346E+03  0.94773962024E+02 0.  0.
          5    1    3    3  502    0  0.37002696854E+02 -0.21765819739E+01  0.36227852265E+02  0.51998718862E+02  0.41800000000E+01 0.  1.
         -5    1    3    3    0  502  0.23152200721E+02  0.27415619266E+02 -0.93546976848E+02  0.10028035628E+03  0.41800000000E+01 0.  1.
        -11    1    4    4    0    0  0.11596731383E+02 -0.23677827284E+02  0.51591604942E+02  0.57938047811E+02  0.00000000000E+00 0. -1.
         11    1    4    4    0    0 -0.71751628958E+02 -0.15612100078E+01  0.96901476207E+01  0.72419835651E+02  0.00000000000E+00 0.  1.
</event>
<event>
 8    1  0.6185113E-009  0.9155218E+02  0.7561462E-02  0.1299136E+00
         -2   -1    0    0    0  501 -0.00000000000E+00  0.00000000000E+00  0.15005673895E+03  0.15005673895E+03  0.00000000000E+00 0.  1.
          2   -1    0    0  501    0  0.00000000000E+00 -0.00000000000E+00 -0.24400950534E+03  0.24400950534E+03  0.00000000000E+00 0. -1.
         25    2    1    2    0    0  0.64190283496E+02 -0.13621576537E+02 -0.19654558408E+03  0.24203975094E+03  0.12508850695E+03 0.  0.
         23    2    1    2    0    0 -0.64190283496E+02  0.13621576537E+02  0.10259281769E+03  0.15202649336E+03  0.90999058230E+02 0.  0.
          5    1    3    3  502    0  0.12014225914E+02  0.16306741744E+02 -0.17765468208E+03  0.17885443778E+03  0.41800000000E+01 0.  1.
         -5    1    3    3    0  502  0.52176057582E+02 -0.29928318281E+02 -0.18890902001E+02  0.63185313154E+02  0.41800000000E+01 0.  1.
        -11    1    4    4    0    0 -0.34416410072E+02  0.46448462257E+02  0.88148504306E+02  0.10541398266E+03  0.00000000000E+00 0.  1.
         11    1    4    4    0    0 -0.29773873424E+02 -0.32826885720E+02  0.14444313385E+02  0.46612510702E+02  0.00000000000E+00 0. -1.
</event>
<event>
 8    1  0.6185113E-009  0.8360279E+02  0.7561462E-02  0.1319127E+00
         -1   -1    0    0    0  501 -0.00000000000E+00  0.00000000000E+00  0.26519434488E+02  0.26519434488E+02  0.00000000000E+00 0.  1.
          1   -1    0    0  501    0  0.00000000000E+00 -0.00000000000E+00 -0.46661252157E+03  0.46661252157E+03  0.00000000000E+00 0. -1.
         25    2    1    2    0    0 -0.13148903628E+02 -0.85373116443E+01 -0.31630124243E+03  0.34049768430E+03  0.12508564144E+03 0.  0.
         23    2    1    2    0    0  0.13148903628E+02  0.85373116443E+01 -0.12379184465E+03  0.15263427175E+03  0.87903474080E+02 0.  0.
          5    1    3    3  502    0 -0.12128868200E+02  0.34362195734E+02 -0.28467229042E+03  0.28702553070E+03  0.41800000000E+01 0.  1.
         -5    1    3    3    0  502 -0.10200354283E+01 -0.42899507379E+02 -0.31628952005E+02  0.53472153599E+02  0.41800000000E+01 0.  1.
        -11    1    4    4    0    0 -0.13867907883E+02  0.42100663569E+02 -0.47166392134E+02  0.64725986195E+02  0.00000000000E+00 0. -1.
         11    1    4    4    0    0  0.27016811512E+02 -0.33563351924E+02 -0.76625452513E+02  0.87908285557E+02  0.00000000000E+00 0.  1.
</event>
<event>
 8    1  0.6185113E-009  0.9401686E+02  0.7561462E-02  0.1293406E+00
         -1   -1    0    0    0  501 -0.00000000000E+00  0.00000000000E+00  0.49665034872E+02  0.49665034872E+02  0.00000000000E+00 0.  1.
          1   -1    0    0  501    0  0.00000000000E+00 -0.00000000000E+00 -0.25907268438E+03  0.25907268438E+03  0.00000000000E+00 0. -1.
         25    2    1    2    0    0  0.27770162695E+02  0.16253038465E+02 -0.13007527352E+03  0.18330962790E+03  0.12508996644E+03 0.  0.
         23    2    1    2    0    0 -0.27770162695E+02 -0.16253038465E+02 -0.79332375988E+02  0.12542809135E+03  0.91669171617E+02 0.  0.
          5    1    3    3  502    0  0.35189871718E+02  0.61394990531E+02 -0.11475408361E+03  0.13488381682E+03  0.41800000000E+01 0. -1.
         -5    1    3    3    0  502 -0.74197090229E+01 -0.45141952066E+02 -0.15321189901E+02  0.48425811075E+02  0.41800000000E+01 0. -1.
        -11    1    4    4    0    0 -0.26182892830E+01 -0.37919674818E+02  0.15048923368E+01  0.38039740772E+02  0.00000000000E+00 0.  1.
         11    1    4    4    0    0 -0.25151873412E+02  0.21666636353E+02 -0.80837268324E+02  0.87388350580E+02  0.00000000000E+00 0. -1.
</event>
<event>
 8    1  0.6185113E-009  0.1411042E+03  0.7561462E-02  0.1211851E+00
         -1   -1    0    0    0  501 -0.00000000000E+00  0.00000000000E+00  0.43478452804E+02  0.43478452804E+02  0.00000000000E+00 0.  1.
          1   -1    0    0  501    0  0.00000000000E+00 -0.00000000000E+00 -0.73273873140E+03  0.73273873140E+03  0.00000000000E+00 0. -1.
         25    2    1    2    0    0  0.10586574383E+03 -0.23299357501E+02 -0.16750535143E+03  0.23548957569E+03  0.12508749627E+03 0.  0.
         23    2    1    2    0    0 -0.10586574383E+03  0.23299357501E+02 -0.52175492716E+03  0.54072760851E+03  0.91693657455E+02 0.  0.
          5    1    3    3  502    0  0.10766703337E+03 -0.47604088917E+02 -0.74788046206E+02  0.13953158643E+03  0.41800000000E+01 0. -1.
         -5    1    3    3    0  502 -0.18012895484E+01  0.24304731415E+02 -0.92717305226E+02  0.95957989254E+02  0.41800000000E+01 0. -1.
        -11    1    4    4    0    0 -0.98537677431E+02  0.51055078916E+02 -0.37015685549E+03  0.38643549607E+03  0.00000000000E+00 0.  1.
         11    1    4    4    0    0 -0.73280663956E+01 -0.27755721415E+02 -0.15159807167E+03  0.15429211245E+03  0.00000000000E+00 0. -1.
</event>
<event>
 8    1  0.6185113E-009  0.7369627E+02  0.7561462E-02  0.1347956E+00
         -1   -1    0    0    0  501 -0.00000000000E+00  0.00000000000E+00  0.33133804757E+02  0.33133804757E+02  0.00000000000E+00 0.  1.
          1   -1    0    0  501    0  0.00000000000E+00 -0.00000000000E+00 -0.64330283046E+03  0.64330283046E+03  0.00000000000E+00 0. -1.
         25    2    1    2    0    0  0.12313741716E+01  0.12631750698E+02 -0.55454471602E+03  0.56861840302E+03  0.12508384698E+03 0.  0.
         23    2    1    2    0    0 -0.12313741716E+01 -0.12631750698E+02 -0.55624309681E+02  0.10781823220E+03  0.91485681714E+02 0.  0.
          5    1    3    3  502    0 -0.49954300957E+02  0.65541539154E+01 -0.44055652486E+03  0.44344775692E+03  0.41800000000E+01 0. -1.
         -5    1    3    3    0  502  0.51185675129E+02  0.60775967823E+01 -0.11398819116E+03  0.12517064610E+03  0.41800000000E+01 0. -1.
        -11    1    4    4    0    0  0.80586272561E+01  0.14420601759E+02  0.20599065686E+02  0.26404861967E+02  0.00000000000E+00 0.  1.
         11    1    4    4    0    0 -0.92900014277E+01 -0.27052352456E+02 -0.76223375367E+02  0.81413370231E+02  0.00000000000E+00 0. -1.
</event>
<event>
 8    1  0.6185113E-009  0.8982953E+02  0.7561462E-02  0.1303265E+00
         -1   -1    0    0    0  501 -0.00000000000E+00  0.00000000000E+00  0.34388729567E+03  0.34388729567E+03  0.00000000000E+00 0.  1.
          1   -1    0    0  501    0  0.00000000000E+00 -0.00000000000E+00 -0.36881781750E+02  0.36881781750E+02  0.00000000000E+00 0. -1.
         25    2    1    2    0    0 -0.96115947415E+01 -0.28173215767E+02  0.15736345714E+03  0.20321482725E+03  0.12508755147E+03 0.  0.
         23    2    1    2    0    0  0.96115947415E+01  0.28173215767E+02  0.14964205679E+03  0.17755425017E+03  0.90811088280E+02 0.  0.
          5    1    3    3  502    0  0.32293942238E+02  0.59307535229E+01  0.14351538706E+03  0.14728275956E+03  0.41800000000E+01 0. -1.
         -5    1    3    3    0  502 -0.41905536980E+02 -0.34103969290E+02  0.13848070080E+02  0.55932067688E+02  0.41800000000E+01 0. -1.
        -11    1    4    4    0    0  0.15862066031E+02 -0.29960620349E+02  0.78231271260E+02  0.85260634020E+02  0.00000000000E+00 0.  1.
         11    1    4    4    0    0 -0.62504712895E+01  0.58133836116E+02  0.71410785528E+02  0.92293616153E+02  0.00000000000E+00 0. -1.
</event>
<event>
 8    1  0.6185113E-009  0.7979754E+02  0.7561462E-02  0.1329627E+00
         -1   -1    0    0    0  501 -0.00000000000E+00  0.00000000000E+00  0.43760719530E+02  0.43760719530E+02  0.00000000000E+00 0.  1.
          1   -1    0    0  501    0  0.00000000000E+00 -0.00000000000E+00 -0.33581155608E+03  0.33581155608E+03  0.00000000000E+00 0. -1.
         25    2    1    2    0    0  0.25272311433E+02 -0.21949506804E+02 -0.22154028522E+03  0.25660800238E+03  0.12508836211E+03 0.  0.
         23    2    1    2    0    0 -0.25272311433E+02  0.21949506804E+02 -0.70510551323E+02  0.12296427322E+03  0.95015809565E+02 0.  0.
          5    1    3    3  502    0  0.42961078200E+02  0.66875150344E+01 -0.13350989997E+02  0.45673826545E+02  0.41800000000E+01 0.  1.
         -5    1    3    3    0  502 -0.17688766767E+02 -0.28637021839E+02 -0.20818929523E+03  0.21093417584E+03  0.41800000000E+01 0.  1.
        -11    1    4    4    0    0  0.26048092501E+02 -0.32982406396E+00 -0.60845910613E+02  0.66187889717E+02  0.00000000000E+00 0. -1.
         11    1    4    4    0    0 -0.51320403934E+02  0.22279330868E+02 -0.96646407098E+01  0.56776383506E+02  0.00000000000E+00 0.  1.
</event>
<event>
 8    1  0.6185113E-009  0.2157706E+03  0.7561462E-02  0.1137076E+00
          1   -1    0    0  501    0  0.00000000000E+00  0.00000000000E+00  0.10650679830E+04  0.10650679830E+04  0.00000000000E+00 0. -1.
         -1   -1    0    0    0  501 -0.00000000000E+00 -0.00000000000E+00 -0.10881876313E+03  0.10881876313E+03  0.00000000000E+00 0.  1.
         25    2    1    2    0    0 -0.16645780087E+03  0.12257150964E+03  0.58909393950E+02  0.24870297732E+03  0.12510347632E+03 0.  0.
         23    2    1    2    0    0  0.16645780087E+03 -0.12257150964E+03  0.89733982588E+03  0.92518376877E+03  0.89522446577E+02 0.  0.
          5    1    3    3  502    0 -0.17265049258E+03  0.11569169343E+03  0.82013809773E+02  0.22346475765E+03  0.41800000000E+01 0. -1.
         -5    1    3    3    0  502  0.61926917120E+01  0.68798162125E+01 -0.23104415823E+02  0.25238219673E+02  0.41800000000E+01 0. -1.
        -11    1    4    4    0    0  0.12704551877E+02 -0.33490055996E+02  0.66283479728E+02  0.75342479213E+02  0.00000000000E+00 0. -1.
         11    1    4    4    0    0  0.15375324899E+03 -0.89081453646E+02  0.83105634615E+03  0.84984128956E+03  0.00000000000E+00 0.  1.
</event>
<event>
 8    1  0.6185113E-009  0.1047623E+03  0.7561462E-02  0.1270589E+00
          1   -1    0    0  501    0  0.00000000000E+00  0.00000000000E+00  0.24095419308E+02  0.24095419308E+02  0.00000000000E+00 0. -1.
         -1   -1    0    0    0  501 -0.00000000000E+00 -0.00000000000E+00 -0.60602033614E+03  0.60602033614E+03  0.00000000000E+00 0.  1.
         25    2    1    2    0    0 -0.19172300753E+02  0.13175283760E+02 -0.20151400798E+03  0.23831917666E+03  0.12508784646E+03 0.  0.
         23    2    1    2    0    0  0.19172300753E+02 -0.13175283760E+02 -0.38041090886E+03  0.39179657880E+03  0.90834653970E+02 0.  0.
          5    1    3    3  502    0 -0.65385778114E+02  0.22830709013E+02 -0.16332715317E+03  0.17745357876E+03  0.41800000000E+01 0.  1.
         -5    1    3    3    0  502  0.46213477361E+02 -0.96554252523E+01 -0.38186854815E+02  0.60865597896E+02  0.41800000000E+01 0.  1.
        -11    1    4    4    0    0 -0.35429436160E+02  0.36330233639E+01 -0.17509408011E+03  0.17867954750E+03  0.00000000000E+00 0.  1.
         11    1    4    4    0    0  0.54601736912E+02 -0.16808307124E+02 -0.20531682875E+03  0.21311703130E+03  0.00000000000E+00 0. -1.
</event>
<event>
 8    1  0.6185113E-009  0.1068826E+03  0.7561462E-02  0.1266454E+00
          1   -1    0    0  501    0  0.00000000000E+00  0.00000000000E+00  0.14227421939E+03  0.14227421939E+03  0.00000000000E+00 0. -1.
         -1   -1    0    0    0  501 -0.00000000000E+00 -0.00000000000E+00 -0.87532262046E+02  0.87532262046E+02  0.00000000000E+00 0.  1.
         25    2    1    2    0    0  0.44236519929E+01  0.31341386450E+02  0.43885173328E+02  0.13629013112E+03  0.12508892917E+03 0.  0.
         23    2    1    2    0    0 -0.44236519929E+01 -0.31341386450E+02  0.10856784013E+02  0.93516350315E+02  0.87324606014E+02 0.  0.
          5    1    3    3  502    0  0.37773081771E+01  0.79670207249E+02  0.33867743787E+02  0.86753135099E+02  0.41800000000E+01 0.  1.
         -5    1    3    3    0  502  0.64634381574E+00 -0.48328820799E+02  0.10017429541E+02  0.49536996021E+02  0.41800000000E+01 0.  1.
        -11    1    4    4    0    0  0.23939695116E+02  0.16981248668E+02  0.21627903754E+02  0.36458716782E+02  0.00000000000E+00 0. -1.
         11    1    4    4    0    0 -0.28363347109E+02 -0.48322635118E+02 -0.10771119741E+02  0.57057633533E+02  0.00000000000E+00 0.  1.
</event>
<event>
 8    1  0.6185113E-009  0.5623099E+02  0.7561462E-02  0.1414366E+00
          1   -1    0    0  501    0  0.00000000000E+00  0.00000000000E+00  0.86486821484E+02  0.86486821484E+02  0.00000000000E+00 0. -1.
         -1   -1    0    0    0  501 -0.00000000000E+00 -0.00000000000E+00 -0.17650355568E+03  0.17650355568E+03  0.00000000000E+00 0.  1.
         25    2    1    2    0    0 -0.34505439139E+02  0.14217681402E+02 -0.99287065846E+02  0.16400576473E+03  0.12508877497E+03 0.  0.
         23    2    1    2    0    0  0.34505439139E+02 -0.14217681402E+02  0.92703316512E+01  0.98984612437E+02  0.91209904373E+02 0.  0.
          5    1    3    3  502    0 -0.13986684132E+02  0.50954745592E+01  0.29447897926E+02  0.33260220779E+02  0.41800000000E+01 0.  1.
         -5    1    3    3    0  502 -0.20518755007E+02  0.91222068429E+01 -0.12873496377E+03  0.13074554395E+03  0.41800000000E+01 0.  1.
        -11    1    4    4    0    0  0.24015886988E+02  0.24344059490E+02  0.36969976459E+02  0.50360452933E+02  0.00000000000E+00 0. -1.
         11    1    4    4    0    0  0.10489552151E+02 -0.38561740892E+02 -0.27699644808E+02  0.48624159504E+02  0.00000000000E+00 0.  1.
</event>
<event>
 8    1  0.6185113E-009  0.3356129E+03  0.7561462E-02  0.1068680E+00
         -1   -1    0    0    0  501 -0.00000000000E+00  0.00000000000E+00  0.11336260101E+03  0.11336260101E+03  0.00000000000E+00 0.  1.
          1   -1    0    0  501    0  0.00000000000E+00 -0.00000000000E+00 -0.12132960418E+04  0.12132960418E+04  0.00000000000E+00 0. -1.
         25    2    1    2    0    0 -0.53763221128E+02  0.32309323679E+03 -0.80081050940E+03  0.87419983802E+03  0.12509261059E+03 0.  0.
         23    2    1    2    0    0  0.53763221128E+02 -0.32309323679E+03 -0.29912293138E+03  0.45245880477E+03  0.89245270670E+02 0.  0.
          5    1    3    3  502    0 -0.18866149876E+02  0.13773394209E+02 -0.16025341069E+03  0.16200082110E+03  0.41800000000E+01 0.  1.
         -5    1    3    3    0  502 -0.34897071252E+02  0.30931984258E+03 -0.64055709871E+03  0.71219901692E+03  0.41800000000E+01 0.  1.
        -11    1    4    4    0    0 -0.18605481325E+02 -0.42194569516E+02 -0.64977355203E+02  0.79678116953E+02  0.00000000000E+00 0. -1.
         11    1    4    4    0    0  0.72368702454E+02 -0.28089866727E+03 -0.23414557618E+03  0.37278068782E+03  0.00000000000E+00 0.  1.
</event>
<event>
 8    1  0.6185113E-009  0.1383686E+03  0.7561462E-02  0.1215541E+00
         -2   -1    0    0    0  501 -0.00000000000E+00  0.00000000000E+00  0.86996704928E+02  0.86996704928E+02  0.00000000000E+00 0. -1.
          2   -1    0    0  501    0  0.00000000000E+00 -0.00000000000E+00 -0.25538141842E+03  0.25538141842E+03  0.00000000000E+00 0.  1.
         25    2    1    2    0    0  0.87086499005E+02  0.27299334978E+02 -0.42481514345E+02  0.16056164104E+03  0.12508416971E+03 0.  0.
         23    2    1    2    0    0 -0.87086499005E+02 -0.27299334978E+02 -0.12590319914E+03  0.18181648231E+03  0.94214148011E+02 0.  0.
          5    1    3    3  502    0 -0.92819989401E+01 -0.36937912842E+02 -0.43637328042E+01  0.38562669428E+02  0.41800000000E+01 0.  1.
         -5    1    3    3    0  502  0.96368497945E+02  0.64237247820E+02 -0.38117781541E+02  0.12199897161E+03  0.41800000000E+01 0.  1.
        -11    1    4    4    0    0 -0.20412662655E+02  0.28865284396E+02 -0.69525259115E+02  0.77997712113E+02  0.00000000000E+00 0.  1.
         11    1    4    4    0    0 -0.66673836350E+02 -0.56164619374E+02 -0.56377940030E+02  0.10381877020E+03  0.00000000000E+00 0. -1.
</event>
<event>
 8    1  0.6185113E-009  0.1108086E+03  0.7561462E-02  0.1259080E+00
          2   -1    0    0  501    0  0.00000000000E+00  0.00000000000E+00  0.12244368496E+04  0.12244368496E+04  0.00000000000E+00 0. -1.
         -2   -1    0    0    0  501 -0.00000000000E+00 -0.00000000000E+00 -0.11183644057E+02  0.11183644057E+02  0.00000000000E+00 0.  1.
         25    2    1    2    0    0  0.31130458506E+02 -0.18215855074E+02  0.83671920745E+03  0.84678667017E+03  0.12509080643E+03 0.  0.
         23    2    1    2    0    0 -0.31130458506E+02  0.18215855074E+02  0.37653399805E+03  0.38883382343E+03  0.90072014175E+02 0.  0.
          5    1    3    3  502    0 -0.41442317762E+02  0.19368379078E+02  0.38319854355E+03  0.38594195935E+03  0.41800000000E+01 0. -1.
         -5    1    3    3    0  502  0.72572776268E+02 -0.37584234152E+02  0.45352066390E+03  0.46084471082E+03  0.41800000000E+01 0. -1.
        -11    1    4    4    0    0 -0.58678477842E+02 -0.34801978162E+01  0.18492500312E+03  0.19404260439E+03  0.00000000000E+00 0.  1.
         11    1    4    4    0    0  0.27548019336E+02  0.21696052890E+02  0.19160899492E+03  0.19479121904E+03  0.00000000000E+00 0. -1.
</event>
<event>
 8    1  0.6185113E-009  0.8142097E+02  0.7561462E-02  0.1325067E+00
         -2   -1    0    0    0  501 -0.00000000000E+00  0.00000000000E+00  0.26906634172E+02  0.26906634172E+02  0.00000000000E+00 0.  1.
          2   -1    0    0  501    0  0.00000000000E+00 -0.00000000000E+00 -0.53145593304E+03  0.53145593304E+03  0.00000000000E+00 0. -1.
         25    2    1    2    0    0  0.18597710274E+02  0.13386853449E+02 -0.38163868616E+03  0.40226996626E+03  0.12509179152E+03 0.  0.
         23    2    1    2    0    0 -0.18597710274E+02 -0.13386853449E+02 -0.12291061271E+03  0.15609260096E+03  0.93449444539E+02 0.  0.
          5    1    3    3  502    0 -0.45506244877E+02 -0.55138792873E+01 -0.25395276769E+03  0.25809049151E+03  0.41800000000E+01 0. -1.
         -5    1    3    3    0  502  0.64103955151E+02  0.18900732736E+02 -0.12768591847E+03  0.14417947475E+03  0.41800000000E+01 0. -1.
        -11    1    4    4    0    0 -0.29371313631E+02  0.37479008768E+01 -0.13099334101E+03  0.13429808716E+03  0.00000000000E+00 0. -1.
         11    1    4    4    0    0  0.10773603356E+02 -0.17134754326E+02  0.80827282993E+01  0.21794513801E+02  0.00000000000E+00 0.  1.
</event>
<event>
 8    1  0.6185113E-009  0.1079092E+03  0.7561462E-02  0.1264491E+00
         -2   -1    0    0    0  501 -0.00000000000E+00  0.00000000000E+00  0.12230022158E+03  0.12230022158E+03  0.00000000000E+00 0.  1.
          2   -1    0    0  501    0  0.00000000000E+00 -0.00000000000E+00 -0.13884134304E+03  0.13884134304E+03  0.00000000000E+00 0. -1.
         25    2    1    2    0    0 -0.33680735054E+02  0.60472343922E+02 -0.22832754857E+02  0.14477511754E+03  0.12508878315E+03 0.  0.
         23    2    1    2    0    0  0.33680735054E+02 -0.60472343922E+02  0.62916333966E+01  0.11636644707E+03  0.93328822240E+02 0.  0.
          5    1    3    3  502    0 -0.76527065044E+02  0.58740422027E+02 -0.29963463290E+02  0.10110445290E+03  0.41800000000E+01 0.  1.
         -5    1    3    3    0  502  0.42846329989E+02  0.17319218951E+01  0.71307084334E+01  0.43670664636E+02  0.41800000000E+01 0.  1.
        -11    1    4    4    0    0  0.33574980837E+02 -0.28053784859E+02  0.47075076826E+02  0.64267853872E+02  0.00000000000E+00 0.  1.
         11    1    4    4    0    0  0.10575421679E+00 -0.32418559063E+02 -0.40783443429E+02  0.52098593202E+02  0.00000000000E+00 0. -1.
</event>
<event>
 8    1  0.6185113E-009  0.2217023E+03  0.7561462E-02  0.1132620E+00
         -2   -1    0    0    0  501 -0.00000000000E+00  0.00000000000E+00  0.60769707597E+02  0.60769707597E+02  0.00000000000E+00 0.  1.
          2   -1    0    0  501    0  0.00000000000E+00 -0.00000000000E+00 -0.18819936932E+04  0.18819936932E+04  0.00000000000E+00 0. -1.
         25    2    1    2    0    0 -0.19005987310E+03  0.63067399289E+02 -0.16400169024E+04  0.16569252647E+04  0.12508253452E+03 0.  0.
         23    2    1    2    0    0  0.19005987310E+03 -0.63067399289E+02 -0.18120708320E+03  0.28583813609E+03  0.93633225013E+02 0.  0.
          5    1    3    3  502    0 -0.16196415949E+03 -0.29324347066E+01 -0.10258496365E+04  0.10385691779E+04  0.41800000000E+01 0. -1.
         -5    1    3    3    0  502 -0.28095713605E+02  0.65999833996E+02 -0.61416726588E+03  0.61835608680E+03  0.41800000000E+01 0. -1.
        -11    1    4    4    0    0  0.61428374151E+02 -0.51853159550E+02 -0.11614994133E+03  0.14125510319E+03  0.00000000000E+00 0. -1.
         11    1    4    4    0    0  0.12863149895E+03 -0.11214239740E+02 -0.65057141866E+02  0.14458303290E+03  0.00000000000E+00 0.  1.
</event>
<event>
 8    1  0.6185113E-009  0.6843037E+02  0.7561462E-02  0.1365513E+00
          2   -1    0    0  501    0  0.00000000000E+00  0.00000000000E+00  0.19328813552E+03  0.19328813552E+03  0.00000000000E+00 0. -1.
         -2   -1    0    0    0  501 -0.00000000000E+00 -0.00000000000E+00 -0.71345542874E+02  0.71345542874E+02  0.00000000000E+00 0.  1.
         25    2    1    2    0    0 -0.37930528051E+02 -0.11658934596E+02  0.25808607443E+02  0.13373349485E+03  0.12507560798E+03 0.  0.
         23    2    1    2    0    0  0.37930528051E+02  0.11658934596E+02  0.96133985207E+02  0.13090018355E+03  0.79488736483E+02 0.  0.
          5    1    3    3  502    0 -0.25218241787E+01 -0.44801199014E+02 -0.34119758125E+02  0.56525545772E+02  0.41800000000E+01 0.  1.
         -5    1    3    3    0  502 -0.35408703872E+02  0.33142264418E+02  0.59928365569E+02  0.77207949075E+02  0.41800000000E+01 0.  1.
        -11    1    4    4    0    0  0.11360351935E+02  0.12024864134E+02 -0.11426962945E+02  0.20105482726E+02  0.00000000000E+00 0.  1.
         11    1    4    4    0    0  0.26570176116E+02 -0.36592953736E+00  0.10756094815E+03  0.11079470082E+03  0.00000000000E+00 0. -1.
</event>
<event>
 8    1  0.6185113E-009  0.7877343E+02  0.7561462E-02  0.1332569E+00
         -2   -1    0    0    0  501 -0.00000000000E+00  0.00000000000E+00  0.21417118301E+02  0.21417118301E+02  0.00000000000E+00 0.  1.
          2   -1    0    0  501    0  0.00000000000E+00 -0.00000000000E+00 -0.81981697125E+03  0.81981697125E+03  0.00000000000E+00 0. -1.
         25    2    1    2    0    0 -0.20893136149E+02  0.43288094518E+02 -0.60601579596E+03  0.62065528474E+03  0.12508978882E+03 0.  0.
         23    2    1    2    0    0  0.20893136149E+02 -0.43288094518E+02 -0.19238405699E+03  0.22057880481E+03  0.96607460788E+02 0.  0.
          5    1    3    3  502    0 -0.34881101581E+02  0.24952625602E+02 -0.58598017618E+02  0.72735994120E+02  0.41800000000E+01 0. -1.
         -5    1    3    3    0  502  0.13987965432E+02  0.18335468915E+02 -0.54741777834E+03  0.54791929062E+03  0.41800000000E+01 0. -1.
        -11    1    4    4    0    0  0.30123091082E+02 -0.62679709186E+02 -0.79299525832E+02  0.10547303616E+03  0.00000000000E+00 0.  1.
         11    1    4    4    0    0 -0.92299549330E+01  0.19391614668E+02 -0.11308453116E+03  0.11510576865E+03  0.00000000000E+00 0. -1.
</event>
<event>
 8    1  0.6185113E-009  0.9077990E+02  0.7561462E-02  0.1300974E+00
          2   -1    0    0  501    0  0.00000000000E+00  0.00000000000E+00  0.13965090760E+03  0.13965090760E+03  0.00000000000E+00 0. -1.
         -2   -1    0    0    0  501 -0.00000000000E+00 -0.00000000000E+00 -0.84365089316E+02  0.84365089316E+02  0.00000000000E+00 0.  1.
         25    2    1    2    0    0  0.38463393719E+01 -0.49034024940E+01  0.24357626880E+02  0.12759101347E+03  0.12508930829E+03 0.  0.
         23    2    1    2    0    0 -0.38463393719E+01  0.49034024940E+01  0.30928191404E+02  0.96424983450E+02  0.91117433717E+02 0.  0.
          5    1    3    3  502    0  0.31523349459E+01  0.48397083843E+02  0.48686032690E+02  0.68847782239E+02  0.41800000000E+01 0.  1.
         -5    1    3    3    0  502  0.69400442600E+00 -0.53300486337E+02 -0.24328405810E+02  0.58743231228E+02  0.41800000000E+01 0.  1.
        -11    1    4    4    0    0 -0.24351340572E+02  0.35215883984E+02 -0.73787904363E+01  0.43446436226E+02  0.00000000000E+00 0.  1.
         11    1    4    4    0    0  0.20505001200E+02 -0.30312481490E+02  0.38306981840E+02  0.52978547224E+02  0.00000000000E+00 0. -1.
</event>
<event>
 8    1  0.6185113E-009  0.1068274E+03  0.7561462E-02  0.1266560E+00
          2   -1    0    0  501    0  0.00000000000E+00  0.00000000000E+00  0.14468230981E+03  0.14468230981E+03  0.00000000000E+00 0. -1.
         -2   -1    0    0    0  501 -0.00000000000E+00 -0.00000000000E+00 -0.10498777157E+03  0.10498777157E+03  0.00000000000E+00 0.  1.
         25    2    1    2    0    0 -0.45234071274E+02 -0.16781241853E+02  0.27215699129E+02  0.13680739935E+03  0.12509132246E+03 0.  0.
         23    2    1    2    0    0  0.45234071274E+02  0.16781241853E+02  0.12478839110E+02  0.11286268204E+03  0.10126466456E+03 0.  0.
          5    1    3    3  502    0 -0.35561311668E+02  0.36745514063E+02  0.55311804648E+02  0.75443408093E+02  0.41800000000E+01 0. -1.
         -5    1    3    3    0  502 -0.96727596065E+01 -0.53526755916E+02 -0.28096105519E+02  0.61363991254E+02  0.41800000000E+01 0. -1.
        -11    1    4    4    0    0  0.73720593538E+02 -0.18718418767E+01 -0.62372876310E+01  0.74007658122E+02  0.00000000000E+00 0.  1.
         11    1    4    4    0    0 -0.28486522264E+02  0.18653083730E+02  0.18716126741E+02  0.38855023916E+02  0.00000000000E+00 0. -1.
</event>
<event>
 8    1  0.6185113E-009  0.1241097E+03  0.7561462E-02  0.1236467E+00
          2   -1    0    0  501    0  0.00000000000E+00  0.00000000000E+00  0.72992831652E+03  0.72992831652E+03  0.00000000000E+00 0.  1.
         -2   -1    0    0    0  501 -0.00000000000E+00 -0.00000000000E+00 -0.26286604028E+02  0.26286604028E+02  0.00000000000E+00 0. -1.
         25    2    1    2    0    0 -0.36967372440E+02  0.70996677044E+02  0.30958487504E+03  0.34336246895E+03  0.12509146835E+03 0.  0.
         23    2    1    2    0    0  0.36967372440E+02 -0.70996677044E+02  0.39405683745E+03  0.41285245160E+03  0.93590816173E+02 0.  0.
          5    1    3    3  502    0 -0.30920031613E+02 -0.18341460535E+02  0.19266091308E+03  0.19603101122E+03  0.41800000000E+01 0. -1.
         -5    1    3    3    0  502 -0.60473408268E+01  0.89338137580E+02  0.11692396196E+03  0.14733145773E+03  0.41800000000E+01 0. -1.
        -11    1    4    4    0    0 -0.25342750140E+02 -0.50994128819E+02  0.16059286097E+03  0.17038991505E+03  0.00000000000E+00 0. -1.
         11    1    4    4    0    0  0.62310122580E+02 -0.20002548225E+02  0.23346397648E+03  0.24246253654E+03  0.00000000000E+00 0.  1.
</event>
<event>
 7    1  0.6185113E-009  0.1248144E+03  0.7561462E-02  0.1235360E+00
          1   -1    0    0  501    0  0.00000000000E+00  0.00000000000E+00  0.20354817736E+02  0.20354817736E+02  0.00000000000E+00 0. -1.
         -1   -1    0    0    0  501 -0.00000000000E+00 -0.00000000000E+00 -0.77577308428E+03  0.77577308428E+03  0.00000000000E+00 0.  1.
         25    2    1    2    0    0  0.31362336144E+02 -0.79004230665E+02 -0.44532695025E+03  0.47030727887E+03  0.12509028482E+03 0.  0.
          5    1    3    3  502    0  0.48846789177E+01  0.33816416817E+02 -0.12431321650E+03  0.12899092345E+03  0.41800000000E+01 0.  1.
         -5    1    3    3    0  502  0.26477657226E+02 -0.11282064748E+03 -0.32101373375E+03  0.34131635543E+03  0.41800000000E+01 0.  1.
        -11    1    1    2    0    0 -0.44716149420E+02  0.48621278821E+02 -0.18659314015E+03  0.19794080611E+03  0.00000000000E+00 0.  1.
         11    1    1    2    0    0  0.13353813276E+02  0.30382951843E+02 -0.12349817616E+03  0.12787981704E+03  0.00000000000E+00 0. -1.
</event>
<event>
 8    1  0.6185113E-009  0.2924288E+03  0.7561462E-02  0.1089088E+00
         -1   -1    0    0    0  501 -0.00000000000E+00  0.00000000000E+00  0.82407623210E+02  0.82407623210E+02  0.00000000000E+00 0.  1.
          1   -1    0    0  501    0  0.00000000000E+00 -0.00000000000E+00 -0.11722358848E+04  0.11722358848E+04  0.00000000000E+00 0. -1.
         25    2    1    2    0    0  0.26998852123E+03 -0.44797637510E+02 -0.35572114996E+03  0.46592348741E+03  0.12508608904E+03 0.  0.
         23    2    1    2    0    0 -0.26998852123E+03  0.44797637510E+02 -0.73410711160E+03  0.78872002057E+03  0.90914188243E+02 0.  0.
          5    1    3    3  502    0  0.31198480869E+02  0.36621518569E+02 -0.64980940213E+02  0.80959717278E+02  0.41800000000E+01 0.  1.
         -5    1    3    3    0  502  0.23879004036E+03 -0.81419156079E+02 -0.29074020975E+03  0.38496377013E+03  0.41800000000E+01 0.  1.
        -11    1    4    4    0    0 -0.79710876966E+02  0.49640596135E+02 -0.18331335662E+03  0.20596552966E+03  0.00000000000E+00 0.  1.
         11    1    4    4    0    0 -0.19027764426E+03 -0.48429586250E+01 -0.55079375498E+03  0.58275449091E+03  0.00000000000E+00 0. -1.
</event>
<event>
 8    1  0.6185113E-009  0.7708913E+02  0.7561462E-02  0.1337521E+00
         -1   -1    0    0    0  501 -0.00000000000E+00  0.00000000000E+00  0.90421794682E+02  0.90421794682E+02  0.00000000000E+00 0.  1.
          1   -1    0    0  501    0  0.00000000000E+00 -0.00000000000E+00 -0.14797255729E+03  0.14797255729E+03  0.00000000000E+00 0. -1.
         25    2    1    2    0    0 -0.26163745244E+02  0.87454937818E+01 -0.24508036593E+01  0.12811740791E+03  0.12508812312E+03 0.  0.
         23    2    1    2    0    0  0.26163745244E+02 -0.87454937818E+01 -0.55099958951E+02  0.11027694406E+03  0.91454763072E+02 0.  0.
          5    1    3    3  502    0 -0.75409579988E+02  0.13585134188E+02 -0.11639484967E+02  0.77615144368E+02  0.41800000000E+01 0.  1.
         -5    1    3    3    0  502  0.49245834744E+02 -0.48396404062E+01  0.91886813082E+01  0.50502263544E+02  0.41800000000E+01 0.  1.
        -11    1    4    4    0    0  0.13815576682E+02 -0.28866910467E+01  0.25167099382E+02  0.28854566979E+02  0.00000000000E+00 0.  1.
         11    1    4    4    0    0  0.12348168562E+02 -0.58588027351E+01 -0.80267058333E+02  0.81422377083E+02  0.00000000000E+00 0. -1.
</event>
<event>
 8    1  0.6185113E-009  0.1626598E+03  0.7561462E-02  0.1185726E+00
          1   -1    0    0  501    0  0.00000000000E+00  0.00000000000E+00  0.12715949583E+03  0.12715949583E+03  0.00000000000E+00 0. -1.
         -1   -1    0    0    0  501 -0.00000000000E+00 -0.00000000000E+00 -0.22999926161E+03  0.22999926161E+03  0.00000000000E+00 0.  1.
         25    2    1    2    0    0  0.37762144532E+02 -0.12603929773E+03 -0.63284796972E+02  0.19226236268E+03  0.12509183205E+03 0.  0.
         23    2    1    2    0    0 -0.37762144532E+02  0.12603929773E+03 -0.39554968817E+02  0.16489639476E+03  0.91183010018E+02 0.  0.
          5    1    3    3  502    0 -0.17920355920E+02 -0.12425013525E+03 -0.46347841279E+02  0.13388364372E+03  0.41800000000E+01 0.  1.
         -5    1    3    3    0  502  0.55682500452E+02 -0.17891624772E+01 -0.16936955693E+02  0.58378718957E+02  0.41800000000E+01 0.  1.
        -11    1    4    4    0    0 -0.23267072003E+02  0.75319125334E+01  0.19892281366E+02  0.31524422341E+02  0.00000000000E+00 0. -1.
         11    1    4    4    0    0 -0.14495072529E+02  0.11850738519E+03 -0.59447250183E+02  0.13337197242E+03  0.00000000000E+00 0.  1.
</event>
<event>
 8    1  0.6185113E-009  0.6190968E+02  0.7561462E-02  0.1389988E+00
         -4   -1    0    0    0  501 -0.00000000000E+00  0.00000000000E+00  0.73820906232E+02  0.73820906232E+02  0.00000000000E+00 0.  1.
          4   -1    0    0  501    0  0.00000000000E+00 -0.00000000000E+00 -0.18465696659E+03  0.18465696659E+03  0.00000000000E+00 0. -1.
         25    2    1    2    0    0 -0.32930492988E+02  0.10354726824E+02 -0.87392295040E+02  0.15644593695E+03  0.12508509192E+03 0.  0.
         23    2    1    2    0    0  0.32930492988E+02 -0.10354726824E+02 -0.23443765323E+02  0.10203193587E+03  0.93108904353E+02 0.  0.
          5    1    3    3  502    0 -0.16071028358E+02 -0.83198551018E+01 -0.11637025129E+03  0.11784314034E+03  0.41800000000E+01 0.  1.
         -5    1    3    3    0  502 -0.16859464630E+02  0.18674581926E+02  0.28977956247E+02  0.38602796608E+02  0.41800000000E+01 0.  1.
        -11    1    4    4    0    0  0.46329376176E+02 -0.30557890262E+02 -0.43542144067E+02  0.70541576847E+02  0.00000000000E+00 0. -1.
         11    1    4    4    0    0 -0.13398883188E+02  0.20203163438E+02  0.20098378744E+02  0.31490359028E+02  0.00000000000E+00 0.  1.
</event>
<event>
 8    1  0.6185113E-009  0.9436951E+02  0.7561462E-02  0.1292602E+00
          1   -1    0    0  501    0  0.00000000000E+00  0.00000000000E+00  0.22778081226E+03  0.22778081226E+03  0.00000000000E+00 0. -1.
         -1   -1    0    0    0  501 -0.00000000000E+00 -0.00000000000E+00 -0.77024269765E+02  0.77024269765E+02  0.00000000000E+00 0.  1.
         25    2    1    2    0    0  0.23707545538E+01 -0.56721140396E+02  0.27575041322E+02  0.14010771139E+03  0.12508748796E+03 0.  0.
         23    2    1    2    0    0 -0.23707545538E+01  0.56721140396E+02  0.12318150118E+03  0.16469737063E+03  0.93427155672E+02 0.  0.
          5    1    3    3  502    0 -0.37645392755E+02 -0.31524424201E+02  0.63640389267E+02  0.80489356209E+02  0.41800000000E+01 0.  1.
         -5    1    3    3    0  502  0.40016147309E+02 -0.25196716195E+02 -0.36065347945E+02  0.59618355185E+02  0.41800000000E+01 0.  1.
        -11    1    4    4    0    0 -0.36959274708E+02  0.36383246520E+02  0.11139668878E+03  0.12287778842E+03  0.00000000000E+00 0. -1.
         11    1    4    4    0    0  0.34588520154E+02  0.20337893877E+02  0.11784812393E+02  0.41819582218E+02  0.00000000000E+00 0.  1.
</event>
<event>
 7    1  0.6185113E-009  0.9354380E+02  0.7561462E-02  0.1294490E+00
          3   -1    0    0  501    0  0.00000000000E+00  0.00000000000E+00  0.15197079231E+02  0.15197079231E+02  0.00000000000E+00 0. -1.
         -3   -1    0    0    0  501 -0.00000000000E+00 -0.00000000000E+00 -0.12382894387E+04  0.12382894387E+04  0.00000000000E+00 0.  1.
         23    2    1    2    0    0  0.46847482952E+02 -0.54281652550E+02 -0.35744690573E+03  0.37596206470E+03  0.91858582679E+02 0.  0.
          5    1    1    2  502    0 -0.52719360949E+02  0.56872419122E+02 -0.24896774779E+03  0.26079918503E+03  0.41800000000E+01 0. -1.
         -5    1    1    2    0  502  0.58718779964E+01 -0.25907665719E+01 -0.61667770597E+03  0.61672526822E+03  0.41800000000E+01 0. -1.
        -11    1    3    3    0    0 -0.19464911789E+02 -0.88361336880E+01 -0.20714725189E+02  0.29766758123E+02  0.00000000000E+00 0. -1.
         11    1    3    3    0    0  0.66312394741E+02 -0.45445518862E+02 -0.33673218054E+03  0.34619530657E+03  0.00000000000E+00 0.  1.
</event>
<event>
 8    1  0.6185113E-009  0.2011577E+03  0.7561462E-02  0.1148766E+00
          1   -1    0    0  501    0  0.00000000000E+00  0.00000000000E+00  0.41775654729E+03  0.41775654729E+03  0.00000000000E+00 0. -1.
         -1   -1    0    0    0  501 -0.00000000000E+00 -0.00000000000E+00 -0.13522149958E+03  0.13522149958E+03  0.00000000000E+00 0.  1.
         25    2    1    2    0    0 -0.17994786337E+03  0.23919765982E+01  0.27732213955E+03  0.35347143028E+03  0.12509007897E+03 0.  0.
         23    2    1    2    0    0  0.17994786337E+03 -0.23919765982E+01  0.52129081683E+01  0.19950661659E+03  0.85957899964E+02 0.  0.
          5    1    3    3  502    0 -0.19581388315E+03  0.11580932819E+01  0.22343391248E+03  0.29712725163E+03  0.41800000000E+01 0.  1.
         -5    1    3    3    0  502  0.15866019776E+02  0.12338833163E+01  0.53888227070E+02  0.56344178655E+02  0.41800000000E+01 0.  1.
        -11    1    4    4    0    0  0.48500355383E+02 -0.28113251417E+02  0.29553817061E+02  0.63372450484E+02  0.00000000000E+00 0. -1.
         11    1    4    4    0    0  0.13144750799E+03  0.25721274819E+02 -0.24340908893E+02  0.13613416610E+03  0.00000000000E+00 0.  1.
</event>
<event>
 8    1  0.6185113E-009  0.8166111E+02  0.7561462E-02  0.1324402E+00
          2   -1    0    0  501    0  0.00000000000E+00  0.00000000000E+00  0.13139711973E+03  0.13139711973E+03  0.00000000000E+00 0. -1.
         -2   -1    0    0    0  501 -0.00000000000E+00 -0.00000000000E+00 -0.13981539025E+03  0.13981539025E+03  0.00000000000E+00 0.  1.
         25    2    1    2    0    0 -0.47896254237E+02  0.34884560314E+02 -0.60273320836E+02  0.15097276191E+03  0.12509563508E+03 0.  0.
         23    2    1    2    0    0  0.47896254237E+02 -0.34884560314E+02  0.51855050321E+02  0.12023974807E+03  0.90871706568E+02 0.  0.
          5    1    3    3  502    0 -0.91739584901E+01 -0.17756019261E+01 -0.89457911554E+02  0.90041682659E+02  0.41800000000E+01 0.  1.
         -5    1    3    3    0  502 -0.38722295747E+02  0.36660162240E+02  0.29184590717E+02  0.60931079251E+02  0.41800000000E+01 0.  1.
        -11    1    4    4    0    0  0.56710670217E+02 -0.54150858730E+02  0.58727639031E+02  0.97966071697E+02  0.00000000000E+00 0.  1.
         11    1    4    4    0    0 -0.88144159798E+01  0.19266298415E+02 -0.68725887100E+01  0.22273676375E+02  0.00000000000E+00 0. -1.
</event>
<event>
 8    1  0.6185113E-009  0.5136318E+02  0.7561462E-02  0.1438125E+00
         -2   -1    0    0    0  501 -0.00000000000E+00  0.00000000000E+00  0.86731371284E+02  0.86731371284E+02  0.00000000000E+00 0.  1.
          2   -1    0    0  501    0  0.00000000000E+00 -0.00000000000E+00 -0.39321046105E+03  0.39321046105E+03  0.00000000000E+00 0. -1.
         25    2    1    2    0    0  0.23230802590E+02 -0.10648589340E+02 -0.35205995603E+03  0.37449613465E+03  0.12509228428E+03 0.  0.
         23    2    1    2    0    0 -0.23230802590E+02  0.10648589340E+02  0.45580866259E+02  0.10544569769E+03  0.91586664683E+02 0.  0.
          5    1    3    3  502    0  0.27910257397E+02 -0.91631791526E+01 -0.84857253403E+01  0.30861403965E+02  0.41800000000E+01 0. -1.
         -5    1    3    3    0  502 -0.46794548073E+01 -0.14854101878E+01 -0.34357423069E+03  0.34363473068E+03  0.41800000000E+01 0. -1.
        -11    1    4    4    0    0 -0.49060676535E+01 -0.25559185881E+02 -0.16835982737E+02  0.30996641712E+02  0.00000000000E+00 0. -1.
         11    1    4    4    0    0 -0.18324734936E+02  0.36207775221E+02  0.62416848996E+02  0.74449055975E+02  0.00000000000E+00 0.  1.
</event>
<event>
 8    1  0.6185113E-009  0.8502085E+02  0.7561462E-02  0.1315378E+00
          2   -1    0    0  501    0  0.00000000000E+00  0.00000000000E+00  0.33600499576E+03  0.33600499576E+03  0.00000000000E+00 0. -1.
         -2   -1    0    0    0  501 -0.00000000000E+00 -0.00000000000E+00 -0.37523969640E+02  0.37523969640E+02  0.00000000000E+00 0.  1.
         25    2    1    2    0    0 -0.10888923591E+02 -0.14319262531E+02  0.23037405594E+03  0.26275735536E+03  0.12508242167E+03 0.  0.
         23    2    1    2    0    0  0.10888923591E+02  0.14319262531E+02  0.68106970185E+02  0.11077161004E+03  0.85487895443E+02 0.  0.
          5    1    3    3  502    0  0.31641222159E+02 -0.31410319600E+02  0.20573363203E+03  0.21055064679E+03  0.41800000000E+01 0. -1.
         -5    1    3    3    0  502 -0.42530145750E+02  0.17091057069E+02  0.24640423913E+02  0.52206708571E+02  0.41800000000E+01 0. -1.
        -11    1    4    4    0    0  0.34445646032E+02 -0.18295871878E+02  0.10296584847E+02  0.40339324707E+02  0.00000000000E+00 0.  1.
         11    1    4    4    0    0 -0.23556722441E+02  0.32615134409E+02  0.57810385338E+02  0.70432285335E+02  0.00000000000E+00 0. -1.
</event>
<event>
 8    1  0.6185113E-009  0.1257327E+03  0.7561462E-02  0.1233929E+00
          2   -1    0    0  501    0  0.00000000000E+00  0.00000000000E+00  0.68637469196E+02  0.68637469196E+02  0.00000000000E+00 0. -1.
         -2   -1    0    0    0  501 -0.00000000000E+00 -0.00000000000E+00 -0.27874013062E+03  0.27874013062E+03  0.00000000000E+00 0.  1.
         25    2    1    2    0    0  0.83902015688E+02 -0.13365405045E+02 -0.12500947776E+03  0.19619850120E+03  0.12509316550E+03 0.  0.
         23    2    1    2    0    0 -0.83902015688E+02  0.13365405045E+02 -0.85093183655E+02  0.15117909861E+03  0.91630167863E+02 0.  0.
          5    1    3    3  502    0  0.11243630092E+03 -0.21808749238E+01 -0.68406067051E+02  0.13169487610E+03  0.41800000000E+01 0.  1.
         -5    1    3    3    0  502 -0.28534285234E+02 -0.11184530121E+02 -0.56603410712E+02  0.64503625108E+02  0.41800000000E+01 0.  1.
        -11    1    4    4    0    0 -0.79072630271E+02  0.34534937233E+02 -0.94100442193E+02  0.12767159421E+03  0.00000000000E+00 0.  1.
         11    1    4    4    0    0 -0.48293854171E+01 -0.21169532188E+02  0.90072585373E+01  0.23507504396E+02  0.00000000000E+00 0. -1.
</event>
<event>
 8    1  0.6185113E-009  0.7683611E+02  0.7561462E-02  0.1338278E+00
         -2   -1    0    0    0  501 -0.00000000000E+00  0.00000000000E+00  0.19787178184E+02  0.19787178184E+02  0.00000000000E+00 0. -1.
          2   -1    0    0  501    0  0.00000000000E+00 -0.00000000000E+00 -0.78514398530E+03  0.78514398530E+03  0.00000000000E+00 0.  1.
         25    2    1    2    0    0 -0.48101937411E+02 -0.39225559829E+02 -0.45739149127E+03  0.47823251191E+03  0.12508764224E+03 0.  0.
         23    2    1    2    0    0  0.48101937411E+02  0.39225559829E+02 -0.30796531585E+03  0.32669865157E+03  0.89648938897E+02 0.  0.
          5    1    3    3  502    0 -0.34146722750E+02 -0.47762529012E+02 -0.45757616386E+03  0.46134658987E+03  0.41800000000E+01 0. -1.
         -5    1    3    3    0  502 -0.13955214661E+02  0.85369691833E+01  0.18467259835E+00  0.16885922037E+02  0.41800000000E+01 0. -1.
        -11    1    4    4    0    0 -0.57127839620E+01  0.19967385292E+02 -0.95502379775E+01  0.22859121186E+02  0.00000000000E+00 0. -1.
         11    1    4    4    0    0  0.53814721373E+02  0.19258174537E+02 -0.29841507787E+03  0.30383953039E+03  0.00000000000E+00 0.  1.
</event>
<event>
 8    1  0.6185113E-009  0.1135643E+03  0.7561462E-02  0.1254108E+00
          2   -1    0    0  501    0  0.00000000000E+00  0.00000000000E+00  0.25476445185E+03  0.25476445185E+03  0.00000000000E+00 0. -1.
         -2   -1    0    0    0  501 -0.00000000000E+00 -0.00000000000E+00 -0.68236284932E+02  0.68236284932E+02  0.00000000000E+00 0.  1.
         25    2    1    2    0    0  0.44716514618E+02  0.34892021893E+02  0.16216211189E+03  0.21252436569E+03  0.12511209218E+03 0.  0.
         23    2    1    2    0    0 -0.44716514618E+02 -0.34892021893E+02  0.24366055033E+02  0.11047637109E+03  0.91620434731E+02 0.  0.
          5    1    3    3  502    0  0.82536925509E+02  0.15209943385E+01  0.12448969813E+03  0.14943163934E+03  0.41800000000E+01 0.  1.
         -5    1    3    3    0  502 -0.37820410891E+02  0.33371027555E+02  0.37672413759E+02  0.63092726351E+02  0.41800000000E+01 0.  1.
        -11    1    4    4    0    0  0.44730277392E+01  0.19801997811E+02 -0.16648924506E+02  0.26254785881E+02  0.00000000000E+00 0.  1.
         11    1    4    4    0    0 -0.49189542357E+02 -0.54694019704E+02  0.41014979539E+02  0.84221585210E+02  0.00000000000E+00 0. -1.
</event>
<event>
 8    1  0.6185113E-009  0.9137072E+02  0.7561462E-02  0.1299566E+00
         -2   -1    0    0    0  501 -0.00000000000E+00  0.00000000000E+00  0.13037077907E+02  0.13037077907E+02  0.00000000000E+00 0.  1.
          2   -1    0    0  501    0  0.00000000000E+00 -0.00000000000E+00 -0.96497136738E+03  0.96497136738E+03  0.00000000000E+00 0. -1.
         25    2    1    2    0    0  0.17850286610E+02  0.10735910116E+02 -0.62908978070E+03  0.64175514756E+03  0.12514721229E+03 0.  0.
         23    2    1    2    0    0 -0.17850286610E+02 -0.10735910116E+02 -0.32284450877E+03  0.33625329772E+03  0.91672301638E+02 0.  0.
          5    1    3    3  502    0  0.49978825790E+02  0.29251225552E+02 -0.14446270008E+03  0.15569348521E+03  0.41800000000E+01 0.  1.
         -5    1    3    3    0  502 -0.32128539179E+02 -0.18515315436E+02 -0.48462708062E+03  0.48606166235E+03  0.41800000000E+01 0.  1.
        -11    1    4    4    0    0 -0.10808710497E+01  0.36872883078E+02 -0.78307992258E+02  0.86561651095E+02  0.00000000000E+00 0.  1.
         11    1    4    4    0    0 -0.16769415561E+02 -0.47608793194E+02 -0.24453651652E+03  0.24969164663E+03  0.00000000000E+00 0. -1.
</event>
<event>
 8    1  0.6185113E-009  0.1218836E+03  0.7561462E-02  0.1240022E+00
         -3   -1    0    0    0  501 -0.00000000000E+00  0.00000000000E+00  0.46605115866E+02  0.46605115866E+02  0.00000000000E+00 0.  1.
          3   -1    0    0  501    0  0.00000000000E+00 -0.00000000000E+00 -0.48387228657E+03  0.48387228657E+03  0.00000000000E+00 0. -1.
         25    2    1    2    0    0 -0.57755835270E+02 -0.85334444947E+02 -0.25562974308E+03  0.30267595968E+03  0.12509383286E+03 0.  0.
         23    2    1    2    0    0  0.57755835270E+02  0.85334444947E+02 -0.18163742762E+03  0.22780144275E+03  0.91014494476E+02 0.  0.
          5    1    3    3  502    0 -0.13989451834E+02 -0.46824994874E+02 -0.23596734334E+03  0.24101108777E+03  0.41800000000E+01 0. -1.
         -5    1    3    3    0  502 -0.43766383436E+02 -0.38509450073E+02 -0.19662399744E+02  0.61664871910E+02  0.41800000000E+01 0. -1.
        -11    1    4    4    0    0  0.65124722489E+02  0.16684161782E+02 -0.74554542065E+02  0.10038909540E+03  0.00000000000E+00 0.  1.
         11    1    4    4    0    0 -0.73688872189E+01  0.68650283165E+02 -0.10708288555E+03  0.12741234734E+03  0.00000000000E+00 0. -1.
</event>
<event>
 8    1  0.6185113E-009  0.1293443E+03  0.7561462E-02  0.1228432E+00
          2   -1    0    0  501    0  0.00000000000E+00  0.00000000000E+00  0.53068832659E+02  0.53068832659E+02  0.00000000000E+00 0.  1.
         -2   -1    0    0    0  501 -0.00000000000E+00 -0.00000000000E+00 -0.45480093661E+03  0.45480093661E+03  0.00000000000E+00 0. -1.
         25    2    1    2    0    0  0.64348379881E+02 -0.38071783863E+02 -0.82375143708E+02  0.16740394691E+03  0.12509293513E+03 0.  0.
         23    2    1    2    0    0 -0.64348379881E+02  0.38071783863E+02 -0.31935696025E+03  0.34046582236E+03  0.91312285154E+02 0.  0.
          5    1    3    3  502    0 -0.48213463209E+01  0.39783712057E+02 -0.32957875429E+02  0.52054616301E+02  0.41800000000E+01 0. -1.
         -5    1    3    3    0  502  0.69169726202E+02 -0.77855495920E+02 -0.49417268278E+02  0.11534933061E+03  0.41800000000E+01 0. -1.
        -11    1    4    4    0    0  0.15433622744E+02 -0.12369291102E+02 -0.28611832359E+02  0.34782654072E+02  0.00000000000E+00 0.  1.
         11    1    4    4    0    0 -0.79782002625E+02  0.50441074964E+02 -0.29074512789E+03  0.30568316829E+03  0.00000000000E+00 0. -1.
</event>
<event>
 8    1  0.6185113E-009  0.1340023E+03  0.7561462E-02  0.1221635E+00
         -4   -1    0    0    0  501 -0.00000000000E+00  0.00000000000E+00  0.15619212584E+03  0.15619212584E+03  0.00000000000E+00 0. -1.
          4   -1    0    0  501    0  0.00000000000E+00 -0.00000000000E+00 -0.15715350244E+03  0.15715350244E+03  0.00000000000E+00 0.  1.
         25    2    1    2    0    0  0.27527732906E+02 -0.76346215360E+02  0.77327323998E+02  0.16797010039E+03  0.12509164204E+03 0.  0.
         23    2    1    2    0    0 -0.27527732906E+02  0.76346215360E+02 -0.78288700598E+02  0.14537552790E+03  0.91751854431E+02 0.  0.
          5    1    3    3  502    0  0.99544634685E+01 -0.10979130804E+03  0.49812567472E+02  0.12104539208E+03  0.41800000000E+01 0. -1.
         -5    1    3    3    0  502  0.17573269438E+02  0.33445092685E+02  0.27514756526E+02  0.46924708312E+02  0.41800000000E+01 0. -1.
        -11    1    4    4    0    0  0.13804715062E+02 -0.14405064453E+02 -0.24677154323E+01  0.20103871749E+02  0.00000000000E+00 0.  1.
         11    1    4    4    0    0 -0.41332447969E+02  0.90751279813E+02 -0.75820985166E+02  0.12527165615E+03  0.00000000000E+00 0. -1.
</event>
<event>
 8    1  0.6185113E-009  0.1554100E+03  0.7561462E-02  0.1193978E+00
         -2   -1    0    0    0  501 -0.00000000000E+00  0.00000000000E+00  0.17646176541E+03  0.17646176541E+03  0.00000000000E+00 0.  1.
          2   -1    0    0  501    0  0.00000000000E+00 -0.00000000000E+00 -0.17128534733E+03  0.17128534733E+03  0.00000000000E+00 0. -1.
         25    2    1    2    0    0 -0.73157959906E+02  0.10161834050E+03  0.54174534850E+02  0.18509682081E+03  0.12509028189E+03 0.  0.
         23    2    1    2    0    0  0.73157959906E+02 -0.10161834050E+03 -0.48998116763E+02  0.16265029193E+03  0.91520095044E+02 0.  0.
          5    1    3    3  502    0 -0.10384424413E+03  0.76713805660E+02  0.16301184938E+02  0.13019921677E+03  0.41800000000E+01 0.  1.
         -5    1    3    3    0  502  0.30686284227E+02  0.24904534837E+02  0.37873349912E+02  0.54897604034E+02  0.41800000000E+01 0.  1.
        -11    1    4    4    0    0  0.42230454977E+02 -0.10261032222E+03 -0.79494362716E+01  0.11124514862E+03  0.00000000000E+00 0.  1.
         11    1    4    4    0    0  0.30927504930E+02  0.99198172832E+00 -0.41048680491E+02  0.51405143313E+02  0.00000000000E+00 0. -1.
</event>
<event>
 8    1  0.6185113E-009  0.1120725E+03  0.7561462E-02  0.1256779E+00
         -3   -1    0    0    0  501 -0.00000000000E+00  0.00000000000E+00  0.54566269537E+02  0.54566269537E+02  0.00000000000E+00 0.  1.
          3   -1    0    0  501    0  0.00000000000E+00 -0.00000000000E+00 -0.32236667820E+03  0.32236667820E+03  0.00000000000E+00 0. -1.
         25    2    1    2    0    0 -0.71725704752E+02 -0.20688570373E+02 -0.16487422092E+03  0.22001287459E+03  0.12509821180E+03 0.  0.
         23    2    1    2    0    0  0.71725704752E+02  0.20688570373E+02 -0.10292618774E+03  0.15692007314E+03  0.91964751759E+02 0.  0.
          5    1    3    3  502    0 -0.23201299267E+02 -0.61381655268E+02 -0.32798152809E+02  0.73479242775E+02  0.41800000000E+01 0. -1.
         -5    1    3    3    0  502 -0.48524405486E+02  0.40693084894E+02 -0.13207606811E+03  0.14653363182E+03  0.41800000000E+01 0. -1.
        -11    1    4    4    0    0  0.18440623083E+02  0.35166552307E+02  0.46180199830E+00  0.39710908349E+02  0.00000000000E+00 0.  1.
         11    1    4    4    0    0  0.53285081669E+02 -0.14477981933E+02 -0.10338798974E+03  0.11720916479E+03  0.00000000000E+00 0. -1.
</event>
<event>
 8    1  0.6185113E-009  0.1701097E+03  0.7561462E-02  0.1177733E+00
          2   -1    0    0  501    0  0.00000000000E+00  0.00000000000E+00  0.64235626261E+03  0.64235626261E+03  0.00000000000E+00 0. -1.
         -2   -1    0    0    0  501 -0.00000000000E+00 -0.00000000000E+00 -0.65064456886E+02  0.65064456886E+02  0.00000000000E+00 0.  1.
         25    2    1    2    0    0  0.78711002462E+01 -0.15479538128E+03  0.16897542199E+03  0.26119091246E+03  0.12507771676E+03 0.  0.
         23    2    1    2    0    0 -0.78711002462E+01  0.15479538128E+03  0.40831638374E+03  0.44622980704E+03  0.91516158000E+02 0.  0.
          5    1    3    3  502    0  0.31228084435E+02 -0.42292648153E+02 -0.46540106486E+01  0.52943305152E+02  0.41800000000E+01 0.  1.
         -5    1    3    3    0  502 -0.23356984189E+02 -0.11250273313E+03  0.17362943264E+03  0.20824760731E+03  0.41800000000E+01 0.  1.
        -11    1    4    4    0    0  0.34129534759E+02  0.69420688417E+02  0.24821392061E+03  0.25998886035E+03  0.00000000000E+00 0. -1.
         11    1    4    4    0    0 -0.42000635005E+02  0.85374692864E+02  0.16010246313E+03  0.18624094669E+03  0.00000000000E+00 0.  1.
</event>
<event>
 8    1  0.6185113E-009  0.1446389E+03  0.7561462E-02  0.1207220E+00
          1   -1    0    0  501    0  0.00000000000E+00  0.00000000000E+00  0.71700659113E+03  0.71700659113E+03  0.00000000000E+00 0. -1.
         -1   -1    0    0    0  501 -0.00000000000E+00 -0.00000000000E+00 -0.33713755666E+02  0.33713755666E+02  0.00000000000E+00 0.  1.
         25    2    1    2    0    0 -0.86209514967E+01  0.11162993306E+03  0.35925688420E+03  0.39654587158E+03  0.12509019411E+03 0.  0.
         23    2    1    2    0    0  0.86209514967E+01 -0.11162993306E+03  0.32403595126E+03  0.35417447521E+03  0.88908370930E+02 0.  0.
          5    1    3    3  502    0  0.17598372323E+02  0.11787378870E+03  0.18458086051E+03  0.21975326900E+03  0.41800000000E+01 0.  1.
         -5    1    3    3    0  502 -0.26219323820E+02 -0.62438556349E+01  0.17467602369E+03  0.17679260258E+03  0.41800000000E+01 0.  1.
        -11    1    4    4    0    0 -0.39752764458E+02 -0.60233971432E+02  0.17363413603E+03  0.18803517434E+03  0.00000000000E+00 0.  1.
         11    1    4    4    0    0  0.48373715955E+02 -0.51395961631E+02  0.15040181523E+03  0.16613930087E+03  0.00000000000E+00 0. -1.
</event>
<event>
 8    1  0.6185113E-009  0.8852519E+02  0.7561462E-02  0.1306463E+00
         -1   -1    0    0    0  501 -0.00000000000E+00  0.00000000000E+00  0.38734676548E+02  0.38734676548E+02  0.00000000000E+00 0.  1.
          1   -1    0    0  501    0  0.00000000000E+00 -0.00000000000E+00 -0.44040733959E+03  0.44040733959E+03  0.00000000000E+00 0. -1.
         25    2    1    2    0    0  0.36062618045E+02  0.48909439528E+02 -0.15128764611E+03  0.20549286771E+03  0.12508685429E+03 0.  0.
         23    2    1    2    0    0 -0.36062618045E+02 -0.48909439528E+02 -0.25038501693E+03  0.27364914843E+03  0.92187602415E+02 0.  0.
          5    1    3    3  502    0  0.39738789463E+02  0.42823578290E+02 -0.17279852909E+03  0.18245501994E+03  0.41800000000E+01 0. -1.
         -5    1    3    3    0  502 -0.36761714184E+01  0.60858612379E+01  0.21510882977E+02  0.23037847767E+02  0.41800000000E+01 0. -1.
        -11    1    4    4    0    0  0.26133442661E+02 -0.39450143872E+02 -0.11530922220E+03  0.12464143533E+03  0.00000000000E+00 0.  1.
         11    1    4    4    0    0 -0.62196060706E+02 -0.94592956561E+01 -0.13507579473E+03  0.14900771310E+03  0.00000000000E+00 0. -1.
</event>
<event>
 8    1  0.6185113E-009  0.1033952E+03  0.7561462E-02  0.1273314E+00
         -2   -1    0    0    0  501 -0.00000000000E+00  0.00000000000E+00  0.51981927240E+02  0.51981927240E+02  0.00000000000E+00 0. -1.
          2   -1    0    0  501    0  0.00000000000E+00 -0.00000000000E+00 -0.25512827585E+03  0.25512827585E+03  0.00000000000E+00 0.  1.
         25    2    1    2    0    0 -0.13152458510E+02  0.10624028126E+02 -0.69384295843E+02  0.14403847255E+03  0.12508814462E+03 0.  0.
         23    2    1    2    0    0  0.13152458510E+02 -0.10624028126E+02 -0.13376205277E+03  0.16307173054E+03  0.91729196025E+02 0.  0.
          5    1    3    3  502    0 -0.21326829672E+02 -0.55076919253E+02 -0.25307615472E+02  0.64391369757E+02  0.41800000000E+01 0.  1.
         -5    1    3    3    0  502  0.81743711616E+01  0.65700947379E+02 -0.44076680371E+02  0.79647102791E+02  0.41800000000E+01 0.  1.
        -11    1    4    4    0    0  0.33304743826E+01  0.34703000375E+02 -0.99440019060E+02  0.10537413196E+03  0.00000000000E+00 0.  1.
         11    1    4    4    0    0  0.98219841276E+01 -0.45327028501E+02 -0.34322033706E+02  0.57697598587E+02  0.00000000000E+00 0. -1.
</event>
<event>
 8    1  0.6185113E-009  0.1960694E+03  0.7561462E-02  0.1153098E+00
         -2   -1    0    0    0  501 -0.00000000000E+00  0.00000000000E+00  0.16637313892E+03  0.16637313892E+03  0.00000000000E+00 0.  1.
          2   -1    0    0  501    0  0.00000000000E+00 -0.00000000000E+00 -0.23603756822E+03  0.23603756822E+03  0.00000000000E+00 0. -1.
         25    2    1    2    0    0  0.95297085587E+02  0.13387471561E+03 -0.55476307855E+02  0.21384409519E+03  0.12509077629E+03 0.  0.
         23    2    1    2    0    0 -0.95297085587E+02 -0.13387471561E+03 -0.14188121442E+02  0.18856661195E+03  0.91389771581E+02 0.  0.
          5    1    3    3  502    0  0.11562108611E+03  0.66040847691E+02 -0.20613298513E+02  0.13480359636E+03  0.41800000000E+01 0.  1.
         -5    1    3    3    0  502 -0.20324000524E+02  0.67833867921E+02 -0.34863009342E+02  0.79040498827E+02  0.41800000000E+01 0.  1.
        -11    1    4    4    0    0  0.10736368283E+02 -0.54460872287E+02 -0.22490509468E+01  0.55554607769E+02  0.00000000000E+00 0. -1.
         11    1    4    4    0    0 -0.10603345387E+03 -0.79413843325E+02 -0.11939070495E+02  0.13301200418E+03  0.00000000000E+00 0.  1.
</event>
<event>
 8    1  0.6185113E-009  0.1020195E+03  0.7561462E-02  0.1276106E+00
          4   -1    0    0  501    0  0.00000000000E+00  0.00000000000E+00  0.36142497582E+02  0.36142497582E+02  0.00000000000E+00 0. -1.
         -4   -1    0    0    0  501 -0.00000000000E+00 -0.00000000000E+00 -0.62358858061E+03  0.62358858061E+03  0.00000000000E+00 0.  1.
         25    2    1    2    0    0  0.56931761235E+02  0.72262807129E+02 -0.21319748711E+03  0.26374930942E+03  0.12508953184E+03 0.  0.
         23    2    1    2    0    0 -0.56931761235E+02 -0.72262807129E+02 -0.37424859592E+03  0.39598176878E+03  0.90974781798E+02 0.  0.
          5    1    3    3  502    0  0.23397057682E+02  0.50652639232E+02 -0.10258924087E+02  0.56884357189E+02  0.41800000000E+01 0. -1.
         -5    1    3    3    0  502  0.33534703553E+02  0.21610167897E+02 -0.20293856302E+03  0.20686495223E+03  0.41800000000E+01 0. -1.
        -11    1    4    4    0    0 -0.55687220314E+02 -0.25590926919E+02 -0.31312849673E+03  0.31906961233E+03  0.00000000000E+00 0.  1.
         11    1    4    4    0    0 -0.12445409207E+01 -0.46671880210E+02 -0.61120099192E+02  0.76912156450E+02  0.00000000000E+00 0. -1.
</event>
<event>
 7    1  0.6185113E-009  0.1529124E+03  0.7561462E-02  0.1196939E+00
         -2   -1    0    0    0  501 -0.00000000000E+00  0.00000000000E+00  0.14726230795E+03  0.14726230795E+03  0.00000000000E+00 0. -1.
          2   -1    0    0  501    0  0.00000000000E+00 -0.00000000000E+00 -0.20923042181E+03  0.20923042181E+03  0.00000000000E+00 0.  1.
         23    2    1    2    0    0  0.11196060799E+03  0.43091975229E+01 -0.11112676954E+03  0.18135780469E+03  0.89374199226E+02 0.  0.
          5    1    1    2  502    0 -0.75157541123E+02 -0.61097543956E+02  0.45876917581E+02  0.10725544197E+03  0.41800000000E+01 0.  1.
         -5    1    1    2    0  502 -0.36803066871E+02  0.56788346433E+02  0.32817380983E+01  0.67879483105E+02  0.41800000000E+01 0.  1.
        -11    1    3    3    0    0 -0.11533346334E+02 -0.11842136556E+02 -0.24857006999E+02  0.29851718089E+02  0.00000000000E+00 0.  1.
         11    1    3    3    0    0  0.12349395433E+03  0.16151334079E+02 -0.86269762539E+02  0.15150608660E+03  0.00000000000E+00 0. -1.
</event>
<event>
 8    1  0.6185113E-009  0.1192256E+03  0.7561462E-02  0.1244380E+00
         -2   -1    0    0    0  501 -0.00000000000E+00  0.00000000000E+00  0.80624189165E+02  0.80624189165E+02  0.00000000000E+00 0.  1.
          2   -1    0    0  501    0  0.00000000000E+00 -0.00000000000E+00 -0.26464411210E+03  0.26464411210E+03  0.00000000000E+00 0. -1.
         25    2    1    2    0    0  0.43483214750E+02 -0.83853489576E+02 -0.12908718318E+03  0.20306306000E+03  0.12509559463E+03 0.  0.
         23    2    1    2    0    0 -0.43483214750E+02  0.83853489576E+02 -0.54932739754E+02  0.14220524127E+03  0.91008390098E+02 0.  0.
          5    1    3    3  502    0  0.23803192798E+02 -0.10696013808E+03 -0.54551592680E+02  0.12247616826E+03  0.41800000000E+01 0.  1.
         -5    1    3    3    0  502  0.19680021951E+02  0.23106648509E+02 -0.74535590503E+02  0.80586891744E+02  0.41800000000E+01 0.  1.
        -11    1    4    4    0    0 -0.41391561427E+02  0.53073665880E+02 -0.78484639732E+02  0.10339204051E+03  0.00000000000E+00 0. -1.
         11    1    4    4    0    0 -0.20916533232E+01  0.30779823696E+02  0.23551899979E+02  0.38813200757E+02  0.00000000000E+00 0.  1.
</event>
<event>
 8    1  0.6185113E-009  0.9236249E+02  0.7561462E-02  0.1297229E+00
          2   -1    0    0  501    0  0.00000000000E+00  0.00000000000E+00  0.12785626175E+03  0.12785626175E+03  0.00000000000E+00 0. -1.
         -2   -1    0    0    0  501 -0.00000000000E+00 -0.00000000000E+00 -0.99837162739E+02  0.99837162739E+02  0.00000000000E+00 0.  1.
         25    2    1    2    0    0  0.10010721836E+02  0.29840329725E+02  0.10410666658E+02  0.12940565105E+03  0.12508709251E+03 0.  0.
         23    2    1    2    0    0 -0.10010721836E+02 -0.29840329725E+02  0.17608432357E+02  0.98287773443E+02  0.91431776142E+02 0.  0.
          5    1    3    3  502    0 -0.41863598019E+02  0.51769982059E+02  0.24727537239E+02  0.71145030602E+02  0.41800000000E+01 0. -1.
         -5    1    3    3    0  502  0.51874319855E+02 -0.21929652334E+02 -0.14316870580E+02  0.58260620449E+02  0.41800000000E+01 0. -1.
        -11    1    4    4    0    0 -0.14583214389E+02 -0.44161923867E+02 -0.25214248575E+02  0.52902778686E+02  0.00000000000E+00 0.  1.
         11    1    4    4    0    0  0.45724925532E+01  0.14321594142E+02  0.42822680932E+02  0.45384994757E+02  0.00000000000E+00 0. -1.
</event>
<event>
 8    1  0.6185113E-009  0.1374289E+03  0.7561462E-02  0.1216831E+00
         -1   -1    0    0    0  501 -0.00000000000E+00  0.00000000000E+00  0.82364068565E+02  0.82364068565E+02  0.00000000000E+00 0.  1.
          1   -1    0    0  501    0  0.00000000000E+00 -0.00000000000E+00 -0.30152487335E+03  0.30152487335E+03  0.00000000000E+00 0. -1.
         25    2    1    2    0    0 -0.22343471750E+01 -0.10853375520E+03 -0.68048413436E+02  0.17905623402E+03  0.12508389202E+03 0.  0.
         23    2    1    2    0    0  0.22343471750E+01  0.10853375520E+03 -0.15111239135E+03  0.20483270790E+03  0.85655794211E+02 0.  0.
          5    1    3    3  502    0  0.65050725256E+01 -0.12075781311E+03 -0.12837190912E+02  0.12168414550E+03  0.41800000000E+01 0.  1.
         -5    1    3    3    0  502 -0.87394197006E+01  0.12224057908E+02 -0.55211222525E+02  0.57372088520E+02  0.41800000000E+01 0.  1.
        -11    1    4    4    0    0 -0.39614743777E+02  0.74246690817E+02 -0.93880357105E+02  0.12607704181E+03  0.00000000000E+00 0.  1.
         11    1    4    4    0    0  0.41849090952E+02  0.34287064380E+02 -0.57232034242E+02  0.78755666087E+02  0.00000000000E+00 0. -1.
</event>
<event>
 8    1  0.6185113E-009  0.1550334E+03  0.7561462E-02  0.1194421E+00
         -1   -1    0    0    0  501 -0.00000000000E+00  0.00000000000E+00  0.35862992539E+02  0.35862992539E+02  0.00000000000E+00 0.  1.
          1   -1    0    0  501    0  0.00000000000E+00 -0.00000000000E+00 -0.67499873004E+03  0.67499873004E+03  0.00000000000E+00 0. -1.
         25    2    1    2    0    0 -0.42654608213E+02  0.10041129857E+03 -0.36105217038E+03  0.39737657533E+03  0.12509048087E+03 0.  0.
         23    2    1    2    0    0  0.42654608213E+02 -0.10041129857E+03 -0.27808356712E+03  0.31348514724E+03  0.95082189482E+02 0.  0.
          5    1    3    3  502    0 -0.86762302318E+02  0.71071818988E+02 -0.22869108990E+03  0.25474690883E+03  0.41800000000E+01 0. -1.
         -5    1    3    3    0  502  0.44107694105E+02  0.29339479587E+02 -0.13236108048E+03  0.14262966651E+03  0.41800000000E+01 0. -1.
        -11    1    4    4    0    0  0.18018080267E+02 -0.11477200175E+03 -0.22537590517E+03  0.25355780847E+03  0.00000000000E+00 0.  1.
         11    1    4    4    0    0  0.24636527946E+02  0.14360703175E+02 -0.52707661948E+02  0.59927338777E+02  0.00000000000E+00 0. -1.
</event>
<event>
 8    1  0.6185113E-009  0.9692030E+02  0.7561462E-02  0.1286909E+00
         -2   -1    0    0    0  501 -0.00000000000E+00  0.00000000000E+00  0.79316145139E+02  0.79316145139E+02  0.00000000000E+00 0. -1.
          2   -1    0    0  501    0  0.00000000000E+00 -0.00000000000E+00 -0.17659726827E+03  0.17659726827E+03  0.00000000000E+00 0.  1.
         25    2    1    2    0    0 -0.37681092275E+02 -0.97042201683E+01 -0.23775858751E+02  0.13313743891E+03  0.12508496942E+03 0.  0.
         23    2    1    2    0    0  0.37681092275E+02  0.97042201683E+01 -0.73505264377E+02  0.12277597450E+03  0.90315443969E+02 0.  0.
          5    1    3    3  502    0 -0.55567771769E+02 -0.45807797782E+02 -0.47332258691E+02  0.86278309614E+02  0.41800000000E+01 0.  1.
         -5    1    3    3    0  502  0.17886679494E+02  0.36103577614E+02  0.23556399940E+02  0.46859129292E+02  0.41800000000E+01 0.  1.
        -11    1    4    4    0    0  0.22338398941E+02  0.40803964967E+02 -0.74786652283E+02  0.88073895020E+02  0.00000000000E+00 0.  1.
         11    1    4    4    0    0  0.15342693333E+02 -0.31099744799E+02  0.12813879057E+01  0.34702079480E+02  0.00000000000E+00 0. -1.
</event>
<event>
 8    1  0.6185113E-009  0.1082450E+03  0.7561462E-02  0.1263855E+00
          2   -1    0    0  501    0  0.00000000000E+00  0.00000000000E+00  0.29830010072E+03  0.29830010072E+03  0.00000000000E+00 0. -1.
         -2   -1    0    0    0  501 -0.00000000000E+00 -0.00000000000E+00 -0.73210341069E+02  0.73210341069E+02  0.00000000000E+00 0.  1.
         25    2    1    2    0    0 -0.76280379183E+02  0.37398745011E+02  0.19544887285E+03  0.24711296320E+03  0.12508873774E+03 0.  0.
         23    2    1    2    0    0  0.76280379183E+02 -0.37398745011E+02  0.29640886805E+02  0.12439747859E+03  0.85899872707E+02 0.  0.
          5    1    3    3  502    0 -0.55132021183E+02  0.53375158197E+02  0.20476352454E+03  0.21870990068E+03  0.41800000000E+01 0.  1.
         -5    1    3    3    0  502 -0.21148357999E+02 -0.15976413186E+02 -0.93146516982E+01  0.28403062522E+02  0.41800000000E+01 0.  1.
        -11    1    4    4    0    0  0.83287623807E+02 -0.92497437094E+01  0.12515411338E+01  0.83809023341E+02  0.00000000000E+00 0.  1.
         11    1    4    4    0    0 -0.70072446240E+01 -0.28149001302E+02  0.28389345671E+02  0.40588455245E+02  0.00000000000E+00 0. -1.
</event>
<event>
 8    1  0.6185113E-009  0.3913409E+03  0.7561462E-02  0.1046820E+00
         -2   -1    0    0    0  501 -0.00000000000E+00  0.00000000000E+00  0.13049579841E+03  0.13049579841E+03  0.00000000000E+00 0.  1.
          2   -1    0    0  501    0  0.00000000000E+00 -0.00000000000E+00 -0.11846735934E+04  0.11846735934E+04  0.00000000000E+00 0. -1.
         25    2    1    2    0    0 -0.17077824072E+03  0.33695590133E+03 -0.53155610112E+03  0.66400813286E+03  0.12510165834E+03 0.  0.
         23    2    1    2    0    0  0.17077824072E+03 -0.33695590133E+03 -0.52262169390E+03  0.65116125898E+03  0.90404996116E+02 0.  0.
          5    1    3    3  502    0 -0.12513609785E+03  0.11235776708E+03 -0.20892775794E+03  0.26823793775E+03  0.41800000000E+01 0.  1.
         -5    1    3    3    0  502 -0.45642142862E+02  0.22459813425E+03 -0.32262834318E+03  0.39577019511E+03  0.41800000000E+01 0.  1.
        -11    1    4    4    0    0  0.13052470691E+03 -0.17483715596E+03 -0.33679593170E+03  0.40129319683E+03  0.00000000000E+00 0. -1.
         11    1    4    4    0    0  0.40253533811E+02 -0.16211874537E+03 -0.18582576220E+03  0.24986806215E+03  0.00000000000E+00 0.  1.
</event>
<event>
 8    1  0.6185113E-009  0.8301283E+02  0.7561462E-02  0.1320713E+00
          2   -1    0    0  501    0  0.00000000000E+00  0.00000000000E+00  0.53586161460E+03  0.53586161460E+03  0.00000000000E+00 0.  1.
         -2   -1    0    0    0  501 -0.00000000000E+00 -0.00000000000E+00 -0.27055152107E+02  0.27055152107E+02  0.00000000000E+00 0. -1.
         25    2    1    2    0    0  0.18063355011E+00  0.23595638843E+02  0.40303428506E+03  0.42264767110E+03  0.12505051841E+03 0.  0.
         23    2    1    2    0    0 -0.18063355011E+00 -0.23595638843E+02  0.10577217744E+03  0.14026909561E+03  0.89055481933E+02 0.  0.
          5    1    3    3  502    0 -0.42000803050E+02 -0.21698215688E+02  0.28864045510E+03  0.29251609313E+03  0.41800000000E+01 0.  1.
         -5    1    3    3    0  502  0.42181436601E+02  0.45293854531E+02  0.11439382996E+03  0.13013157797E+03  0.41800000000E+01 0.  1.
        -11    1    4    4    0    0  0.23972424756E+02 -0.21648655406E+02  0.11089385620E+03  0.11550233233E+03  0.00000000000E+00 0.  1.
         11    1    4    4    0    0 -0.24153058306E+02 -0.19469834374E+01 -0.51216787658E+01  0.24766763281E+02  0.00000000000E+00 0. -1.
</event>
<event>
 8    1  0.6185113E-009  0.1195081E+03  0.7561462E-02  0.1243911E+00
          1   -1    0    0  501    0  0.00000000000E+00  0.00000000000E+00  0.22341387709E+03  0.22341387709E+03  0.00000000000E+00 0. -1.
         -1   -1    0    0    0  501 -0.00000000000E+00 -0.00000000000E+00 -0.83772143046E+02  0.83772143046E+02  0.00000000000E+00 0.  1.
         25    2    1    2    0    0  0.57720600120E+02  0.60144600510E+02  0.72019008154E+02  0.16668431028E+03  0.12509149096E+03 0.  0.
         23    2    1    2    0    0 -0.57720600120E+02 -0.60144600510E+02  0.67622725891E+02  0.14050170986E+03  0.90657910669E+02 0.  0.
          5    1    3    3  502    0  0.13763432786E+02 -0.34854048007E+02 -0.30146312987E+01  0.37825879321E+02  0.41800000000E+01 0.  1.
         -5    1    3    3    0  502  0.43957167334E+02  0.94998648517E+02  0.75033639453E+02  0.12885843096E+03  0.41800000000E+01 0.  1.
        -11    1    4    4    0    0 -0.33348619460E+02 -0.18874515384E+01 -0.14911814070E+02  0.36579435371E+02  0.00000000000E+00 0.  1.
         11    1    4    4    0    0 -0.24371980660E+02 -0.58257148972E+02  0.82534539962E+02  0.10392227449E+03  0.00000000000E+00 0. -1.
</event>
<event>
 8    1  0.6185113E-009  0.1934403E+03  0.7561462E-02  0.1155394E+00
          2   -1    0    0  501    0  0.00000000000E+00  0.00000000000E+00  0.12507092854E+04  0.12507092854E+04  0.00000000000E+00 0. -1.
         -2   -1    0    0    0  501 -0.00000000000E+00 -0.00000000000E+00 -0.31313741336E+02  0.31313741336E+02  0.00000000000E+00 0.  1.
         25    2    1    2    0    0  0.15873079691E+03  0.41028004046E+02  0.56738662018E+03  0.60369967511E+03  0.12508780105E+03 0.  0.
         23    2    1    2    0    0 -0.15873079691E+03 -0.41028004046E+02  0.65200892392E+03  0.67832335166E+03  0.90156361548E+02 0.  0.
          5    1    3    3  502    0 -0.17111072428E+02  0.19446103148E+02  0.45204419495E+02  0.52267118432E+02  0.41800000000E+01 0.  1.
         -5    1    3    3    0  502  0.17584186934E+03  0.21581900897E+02  0.52218220068E+03  0.55143255668E+03  0.41800000000E+01 0.  1.
        -11    1    4    4    0    0 -0.74787577687E+02  0.22568515150E+02  0.34567675407E+03  0.35439376117E+03  0.00000000000E+00 0. -1.
         11    1    4    4    0    0 -0.83943219223E+02 -0.63596519196E+02  0.30633216985E+03  0.32392959049E+03  0.00000000000E+00 0.  1.
</event>
<event>
 8    1  0.6185113E-009  0.1262646E+03  0.7561462E-02  0.1233106E+00
         -2   -1    0    0    0  501 -0.00000000000E+00  0.00000000000E+00  0.69888270103E+02  0.69888270103E+02  0.00000000000E+00 0.  1.
          2   -1    0    0  501    0  0.00000000000E+00 -0.00000000000E+00 -0.28792057956E+03  0.28792057956E+03  0.00000000000E+00 0. -1.
         25    2    1    2    0    0 -0.89086405743E+02 -0.17066594804E+02 -0.11491166799E+03  0.19256174164E+03  0.12509067335E+03 0.  0.
         23    2    1    2    0    0  0.89086405743E+02  0.17066594804E+02 -0.10312064147E+03  0.16524710802E+03  0.91897136326E+02 0.  0.
          5    1    3    3  502    0  0.11746352074E+02 -0.35553649621E+02  0.10970963881E+01  0.37692370699E+02  0.41800000000E+01 0. -1.
         -5    1    3    3    0  502 -0.10083275782E+03  0.18487054817E+02 -0.11600876438E+03  0.15486937094E+03  0.41800000000E+01 0. -1.
        -11    1    4    4    0    0  0.70911090372E+02 -0.17643788799E+02 -0.23926415535E+02  0.76890567570E+02  0.00000000000E+00 0.  1.
         11    1    4    4    0    0  0.18175315372E+02  0.34710383603E+02 -0.79194225933E+02  0.88356540448E+02  0.00000000000E+00 0. -1.
</event>
<event>
 8    1  0.6185113E-009  0.8390130E+02  0.7561462E-02  0.1318331E+00
         -1   -1    0    0    0  501 -0.00000000000E+00  0.00000000000E+00  0.62193153398E+02  0.62193153398E+02  0.00000000000E+00 0.  1.
          1   -1    0    0  501    0  0.00000000000E+00 -0.00000000000E+00 -0.22925700928E+03  0.22925700928E+03  0.00000000000E+00 0. -1.
         25    2    1    2    0    0 -0.44891679238E+02  0.25548127354E+02 -0.72526810219E+02  0.15354572331E+03  0.12509269072E+03 0.  0.
         23    2    1    2    0    0  0.44891679238E+02 -0.25548127354E+02 -0.94537045667E+02  0.13790443937E+03  0.86095364093E+02 0.  0.
          5    1    3    3  502    0 -0.28290504277E+02 -0.22194761559E+02 -0.92271664526E+02  0.99118578215E+02  0.41800000000E+01 0.  1.
         -5    1    3    3    0  502 -0.16601174961E+02  0.47742888913E+02  0.19744854307E+02  0.54427145097E+02  0.41800000000E+01 0.  1.
        -11    1    4    4    0    0 -0.12363195046E+02 -0.19797052942E+02 -0.72704091834E+02  0.76358737983E+02  0.00000000000E+00 0. -1.
         11    1    4    4    0    0  0.57254874284E+02 -0.57510744113E+01 -0.21832953834E+02  0.61545701387E+02  0.00000000000E+00 0.  1.
</event>
<event>
 8    1  0.6185113E-009  0.1713685E+03  0.7561462E-02  0.1176428E+00
         -2   -1    0    0    0  501 -0.00000000000E+00  0.00000000000E+00  0.21154437967E+03  0.21154437967E+03  0.00000000000E+00 0.  1.
          2   -1    0    0  501    0  0.00000000000E+00 -0.00000000000E+00 -0.18880859541E+03  0.18880859541E+03  0.00000000000E+00 0. -1.
         25    2    1    2    0    0  0.85049491755E+02  0.10792363519E+03  0.10812331988E+03  0.21498456480E+03  0.12508710453E+03 0.  0.
         23    2    1    2    0    0 -0.85049491755E+02 -0.10792363519E+03 -0.85387535620E+02  0.18536841028E+03  0.90495796645E+02 0.  0.
          5    1    3    3  502    0  0.27829382996E+01  0.94722016580E+02  0.27005057871E+02  0.98624290726E+02  0.41800000000E+01 0.  1.
         -5    1    3    3    0  502  0.82266553455E+02  0.13201618609E+02  0.81118262011E+02  0.11636027408E+03  0.41800000000E+01 0.  1.
        -11    1    4    4    0    0  0.12397127043E+02 -0.49083492872E+02 -0.23754183691E+02  0.55920830415E+02  0.00000000000E+00 0.  1.
         11    1    4    4    0    0 -0.97446618798E+02 -0.58840142317E+02 -0.61633351929E+02  0.12944757987E+03  0.00000000000E+00 0. -1.
</event>
<event>
 8    1  0.6185113E-009  0.2304292E+03  0.7561462E-02  0.1126338E+00
         -1   -1    0    0    0  501 -0.00000000000E+00  0.00000000000E+00  0.14263746171E+03  0.14263746171E+03  0.00000000000E+00 0.  1.
          1   -1    0    0  501    0  0.00000000000E+00 -0.00000000000E+00 -0.43888292255E+03  0.43888292255E+03  0.00000000000E+00 0. -1.
         25    2    1    2    0    0  0.20482418733E+03 -0.70034005412E+01 -0.26173270306E+03  0.35518253162E+03  0.12509447462E+03 0.  0.
         23    2    1    2    0    0 -0.20482418733E+03  0.70034005412E+01 -0.34512757773E+02  0.22633785264E+03  0.89642053497E+02 0.  0.
          5    1    3    3  502    0  0.28745686293E+02  0.46851235822E+02 -0.72994589696E+02  0.91471499951E+02  0.41800000000E+01 0.  1.
         -5    1    3    3    0  502  0.17607850104E+03 -0.53854636363E+02 -0.18873811337E+03  0.26371103167E+03  0.41800000000E+01 0.  1.
        -11    1    4    4    0    0 -0.17751176562E+03 -0.25241785127E+02 -0.15396343646E+02  0.17995727839E+03  0.00000000000E+00 0.  1.
         11    1    4    4    0    0 -0.27312421713E+02  0.32245185668E+02 -0.19116414127E+02  0.46380574249E+02  0.00000000000E+00 0. -1.
</event>
<event>
 8    1  0.6185113E-009  0.1308524E+03  0.7561462E-02  0.1226196E+00
         -2   -1    0    0    0  501 -0.00000000000E+00  0.00000000000E+00  0.12667259076E+03  0.12667259076E+03  0.00000000000E+00 0.  1.
          2   -1    0    0  501    0  0.00000000000E+00 -0.00000000000E+00 -0.17509335633E+03  0.17509335633E+03  0.00000000000E+00 0. -1.
         25    2    1    2    0    0 -0.58720590578E+02 -0.82570567663E+02 -0.16306226424E+02  0.16178772460E+03  0.12507345205E+03 0.  0.
         23    2    1    2    0    0  0.58720590578E+02  0.82570567663E+02 -0.32114539141E+02  0.13997822249E+03  0.91085414559E+02 0.  0.
          5    1    3    3  502    0  0.30398625520E+02  0.76700757684E+01 -0.14704232162E+02  0.34879698096E+02  0.41800000000E+01 0. -1.
         -5    1    3    3    0  502 -0.89119216098E+02 -0.90240643431E+02 -0.16019942623E+01  0.12690802650E+03  0.41800000000E+01 0. -1.
        -11    1    4    4    0    0  0.26033494429E+02  0.53225628320E+02 -0.62842442135E+02  0.86370613496E+02  0.00000000000E+00 0. -1.
         11    1    4    4    0    0  0.32687096149E+02  0.29344939343E+02  0.30727902994E+02  0.53607608994E+02  0.00000000000E+00 0.  1.
</event>
<event>
 8    1  0.6185113E-009  0.9295536E+02  0.7561462E-02  0.1295849E+00
          2   -1    0    0  501    0  0.00000000000E+00  0.00000000000E+00  0.83037002326E+02  0.83037002326E+02  0.00000000000E+00 0. -1.
         -2   -1    0    0    0  501 -0.00000000000E+00 -0.00000000000E+00 -0.16835083257E+03  0.16835083257E+03  0.00000000000E+00 0.  1.
         25    2    1    2    0    0 -0.13077330733E+02 -0.37500663928E+02 -0.63751459661E+02  0.14590529439E+03  0.12508712942E+03 0.  0.
         23    2    1    2    0    0  0.13077330733E+02  0.37500663928E+02 -0.21562370582E+02  0.10548254051E+03  0.95311668506E+02 0.  0.
          5    1    3    3  502    0 -0.41538080966E+02  0.17753488715E+02  0.12870126224E+02  0.47156241166E+02  0.41800000000E+01 0. -1.
         -5    1    3    3    0  502  0.28460750232E+02 -0.55254152643E+02 -0.76621585885E+02  0.98749053219E+02  0.41800000000E+01 0. -1.
        -11    1    4    4    0    0  0.33753823551E+02  0.45003722930E+02 -0.45953254474E+02  0.72638538522E+02  0.00000000000E+00 0.  1.
         11    1    4    4    0    0 -0.20676492818E+02 -0.75030590016E+01  0.24390883892E+02  0.32844001989E+02  0.00000000000E+00 0. -1.
</event>
<event>
 8    1  0.6185113E-009  0.8642744E+02  0.7561462E-02  0.1311741E+00
         -1   -1    0    0    0  501 -0.00000000000E+00  0.00000000000E+00  0.97448698185E+02  0.97448698185E+02  0.00000000000E+00 0.  1.
          1   -1    0    0  501    0  0.00000000000E+00 -0.00000000000E+00 -0.14084349994E+03  0.14084349994E+03  0.00000000000E+00 0. -1.
         25    2    1    2    0    0 -0.35750599216E+02  0.12454013525E+02 -0.46571557389E+02  0.13874092610E+03  0.12508767653E+03 0.  0.
         23    2    1    2    0    0  0.35750599216E+02 -0.12454013525E+02  0.31767556324E+01  0.99551272028E+02  0.92017151601E+02 0.  0.
          5    1    3    3  502    0  0.34007138187E+02 -0.26827013916E+02  0.44070709983E+01  0.43738641933E+02  0.41800000000E+01 0. -1.
         -5    1    3    3    0  502 -0.69757737404E+02  0.39281027442E+02 -0.50978628387E+02  0.95002284166E+02  0.41800000000E+01 0. -1.
        -11    1    4    4    0    0  0.31173569093E+02  0.46036050960E+01  0.44548853894E+02  0.54567251838E+02  0.00000000000E+00 0.  1.
         11    1    4    4    0    0  0.45770301235E+01 -0.17057618621E+02 -0.41372098262E+02  0.44984020189E+02  0.00000000000E+00 0. -1.
</event>
<event>
 8    1  0.6185113E-009  0.1531957E+03  0.7561462E-02  0.1196600E+00
         -2   -1    0    0    0  501 -0.00000000000E+00  0.00000000000E+00  0.35219984533E+02  0.35219984533E+02  0.00000000000E+00 0.  1.
          2   -1    0    0  501    0  0.00000000000E+00 -0.00000000000E+00 -0.82366870480E+03  0.82366870480E+03  0.00000000000E+00 0. -1.
         25    2    1    2    0    0 -0.12362763087E+03  0.43485605506E+02 -0.41624315273E+03  0.45396153860E+03  0.12509167571E+03 0.  0.
         23    2    1    2    0    0  0.12362763087E+03 -0.43485605506E+02 -0.37220556754E+03  0.40492715073E+03  0.90852759412E+02 0.  0.
          5    1    3    3  502    0  0.15430420871E+02 -0.14453802163E+02 -0.11637586768E+03  0.11835465881E+03  0.41800000000E+01 0.  1.
         -5    1    3    3    0  502 -0.13905805175E+03  0.57939407669E+02 -0.29986728505E+03  0.33560687979E+03  0.41800000000E+01 0.  1.
        -11    1    4    4    0    0  0.54708463807E+02 -0.43520141615E+01 -0.53973993385E+02  0.76974982958E+02  0.00000000000E+00 0.  1.
         11    1    4    4    0    0  0.68919167067E+02 -0.39133591345E+02 -0.31823157415E+03  0.32795216778E+03  0.00000000000E+00 0. -1.
</event>
<event>
 8    1  0.6185113E-009  0.2405755E+03  0.7561462E-02  0.1119410E+00
         -1   -1    0    0    0  501 -0.00000000000E+00  0.00000000000E+00  0.22567225930E+03  0.22567225930E+03  0.00000000000E+00 0.  1.
          1   -1    0    0  501    0  0.00000000000E+00 -0.00000000000E+00 -0.45542500867E+03  0.45542500867E+03  0.00000000000E+00 0. -1.
         25    2    1    2    0    0  0.21703132002E+03 -0.40040067932E+02  0.10093224590E+03  0.27301956994E+03  0.12508623584E+03 0.  0.
         23    2    1    2    0    0 -0.21703132002E+03  0.40040067932E+02 -0.33068499527E+03  0.40807769803E+03  0.92027390638E+02 0.  0.
          5    1    3    3  502    0  0.18880855088E+03 -0.72745969012E+02  0.54776054282E+02  0.20966290425E+03  0.41800000000E+01 0. -1.
         -5    1    3    3    0  502  0.28222769137E+02  0.32705901080E+02  0.46156191615E+02  0.63356665692E+02  0.41800000000E+01 0. -1.
        -11    1    4    4    0    0 -0.81972767328E+02  0.56139708874E+02 -0.17592920979E+03  0.20204526313E+03  0.00000000000E+00 0.  1.
         11    1    4    4    0    0 -0.13505855269E+03 -0.16099640942E+02 -0.15475578548E+03  0.20603243491E+03  0.00000000000E+00 0. -1.
</event>
<event>
 8    1  0.6185113E-009  0.1349888E+03  0.7561462E-02  0.1220236E+00
          1   -1    0    0  501    0  0.00000000000E+00  0.00000000000E+00  0.28709632869E+03  0.28709632869E+03  0.00000000000E+00 0. -1.
         -1   -1    0    0    0  501 -0.00000000000E+00 -0.00000000000E+00 -0.66476951844E+02  0.66476951844E+02  0.00000000000E+00 0.  1.
         25    2    1    2    0    0  0.69176355689E+02  0.49161333325E+02  0.13248332304E+03  0.20100021169E+03  0.12508816625E+03 0.  0.
         23    2    1    2    0    0 -0.69176355689E+02 -0.49161333325E+02  0.88136053807E+02  0.15257306884E+03  0.91150274131E+02 0.  0.
          5    1    3    3  502    0 -0.84603421927E+01  0.67629135454E+02  0.80988297798E+02  0.10593325319E+03  0.41800000000E+01 0.  1.
         -5    1    3    3    0  502  0.77636697882E+02 -0.18467802129E+02  0.51495025240E+02  0.95066958497E+02  0.41800000000E+01 0.  1.
        -11    1    4    4    0    0 -0.46567298156E+02  0.18753383571E+02  0.20935246975E+02  0.54391977522E+02  0.00000000000E+00 0.  1.
         11    1    4    4    0    0 -0.22609057533E+02 -0.67914716896E+02  0.67200806832E+02  0.98181091318E+02  0.00000000000E+00 0. -1.
</event>
<event>
 8    1  0.6185113E-009  0.8633606E+02  0.7561462E-02  0.1311975E+00
         -1   -1    0    0    0  501 -0.00000000000E+00  0.00000000000E+00  0.33901916586E+02  0.33901916586E+02  0.00000000000E+00 0.  1.
          1   -1    0    0  501    0  0.00000000000E+00 -0.00000000000E+00 -0.32069860899E+03  0.32069860899E+03  0.00000000000E+00 0. -1.
         25    2    1    2    0    0 -0.91052769748E+01  0.11968345104E+02 -0.17982839818E+03  0.21957251384E+03  0.12509072183E+03 0.  0.
         23    2    1    2    0    0  0.91052769748E+01 -0.11968345104E+02 -0.10696829422E+03  0.13502801174E+03  0.81019754578E+02 0.  0.
          5    1    3    3  502    0 -0.50527160483E+02 -0.31492905315E+02 -0.55767536993E+02  0.81684071972E+02  0.41800000000E+01 0. -1.
         -5    1    3    3    0  502  0.41421883508E+02  0.43461250419E+02 -0.12406086119E+03  0.13788844186E+03  0.41800000000E+01 0. -1.
        -11    1    4    4    0    0  0.89484917818E+01 -0.31767354179E+02 -0.78138149531E+01  0.33916013929E+02  0.00000000000E+00 0.  1.
         11    1    4    4    0    0  0.15678519299E+00  0.19799009075E+02 -0.99154479269E+02  0.10111199781E+03  0.00000000000E+00 0. -1.
</event>
<event>
 8    1  0.6185113E-009  0.1120433E+03  0.7561462E-02  0.1256832E+00
          2   -1    0    0  501    0  0.00000000000E+00  0.00000000000E+00  0.30943856082E+03  0.30943856082E+03  0.00000000000E+00 0.  1.
         -2   -1    0    0    0  501 -0.00000000000E+00 -0.00000000000E+00 -0.69753332380E+02  0.69753332380E+02  0.00000000000E+00 0. -1.
         25    2    1    2    0    0 -0.67904653928E+02 -0.14288651711E+02  0.22454697728E+03  0.26623987049E+03  0.12508843289E+03 0.  0.
         23    2    1    2    0    0  0.67904653928E+02  0.14288651711E+02  0.15138251154E+02  0.11295202270E+03  0.87828157167E+02 0.  0.
          5    1    3    3  502    0  0.92713296224E+01 -0.41478369914E+02  0.22628000720E+02  0.48331268763E+02  0.41800000000E+01 0. -1.
         -5    1    3    3    0  502 -0.77175983551E+02  0.27189718203E+02  0.20191897656E+03  0.21790860173E+03  0.41800000000E+01 0. -1.
        -11    1    4    4    0    0  0.23849152092E+02  0.41357010900E+02 -0.18573220488E+02  0.51226447519E+02  0.00000000000E+00 0. -1.
         11    1    4    4    0    0  0.44055501836E+02 -0.27068359189E+02  0.33711471642E+02  0.61725575182E+02  0.00000000000E+00 0.  1.
</event>
<event>
 8    1  0.6185113E-009  0.8836028E+02  0.7561462E-02  0.1306872E+00
          2   -1    0    0  501    0  0.00000000000E+00  0.00000000000E+00  0.48927049107E+02  0.48927049107E+02  0.00000000000E+00 0. -1.
         -2   -1    0    0    0  501 -0.00000000000E+00 -0.00000000000E+00 -0.24494857243E+03  0.24494857243E+03  0.00000000000E+00 0.  1.
         25    2    1    2    0    0 -0.29545322173E+02 -0.46757464642E+01 -0.12970231527E+03  0.18266232584E+03  0.12509215015E+03 0.  0.
         23    2    1    2    0    0  0.29545322173E+02  0.46757464642E+01 -0.66319208048E+02  0.11121329569E+03  0.84115225228E+02 0.  0.
          5    1    3    3  502    0 -0.69339498140E+02 -0.93513006318E+01 -0.12335792901E+03  0.14188045629E+03  0.41800000000E+01 0.  1.
         -5    1    3    3    0  502  0.39794175966E+02  0.46755541675E+01 -0.63443862613E+01  0.40781869558E+02  0.41800000000E+01 0.  1.
        -11    1    4    4    0    0 -0.13864248812E+02 -0.13436215597E+02  0.98631062449E+01  0.21680178724E+02  0.00000000000E+00 0. -1.
         11    1    4    4    0    0  0.43409570986E+02  0.18111962061E+02 -0.76182314292E+02  0.89533116967E+02  0.00000000000E+00 0.  1.
</event>
<event>
 8    1  0.6185113E-009  0.4264245E+02  0.7561462E-02  0.1489620E+00
         -4   -1    0    0    0  501 -0.00000000000E+00  0.00000000000E+00  0.21562081272E+03  0.21562081272E+03  0.00000000000E+00 0.  1.
          4   -1    0    0  501    0  0.00000000000E+00 -0.00000000000E+00 -0.59071255401E+02  0.59071255401E+02  0.00000000000E+00 0. -1.
         25    2    1    2    0    0  0.12742658655E+02 -0.28801674389E+02  0.10546345907E+03  0.16661187370E+03  0.12508022810E+03 0.  0.
         23    2    1    2    0    0 -0.12742658655E+02  0.28801674389E+02  0.51086098249E+02  0.10808019442E+03  0.89886746494E+02 0.  0.
          5    1    3    3  502    0  0.53857962616E+01 -0.25684369598E+02 -0.24614288246E+02  0.36221944024E+02  0.41800000000E+01 0.  1.
         -5    1    3    3    0  502  0.73568623938E+01 -0.31173047913E+01  0.13007774732E+03  0.13038992967E+03  0.41800000000E+01 0.  1.
        -11    1    4    4    0    0  0.11185410370E+02 -0.12772965318E+01  0.65925159706E+02  0.66879530305E+02  0.00000000000E+00 0.  1.
         11    1    4    4    0    0 -0.23928069025E+02  0.30078970921E+02 -0.14839061457E+02  0.41200664119E+02  0.00000000000E+00 0. -1.
</event>
<event>
 8    1  0.6185113E-009  0.8173113E+02  0.7561462E-02  0.1324209E+00
         -2   -1    0    0    0  501 -0.00000000000E+00  0.00000000000E+00  0.60742774888E+02  0.60742774888E+02  0.00000000000E+00 0. -1.
          2   -1    0    0  501    0  0.00000000000E+00 -0.00000000000E+00 -0.23504813384E+03  0.23504813384E+03  0.00000000000E+00 0.  1.
         25    2    1    2    0    0 -0.30889699801E+02  0.69806175628E+01 -0.14756115125E+03  0.19600953726E+03  0.12507015136E+03 0.  0.
         23    2    1    2    0    0  0.30889699801E+02 -0.69806175628E+01 -0.26744207701E+02  0.99781371471E+02  0.90764348021E+02 0.  0.
          5    1    3    3  502    0  0.13085387339E+02  0.52738340761E+02 -0.10837495051E+03  0.12130606847E+03  0.41800000000E+01 0. -1.
         -5    1    3    3    0  502 -0.43975087140E+02 -0.45757723198E+02 -0.39186200739E+02  0.74703468792E+02  0.41800000000E+01 0. -1.
        -11    1    4    4    0    0  0.18734362982E+02 -0.20101099460E+02 -0.57768575674E+02  0.63970609590E+02  0.00000000000E+00 0.  1.
         11    1    4    4    0    0  0.12155336819E+02  0.13120481897E+02  0.31024367973E+02  0.35810761881E+02  0.00000000000E+00 0. -1.
</event>
<event>
 8    1  0.6185113E-009  0.1278052E+03  0.7561462E-02  0.1230749E+00
         -2   -1    0    0    0  501 -0.00000000000E+00  0.00000000000E+00  0.16099102859E+03  0.16099102859E+03  0.00000000000E+00 0. -1.
          2   -1    0    0  501    0  0.00000000000E+00 -0.00000000000E+00 -0.11949806800E+03  0.11949806800E+03  0.00000000000E+00 0.  1.
         25    2    1    2    0    0 -0.75587238024E+02  0.12849539254E+02  0.62621862587E+02  0.15951602022E+03  0.12508126088E+03 0.  0.
         23    2    1    2    0    0  0.75587238024E+02 -0.12849539254E+02 -0.21128902001E+02  0.12097307637E+03  0.91156532922E+02 0.  0.
          5    1    3    3  502    0  0.30254743590E+02 -0.18281659303E+02  0.86800191047E+01  0.36638554941E+02  0.41800000000E+01 0.  1.
         -5    1    3    3    0  502 -0.10584198161E+03  0.31131198557E+02  0.53941843483E+02  0.12287746528E+03  0.41800000000E+01 0.  1.
        -11    1    4    4    0    0  0.76787605459E+02  0.17892774736E+02  0.71720959208E+01  0.79170238725E+02  0.00000000000E+00 0. -1.
         11    1    4    4    0    0 -0.12003674350E+01 -0.30742313990E+02 -0.28300997921E+02  0.41802837640E+02  0.00000000000E+00 0.  1.
</event>
<event>
 8    1  0.6185113E-009  0.9919818E+02  0.7561462E-02  0.1281991E+00
          2   -1    0    0  501    0  0.00000000000E+00  0.00000000000E+00  0.81749014593E+03  0.81749014593E+03  0.00000000000E+00 0.  1.
         -2   -1    0    0    0  501 -0.00000000000E+00 -0.00000000000E+00 -0.19833558146E+02  0.19833558146E+02  0.00000000000E+00 0. -1.
         25    2    1    2    0    0 -0.41444768401E+02  0.51970807556E+02  0.52744960258E+03  0.54614035396E+03  0.12509024461E+03 0.  0.
         23    2    1    2    0    0  0.41444768401E+02 -0.51970807556E+02  0.27020698520E+03  0.29118335011E+03  0.85774674966E+02 0.  0.
          5    1    3    3  502    0 -0.20827237317E+02 -0.24146312990E+02  0.35517502595E+03  0.35662808316E+03  0.41800000000E+01 0. -1.
         -5    1    3    3    0  502 -0.20617531084E+02  0.76117120546E+02  0.17227457664E+03  0.18951227080E+03  0.41800000000E+01 0. -1.
        -11    1    4    4    0    0  0.43034748193E+02 -0.86252830606E+01  0.22216009718E+03  0.22645417603E+03  0.00000000000E+00 0.  1.
         11    1    4    4    0    0 -0.15899797918E+01 -0.43345524495E+02  0.48046888017E+02  0.64729174084E+02  0.00000000000E+00 0. -1.
</event>
<event>
 8    1  0.6185113E-009  0.9720288E+02  0.7561462E-02  0.1286290E+00
         -1   -1    0    0    0  501 -0.00000000000E+00  0.00000000000E+00  0.58293601615E+02  0.58293601615E+02  0.00000000000E+00 0.  1.
          1   -1    0    0  501    0  0.00000000000E+00 -0.00000000000E+00 -0.30247713213E+03  0.30247713213E+03  0.00000000000E+00 0. -1.
         25    2    1    2    0    0  0.14194799795E+02  0.26308981786E+02 -0.22388515410E+03  0.25819664389E+03  0.12508912752E+03 0.  0.
         23    2    1    2    0    0 -0.14194799795E+02 -0.26308981786E+02 -0.20298376417E+02  0.10257408986E+03  0.95998775834E+02 0.  0.
          5    1    3    3  502    0  0.38750873064E+02 -0.27915166148E+02 -0.32997580292E+02  0.58199650939E+02  0.41800000000E+01 0. -1.
         -5    1    3    3    0  502 -0.24556073270E+02  0.54224147934E+02 -0.19088757381E+03  0.19999699295E+03  0.41800000000E+01 0. -1.
        -11    1    4    4    0    0 -0.42996370146E+02 -0.36337848384E+02 -0.37421687874E+02  0.67598149341E+02  0.00000000000E+00 0. -1.
         11    1    4    4    0    0  0.28801570351E+02  0.10028866598E+02  0.17123311458E+02  0.34975940519E+02  0.00000000000E+00 0.  1.
</event>
<event>
 8    1  0.6185113E-009  0.1266877E+03  0.7561462E-02  0.1232455E+00
          1   -1    0    0  501    0  0.00000000000E+00  0.00000000000E+00  0.39877407910E+03  0.39877407910E+03  0.00000000000E+00 0. -1.
         -1   -1    0    0    0  501 -0.00000000000E+00 -0.00000000000E+00 -0.54163739652E+02  0.54163739652E+02  0.00000000000E+00 0.  1.
         25    2    1    2    0    0 -0.50260070602E+02 -0.69013073216E+02  0.26307908889E+03  0.30355746984E+03  0.12509057322E+03 0.  0.
         23    2    1    2    0    0  0.50260070602E+02  0.69013073216E+02  0.81531250557E+02  0.14938034892E+03  0.91532862151E+02 0.  0.
          5    1    3    3  502    0  0.27845931634E+02 -0.86829309816E+01  0.87799197217E+01  0.30746521581E+02  0.41800000000E+01 0.  1.
         -5    1    3    3    0  502 -0.78106002237E+02 -0.60330142235E+02  0.25429916917E+03  0.27281094826E+03  0.41800000000E+01 0.  1.
        -11    1    4    4    0    0 -0.18517958814E+02  0.50667128422E+02  0.33269924215E+02  0.63379496357E+02  0.00000000000E+00 0.  1.
         11    1    4    4    0    0  0.68778029417E+02  0.18345944795E+02  0.48261326342E+02  0.86000852561E+02  0.00000000000E+00 0. -1.
</event>
<event>
 8    1  0.6185113E-009  0.1008407E+03  0.7561462E-02  0.1278538E+00
          2   -1    0    0  501    0  0.00000000000E+00  0.00000000000E+00  0.10285218502E+03  0.10285218502E+03  0.00000000000E+00 0. -1.
         -2   -1    0    0    0  501 -0.00000000000E+00 -0.00000000000E+00 -0.12626720174E+03  0.12626720174E+03  0.00000000000E+00 0.  1.
         25    2    1    2    0    0  0.17136802942E+02 -0.23854106887E+02 -0.31884153903E+02  0.13238566783E+03  0.12508667934E+03 0.  0.
         23    2    1    2    0    0 -0.17136802942E+02  0.23854106887E+02  0.84691371791E+01  0.96733718932E+02  0.91776890682E+02 0.  0.
          5    1    3    3  502    0  0.16453332614E+02 -0.73657960976E+02 -0.32788237389E+02  0.82393860696E+02  0.41800000000E+01 0. -1.
         -5    1    3    3    0  502  0.68347032852E+00  0.49803854090E+02  0.90408348620E+00  0.49991807137E+02  0.41800000000E+01 0. -1.
        -11    1    4    4    0    0  0.62550359710E+01 -0.22948742512E+02  0.31578718454E+02  0.39534614164E+02  0.00000000000E+00 0. -1.
         11    1    4    4    0    0 -0.23391838913E+02  0.46802849398E+02 -0.23109581275E+02  0.57199104768E+02  0.00000000000E+00 0.  1.
</event>
<event>
 8    1  0.6185113E-009  0.1373124E+03  0.7561462E-02  0.1216992E+00
         -2   -1    0    0    0  501 -0.00000000000E+00  0.00000000000E+00  0.18631990396E+02  0.18631990396E+02  0.00000000000E+00 0.  1.
          2   -1    0    0  501    0  0.00000000000E+00 -0.00000000000E+00 -0.19736956189E+04  0.19736956189E+04  0.00000000000E+00 0. -1.
         25    2    1    2    0    0 -0.57443875715E+02 -0.10523814089E+03 -0.15532645170E+04  0.15628989387E+04  0.12509023876E+03 0.  0.
         23    2    1    2    0    0  0.57443875715E+02  0.10523814089E+03 -0.40179911153E+03  0.42942867057E+03  0.92690840562E+02 0.  0.
          5    1    3    3  502    0 -0.66180717839E+02 -0.23568288056E+02 -0.10989047702E+04  0.11011559917E+04  0.41800000000E+01 0.  1.
         -5    1    3    3    0  502  0.87368421242E+01 -0.81669852835E+02 -0.45435974678E+03  0.46174294707E+03  0.41800000000E+01 0.  1.
        -11    1    4    4    0    0  0.20827507595E+02  0.18505207438E+02 -0.15622679118E+02  0.31942070656E+02  0.00000000000E+00 0.  1.
         11    1    4    4    0    0  0.36616368120E+02  0.86732933453E+02 -0.38617643241E+03  0.39748659991E+03  0.00000000000E+00 0. -1.
</event>
<event>
 8    1  0.6185113E-009  0.2188187E+03  0.7561462E-02  0.1134767E+00
         -2   -1    0    0    0  501 -0.00000000000E+00  0.00000000000E+00  0.14401917019E+03  0.14401917019E+03  0.00000000000E+00 0.  1.
          2   -1    0    0  501    0  0.00000000000E+00 -0.00000000000E+00 -0.39185832876E+03  0.39185832876E+03  0.00000000000E+00 0. -1.
         25    2    1    2    0    0 -0.21221239426E+03  0.96489856217E+01 -0.14438375451E+03  0.28569421970E+03  0.12508922976E+03 0.  0.
         23    2    1    2    0    0  0.21221239426E+03 -0.96489856217E+01 -0.10345540406E+03  0.25018327926E+03  0.82228032870E+02 0.  0.
          5    1    3    3  502    0 -0.16073461660E+03 -0.25183783552E+02 -0.45788821655E+02  0.16906782223E+03  0.41800000000E+01 0. -1.
         -5    1    3    3    0  502 -0.51477777662E+02  0.34832769174E+02 -0.98594932851E+02  0.11662639746E+03  0.41800000000E+01 0. -1.
        -11    1    4    4    0    0  0.36694107301E+02 -0.48056261086E+01 -0.58015256559E+02  0.68813672671E+02  0.00000000000E+00 0.  1.
         11    1    4    4    0    0  0.17551828696E+03 -0.48433595131E+01 -0.45440147502E+02  0.18136960659E+03  0.00000000000E+00 0. -1.
</event>
<event>
 8    1  0.6185113E-009  0.1285134E+03  0.7561462E-02  0.1229678E+00
         -2   -1    0    0    0  501 -0.00000000000E+00  0.00000000000E+00  0.42918205650E+02  0.42918205650E+02  0.00000000000E+00 0.  1.
          2   -1    0    0  501    0  0.00000000000E+00 -0.00000000000E+00 -0.68042245310E+03  0.68042245310E+03  0.00000000000E+00 0. -1.
         25    2    1    2    0    0  0.40670242139E+02  0.92473261937E+02 -0.51903331051E+03  0.54336724306E+03  0.12508801160E+03 0.  0.
         23    2    1    2    0    0 -0.40670242139E+02 -0.92473261937E+02 -0.11847093694E+03  0.17997341569E+03  0.90275659433E+02 0.  0.
          5    1    3    3  502    0  0.61995562107E+02  0.10458608299E+03 -0.49117965469E+03  0.50602037910E+03  0.41800000000E+01 0. -1.
         -5    1    3    3    0  502 -0.21325319968E+02 -0.12112821055E+02 -0.27853655813E+02  0.37346863962E+02  0.41800000000E+01 0. -1.
        -11    1    4    4    0    0 -0.98230262167E+01 -0.73771070467E+02 -0.12285055357E+03  0.14363467964E+03  0.00000000000E+00 0. -1.
         11    1    4    4    0    0 -0.30847215922E+02 -0.18702191470E+02  0.43796166307E+01  0.36338736051E+02  0.00000000000E+00 0.  1.
</event>
<event>
 7    1  0.6185113E-009  0.1292330E+03  0.7561462E-02  0.1228598E+00
         -2   -1    0    0    0  501 -0.00000000000E+00  0.00000000000E+00  0.36004817593E+02  0.36004817593E+02  0.00000000000E+00 0.  1.
          2   -1    0    0  501    0  0.00000000000E+00 -0.00000000000E+00 -0.10623771987E+04  0.10623771987E+04  0.00000000000E+00 0. -1.
         25    2    1    2    0    0  0.72609177892E+02  0.81704395678E+02 -0.77453830358E+03  0.79214951181E+03  0.12507423539E+03 0.  0.
          5    1    3    3  502    0  0.38565382336E+02  0.10092952972E+03 -0.69567168430E+03  0.70402459007E+03  0.41800000000E+01 0. -1.
         -5    1    3    3    0  502  0.34043795555E+02 -0.19225134044E+02 -0.78866619278E+02  0.88124921737E+02  0.41800000000E+01 0. -1.
        -11    1    1    2    0    0 -0.36190603753E+02 -0.55080315683E+02 -0.18325844555E+02  0.68406414570E+02  0.00000000000E+00 0.  1.
         11    1    1    2    0    0 -0.36418574138E+02 -0.26624079996E+02 -0.23350823295E+03  0.23782608989E+03  0.00000000000E+00 0. -1.
</event>
<event>
 8    1  0.6185113E-009  0.1544839E+03  0.7561462E-02  0.1195069E+00
          2   -1    0    0  501    0  0.00000000000E+00  0.00000000000E+00  0.11803451793E+04  0.11803451793E+04  0.00000000000E+00 0. -1.
         -2   -1    0    0    0  501 -0.00000000000E+00 -0.00000000000E+00 -0.26682011788E+02  0.26682011788E+02  0.00000000000E+00 0.  1.
         25    2    1    2    0    0  0.25869991808E+02  0.13404988463E+03  0.64678132485E+03  0.67276239498E+03  0.12507809510E+03 0.  0.
         23    2    1    2    0    0 -0.25869991808E+02 -0.13404988463E+03  0.50688184269E+03  0.53426479614E+03  0.99353117208E+02 0.  0.
          5    1    3    3  502    0  0.31197742023E+02  0.44488766913E+02  0.68435802868E+02  0.87484175729E+02  0.41800000000E+01 0. -1.
         -5    1    3    3    0  502 -0.53277502153E+01  0.89561117717E+02  0.57834552198E+03  0.58527821925E+03  0.41800000000E+01 0. -1.
        -11    1    4    4    0    0  0.80891387504E+00 -0.13772051216E+03  0.37095427676E+03  0.39569517214E+03  0.00000000000E+00 0.  1.
         11    1    4    4    0    0 -0.26678905683E+02  0.36706275253E+01  0.13592756594E+03  0.13856962400E+03  0.00000000000E+00 0. -1.
</event>
<event>
 8    1  0.6185113E-009  0.9895862E+02  0.7561462E-02  0.1282501E+00
         -3   -1    0    0    0  501 -0.00000000000E+00  0.00000000000E+00  0.26034870576E+03  0.26034870576E+03  0.00000000000E+00 0.  1.
          3   -1    0    0  501    0  0.00000000000E+00 -0.00000000000E+00 -0.66251107514E+02  0.66251107514E+02  0.00000000000E+00 0. -1.
         25    2    1    2    0    0 -0.41363763083E+02  0.57150368761E+02  0.80482872260E+02  0.16463615136E+03  0.12510173485E+03 0.  0.
         23    2    1    2    0    0  0.41363763083E+02 -0.57150368761E+02  0.11361472598E+03  0.16196366191E+03  0.91360802719E+02 0.  0.
          5    1    3    3  502    0 -0.48052509419E+02  0.31037458502E+02  0.11023963905E+03  0.12426833027E+03  0.41800000000E+01 0.  1.
         -5    1    3    3    0  502  0.66887463360E+01  0.26112910260E+02 -0.29756766787E+02  0.40367821088E+02  0.41800000000E+01 0.  1.
        -11    1    4    4    0    0  0.58831960304E+02 -0.70115526998E+02  0.78121653665E+02  0.12033444831E+03  0.00000000000E+00 0. -1.
         11    1    4    4    0    0 -0.17468197221E+02  0.12965158236E+02  0.35493072319E+02  0.41629213599E+02  0.00000000000E+00 0.  1.
</event>
<event>
 8    1  0.6185113E-009  0.1161755E+03  0.7561462E-02  0.1249543E+00
          2   -1    0    0  501    0  0.00000000000E+00  0.00000000000E+00  0.42562223484E+02  0.42562223484E+02  0.00000000000E+00 0.  1.
         -2   -1    0    0    0  501 -0.00000000000E+00 -0.00000000000E+00 -0.46283050478E+03  0.46283050478E+03  0.00000000000E+00 0. -1.
         25    2    1    2    0    0 -0.37927687768E+02 -0.81184962600E+02 -0.23585421655E+03  0.28161101107E+03  0.12509213579E+03 0.  0.
         23    2    1    2    0    0  0.37927687768E+02  0.81184962600E+02 -0.18441406474E+03  0.22378171719E+03  0.89667173619E+02 0.  0.
          5    1    3    3  502    0  0.21056272709E+02 -0.10104567696E+02  0.44433229244E+01  0.24138857208E+02  0.41800000000E+01 0.  1.
         -5    1    3    3    0  502 -0.58983960477E+02 -0.71080394904E+02 -0.24029753948E+03  0.25747215386E+03  0.41800000000E+01 0.  1.
        -11    1    4    4    0    0 -0.42880077152E+01  0.73044782524E+02 -0.15582917363E+03  0.17215300932E+03  0.00000000000E+00 0. -1.
         11    1    4    4    0    0  0.42215695484E+02  0.81401800755E+01 -0.28584891108E+02  0.51628707872E+02  0.00000000000E+00 0.  1.
</event>
<event>
 8    1  0.6185113E-009  0.7821691E+02  0.7561462E-02  0.1334189E+00
          2   -1    0    0  501    0  0.00000000000E+00  0.00000000000E+00  0.31961286023E+03  0.31961286023E+03  0.00000000000E+00 0. -1.
         -2   -1    0    0    0  501 -0.00000000000E+00 -0.00000000000E+00 -0.47678376710E+02  0.47678376710E+02  0.00000000000E+00 0.  1.
         25    2    1    2    0    0 -0.57985860731E+02  0.49010547668E+02  0.16371544319E+03  0.21957343338E+03  0.12508138343E+03 0.  0.
         23    2    1    2    0    0  0.57985860731E+02 -0.49010547668E+02  0.10821904034E+03  0.14771780356E+03  0.65915058758E+02 0.  0.
          5    1    3    3  502    0 -0.51060477160E+01  0.13821353930E+02  0.15449649932E+03  0.15525379947E+03  0.41800000000E+01 0.  1.
         -5    1    3    3    0  502 -0.52879813015E+02  0.35189193738E+02  0.92189438691E+01  0.64319633912E+02  0.41800000000E+01 0.  1.
        -11    1    4    4    0    0  0.40946840769E+02 -0.43043998703E+02  0.28336951592E+02  0.65821063641E+02  0.00000000000E+00 0.  1.
         11    1    4    4    0    0  0.17039019962E+02 -0.59665489649E+01  0.79882088744E+02  0.81896739922E+02  0.00000000000E+00 0. -1.
</event>
<event>
 8    1  0.6185113E-009  0.1008241E+03  0.7561462E-02  0.1278572E+00
         -1   -1    0    0    0  501 -0.00000000000E+00  0.00000000000E+00  0.24022530188E+02  0.24022530188E+02  0.00000000000E+00 0.  1.
          1   -1    0    0  501    0  0.00000000000E+00 -0.00000000000E+00 -0.59674119247E+03  0.59674119247E+03  0.00000000000E+00 0. -1.
         25    2    1    2    0    0 -0.13352883577E+02  0.45536280475E+02 -0.28599619833E+03  0.31572639917E+03  0.12504991537E+03 0.  0.
         23    2    1    2    0    0  0.13352883577E+02 -0.45536280475E+02 -0.28672246395E+03  0.30503732349E+03  0.92661453947E+02 0.  0.
          5    1    3    3  502    0 -0.65707098927E+02  0.45713675049E+02 -0.19185689427E+03  0.20792715843E+03  0.41800000000E+01 0.  1.
         -5    1    3    3    0  502  0.52354215350E+02 -0.17739457379E+00 -0.94139304064E+02  0.10779924074E+03  0.41800000000E+01 0.  1.
        -11    1    4    4    0    0  0.21677833821E+02  0.99738338116E+00 -0.92890386401E+01  0.23605285248E+02  0.00000000000E+00 0.  1.
         11    1    4    4    0    0 -0.83249502438E+01 -0.46533663856E+02 -0.27743342531E+03  0.28143203824E+03  0.00000000000E+00 0. -1.
</event>
<event>
 8    1  0.6185113E-009  0.1117907E+03  0.7561462E-02  0.1257289E+00
         -1   -1    0    0    0  501 -0.00000000000E+00  0.00000000000E+00  0.88055838421E+02  0.88055838421E+02  0.00000000000E+00 0. -1.
          1   -1    0    0  501    0  0.00000000000E+00 -0.00000000000E+00 -0.26706521057E+03  0.26706521057E+03  0.00000000000E+00 0.  1.
         25    2    1    2    0    0  0.88555209909E+02  0.19170887548E+02 -0.27950715716E+02  0.15696616653E+03  0.12509031455E+03 0.  0.
         23    2    1    2    0    0 -0.88555209909E+02 -0.19170887548E+02 -0.15105865643E+03  0.19815488246E+03  0.90758424558E+02 0.  0.
          5    1    3    3  502    0  0.60591477047E+02  0.35393386674E+02 -0.73010798289E+02  0.10135121103E+03  0.41800000000E+01 0. -1.
         -5    1    3    3    0  502  0.27963732862E+02 -0.16222499127E+02  0.45060082572E+02  0.55614955497E+02  0.41800000000E+01 0. -1.
        -11    1    4    4    0    0 -0.43166638074E+02 -0.49820534877E+02 -0.11509065755E+03  0.13263221250E+03  0.00000000000E+00 0. -1.
         11    1    4    4    0    0 -0.45388571835E+02  0.30649647330E+02 -0.35967998879E+02  0.65522669955E+02  0.00000000000E+00 0.  1.
</event>
<event>
 8    1  0.6185113E-009  0.9183938E+02  0.7561462E-02  0.1298458E+00
         -2   -1    0    0    0  501 -0.00000000000E+00  0.00000000000E+00  0.38385323933E+02  0.38385323933E+02  0.00000000000E+00 0.  1.
          2   -1    0    0  501    0  0.00000000000E+00 -0.00000000000E+00 -0.38465836044E+03  0.38465836044E+03  0.00000000000E+00 0. -1.
         25    2    1    2    0    0 -0.49843753643E+01  0.52768793114E+02 -0.23993541326E+03  0.27572978843E+03  0.12509406128E+03 0.  0.
         23    2    1    2    0    0  0.49843753643E+01 -0.52768793114E+02 -0.10633762325E+03  0.14731389594E+03  0.87087911305E+02 0.  0.
          5    1    3    3  502    0 -0.58616246456E+02  0.54446229182E+01 -0.14683699458E+03  0.15825322633E+03  0.41800000000E+01 0.  1.
         -5    1    3    3    0  502  0.53631871092E+02  0.47324170196E+02 -0.93098418675E+02  0.11747656209E+03  0.41800000000E+01 0.  1.
        -11    1    4    4    0    0  0.10743257461E+01 -0.16540449996E+02  0.13927429749E+02  0.21649802800E+02  0.00000000000E+00 0.  1.
         11    1    4    4    0    0  0.39100496182E+01 -0.36228343118E+02 -0.12026505300E+03  0.12566409314E+03  0.00000000000E+00 0. -1.
</event>
<event>
 8    1  0.6185113E-009  0.1046277E+03  0.7561462E-02  0.1270855E+00
         -1   -1    0    0    0  501 -0.00000000000E+00  0.00000000000E+00  0.23642009052E+02  0.23642009052E+02  0.00000000000E+00 0.  1.
          1   -1    0    0  501    0  0.00000000000E+00 -0.00000000000E+00 -0.58656066391E+03  0.58656066391E+03  0.00000000000E+00 0. -1.
         25    2    1    2    0    0 -0.16396685430E+02 -0.15043364766E+02 -0.42507810562E+03  0.44365913970E+03  0.12508749836E+03 0.  0.
         23    2    1    2    0    0  0.16396685430E+02  0.15043364766E+02 -0.13784054924E+03  0.16654353326E+03  0.90783133564E+02 0.  0.
          5    1    3    3  502    0 -0.62483280547E+01 -0.70287493610E+02 -0.24202920430E+03  0.25214079697E+03  0.41800000000E+01 0. -1.
         -5    1    3    3    0  502 -0.10148357375E+02  0.55244128844E+02 -0.18304890132E+03  0.19151834273E+03  0.41800000000E+01 0. -1.
        -11    1    4    4    0    0 -0.12854719659E+02  0.41103653148E+02 -0.11097990912E+03  0.11904324570E+03  0.00000000000E+00 0. -1.
         11    1    4    4    0    0  0.29251405088E+02 -0.26060288383E+02 -0.26860640118E+02  0.47500287555E+02  0.00000000000E+00 0.  1.
</event>
<event>
 8    1  0.6185113E-009  0.1672524E+03  0.7561462E-02  0.1180744E+00
          1   -1    0    0  501    0  0.00000000000E+00  0.00000000000E+00  0.38903781355E+03  0.38903781355E+03  0.00000000000E+00 0. -1.
         -1   -1    0    0    0  501 -0.00000000000E+00 -0.00000000000E+00 -0.90836742299E+02  0.90836742299E+02  0.00000000000E+00 0.  1.
         25    2    1    2    0    0 -0.13643317906E+03 -0.58584995557E+02  0.99312616517E+02  0.21807661198E+03  0.12509276095E+03 0.  0.
         23    2    1    2    0    0  0.13643317906E+03  0.58584995557E+02  0.19888845473E+03  0.26179794387E+03  0.83278640334E+02 0.  0.
          5    1    3    3  502    0  0.12862488972E+01  0.14815054046E+02  0.53047983413E+02  0.55251255251E+02  0.41800000000E+01 0. -1.
         -5    1    3    3    0  502 -0.13771942795E+03 -0.73400049603E+02  0.46264633104E+02  0.16282535673E+03  0.41800000000E+01 0. -1.
        -11    1    4    4    0    0  0.11807355066E+03  0.19381371523E+02  0.10825672402E+03  0.16135835653E+03  0.00000000000E+00 0. -1.
         11    1    4    4    0    0  0.18359628398E+02  0.39203624034E+02  0.90631730713E+02  0.10043958734E+03  0.00000000000E+00 0.  1.
</event>
<event>
 8    1  0.6185113E-009  0.1164799E+03  0.7561462E-02  0.1249020E+00
          2   -1    0    0  501    0  0.00000000000E+00  0.00000000000E+00  0.33266478118E+02  0.33266478118E+02  0.00000000000E+00 0. -1.
         -2   -1    0    0    0  501 -0.00000000000E+00 -0.00000000000E+00 -0.54139925893E+03  0.54139925893E+03  0.00000000000E+00 0.  1.
         25    2    1    2    0    0  0.53043862672E+02  0.42109207967E+02 -0.19083883422E+03  0.23801309700E+03  0.12507572481E+03 0.  0.
         23    2    1    2    0    0 -0.53043862672E+02 -0.42109207967E+02 -0.31729394659E+03  0.33665264005E+03  0.89848287365E+02 0.  0.
          5    1    3    3  502    0 -0.21993044574E+00 -0.39911841485E+02 -0.84106016684E+02  0.93189580440E+02  0.41800000000E+01 0. -1.
         -5    1    3    3    0  502  0.53263793118E+02  0.82021049452E+02 -0.10673281753E+03  0.14482351656E+03  0.41800000000E+01 0. -1.
        -11    1    4    4    0    0 -0.48455329005E+02  0.39855238882E+01 -0.71068241522E+02  0.86107480875E+02  0.00000000000E+00 0. -1.
         11    1    4    4    0    0 -0.45885336674E+01 -0.46094731855E+02 -0.24622570507E+03  0.25054515917E+03  0.00000000000E+00 0.  1.
</event>
<event>
 8    1  0.6185113E-009  0.1127187E+03  0.7561462E-02  0.1255616E+00
          3   -1    0    0  501    0  0.00000000000E+00  0.00000000000E+00  0.11404557351E+03  0.11404557351E+03  0.00000000000E+00 0. -1.
         -3   -1    0    0    0  501 -0.00000000000E+00 -0.00000000000E+00 -0.12902168304E+03  0.12902168304E+03  0.00000000000E+00 0.  1.
         25    2    1    2    0    0  0.41428162692E-01 -0.62402680004E+02 -0.17589738210E+02  0.14093680739E+03  0.12513867747E+03 0.  0.
         23    2    1    2    0    0 -0.41428162692E-01  0.62402680004E+02  0.26136286742E+01  0.10213044916E+03  0.80806567822E+02 0.  0.
          5    1    3    3  502    0  0.53304651372E+02 -0.41694870525E+02  0.22008148416E+02  0.71285896800E+02  0.41800000000E+01 0. -1.
         -5    1    3    3    0  502 -0.53263223209E+02 -0.20707809480E+02 -0.39597886626E+02  0.69650910585E+02  0.41800000000E+01 0. -1.
        -11    1    4    4    0    0  0.38409583791E+02  0.41585553996E+02  0.10841674960E+02  0.57638497067E+02  0.00000000000E+00 0. -1.
         11    1    4    4    0    0 -0.38451011954E+02  0.20817126008E+02 -0.82280462855E+01  0.44491952095E+02  0.00000000000E+00 0.  1.
</event>
<event>
 8    1  0.6185113E-009  0.1201096E+03  0.7561462E-02  0.1242916E+00
         -1   -1    0    0    0  501 -0.00000000000E+00  0.00000000000E+00  0.49121781775E+02  0.49121781775E+02  0.00000000000E+00 0.  1.
          1   -1    0    0  501    0  0.00000000000E+00 -0.00000000000E+00 -0.42485750169E+03  0.42485750169E+03  0.00000000000E+00 0. -1.
         25    2    1    2    0    0  0.86811078648E+02  0.28382141553E+02 -0.24893927364E+03  0.29318904854E+03  0.12508935563E+03 0.  0.
         23    2    1    2    0    0 -0.86811078648E+02 -0.28382141553E+02 -0.12679644628E+03  0.18079023492E+03  0.90917880084E+02 0.  0.
          5    1    3    3  502    0  0.28756267632E+02 -0.42901610512E+02 -0.41968634939E+02  0.66680655600E+02  0.41800000000E+01 0.  1.
         -5    1    3    3    0  502  0.58054811017E+02  0.71283752065E+02 -0.20697063870E+03  0.22650839294E+03  0.41800000000E+01 0.  1.
        -11    1    4    4    0    0 -0.12378015152E+02 -0.17071691998E+02  0.10988180357E+02  0.23778099889E+02  0.00000000000E+00 0.  1.
         11    1    4    4    0    0 -0.74433063496E+02 -0.11310449555E+02 -0.13778462663E+03  0.15701213503E+03  0.00000000000E+00 0. -1.
</event>
<event>
 8    1  0.6185113E-009  0.2778242E+03  0.7561462E-02  0.1096883E+00
         -1   -1    0    0    0  501 -0.00000000000E+00  0.00000000000E+00  0.77168962483E+02  0.77168962483E+02  0.00000000000E+00 0.  1.
          1   -1    0    0  501    0  0.00000000000E+00 -0.00000000000E+00 -0.10959667715E+04  0.10959667715E+04  0.00000000000E+00 0. -1.
         25    2    1    2    0    0  0.13716975461E+02  0.26925414799E+03 -0.56362423477E+03  0.63718577191E+03  0.12508988079E+03 0.  0.
         23    2    1    2    0    0 -0.13716975461E+02 -0.26925414799E+03 -0.45517357423E+03  0.53594996206E+03  0.85868664404E+02 0.  0.
          5    1    3    3  502    0 -0.15575739036E+02  0.16000291648E+03 -0.44527246041E+03  0.47342219353E+03  0.41800000000E+01 0.  1.
         -5    1    3    3    0  502  0.29292714497E+02  0.10925123151E+03 -0.11835177436E+03  0.16376357838E+03  0.41800000000E+01 0.  1.
        -11    1    4    4    0    0 -0.35948547708E+02 -0.51753595574E+02 -0.81560136457E+02  0.10306691320E+03  0.00000000000E+00 0.  1.
         11    1    4    4    0    0  0.22231572247E+02 -0.21750055242E+03 -0.37361343778E+03  0.43288304886E+03  0.00000000000E+00 0. -1.
</event>
<event>
 8    1  0.6185113E-009  0.1183846E+03  0.7561462E-02  0.1245786E+00
         -1   -1    0    0    0  501 -0.00000000000E+00  0.00000000000E+00  0.31398205948E+03  0.31398205948E+03  0.00000000000E+00 0.  1.
          1   -1    0    0  501    0  0.00000000000E+00 -0.00000000000E+00 -0.57275870531E+02  0.57275870531E+02  0.00000000000E+00 0. -1.
         25    2    1    2    0    0  0.32695813696E+02 -0.50506691750E+02  0.72455966064E+02  0.15657132370E+03  0.12507905596E+03 0.  0.
         23    2    1    2    0    0 -0.32695813696E+02  0.50506691750E+02  0.18425022289E+03  0.21468660632E+03  0.92316044939E+02 0.  0.
          5    1    3    3  502    0 -0.39376425088E+02  0.13981577311E+02  0.21549668936E+02  0.47200084619E+02  0.41800000000E+01 0.  1.
         -5    1    3    3    0  502  0.72072238784E+02 -0.64488269061E+02  0.50906297128E+02  0.10937123908E+03  0.41800000000E+01 0.  1.
        -11    1    4    4    0    0 -0.54503704246E+02  0.15387125282E+02  0.15214656604E+03  0.16234529546E+03  0.00000000000E+00 0.  1.
         11    1    4    4    0    0  0.21807890550E+02  0.35119566468E+02  0.32103656850E+02  0.52341310857E+02  0.00000000000E+00 0. -1.
</event>
<event>
 8    1  0.6185113E-009  0.1347839E+03  0.7561462E-02  0.1220525E+00
          2   -1    0    0  501    0  0.00000000000E+00  0.00000000000E+00  0.18711355326E+03  0.18711355326E+03  0.00000000000E+00 0. -1.
         -2   -1    0    0    0  501 -0.00000000000E+00 -0.00000000000E+00 -0.10642056476E+03  0.10642056476E+03  0.00000000000E+00 0.  1.
         25    2    1    2    0    0  0.76148681474E+02 -0.33710560076E+02  0.86295128919E+02  0.17328508261E+03  0.12508336033E+03 0.  0.
         23    2    1    2    0    0 -0.76148681474E+02  0.33710560076E+02 -0.56021404216E+01  0.12024903541E+03  0.86564559652E+02 0.  0.
          5    1    3    3  502    0  0.27512396197E+02  0.47545195227E+02  0.37772974507E+02  0.66796313797E+02  0.41800000000E+01 0.  1.
         -5    1    3    3    0  502  0.48636285277E+02 -0.81255755304E+02  0.48522154412E+02  0.10648876882E+03  0.41800000000E+01 0.  1.
        -11    1    4    4    0    0 -0.34364680575E+02 -0.28568284752E+02 -0.70308493607E+01  0.45238379806E+02  0.00000000000E+00 0.  1.
         11    1    4    4    0    0 -0.41784000899E+02  0.62278844828E+02  0.14287089391E+01  0.75010655600E+02  0.00000000000E+00 0. -1.
</event>
<event>
 8    1  0.6185113E-009  0.8767965E+02  0.7561462E-02  0.1308570E+00
          3   -1    0    0  501    0  0.00000000000E+00  0.00000000000E+00  0.33915653161E+02  0.33915653161E+02  0.00000000000E+00 0. -1.
         -3   -1    0    0    0  501 -0.00000000000E+00 -0.00000000000E+00 -0.49016231126E+03  0.49016231126E+03  0.00000000000E+00 0.  1.
         25    2    1    2    0    0 -0.40715302617E+02 -0.42105633950E+02 -0.33210438470E+03  0.35968179710E+03  0.12508817911E+03 0.  0.
         23    2    1    2    0    0  0.40715302617E+02  0.42105633950E+02 -0.12414227340E+03  0.16439616732E+03  0.90466433037E+02 0.  0.
          5    1    3    3  502    0  0.16314027162E+02 -0.13490255072E+02 -0.10226507180E+00  0.21578167723E+02  0.41800000000E+01 0. -1.
         -5    1    3    3    0  502 -0.57029329779E+02 -0.28615378878E+02 -0.33200211963E+03  0.33810362938E+03  0.41800000000E+01 0. -1.
        -11    1    4    4    0    0  0.39883885366E+02 -0.71979364680E+01 -0.12602060794E+02  0.42442273002E+02  0.00000000000E+00 0. -1.
         11    1    4    4    0    0  0.83141725051E+00  0.49303570418E+02 -0.11154021261E+03  0.12195389432E+03  0.00000000000E+00 0.  1.
</event>
<event>
 8    1  0.6185113E-009  0.1035210E+03  0.7561462E-02  0.1273061E+00
          1   -1    0    0  501    0  0.00000000000E+00  0.00000000000E+00  0.96144651170E+03  0.96144651170E+03  0.00000000000E+00 0. -1.
         -1   -1    0    0    0  501 -0.00000000000E+00 -0.00000000000E+00 -0.13984238334E+02  0.13984238334E+02  0.00000000000E+00 0.  1.
         25    2    1    2    0    0 -0.20619970090E+02  0.31377619090E+02  0.60385792474E+03  0.61781335355E+03  0.12505682069E+03 0.  0.
         23    2    1    2    0    0  0.20619970090E+02 -0.31377619090E+02  0.34360434862E+03  0.35761739648E+03  0.91741570346E+02 0.  0.
          5    1    3    3  502    0  0.44631206532E+02  0.12705003254E+02  0.40456485776E+03  0.40723894489E+03  0.41800000000E+01 0.  1.
         -5    1    3    3    0  502 -0.65251176622E+02  0.18672615837E+02  0.19929306699E+03  0.21057440866E+03  0.41800000000E+01 0.  1.
        -11    1    4    4    0    0 -0.16771755816E+02 -0.48505288520E+02  0.25245241664E+03  0.25761653183E+03  0.00000000000E+00 0. -1.
         11    1    4    4    0    0  0.37391725906E+02  0.17127669430E+02  0.91151931984E+02  0.10000086465E+03  0.00000000000E+00 0.  1.
</event>
<event>
 8    1  0.6185113E-009  0.9294855E+02  0.7561462E-02  0.1295864E+00
          2   -1    0    0  501    0  0.00000000000E+00  0.00000000000E+00  0.55999910682E+03  0.55999910682E+03  0.00000000000E+00 0. -1.
         -2   -1    0    0    0  501 -0.00000000000E+00 -0.00000000000E+00 -0.24854345650E+02  0.24854345650E+02  0.00000000000E+00 0.  1.
         25    2    1    2    0    0  0.26549290428E+02 -0.17109548466E+02  0.37120444146E+03  0.39298586485E+03  0.12509017204E+03 0.  0.
         23    2    1    2    0    0 -0.26549290428E+02  0.17109548466E+02  0.16394031970E+03  0.19186758761E+03  0.94547032113E+02 0.  0.
          5    1    3    3  502    0  0.35823289289E+02  0.24369820014E+02  0.33253624050E+03  0.33537295632E+03  0.41800000000E+01 0.  1.
         -5    1    3    3    0  502 -0.92739988612E+01 -0.41479368479E+02  0.38668200966E+02  0.57612908539E+02  0.41800000000E+01 0.  1.
        -11    1    4    4    0    0  0.23158080140E+02 -0.25315658370E+02  0.54517795573E+02  0.64415598022E+02  0.00000000000E+00 0.  1.
         11    1    4    4    0    0 -0.49707370568E+02  0.42425206836E+02  0.10942252413E+03  0.12745198959E+03  0.00000000000E+00 0. -1.
</event>
<event>
 8    1  0.6185113E-009  0.1048058E+03  0.7561462E-02  0.1270503E+00
         -2   -1    0    0    0  501 -0.00000000000E+00  0.00000000000E+00  0.13460689849E+03  0.13460689849E+03  0.00000000000E+00 0.  1.
          2   -1    0    0  501    0  0.00000000000E+00 -0.00000000000E+00 -0.12657904388E+03  0.12657904388E+03  0.00000000000E+00 0. -1.
         25    2    1    2    0    0 -0.29031901598E+01  0.25815612818E+02 -0.63737401821E+02  0.14278262274E+03  0.12509814781E+03 0.  0.
         23    2    1    2    0    0  0.29031901598E+01 -0.25815612818E+02  0.71765256426E+02  0.11840331963E+03  0.90521929344E+02 0.  0.
          5    1    3    3  502    0 -0.47364532375E+01  0.76312700553E+02 -0.32177377715E+02  0.83059727254E+02  0.41800000000E+01 0. -1.
         -5    1    3    3    0  502  0.18332630776E+01 -0.50497087735E+02 -0.31560024106E+02  0.59722895482E+02  0.41800000000E+01 0. -1.
        -11    1    4    4    0    0  0.34994940600E+02 -0.34445276343E+02  0.12841597884E+02  0.50754601428E+02  0.00000000000E+00 0. -1.
         11    1    4    4    0    0 -0.32091750440E+02  0.86296635250E+01  0.58923658542E+02  0.67648718205E+02  0.00000000000E+00 0.  1.
</event>
<event>
 8    1  0.6185113E-009  0.3428164E+03  0.7561462E-02  0.1065603E+00
         -2   -1    0    0    0  501 -0.00000000000E+00  0.00000000000E+00  0.10308522688E+03  0.10308522688E+03  0.00000000000E+00 0.  1.
          2   -1    0    0  501    0  0.00000000000E+00 -0.00000000000E+00 -0.12108513115E+04  0.12108513115E+04  0.00000000000E+00 0. -1.
         25    2    1    2    0    0  0.11735259684E+03  0.31296495574E+03 -0.63865535035E+03  0.73160527835E+03  0.12508769433E+03 0.  0.
         23    2    1    2    0    0 -0.11735259684E+03 -0.31296495574E+03 -0.46911073432E+03  0.58233126007E+03  0.85592756076E+02 0.  0.
          5    1    3    3  502    0  0.49327597753E+02  0.22035169663E+03 -0.31095034770E+03  0.38431194783E+03  0.41800000000E+01 0. -1.
         -5    1    3    3    0  502  0.68024999091E+02  0.92613259109E+02 -0.32770500265E+03  0.34729333052E+03  0.41800000000E+01 0. -1.
        -11    1    4    4    0    0 -0.59638670746E+02 -0.25903544861E+03 -0.35259207595E+03  0.44156234747E+03  0.00000000000E+00 0. -1.
         11    1    4    4    0    0 -0.57713926098E+02 -0.53929507134E+02 -0.11651865837E+03  0.14076891260E+03  0.00000000000E+00 0.  1.
</event>
<event>
 8    1  0.6185113E-009  0.1581102E+03  0.7561462E-02  0.1190847E+00
          3   -1    0    0  501    0  0.00000000000E+00  0.00000000000E+00  0.10302326961E+03  0.10302326961E+03  0.00000000000E+00 0. -1.
         -3   -1    0    0    0  501 -0.00000000000E+00 -0.00000000000E+00 -0.29939424820E+03  0.29939424820E+03  0.00000000000E+00 0.  1.
         25    2    1    2    0    0 -0.77480867772E+02  0.92316977580E+02 -0.27335956449E+02  0.17584445993E+03  0.12509320666E+03 0.  0.
         23    2    1    2    0    0  0.77480867772E+02 -0.92316977580E+02 -0.16903502214E+03  0.22657305788E+03  0.90756832394E+02 0.  0.
          5    1    3    3  502    0 -0.90639723584E+00  0.95309710290E+02 -0.26790254327E+02  0.99095673762E+02  0.41800000000E+01 0.  1.
         -5    1    3    3    0  502 -0.76574470536E+02 -0.29927327102E+01 -0.54570212205E+00  0.76748786164E+02  0.41800000000E+01 0.  1.
        -11    1    4    4    0    0 -0.15544542734E+02 -0.24229957118E+02 -0.65812043802E+02  0.71832783185E+02  0.00000000000E+00 0.  1.
         11    1    4    4    0    0  0.93025410506E+02 -0.68087020462E+02 -0.10322297834E+03  0.15474027470E+03  0.00000000000E+00 0. -1.
</event>
<event>
 8    1  0.6185113E-009  0.7807888E+02  0.7561462E-02  0.1334593E+00
          2   -1    0    0  501    0  0.00000000000E+00  0.00000000000E+00  0.92885740263E+03  0.92885740263E+03  0.00000000000E+00 0. -1.
         -2   -1    0    0    0  501 -0.00000000000E+00 -0.00000000000E+00 -0.18976464216E+02  0.18976464216E+02  0.00000000000E+00 0.  1.
         25    2    1    2    0    0  0.74792252283E+02 -0.13497227750E+02  0.55847825846E+03  0.57733590257E+03  0.12507087216E+03 0.  0.
         23    2    1    2    0    0 -0.74792252283E+02  0.13497227750E+02  0.35140267995E+03  0.37049796428E+03  0.89492133155E+02 0.  0.
          5    1    3    3  502    0  0.59119020861E+02 -0.15430960061E+02  0.91690510796E+02  0.11026239307E+03  0.41800000000E+01 0.  1.
         -5    1    3    3    0  502  0.15673231422E+02  0.19337323110E+01  0.46678774766E+03  0.46707350949E+03  0.41800000000E+01 0.  1.
        -11    1    4    4    0    0 -0.68996247714E+01  0.78515920852E+01 -0.19542828359E+01  0.10633510317E+02  0.00000000000E+00 0.  1.
         11    1    4    4    0    0 -0.67892627512E+02  0.56456356648E+01  0.35335696279E+03  0.35986445396E+03  0.00000000000E+00 0. -1.
</event>
<event>
 8    1  0.6185113E-009  0.8431578E+02  0.7561462E-02  0.1317232E+00
          1   -1    0    0  501    0  0.00000000000E+00  0.00000000000E+00  0.70560782809E+02  0.70560782809E+02  0.00000000000E+00 0. -1.
         -1   -1    0    0    0  501 -0.00000000000E+00 -0.00000000000E+00 -0.25167593895E+03  0.25167593895E+03  0.00000000000E+00 0.  1.
         25    2    1    2    0    0  0.47593358309E+02 -0.24454481150E+02 -0.32861188964E+02  0.13996706723E+03  0.12509105789E+03 0.  0.
         23    2    1    2    0    0 -0.47593358309E+02  0.24454481150E+02 -0.14825396718E+03  0.18226965454E+03  0.91541459332E+02 0.  0.
          5    1    3    3  502    0  0.36723466275E+02  0.33014995670E+01 -0.77616803741E+02  0.86031119356E+02  0.41800000000E+01 0.  1.
         -5    1    3    3    0  502  0.10869892034E+02 -0.27755980717E+02  0.44755614778E+02  0.53935947869E+02  0.41800000000E+01 0.  1.
        -11    1    4    4    0    0  0.22199917114E+02  0.22492187587E+02 -0.23778647118E+02  0.39549448556E+02  0.00000000000E+00 0. -1.
         11    1    4    4    0    0 -0.69793275423E+02  0.19622935631E+01 -0.12447532006E+03  0.14272020598E+03  0.00000000000E+00 0.  1.
</event>
<event>
 8    1  0.6185113E-009  0.1108383E+03  0.7561462E-02  0.1259025E+00
          1   -1    0    0  501    0  0.00000000000E+00  0.00000000000E+00  0.15256746915E+03  0.15256746915E+03  0.00000000000E+00 0. -1.
         -1   -1    0    0    0  501 -0.00000000000E+00 -0.00000000000E+00 -0.11535818641E+03  0.11535818641E+03  0.00000000000E+00 0.  1.
         25    2    1    2    0    0  0.66371796702E+01  0.54780760521E+02  0.73789330394E+02  0.15536354346E+03  0.12509189214E+03 0.  0.
         23    2    1    2    0    0 -0.66371796702E+01 -0.54780760521E+02 -0.36580047659E+02  0.11256211210E+03  0.91033759217E+02 0.  0.
          5    1    3    3  502    0  0.17540358749E+02  0.88804119438E+02  0.77451943724E+02  0.11920617350E+03  0.41800000000E+01 0. -1.
         -5    1    3    3    0  502 -0.10903179079E+02 -0.34023358917E+02 -0.36626133300E+01  0.36157369960E+02  0.41800000000E+01 0. -1.
        -11    1    4    4    0    0  0.22553158464E+02  0.95142064569E+01  0.11592318168E+02  0.27084071365E+02  0.00000000000E+00 0. -1.
         11    1    4    4    0    0 -0.29190338134E+02 -0.64294966978E+02 -0.48172365827E+02  0.85478040738E+02  0.00000000000E+00 0.  1.
</event>
<event>
 8    1  0.6185113E-009  0.1347184E+03  0.7561462E-02  0.1220618E+00
          2   -1    0    0  501    0  0.00000000000E+00  0.00000000000E+00  0.62335427540E+03  0.62335427540E+03  0.00000000000E+00 0. -1.
         -2   -1    0    0    0  501 -0.00000000000E+00 -0.00000000000E+00 -0.42947191011E+02  0.42947191011E+02  0.00000000000E+00 0.  1.
         25    2    1    2    0    0  0.39963500195E+02  0.10622599024E+03  0.21329947358E+03  0.27207555538E+03  0.12508956813E+03 0.  0.
         23    2    1    2    0    0 -0.39963500195E+02 -0.10622599024E+03  0.36710761081E+03  0.39422591103E+03  0.88119400040E+02 0.  0.
          5    1    3    3  502    0  0.53952820214E+02  0.68349897802E+02  0.43380835602E+02  0.97375482726E+02  0.41800000000E+01 0.  1.
         -5    1    3    3    0  502 -0.13989320019E+02  0.37876092441E+02  0.16991863798E+03  0.17470007266E+03  0.41800000000E+01 0.  1.
        -11    1    4    4    0    0  0.17590683904E+02  0.33380378951E+01  0.27948623874E+02  0.33191869993E+02  0.00000000000E+00 0.  1.
         11    1    4    4    0    0 -0.57554184099E+02 -0.10956402814E+03  0.33915898693E+03  0.36103404104E+03  0.00000000000E+00 0. -1.
</event>
<event>
 8    1  0.6185113E-009  0.1128015E+03  0.7561462E-02  0.1255468E+00
         -1   -1    0    0    0  501 -0.00000000000E+00  0.00000000000E+00  0.23071468340E+03  0.23071468340E+03  0.00000000000E+00 0.  1.
          1   -1    0    0  501    0  0.00000000000E+00 -0.00000000000E+00 -0.62287854908E+02  0.62287854908E+02  0.00000000000E+00 0. -1.
         25    2    1    2    0    0  0.45431016279E+02  0.22079157501E+02  0.95683741314E+02  0.16539168512E+03  0.12509022632E+03 0.  0.
         23    2    1    2    0    0 -0.45431016279E+02 -0.22079157501E+02  0.72743087179E+02  0.12761085319E+03  0.91877672382E+02 0.  0.
          5    1    3    3  502    0  0.55708427275E+02 -0.36936784095E+02  0.22337036778E+02  0.70598657924E+02  0.41800000000E+01 0. -1.
         -5    1    3    3    0  502 -0.10277410995E+02  0.59015941596E+02  0.73346704537E+02  0.94793027199E+02  0.41800000000E+01 0. -1.
        -11    1    4    4    0    0 -0.69643385432E+02 -0.68538392034E+01  0.69831312145E+02  0.98861460651E+02  0.00000000000E+00 0.  1.
         11    1    4    4    0    0  0.24212369152E+02 -0.15225318298E+02  0.29117750336E+01  0.28749392534E+02  0.00000000000E+00 0. -1.
</event>
<event>
 8    1  0.6185113E-009  0.9854319E+02  0.7561462E-02  0.1283390E+00
          1   -1    0    0  501    0  0.00000000000E+00  0.00000000000E+00  0.18137802598E+03  0.18137802598E+03  0.00000000000E+00 0. -1.
         -1   -1    0    0    0  501 -0.00000000000E+00 -0.00000000000E+00 -0.11186204713E+03  0.11186204713E+03  0.00000000000E+00 0.  1.
         25    2    1    2    0    0 -0.60610337132E+02 -0.68078561220E+02  0.41322477765E+02  0.16019961220E+03  0.12509222644E+03 0.  0.
         23    2    1    2    0    0  0.60610337132E+02  0.68078561220E+02  0.28193501091E+02  0.13304046091E+03  0.92717782928E+02 0.  0.
          5    1    3    3  502    0 -0.16258305893E+02 -0.36139468838E+02 -0.43635845957E+02  0.59092750577E+02  0.41800000000E+01 0. -1.
         -5    1    3    3    0  502 -0.44352031239E+02 -0.31939092382E+02  0.84958323723E+02  0.10110686162E+03  0.41800000000E+01 0. -1.
        -11    1    4    4    0    0  0.43348265917E+02  0.13839864295E+02 -0.27695437427E+02  0.53269609122E+02  0.00000000000E+00 0.  1.
         11    1    4    4    0    0  0.17262071215E+02  0.54238696925E+02  0.55888938518E+02  0.79770851790E+02  0.00000000000E+00 0. -1.
</event>
<event>
 8    1  0.6185113E-009  0.1522807E+03  0.7561462E-02  0.1197698E+00
         -2   -1    0    0    0  501 -0.00000000000E+00  0.00000000000E+00  0.55881088106E+02  0.55881088106E+02  0.00000000000E+00 0.  1.
          2   -1    0    0  501    0  0.00000000000E+00 -0.00000000000E+00 -0.47590704478E+03  0.47590704478E+03  0.00000000000E+00 0. -1.
         25    2    1    2    0    0  0.62242037269E+02 -0.92658456779E+02 -0.30543465678E+03  0.34842011818E+03  0.12508632368E+03 0.  0.
         23    2    1    2    0    0 -0.62242037269E+02  0.92658456779E+02 -0.11459129990E+03  0.18336801471E+03  0.89627015969E+02 0.  0.
          5    1    3    3  502    0 -0.27985975002E+02 -0.64052906148E+02 -0.16237544626E+03  0.17683112716E+03  0.41800000000E+01 0.  1.
         -5    1    3    3    0  502  0.90228012271E+02 -0.28605550630E+02 -0.14305921052E+03  0.17158899102E+03  0.41800000000E+01 0.  1.
        -11    1    4    4    0    0 -0.52184492447E+02  0.59749247251E+01 -0.62881218895E+02  0.81932708165E+02  0.00000000000E+00 0. -1.
         11    1    4    4    0    0 -0.10057544821E+02  0.86683532054E+02 -0.51710081000E+02  0.10143530655E+03  0.00000000000E+00 0.  1.
</event>
<event>
 8    1  0.6185113E-009  0.1280102E+03  0.7561462E-02  0.1230439E+00
         -2   -1    0    0    0  501 -0.00000000000E+00  0.00000000000E+00  0.25497119116E+03  0.25497119116E+03  0.00000000000E+00 0. -1.
          2   -1    0    0  501    0  0.00000000000E+00 -0.00000000000E+00 -0.65216313669E+02  0.65216313669E+02  0.00000000000E+00 0.  1.
         25    2    1    2    0    0  0.29343414088E+02  0.62801593660E+02  0.92286820977E+02  0.17020436653E+03  0.12509033913E+03 0.  0.
         23    2    1    2    0    0 -0.29343414088E+02 -0.62801593660E+02  0.97468056517E+02  0.14998313830E+03  0.90497754764E+02 0.  0.
          5    1    3    3  502    0  0.38043849500E+02 -0.30574993394E+02  0.27944130465E+02  0.56396024091E+02  0.41800000000E+01 0. -1.
         -5    1    3    3    0  502 -0.87004354118E+01  0.93376587054E+02  0.64342690513E+02  0.11380834244E+03  0.41800000000E+01 0. -1.
        -11    1    4    4    0    0 -0.58172552316E+01 -0.82360359378E+02  0.78853919191E+02  0.11417096753E+03  0.00000000000E+00 0. -1.
         11    1    4    4    0    0 -0.23526158857E+02  0.19558765718E+02  0.18614137327E+02  0.35812170771E+02  0.00000000000E+00 0.  1.
</event>
<event>
 8    1  0.6185113E-009  0.1517675E+03  0.7561462E-02  0.1198318E+00
         -1   -1    0    0    0  501 -0.00000000000E+00  0.00000000000E+00  0.10071396883E+03  0.10071396883E+03  0.00000000000E+00 0.  1.
          1   -1    0    0  501    0  0.00000000000E+00 -0.00000000000E+00 -0.28462368688E+03  0.28462368688E+03  0.00000000000E+00 0. -1.
         25    2    1    2    0    0  0.76913131842E+02 -0.92216343391E+02 -0.42232419048E+02  0.17846502189E+03  0.12508678180E+03 0.  0.
         23    2    1    2    0    0 -0.76913131842E+02  0.92216343391E+02 -0.14167729900E+03  0.20687263381E+03  0.91128182957E+02 0.  0.
          5    1    3    3  502    0  0.95053374409E+02 -0.41286860147E+02  0.86866802665E+01  0.10408015960E+03  0.41800000000E+01 0. -1.
         -5    1    3    3    0  502 -0.18140242567E+02 -0.50929483244E+02 -0.50919099315E+02  0.74384862296E+02  0.41800000000E+01 0. -1.
        -11    1    4    4    0    0  0.10547886030E+02 -0.75094953144E+01 -0.21564744870E+00  0.12949784685E+02  0.00000000000E+00 0. -1.
         11    1    4    4    0    0 -0.87461017872E+02  0.99725838705E+02 -0.14146165155E+03  0.19392284913E+03  0.00000000000E+00 0.  1.
</event>
<event>
 8    1  0.6185113E-009  0.1219875E+03  0.7561462E-02  0.1239854E+00
         -2   -1    0    0    0  501 -0.00000000000E+00  0.00000000000E+00  0.88164147331E+02  0.88164147331E+02  0.00000000000E+00 0.  1.
          2   -1    0    0  501    0  0.00000000000E+00 -0.00000000000E+00 -0.20322084816E+03  0.20322084816E+03  0.00000000000E+00 0. -1.
         25    2    1    2    0    0  0.68159202434E+01  0.77497926036E+02 -0.77298054560E+02  0.16635507043E+03  0.12508650971E+03 0.  0.
         23    2    1    2    0    0 -0.68159202434E+01 -0.77497926036E+02 -0.37758646266E+02  0.12502992505E+03  0.90301613953E+02 0.  0.
          5    1    3    3  502    0 -0.29145585648E+02 -0.10966327156E+02 -0.62062772120E+02  0.69562817491E+02  0.41800000000E+01 0.  1.
         -5    1    3    3    0  502  0.35961505892E+02  0.88464253191E+02 -0.15235282441E+02  0.96792252943E+02  0.41800000000E+01 0.  1.
        -11    1    4    4    0    0 -0.62571489596E+01  0.19239104816E+02 -0.16200772116E+02  0.25918334908E+02  0.00000000000E+00 0.  1.
         11    1    4    4    0    0 -0.55877128378E+00 -0.96737030852E+02 -0.21557874149E+02  0.99111590146E+02  0.00000000000E+00 0. -1.
</event>
<event>
 8    1  0.6185113E-009  0.2151528E+03  0.7561462E-02  0.1137549E+00
         -1   -1    0    0    0  501 -0.00000000000E+00  0.00000000000E+00  0.38739771654E+03  0.38739771654E+03  0.00000000000E+00 0.  1.
          1   -1    0    0  501    0  0.00000000000E+00 -0.00000000000E+00 -0.13158554544E+03  0.13158554544E+03  0.00000000000E+00 0. -1.
         25    2    1    2    0    0 -0.19323477764E+03 -0.32420174330E+02  0.15869141933E+03  0.28146269652E+03  0.12509011141E+03 0.  0.
         23    2    1    2    0    0  0.19323477764E+03  0.32420174330E+02  0.97120751773E+02  0.23752056545E+03  0.92697527445E+02 0.  0.
          5    1    3    3  502    0 -0.60366487055E+02  0.39156394451E+02  0.90780733604E+02  0.11591354528E+03  0.41800000000E+01 0. -1.
         -5    1    3    3    0  502 -0.13286829059E+03 -0.71576568782E+02  0.67910685721E+02  0.16554915124E+03  0.41800000000E+01 0. -1.
        -11    1    4    4    0    0  0.39376103651E+02 -0.20694309992E+02  0.52370223503E+02  0.68712242828E+02  0.00000000000E+00 0.  1.
         11    1    4    4    0    0  0.15385867399E+03  0.53114484322E+02  0.44750528270E+02  0.16880832263E+03  0.00000000000E+00 0. -1.
</event>
<event>
 8    1  0.6185113E-009  0.1052203E+03  0.7561462E-02  0.1269686E+00
          3   -1    0    0  501    0  0.00000000000E+00  0.00000000000E+00  0.33757116941E+03  0.33757116941E+03  0.00000000000E+00 0. -1.
         -3   -1    0    0    0  501 -0.00000000000E+00 -0.00000000000E+00 -0.49903795948E+02  0.49903795948E+02  0.00000000000E+00 0.  1.
         25    2    1    2    0    0 -0.37488959946E+02 -0.25324082697E+02  0.77250149465E+02  0.15382792879E+03  0.12509482324E+03 0.  0.
         23    2    1    2    0    0  0.37488959946E+02  0.25324082697E+02  0.21041722400E+03  0.23364703657E+03  0.90932932762E+02 0.  0.
          5    1    3    3  502    0  0.94199004015E+01 -0.56173052985E+02  0.79024244972E+02  0.97501026142E+02  0.41800000000E+01 0. -1.
         -5    1    3    3    0  502 -0.46908860348E+02  0.30848970288E+02 -0.17740955071E+01  0.56326902647E+02  0.41800000000E+01 0. -1.
        -11    1    4    4    0    0 -0.34767288911E+01  0.49394796490E+02  0.72680999730E+02  0.87945786061E+02  0.00000000000E+00 0.  1.
         11    1    4    4    0    0  0.40965688837E+02 -0.24070713793E+02  0.13773622427E+03  0.14570125051E+03  0.00000000000E+00 0. -1.
</event>
<event>
 8    1  0.6185113E-009  0.1202939E+03  0.7561462E-02  0.1242613E+00
          2   -1    0    0  501    0  0.00000000000E+00  0.00000000000E+00  0.10224674332E+04  0.10224674332E+04  0.00000000000E+00 0. -1.
         -2   -1    0    0    0  501 -0.00000000000E+00 -0.00000000000E+00 -0.15355387941E+02  0.15355387941E+02  0.00000000000E+00 0.  1.
         25    2    1    2    0    0  0.60496804305E+02 -0.15962045897E+02  0.58509163948E+03  0.60157630811E+03  0.12508867915E+03 0.  0.
         23    2    1    2    0    0 -0.60496804305E+02  0.15962045897E+02  0.42202040581E+03  0.43624651306E+03  0.91077697587E+02 0.  0.
          5    1    3    3  502    0 -0.25003450666E+02  0.32716344666E+02  0.17327902710E+03  0.17815337602E+03  0.41800000000E+01 0. -1.
         -5    1    3    3    0  502  0.85500254971E+02 -0.48678390563E+02  0.41181261238E+03  0.42342293209E+03  0.41800000000E+01 0. -1.
        -11    1    4    4    0    0  0.13778594945E+02  0.22263072873E+02  0.46183567580E+02  0.53088755936E+02  0.00000000000E+00 0.  1.
         11    1    4    4    0    0 -0.74275399250E+02 -0.63010269759E+01  0.37583683823E+03  0.38315775712E+03  0.00000000000E+00 0. -1.
</event>
<event>
 8    1  0.6185113E-009  0.9420016E+02  0.7561462E-02  0.1292988E+00
          2   -1    0    0  501    0  0.00000000000E+00  0.00000000000E+00  0.59250011025E+03  0.59250011025E+03  0.00000000000E+00 0. -1.
         -2   -1    0    0    0  501 -0.00000000000E+00 -0.00000000000E+00 -0.24647544366E+02  0.24647544366E+02  0.00000000000E+00 0.  1.
         25    2    1    2    0    0  0.28410067119E+02 -0.29555379322E+02  0.40371246985E+03  0.42463695736E+03  0.12510849247E+03 0.  0.
         23    2    1    2    0    0 -0.28410067119E+02  0.29555379322E+02  0.16414009604E+03  0.19251069725E+03  0.91857199330E+02 0.  0.
          5    1    3    3  502    0 -0.26078463040E+02  0.36988209000E+02  0.13182939606E+03  0.13944416770E+03  0.41800000000E+01 0. -1.
         -5    1    3    3    0  502  0.54488530159E+02 -0.66543588322E+02  0.27188307378E+03  0.28519278966E+03  0.41800000000E+01 0. -1.
        -11    1    4    4    0    0 -0.30048995128E+02  0.29570824829E+01  0.43407498411E+01  0.30504566120E+02  0.00000000000E+00 0.  1.
         11    1    4    4    0    0  0.16389280083E+01  0.26598296840E+02  0.15979934619E+03  0.16200613113E+03  0.00000000000E+00 0. -1.
</event>
<event>
 8    1  0.6185113E-009  0.1028175E+03  0.7561462E-02  0.1274480E+00
         -3   -1    0    0    0  501 -0.00000000000E+00  0.00000000000E+00  0.42498439850E+02  0.42498439850E+02  0.00000000000E+00 0.  1.
          3   -1    0    0  501    0  0.00000000000E+00 -0.00000000000E+00 -0.32735478798E+03  0.32735478798E+03  0.00000000000E+00 0. -1.
         25    2    1    2    0    0  0.20010487813E+02 -0.40707377896E+02 -0.16910267377E+03  0.21516925801E+03  0.12507831578E+03 0.  0.
         23    2    1    2    0    0 -0.20010487813E+02  0.40707377896E+02 -0.11575367435E+03  0.15468396981E+03  0.92036444701E+02 0.  0.
          5    1    3    3  502    0 -0.20253520906E+02 -0.58031632224E+02 -0.28586266275E+02  0.67915553942E+02  0.41800000000E+01 0.  1.
         -5    1    3    3    0  502  0.40264008719E+02  0.17324254328E+02 -0.14051640750E+03  0.14725370407E+03  0.41800000000E+01 0.  1.
        -11    1    4    4    0    0 -0.32407979329E+02  0.65051841760E+02 -0.67262473866E+02  0.99026560231E+02  0.00000000000E+00 0.  1.
         11    1    4    4    0    0  0.12397491517E+02 -0.24344463864E+02 -0.48491200489E+02  0.55657409583E+02  0.00000000000E+00 0. -1.
</event>
<event>
 8    1  0.6185113E-009  0.2601487E+03  0.7561462E-02  0.1107054E+00
          2   -1    0    0  501    0  0.00000000000E+00  0.00000000000E+00  0.12634021184E+04  0.12634021184E+04  0.00000000000E+00 0. -1.
         -2   -1    0    0    0  501 -0.00000000000E+00 -0.00000000000E+00 -0.99801582785E+02  0.99801582785E+02  0.00000000000E+00 0.  1.
         25    2    1    2    0    0  0.16187580655E+02 -0.25933538388E+03  0.17526646266E+03  0.33746522545E+03  0.12509023285E+03 0.  0.
         23    2    1    2    0    0 -0.16187580655E+02  0.25933538388E+03  0.98833407298E+03  0.10257384758E+04  0.88421161153E+02 0.  0.
          5    1    3    3  502    0  0.85749685785E+01 -0.52293545427E+02 -0.15950137338E+02  0.55497966274E+02  0.41800000000E+01 0. -1.
         -5    1    3    3    0  502  0.76126120769E+01 -0.20704183845E+03  0.19121660000E+03  0.28196725917E+03  0.41800000000E+01 0. -1.
        -11    1    4    4    0    0 -0.11556043358E+02  0.13445574163E+03  0.34650357211E+03  0.37185563607E+03  0.00000000000E+00 0.  1.
         11    1    4    4    0    0 -0.46315372970E+01  0.12487964225E+03  0.64183050087E+03  0.65388283968E+03  0.00000000000E+00 0. -1.
</event>
<event>
 8    1  0.6185113E-009  0.1047816E+03  0.7561462E-02  0.1270550E+00
          2   -1    0    0  501    0  0.00000000000E+00  0.00000000000E+00  0.12803146352E+03  0.12803146352E+03  0.00000000000E+00 0. -1.
         -2   -1    0    0    0  501 -0.00000000000E+00 -0.00000000000E+00 -0.14595380700E+03  0.14595380700E+03  0.00000000000E+00 0.  1.
         25    2    1    2    0    0  0.52571235551E+02 -0.22413277528E+02 -0.68045717873E+02  0.15343770507E+03  0.12508724875E+03 0.  0.
         23    2    1    2    0    0 -0.52571235551E+02  0.22413277528E+02  0.50123374396E+02  0.12054756546E+03  0.93558928273E+02 0.  0.
          5    1    3    3  502    0 -0.37729958056E+02 -0.18004506363E+02 -0.41654182948E+02  0.59162955820E+02  0.41800000000E+01 0. -1.
         -5    1    3    3    0  502  0.90301193607E+02 -0.44087711652E+01 -0.26391534925E+02  0.94274749248E+02  0.41800000000E+01 0. -1.
        -11    1    4    4    0    0 -0.18231126955E+02 -0.16889657772E+02  0.62196377632E+02  0.66977786767E+02  0.00000000000E+00 0. -1.
         11    1    4    4    0    0 -0.34340108596E+02  0.39302935301E+02 -0.12073003236E+02  0.53569778689E+02  0.00000000000E+00 0.  1.
</event>
<event>
 8    1  0.6185113E-009  0.1101335E+03  0.7561462E-02  0.1260323E+00
          2   -1    0    0  501    0  0.00000000000E+00  0.00000000000E+00  0.21713439000E+04  0.21713439000E+04  0.00000000000E+00 0. -1.
         -2   -1    0    0    0  501 -0.00000000000E+00 -0.00000000000E+00 -0.12448401008E+02  0.12448401008E+02  0.00000000000E+00 0.  1.
         25    2    1    2    0    0  0.38384038721E+02  0.26252074280E+02  0.19131001693E+04  0.19177493279E+04  0.12509085170E+03 0.  0.
         23    2    1    2    0    0 -0.38384038721E+02 -0.26252074280E+02  0.24579532969E+03  0.26604297307E+03  0.90559447830E+02 0.  0.
          5    1    3    3  502    0  0.62224386687E+02  0.59966912852E+02  0.10111087657E+04  0.10148035837E+04  0.41800000000E+01 0. -1.
         -5    1    3    3    0  502 -0.23840347965E+02 -0.33714838572E+02  0.90199140356E+03  0.90294574423E+03  0.41800000000E+01 0. -1.
        -11    1    4    4    0    0  0.11755744553E+02 -0.38814867075E+02  0.16664775625E+03  0.17151170834E+03  0.00000000000E+00 0. -1.
         11    1    4    4    0    0 -0.50139783274E+02  0.12562792795E+02  0.79147573437E+02  0.94531264726E+02  0.00000000000E+00 0.  1.
</event>
<event>
 8    1  0.6185113E-009  0.1194732E+03  0.7561462E-02  0.1243969E+00
          2   -1    0    0  501    0  0.00000000000E+00  0.00000000000E+00  0.28905091119E+03  0.28905091119E+03  0.00000000000E+00 0. -1.
         -2   -1    0    0    0  501 -0.00000000000E+00 -0.00000000000E+00 -0.80661596300E+02  0.80661596300E+02  0.00000000000E+00 0.  1.
         25    2    1    2    0    0  0.81593385184E+02 -0.69308304719E+02  0.11786219355E+03  0.20248332048E+03  0.12508747657E+03 0.  0.
         23    2    1    2    0    0 -0.81593385184E+02  0.69308304719E+02  0.90527121332E+02  0.16722918700E+03  0.91155469832E+02 0.  0.
          5    1    3    3  502    0  0.47166962075E+02 -0.66130407105E+02  0.18492256986E+01  0.81356284889E+02  0.41800000000E+01 0. -1.
         -5    1    3    3    0  502  0.34426423109E+02 -0.31778976143E+01  0.11601296786E+03  0.12112703560E+03  0.41800000000E+01 0. -1.
        -11    1    4    4    0    0 -0.83096839711E+02  0.37881964418E+02  0.25226546859E+02  0.94744428145E+02  0.00000000000E+00 0. -1.
         11    1    4    4    0    0  0.15034545271E+01  0.31426340301E+02  0.65300574473E+02  0.72484758858E+02  0.00000000000E+00 0.  1.
</event>
<event>
 8    1  0.6185113E-009  0.1267753E+03  0.7561462E-02  0.1232321E+00
         -2   -1    0    0    0  501 -0.00000000000E+00  0.00000000000E+00  0.59973957080E+02  0.59973957080E+02  0.00000000000E+00 0.  1.
          2   -1    0    0  501    0  0.00000000000E+00 -0.00000000000E+00 -0.39322167561E+03  0.39322167561E+03  0.00000000000E+00 0. -1.
         25    2    1    2    0    0 -0.89224308033E+02 -0.56083832325E+02 -0.22276000320E+03  0.27636229654E+03  0.12509087310E+03 0.  0.
         23    2    1    2    0    0  0.89224308033E+02  0.56083832325E+02 -0.11048771533E+03  0.17683333615E+03  0.89197085953E+02 0.  0.
          5    1    3    3  502    0 -0.55416962467E+02  0.20715232026E+02 -0.30818037749E+02  0.66838495028E+02  0.41800000000E+01 0. -1.
         -5    1    3    3    0  502 -0.33807345566E+02 -0.76799064351E+02 -0.19194196545E+03  0.20952380151E+03  0.41800000000E+01 0. -1.
        -11    1    4    4    0    0  0.50109844589E+02  0.49731555772E+02 -0.13250725022E+02  0.71831788769E+02  0.00000000000E+00 0.  1.
         11    1    4    4    0    0  0.39114463444E+02  0.63522765531E+01 -0.97236990307E+02  0.10500154738E+03  0.00000000000E+00 0. -1.
</event>
<event>
 8    1  0.6185113E-009  0.1203848E+03  0.7561462E-02  0.1242464E+00
          3   -1    0    0  501    0  0.00000000000E+00  0.00000000000E+00  0.23804970697E+03  0.23804970697E+03  0.00000000000E+00 0. -1.
         -3   -1    0    0    0  501 -0.00000000000E+00 -0.00000000000E+00 -0.70053487573E+02  0.70053487573E+02  0.00000000000E+00 0.  1.
         25    2    1    2    0    0 -0.55242001752E+02 -0.27847721074E+02  0.10063607053E+03  0.17205157799E+03  0.12508777906E+03 0.  0.
         23    2    1    2    0    0  0.55242001752E+02  0.27847721074E+02  0.67360148867E+02  0.13605161655E+03  0.10072476550E+03 0.  0.
          5    1    3    3  502    0  0.27305351262E+02  0.28353669578E+02  0.27459033273E+02  0.48176588654E+02  0.41800000000E+01 0.  1.
         -5    1    3    3    0  502 -0.82547353014E+02 -0.56201390652E+02  0.73177037254E+02  0.12387498933E+03  0.41800000000E+01 0.  1.
        -11    1    4    4    0    0  0.18973633105E+02 -0.28490933860E+02 -0.80606705248E+01  0.35166837713E+02  0.00000000000E+00 0.  1.
         11    1    4    4    0    0  0.36268368647E+02  0.56338654934E+02  0.75420819392E+02  0.10088477884E+03  0.00000000000E+00 0. -1.
</event>
<event>
 8    1  0.6185113E-009  0.9987943E+02  0.7561462E-02  0.1280550E+00
          2   -1    0    0  501    0  0.00000000000E+00  0.00000000000E+00  0.50572324711E+02  0.50572324711E+02  0.00000000000E+00 0. -1.
         -2   -1    0    0    0  501 -0.00000000000E+00 -0.00000000000E+00 -0.29901805108E+03  0.29901805108E+03  0.00000000000E+00 0.  1.
         25    2    1    2    0    0  0.68893935435E+02 -0.98737260370E+00 -0.18400268847E+03  0.23292036012E+03  0.12509018967E+03 0.  0.
         23    2    1    2    0    0 -0.68893935435E+02  0.98737260370E+00 -0.64443037895E+02  0.11667001566E+03  0.68641373656E+02 0.  0.
          5    1    3    3  502    0  0.88760297641E+02  0.26941441801E+02 -0.17357872729E+03  0.19685344470E+03  0.41800000000E+01 0. -1.
         -5    1    3    3    0  502 -0.19866362206E+02 -0.27928814404E+02 -0.10423961182E+02  0.36066915422E+02  0.41800000000E+01 0. -1.
        -11    1    4    4    0    0 -0.54483638981E+02  0.99826502147E+01 -0.77489412738E+02  0.95250875630E+02  0.00000000000E+00 0.  1.
         11    1    4    4    0    0 -0.14410296454E+02 -0.89952776110E+01  0.13046374843E+02  0.21419140033E+02  0.00000000000E+00 0. -1.
</event>
<event>
 8    1  0.6185113E-009  0.1079054E+03  0.7561462E-02  0.1264499E+00
         -3   -1    0    0    0  501 -0.00000000000E+00  0.00000000000E+00  0.13426208986E+03  0.13426208986E+03  0.00000000000E+00 0.  1.
          3   -1    0    0  501    0  0.00000000000E+00 -0.00000000000E+00 -0.10227320898E+03  0.10227320898E+03  0.00000000000E+00 0. -1.
         25    2    1    2    0    0 -0.33123895820E+02  0.30519462590E+02  0.23653587764E+01  0.13297473915E+03  0.12509219104E+03 0.  0.
         23    2    1    2    0    0  0.33123895820E+02 -0.30519462590E+02  0.29623522106E+02  0.10356055970E+03  0.88422883871E+02 0.  0.
          5    1    3    3  502    0  0.25645679133E+02 -0.25474235377E+02  0.29962197160E+02  0.47136431610E+02  0.41800000000E+01 0. -1.
         -5    1    3    3    0  502 -0.58769574953E+02  0.55993697967E+02 -0.27596838384E+02  0.85838307538E+02  0.41800000000E+01 0. -1.
        -11    1    4    4    0    0 -0.29720986480E+02 -0.15528557593E+02  0.17499742142E+02  0.37824781735E+02  0.00000000000E+00 0.  1.
         11    1    4    4    0    0  0.62844882300E+02 -0.14990904997E+02  0.12123779964E+02  0.65735777964E+02  0.00000000000E+00 0. -1.
</event>
<event>
 8    1  0.6185113E-009  0.1139696E+03  0.7561462E-02  0.1253390E+00
          2   -1    0    0  501    0  0.00000000000E+00  0.00000000000E+00  0.74545630144E+03  0.74545630144E+03  0.00000000000E+00 0. -1.
         -2   -1    0    0    0  501 -0.00000000000E+00 -0.00000000000E+00 -0.19943948470E+02  0.19943948470E+02  0.00000000000E+00 0.  1.
         25    2    1    2    0    0 -0.62109826733E+02 -0.41872091518E+02  0.50009885158E+03  0.52091978434E+03  0.12509059815E+03 0.  0.
         23    2    1    2    0    0  0.62109826733E+02  0.41872091518E+02  0.22541350139E+03  0.24448046557E+03  0.57866646775E+02 0.  0.
          5    1    3    3  502    0 -0.82346409441E+02  0.15577474830E+02  0.26146335379E+03  0.27459815485E+03  0.41800000000E+01 0. -1.
         -5    1    3    3    0  502  0.20236582708E+02 -0.57449566348E+02  0.23863549778E+03  0.24632162949E+03  0.41800000000E+01 0. -1.
        -11    1    4    4    0    0  0.28968451255E+02 -0.75806959335E+00  0.14332144420E+03  0.14622168856E+03  0.00000000000E+00 0. -1.
         11    1    4    4    0    0  0.33141375477E+02  0.42630161111E+02  0.82092057192E+02  0.98258777007E+02  0.00000000000E+00 0.  1.
</event>
<event>
 8    1  0.6185113E-009  0.2843569E+03  0.7561462E-02  0.1093333E+00
         -2   -1    0    0    0  501 -0.00000000000E+00  0.00000000000E+00  0.37176675582E+03  0.37176675582E+03  0.00000000000E+00 0.  1.
          2   -1    0    0  501    0  0.00000000000E+00 -0.00000000000E+00 -0.31773466382E+03  0.31773466382E+03  0.00000000000E+00 0. -1.
         25    2    1    2    0    0  0.23992827951E+03  0.13174448824E+03  0.20577219397E+03  0.36457151854E+03  0.12509199344E+03 0.  0.
         23    2    1    2    0    0 -0.23992827951E+03 -0.13174448824E+03 -0.15174010197E+03  0.32492990110E+03  0.87362420940E+02 0.  0.
          5    1    3    3  502    0  0.19177544615E-01 -0.78155404511E+01  0.40620640067E+02  0.41576337498E+02  0.41800000000E+01 0.  1.
         -5    1    3    3    0  502  0.23990910197E+03  0.13956002870E+03  0.16515155390E+03  0.32299518104E+03  0.41800000000E+01 0.  1.
        -11    1    4    4    0    0 -0.12270358226E+03 -0.10623457604E+03 -0.56849543922E+02  0.17197041865E+03  0.00000000000E+00 0. -1.
         11    1    4    4    0    0 -0.11722469725E+03 -0.25509912205E+02 -0.94890558043E+02  0.15295948245E+03  0.00000000000E+00 0.  1.
</event>
<event>
 8    1  0.6185113E-009  0.2094719E+03  0.7561462E-02  0.1141985E+00
          3   -1    0    0  501    0  0.00000000000E+00  0.00000000000E+00  0.86080069434E+03  0.86080069434E+03  0.00000000000E+00 0. -1.
         -3   -1    0    0    0  501 -0.00000000000E+00 -0.00000000000E+00 -0.64211020762E+02  0.64211020762E+02  0.00000000000E+00 0.  1.
         25    2    1    2    0    0 -0.13784276850E+03  0.15163965777E+03  0.48443998786E+03  0.54066925965E+03  0.12508369939E+03 0.  0.
         23    2    1    2    0    0  0.13784276850E+03 -0.15163965777E+03  0.31214968571E+03  0.38434245545E+03  0.91030116623E+02 0.  0.
          5    1    3    3  502    0 -0.86283779456E+02  0.60584383603E+02  0.11236915268E+03  0.15414167836E+03  0.41800000000E+01 0. -1.
         -5    1    3    3    0  502 -0.51558989046E+02  0.91055274168E+02  0.37207083518E+03  0.38652758129E+03  0.41800000000E+01 0. -1.
        -11    1    4    4    0    0  0.63234816482E+02 -0.98729028390E+02  0.10297512324E+03  0.15604467011E+03  0.00000000000E+00 0.  1.
         11    1    4    4    0    0  0.74607952020E+02 -0.52910629381E+02  0.20917456247E+03  0.22829778534E+03  0.00000000000E+00 0. -1.
</event>
<event>
 8    1  0.6185113E-009  0.1051989E+03  0.7561462E-02  0.1269728E+00
         -2   -1    0    0    0  501 -0.00000000000E+00  0.00000000000E+00  0.76338021006E+02  0.76338021006E+02  0.00000000000E+00 0.  1.
          2   -1    0    0  501    0  0.00000000000E+00 -0.00000000000E+00 -0.25085993958E+03  0.25085993958E+03  0.00000000000E+00 0. -1.
         25    2    1    2    0    0  0.69550525317E+02 -0.27846561675E+02 -0.47747410699E+02  0.15342742930E+03  0.12508978482E+03 0.  0.
         23    2    1    2    0    0 -0.69550525317E+02  0.27846561675E+02 -0.12677450788E+03  0.17377053129E+03  0.92258956891E+02 0.  0.
          5    1    3    3  502    0  0.65823579997E+02  0.18352969782E+02 -0.73330365108E+02  0.10032143355E+03  0.41800000000E+01 0.  1.
         -5    1    3    3    0  502  0.37269453205E+01 -0.46199531457E+02  0.25582954409E+02  0.53105995750E+02  0.41800000000E+01 0.  1.
        -11    1    4    4    0    0 -0.46396425683E+02 -0.13229326350E+02 -0.11566992700E+03  0.12532827057E+03  0.00000000000E+00 0. -1.
         11    1    4    4    0    0 -0.23154099634E+02  0.41075888025E+02 -0.11104580879E+02  0.48442260717E+02  0.00000000000E+00 0.  1.
</event>
<event>
 8    1  0.6185113E-009  0.1271213E+03  0.7561462E-02  0.1231791E+00
          2   -1    0    0  501    0  0.00000000000E+00  0.00000000000E+00  0.68301730924E+03  0.68301730924E+03  0.00000000000E+00 0. -1.
         -2   -1    0    0    0  501 -0.00000000000E+00 -0.00000000000E+00 -0.24040898423E+02  0.24040898423E+02  0.00000000000E+00 0.  1.
         25    2    1    2    0    0 -0.16142312737E+02  0.64503027386E+02  0.33277945105E+03  0.36167852042E+03  0.12509186338E+03 0.  0.
         23    2    1    2    0    0  0.16142312737E+02 -0.64503027386E+02  0.32619695976E+03  0.34537968724E+03  0.91986178320E+02 0.  0.
          5    1    3    3  502    0  0.12286282426E+02 -0.34964462173E+02  0.10638705295E+03  0.11273483839E+03  0.41800000000E+01 0.  1.
         -5    1    3    3    0  502 -0.28428595163E+02  0.99467489559E+02  0.22639239810E+03  0.24894368203E+03  0.41800000000E+01 0.  1.
        -11    1    4    4    0    0  0.45112755025E+02 -0.70623789346E+02  0.24692686219E+03  0.26075995773E+03  0.00000000000E+00 0. -1.
         11    1    4    4    0    0 -0.28970442287E+02  0.61207619597E+01  0.79270097571E+02  0.84619729509E+02  0.00000000000E+00 0.  1.
</event>
<event>
 8    1  0.6185113E-009  0.1108898E+03  0.7561462E-02  0.1258931E+00
          2   -1    0    0  501    0  0.00000000000E+00  0.00000000000E+00  0.31508913466E+03  0.31508913466E+03  0.00000000000E+00 0. -1.
         -2   -1    0    0    0  501 -0.00000000000E+00 -0.00000000000E+00 -0.67122689614E+02  0.67122689614E+02  0.00000000000E+00 0.  1.
         25    2    1    2    0    0  0.90685382090E+02  0.82889463671E+01  0.93567623030E+02  0.18081498071E+03  0.12508641818E+03 0.  0.
         23    2    1    2    0    0 -0.90685382090E+02 -0.82889463671E+01  0.15439882202E+03  0.20139684357E+03  0.91810387224E+02 0.  0.
          5    1    3    3  502    0  0.43003861125E+02  0.26387156814E+02 -0.21407189978E+02  0.54966847273E+02  0.41800000000E+01 0. -1.
         -5    1    3    3    0  502  0.47681520966E+02 -0.18098210447E+02  0.11497481301E+03  0.12584813344E+03  0.41800000000E+01 0. -1.
        -11    1    4    4    0    0  0.14504412352E+02 -0.97643888114E+00  0.13308588271E+00  0.14537851369E+02  0.00000000000E+00 0.  1.
         11    1    4    4    0    0 -0.10518979444E+03 -0.73125074860E+01  0.15426573613E+03  0.18685899220E+03  0.00000000000E+00 0. -1.
</event>
<event>
 8    1  0.6185113E-009  0.2035532E+03  0.7561462E-02  0.1146775E+00
          2   -1    0    0  501    0  0.00000000000E+00  0.00000000000E+00  0.69240160796E+03  0.69240160796E+03  0.00000000000E+00 0. -1.
         -2   -1    0    0    0  501 -0.00000000000E+00 -0.00000000000E+00 -0.89566907080E+02  0.89566907080E+02  0.00000000000E+00 0.  1.
         25    2    1    2    0    0  0.17280681024E+03 -0.11727105021E+02  0.88121610928E+02  0.23111108010E+03  0.12508874600E+03 0.  0.
         23    2    1    2    0    0 -0.17280681024E+03  0.11727105021E+02  0.51471308996E+03  0.55085743494E+03  0.92274752795E+02 0.  0.
          5    1    3    3  502    0 -0.48668224561E+01 -0.33627598487E+02  0.93792994428E+01  0.35495703950E+02  0.41800000000E+01 0.  1.
         -5    1    3    3    0  502  0.17767363269E+03  0.21900493466E+02  0.78742311485E+02  0.19561537615E+03  0.41800000000E+01 0.  1.
        -11    1    4    4    0    0 -0.56029431631E+02  0.45571591090E+02  0.15148145744E+03  0.16781745759E+03  0.00000000000E+00 0.  1.
         11    1    4    4    0    0 -0.11677737861E+03 -0.33844486069E+02  0.36323163252E+03  0.38303997735E+03  0.00000000000E+00 0. -1.
</event>
<event>
 8    1  0.6185113E-009  0.1679695E+03  0.7561462E-02  0.1179982E+00
         -2   -1    0    0    0  501 -0.00000000000E+00  0.00000000000E+00  0.15586436653E+02  0.15586436653E+02  0.00000000000E+00 0.  1.
          2   -1    0    0  501    0  0.00000000000E+00 -0.00000000000E+00 -0.26194275815E+04  0.26194275815E+04  0.00000000000E+00 0. -1.
         25    2    1    2    0    0 -0.11831428472E+03  0.58791608248E+02 -0.20615318122E+04  0.20695447759E+04  0.12508974075E+03 0.  0.
         23    2    1    2    0    0  0.11831428472E+03 -0.58791608248E+02 -0.54230933257E+03  0.56546924226E+03  0.90561186910E+02 0.  0.
          5    1    3    3  502    0 -0.55067443063E+02  0.89741406129E+02 -0.96227693418E+03  0.96802908723E+03  0.41800000000E+01 0. -1.
         -5    1    3    3    0  502 -0.63246841661E+02 -0.30949797881E+02 -0.10992548781E+04  0.11015156886E+04  0.41800000000E+01 0. -1.
        -11    1    4    4    0    0  0.85946022504E+01 -0.49139394878E+02 -0.15804515050E+03  0.16573115855E+03  0.00000000000E+00 0.  1.
         11    1    4    4    0    0  0.10971968247E+03 -0.96522133699E+01 -0.38426418207E+03  0.39973808371E+03  0.00000000000E+00 0. -1.
</event>
<event>
 8    1  0.6185113E-009  0.1511203E+03  0.7561462E-02  0.1199103E+00
          3   -1    0    0  501    0  0.00000000000E+00  0.00000000000E+00  0.12155874221E+03  0.12155874221E+03  0.00000000000E+00 0. -1.
         -3   -1    0    0    0  501 -0.00000000000E+00 -0.00000000000E+00 -0.20681398195E+03  0.20681398195E+03  0.00000000000E+00 0.  1.
         25    2    1    2    0    0 -0.96184286960E+02 -0.58092038390E+02 -0.16587605201E+02  0.16896318719E+03  0.12508920016E+03 0.  0.
         23    2    1    2    0    0  0.96184286960E+02  0.58092038390E+02 -0.68667634534E+02  0.15940953697E+03  0.89833481850E+02 0.  0.
          5    1    3    3  502    0 -0.38874506348E+02 -0.88327328352E+02  0.13260704400E+02  0.97500065942E+02  0.41800000000E+01 0.  1.
         -5    1    3    3    0  502 -0.57309780611E+02  0.30235289961E+02 -0.29848309600E+02  0.71463121250E+02  0.41800000000E+01 0.  1.
        -11    1    4    4    0    0  0.33414162445E+02  0.69316246196E+02 -0.20903239149E+02  0.79738282183E+02  0.00000000000E+00 0. -1.
         11    1    4    4    0    0  0.62770124515E+02 -0.11224207805E+02 -0.47764395385E+02  0.79671254784E+02  0.00000000000E+00 0.  1.
</event>
<event>
 8    1  0.6185113E-009  0.2008715E+03  0.7561462E-02  0.1149006E+00
         -2   -1    0    0    0  501 -0.00000000000E+00  0.00000000000E+00  0.25302754283E+03  0.25302754283E+03  0.00000000000E+00 0.  1.
          2   -1    0    0  501    0  0.00000000000E+00 -0.00000000000E+00 -0.19285045826E+03  0.19285045826E+03  0.00000000000E+00 0. -1.
         25    2    1    2    0    0 -0.82743477880E+02 -0.16648101895E+03  0.80043881425E+02  0.23794286238E+03  0.12508944801E+03 0.  0.
         23    2    1    2    0    0  0.82743477880E+02  0.16648101895E+03 -0.19866796854E+02  0.20793513870E+03  0.90994062902E+02 0.  0.
          5    1    3    3  502    0  0.11110407697E+02  0.83653820494E-01  0.41107043323E+02  0.42786791980E+02  0.41800000000E+01 0. -1.
         -5    1    3    3    0  502 -0.93853885577E+02 -0.16656467277E+03  0.38936838102E+02  0.19515607040E+03  0.41800000000E+01 0. -1.
        -11    1    4    4    0    0  0.64166746337E+02  0.51805914839E+02  0.20451381008E+02  0.84967541643E+02  0.00000000000E+00 0.  1.
         11    1    4    4    0    0  0.18576731543E+02  0.11467510412E+03 -0.40318177862E+02  0.12296759705E+03  0.00000000000E+00 0. -1.
</event>
<event>
 8    1  0.6185113E-009  0.1006252E+03  0.7561462E-02  0.1278987E+00
         -1   -1    0    0    0  501 -0.00000000000E+00  0.00000000000E+00  0.19620799667E+03  0.19620799667E+03  0.00000000000E+00 0.  1.
          1   -1    0    0  501    0  0.00000000000E+00 -0.00000000000E+00 -0.10099589375E+03  0.10099589375E+03  0.00000000000E+00 0. -1.
         25    2    1    2    0    0 -0.41450556722E+02  0.31517064074E+02  0.12899525268E+03  0.18709438652E+03  0.12511219074E+03 0.  0.
         23    2    1    2    0    0  0.41450556722E+02 -0.31517064074E+02 -0.33783149763E+02  0.11010950391E+03  0.90946839762E+02 0.  0.
          5    1    3    3  502    0  0.19878098045E+02  0.62883676508E+02  0.70479999144E+02  0.96614689527E+02  0.41800000000E+01 0.  1.
         -5    1    3    3    0  502 -0.61328654768E+02 -0.31366612434E+02  0.58515253536E+02  0.90479696991E+02  0.41800000000E+01 0.  1.
        -11    1    4    4    0    0  0.32019285965E+02 -0.41504179876E+02  0.18855669791E+02  0.55707880090E+02  0.00000000000E+00 0.  1.
         11    1    4    4    0    0  0.94312707575E+01  0.99871158016E+01 -0.52638819554E+02  0.54401623819E+02  0.00000000000E+00 0. -1.
</event>
<event>
 8    1  0.6185113E-009  0.7696926E+02  0.7561462E-02  0.1337879E+00
         -1   -1    0    0    0  501 -0.00000000000E+00  0.00000000000E+00  0.84490125604E+02  0.84490125604E+02  0.00000000000E+00 0.  1.
          1   -1    0    0  501    0  0.00000000000E+00 -0.00000000000E+00 -0.17659397744E+03  0.17659397744E+03  0.00000000000E+00 0. -1.
         25    2    1    2    0    0  0.16284430752E+02 -0.44590044626E+02 -0.70087082864E+02  0.15104012180E+03  0.12508982550E+03 0.  0.
         23    2    1    2    0    0 -0.16284430752E+02  0.44590044626E+02 -0.22016768967E+02  0.11004398124E+03  0.96806430196E+02 0.  0.
          5    1    3    3  502    0 -0.16777793069E+02 -0.22564988443E+02 -0.98174723320E+02  0.10220773817E+03  0.41800000000E+01 0. -1.
         -5    1    3    3    0  502  0.33062223821E+02 -0.22025056184E+02  0.28087640456E+02  0.48832383622E+02  0.41800000000E+01 0. -1.
        -11    1    4    4    0    0 -0.41875504438E+02  0.42850740980E+02 -0.45527148276E+02  0.75249352852E+02  0.00000000000E+00 0. -1.
         11    1    4    4    0    0  0.25591073686E+02  0.17393036459E+01  0.23510379309E+02  0.34794628391E+02  0.00000000000E+00 0.  1.
</event>
<event>
 8    1  0.6185113E-009  0.1466979E+03  0.7561462E-02  0.1204590E+00
         -2   -1    0    0    0  501 -0.00000000000E+00  0.00000000000E+00  0.35179270095E+02  0.35179270095E+02  0.00000000000E+00 0.  1.
          2   -1    0    0  501    0  0.00000000000E+00 -0.00000000000E+00 -0.68601693083E+03  0.68601693083E+03  0.00000000000E+00 0. -1.
         25    2    1    2    0    0  0.50458267294E+02 -0.94036279309E+02 -0.43281718024E+03  0.46299787723E+03  0.12508982470E+03 0.  0.
         23    2    1    2    0    0 -0.50458267294E+02  0.94036279309E+02 -0.21802048050E+03  0.25819832370E+03  0.88003328802E+02 0.  0.
          5    1    3    3  502    0 -0.35792889272E+02 -0.46494706535E+02 -0.10135719570E+03  0.11719062325E+03  0.41800000000E+01 0. -1.
         -5    1    3    3    0  502  0.86251156567E+02 -0.47541572775E+02 -0.33145998454E+03  0.34580725397E+03  0.41800000000E+01 0. -1.
        -11    1    4    4    0    0 -0.61107278992E+02  0.10450756734E+03 -0.20636397477E+03  0.23925304859E+03  0.00000000000E+00 0.  1.
         11    1    4    4    0    0  0.10649011698E+02 -0.10471288030E+02 -0.11656505725E+02  0.18945275107E+02  0.00000000000E+00 0. -1.
</event>
<event>
 8    1  0.6185113E-009  0.1309078E+03  0.7561462E-02  0.1226115E+00
         -1   -1    0    0    0  501 -0.00000000000E+00  0.00000000000E+00  0.22579809799E+02  0.22579809799E+02  0.00000000000E+00 0.  1.
          1   -1    0    0  501    0  0.00000000000E+00 -0.00000000000E+00 -0.84042003058E+03  0.84042003058E+03  0.00000000000E+00 0. -1.
         25    2    1    2    0    0  0.29428624360E+01  0.82392981944E+02 -0.40088599304E+03  0.42796505242E+03  0.12508893941E+03 0.  0.
         23    2    1    2    0    0 -0.29428624360E+01 -0.82392981944E+02 -0.41695422774E+03  0.43503478796E+03  0.92774860776E+02 0.  0.
          5    1    3    3  502    0 -0.39031042576E+00  0.11114469637E+03 -0.24101319737E+03  0.26543950268E+03  0.41800000000E+01 0.  1.
         -5    1    3    3    0  502  0.33331728617E+01 -0.28751714427E+02 -0.15987279567E+03  0.16252554974E+03  0.41800000000E+01 0.  1.
        -11    1    4    4    0    0 -0.39772348696E+02 -0.11407119113E+02 -0.18850661257E+03  0.19299405449E+03  0.00000000000E+00 0. -1.
         11    1    4    4    0    0  0.36829486260E+02 -0.70985862831E+02 -0.22844761517E+03  0.24204073346E+03  0.00000000000E+00 0.  1.
</event>
<event>
 8    1  0.6185113E-009  0.7965421E+02  0.7561462E-02  0.1330036E+00
         -3   -1    0    0    0  501 -0.00000000000E+00  0.00000000000E+00  0.20884199174E+03  0.20884199174E+03  0.00000000000E+00 0.  1.
          3   -1    0    0  501    0  0.00000000000E+00 -0.00000000000E+00 -0.57225351864E+02  0.57225351864E+02  0.00000000000E+00 0. -1.
         25    2    1    2    0    0  0.10386594518E+02  0.51154534710E+01  0.97042675576E+02  0.15874049116E+03  0.12508882221E+03 0.  0.
         23    2    1    2    0    0 -0.10386594518E+02 -0.51154534710E+01  0.54573964302E+02  0.10732685244E+03  0.91687984306E+02 0.  0.
          5    1    3    3  502    0  0.44342536724E+02  0.43876918240E+02  0.19404427196E+02  0.65463338688E+02  0.41800000000E+01 0.  1.
         -5    1    3    3    0  502 -0.33955942205E+02 -0.38761464769E+02  0.77638248381E+02  0.93277152474E+02  0.41800000000E+01 0.  1.
        -11    1    4    4    0    0 -0.16382017981E+02 -0.21850795282E+02  0.75254095213E+02  0.80056271547E+02  0.00000000000E+00 0.  1.
         11    1    4    4    0    0  0.59954234629E+01  0.16735341811E+02 -0.20680130911E+02  0.27270580898E+02  0.00000000000E+00 0. -1.
</event>
<event>
 8    1  0.6185113E-009  0.1208229E+03  0.7561462E-02  0.1241746E+00
          2   -1    0    0  501    0  0.00000000000E+00  0.00000000000E+00  0.50477882458E+03  0.50477882458E+03  0.00000000000E+00 0. -1.
         -2   -1    0    0    0  501 -0.00000000000E+00 -0.00000000000E+00 -0.68795654605E+02  0.68795654605E+02  0.00000000000E+00 0.  1.
         25    2    1    2    0    0  0.81784143013E+02 -0.41301975311E+02  0.41054047536E+03  0.43884534199E+03  0.12508898059E+03 0.  0.
         23    2    1    2    0    0 -0.81784143013E+02  0.41301975311E+02  0.25442694614E+02  0.13472913719E+03  0.95446898780E+02 0.  0.
          5    1    3    3  502    0 -0.34176742826E+01  0.20938805975E+02  0.21950341869E+03  0.22056594776E+03  0.41800000000E+01 0.  1.
         -5    1    3    3    0  502  0.85201817296E+02 -0.62240781286E+02  0.19103705667E+03  0.21827939423E+03  0.41800000000E+01 0.  1.
        -11    1    4    4    0    0 -0.84479257503E+01 -0.18148671360E+02 -0.21431174642E+02  0.29326386893E+02  0.00000000000E+00 0.  1.
         11    1    4    4    0    0 -0.73336217263E+02  0.59450646671E+02  0.46873869257E+02  0.10540275030E+03  0.00000000000E+00 0. -1.
</event>
<event>
 8    1  0.6185113E-009  0.1586671E+03  0.7561462E-02  0.1190210E+00
         -1   -1    0    0    0  501 -0.00000000000E+00  0.00000000000E+00  0.31919953654E+03  0.31919953654E+03  0.00000000000E+00 0.  1.
          1   -1    0    0  501    0  0.00000000000E+00 -0.00000000000E+00 -0.90732928860E+02  0.90732928860E+02  0.00000000000E+00 0. -1.
         25    2    1    2    0    0  0.12762029399E+03  0.19125426244E+02  0.14203737351E+03  0.22908189912E+03  0.12510467482E+03 0.  0.
         23    2    1    2    0    0 -0.12762029399E+03 -0.19125426244E+02  0.86429234170E+02  0.18085056628E+03  0.92650922489E+02 0.  0.
          5    1    3    3  502    0  0.25103178145E+02 -0.47402096434E+02  0.65737645616E+02  0.84947270412E+02  0.41800000000E+01 0.  1.
         -5    1    3    3    0  502  0.10251711585E+03  0.66527522678E+02  0.76299727898E+02  0.14413462871E+03  0.41800000000E+01 0.  1.
        -11    1    4    4    0    0 -0.55847911573E+02  0.20225529684E+02  0.78750191285E+02  0.98639008032E+02  0.00000000000E+00 0.  1.
         11    1    4    4    0    0 -0.71772382420E+02 -0.39350955927E+02  0.76790428850E+01  0.82211558252E+02  0.00000000000E+00 0. -1.
</event>
<event>
 8    1  0.6185113E-009  0.8419272E+02  0.7561462E-02  0.1317557E+00
          2   -1    0    0  501    0  0.00000000000E+00  0.00000000000E+00  0.41644970907E+03  0.41644970907E+03  0.00000000000E+00 0. -1.
         -2   -1    0    0    0  501 -0.00000000000E+00 -0.00000000000E+00 -0.38916393244E+02  0.38916393244E+02  0.00000000000E+00 0.  1.
         25    2    1    2    0    0  0.83495242388E+01 -0.25252226238E+00  0.32647198317E+03  0.34971701717E+03  0.12509299733E+03 0.  0.
         23    2    1    2    0    0 -0.83495242388E+01  0.25252226238E+00  0.51061332658E+02  0.10564908515E+03  0.92112383408E+02 0.  0.
          5    1    3    3  502    0  0.47157271654E+02 -0.24743756924E+02  0.64616739631E+02  0.83838280141E+02  0.41800000000E+01 0.  1.
         -5    1    3    3    0  502 -0.38807747415E+02  0.24491234662E+02  0.26185524354E+03  0.26587873703E+03  0.41800000000E+01 0.  1.
        -11    1    4    4    0    0  0.30047466249E+02 -0.37575088539E+01 -0.11286563058E+02  0.32316491246E+02  0.00000000000E+00 0.  1.
         11    1    4    4    0    0 -0.38396990488E+02  0.40100311162E+01  0.62347895716E+02  0.73332593901E+02  0.00000000000E+00 0. -1.
</event>
<event>
 8    1  0.6185113E-009  0.1209209E+03  0.7561462E-02  0.1241586E+00
         -2   -1    0    0    0  501 -0.00000000000E+00  0.00000000000E+00  0.28657978604E+02  0.28657978604E+02  0.00000000000E+00 0.  1.
          2   -1    0    0  501    0  0.00000000000E+00 -0.00000000000E+00 -0.81080128344E+03  0.81080128344E+03  0.00000000000E+00 0. -1.
         25    2    1    2    0    0 -0.68702606434E+02 -0.46408571477E+01 -0.64920945819E+03  0.66472716120E+03  0.12509073725E+03 0.  0.
         23    2    1    2    0    0  0.68702606434E+02  0.46408571477E+01 -0.13293384665E+03  0.17473210085E+03  0.90101685868E+02 0.  0.
          5    1    3    3  502    0 -0.97935601346E+02  0.29335500537E+01 -0.33548378787E+03  0.34952372173E+03  0.41800000000E+01 0.  1.
         -5    1    3    3    0  502  0.29232994911E+02 -0.75744072015E+01 -0.31372567032E+03  0.31520343947E+03  0.41800000000E+01 0.  1.
        -11    1    4    4    0    0  0.19217200962E+02  0.45320989204E+02 -0.53889061184E+02  0.72988518211E+02  0.00000000000E+00 0. -1.
         11    1    4    4    0    0  0.49485405472E+02 -0.40680132056E+02 -0.79044785466E+02  0.10174358264E+03  0.00000000000E+00 0.  1.
</event>
<event>
 8    1  0.6185113E-009  0.1288396E+03  0.7561462E-02  0.1229188E+00
          1   -1    0    0  501    0  0.00000000000E+00  0.00000000000E+00  0.14168846127E+03  0.14168846127E+03  0.00000000000E+00 0. -1.
         -1   -1    0    0    0  501 -0.00000000000E+00 -0.00000000000E+00 -0.13692871951E+03  0.13692871951E+03  0.00000000000E+00 0.  1.
         25    2    1    2    0    0  0.52816281215E+02 -0.65772404025E+02 -0.19037679079E+02  0.15207059582E+03  0.12508982451E+03 0.  0.
         23    2    1    2    0    0 -0.52816281215E+02  0.65772404025E+02  0.23797420843E+02  0.12654658495E+03  0.91280623527E+02 0.  0.
          5    1    3    3  502    0  0.61020552378E+02  0.20075036971E+02 -0.46645404846E+01  0.64542584856E+02  0.41800000000E+01 0. -1.
         -5    1    3    3    0  502 -0.82042711630E+01 -0.85847440996E+02 -0.14373138595E+02  0.87528010967E+02  0.41800000000E+01 0. -1.
        -11    1    4    4    0    0 -0.33311674922E+02 -0.48827934041E+01  0.39173365572E+02  0.51653285740E+02  0.00000000000E+00 0. -1.
         11    1    4    4    0    0 -0.19504606294E+02  0.70655197429E+02 -0.15375944729E+02  0.74893299211E+02  0.00000000000E+00 0.  1.
</event>
<event>
 8    1  0.6185113E-009  0.6947243E+02  0.7561462E-02  0.1361896E+00
         -1   -1    0    0    0  501 -0.00000000000E+00  0.00000000000E+00  0.89676149116E+02  0.89676149116E+02  0.00000000000E+00 0.  1.
          1   -1    0    0  501    0  0.00000000000E+00 -0.00000000000E+00 -0.21691646927E+03  0.21691646927E+03  0.00000000000E+00 0. -1.
         25    2    1    2    0    0 -0.12951493347E+02  0.25368909390E+02  0.19814257105E+02  0.12981381155E+03  0.12509075962E+03 0.  0.
         23    2    1    2    0    0  0.12951493347E+02 -0.25368909390E+02 -0.14705457726E+03  0.17677880683E+03  0.93884903522E+02 0.  0.
          5    1    3    3  502    0  0.21099417428E+02  0.39928181137E+01 -0.46932987236E+02  0.51781325816E+02  0.41800000000E+01 0.  1.
         -5    1    3    3    0  502 -0.34050910775E+02  0.21376091276E+02  0.66747244342E+02  0.78032485735E+02  0.41800000000E+01 0.  1.
        -11    1    4    4    0    0 -0.26479857098E+02  0.49098196891E+01 -0.65192957663E+01  0.27709030633E+02  0.00000000000E+00 0.  1.
         11    1    4    4    0    0  0.39431350445E+02 -0.30278729079E+02 -0.14053528149E+03  0.14906977620E+03  0.00000000000E+00 0. -1.
</event>
<event>
 8    1  0.6185113E-009  0.1714720E+03  0.7561462E-02  0.1176321E+00
          2   -1    0    0  501    0  0.00000000000E+00  0.00000000000E+00  0.69664215689E+03  0.69664215689E+03  0.00000000000E+00 0. -1.
         -2   -1    0    0    0  501 -0.00000000000E+00 -0.00000000000E+00 -0.50867843866E+02  0.50867843866E+02  0.00000000000E+00 0.  1.
         25    2    1    2    0    0  0.12199640388E+03  0.69809651765E+02  0.46077472041E+03  0.49771144876E+03  0.12508730237E+03 0.  0.
         23    2    1    2    0    0 -0.12199640388E+03 -0.69809651765E+02  0.18499959262E+03  0.24979855200E+03  0.91749426570E+02 0.  0.
          5    1    3    3  502    0 -0.19206242831E+02  0.15042778416E+02  0.20635931045E+02  0.32225440203E+02  0.41800000000E+01 0.  1.
         -5    1    3    3    0  502  0.14120264671E+03  0.54766873349E+02  0.44013878937E+03  0.46548600855E+03  0.41800000000E+01 0.  1.
        -11    1    4    4    0    0 -0.79332266050E+02 -0.89582015206E+02  0.14551689055E+03  0.18839774765E+03  0.00000000000E+00 0.  1.
         11    1    4    4    0    0 -0.42664137828E+02  0.19772363440E+02  0.39482702069E+02  0.61400804354E+02  0.00000000000E+00 0. -1.
</event>
<event>
 8    1  0.6185113E-009  0.1099946E+03  0.7561462E-02  0.1260580E+00
          1   -1    0    0  501    0  0.00000000000E+00  0.00000000000E+00  0.86018717469E+02  0.86018717469E+02  0.00000000000E+00 0. -1.
         -1   -1    0    0    0  501 -0.00000000000E+00 -0.00000000000E+00 -0.20232169818E+03  0.20232169818E+03  0.00000000000E+00 0.  1.
         25    2    1    2    0    0  0.77316233138E+02  0.37340274366E+00 -0.88853689719E+02  0.17182151371E+03  0.12509882119E+03 0.  0.
         23    2    1    2    0    0 -0.77316233138E+02 -0.37340274366E+00 -0.27449290987E+02  0.11651890193E+03  0.82736035650E+02 0.  0.
          5    1    3    3  502    0  0.22247266557E+02  0.36378739426E+02  0.17831951621E+02  0.46409098786E+02  0.41800000000E+01 0.  1.
         -5    1    3    3    0  502  0.55068966581E+02 -0.36005336682E+02 -0.10668564134E+03  0.12541241493E+03  0.41800000000E+01 0.  1.
        -11    1    4    4    0    0 -0.70143120791E+02 -0.33207402827E+02 -0.29067298772E+02  0.82871568434E+02  0.00000000000E+00 0.  1.
         11    1    4    4    0    0 -0.71731123475E+01  0.32834000084E+02  0.16180077846E+01  0.33647333497E+02  0.00000000000E+00 0. -1.
</event>
<event>
 8    1  0.6185113E-009  0.1228432E+03  0.7561462E-02  0.1238479E+00
          2   -1    0    0  501    0  0.00000000000E+00  0.00000000000E+00  0.92343085630E+02  0.92343085630E+02  0.00000000000E+00 0. -1.
         -2   -1    0    0    0  501 -0.00000000000E+00 -0.00000000000E+00 -0.38074446765E+03  0.38074446765E+03  0.00000000000E+00 0.  1.
         25    2    1    2    0    0  0.93423226604E+02 -0.19605396673E+02 -0.30440356517E+03  0.34266776020E+03  0.12508953811E+03 0.  0.
         23    2    1    2    0    0 -0.93423226604E+02  0.19605396673E+02  0.16002183148E+02  0.13041979308E+03  0.87412709110E+02 0.  0.
          5    1    3    3  502    0  0.69744324660E+02 -0.55148253576E+02 -0.10029751985E+03  0.13409946153E+03  0.41800000000E+01 0. -1.
         -5    1    3    3    0  502  0.23678901945E+02  0.35542856903E+02 -0.20410604532E+03  0.20856829867E+03  0.41800000000E+01 0. -1.
        -11    1    4    4    0    0 -0.46306707323E+02  0.41154825335E+02 -0.22455373497E+02  0.65895937586E+02  0.00000000000E+00 0.  1.
         11    1    4    4    0    0 -0.47116519281E+02 -0.21549428662E+02  0.38457556645E+02  0.64523855495E+02  0.00000000000E+00 0. -1.
</event>
<event>
 8    1  0.6185113E-009  0.1049350E+03  0.7561462E-02  0.1270248E+00
          1   -1    0    0  501    0  0.00000000000E+00  0.00000000000E+00  0.22987765449E+02  0.22987765449E+02  0.00000000000E+00 0. -1.
         -1   -1    0    0    0  501 -0.00000000000E+00 -0.00000000000E+00 -0.49330286273E+03  0.49330286273E+03  0.00000000000E+00 0.  1.
         25    2    1    2    0    0  0.10746018452E+02  0.25176387006E+02 -0.32480962011E+03  0.34913970192E+03  0.12509162550E+03 0.  0.
         23    2    1    2    0    0 -0.10746018452E+02 -0.25176387006E+02 -0.14550547718E+03  0.16715092626E+03  0.77577450884E+02 0.  0.
          5    1    3    3  502    0  0.48828192966E+02  0.59137541591E+02 -0.19005211573E+03  0.20498468320E+03  0.41800000000E+01 0. -1.
         -5    1    3    3    0  502 -0.38082174515E+02 -0.33961154585E+02 -0.13475750438E+03  0.14415501872E+03  0.41800000000E+01 0. -1.
        -11    1    4    4    0    0 -0.44290381435E+02 -0.16006443704E+02 -0.75494511862E+02  0.88979016903E+02  0.00000000000E+00 0.  1.
         11    1    4    4    0    0  0.33544362983E+02 -0.91699433024E+01 -0.70010965316E+02  0.78171909358E+02  0.00000000000E+00 0. -1.
</event>
<event>
 8    1  0.6185113E-009  0.2011743E+03  0.7561462E-02  0.1148752E+00
          3   -1    0    0  501    0  0.00000000000E+00  0.00000000000E+00  0.11812792791E+03  0.11812792791E+03  0.00000000000E+00 0. -1.
         -3   -1    0    0    0  501 -0.00000000000E+00 -0.00000000000E+00 -0.45290499530E+03  0.45290499530E+03  0.00000000000E+00 0.  1.
         25    2    1    2    0    0 -0.18453023671E+03 -0.73293272492E+02 -0.11165789055E+03  0.25988079301E+03  0.12508888839E+03 0.  0.
         23    2    1    2    0    0  0.18453023671E+03  0.73293272492E+02 -0.22311917684E+03  0.31115213020E+03  0.87236282589E+02 0.  0.
          5    1    3    3  502    0 -0.13619601376E+01 -0.82754732428E+01  0.22030173607E+02  0.23940328777E+02  0.41800000000E+01 0. -1.
         -5    1    3    3    0  502 -0.18316827657E+03 -0.65017799249E+02 -0.13368806416E+03  0.23594046423E+03  0.41800000000E+01 0. -1.
        -11    1    4    4    0    0  0.11526823104E+03  0.47027802488E+02 -0.74462851134E+02  0.14506238483E+03  0.00000000000E+00 0.  1.
         11    1    4    4    0    0  0.69262005674E+02  0.26265470003E+02 -0.14865632571E+03  0.16608974537E+03  0.00000000000E+00 0. -1.
</event>
<event>
 8    1  0.6185113E-009  0.1448589E+03  0.7561462E-02  0.1206937E+00
          1   -1    0    0  501    0  0.00000000000E+00  0.00000000000E+00  0.12055157979E+04  0.12055157979E+04  0.00000000000E+00 0. -1.
         -1   -1    0    0    0  501 -0.00000000000E+00 -0.00000000000E+00 -0.21505952251E+02  0.21505952251E+02  0.00000000000E+00 0.  1.
         25    2    1    2    0    0  0.68478239299E+02  0.67232272073E+02  0.88815441311E+03  0.90203946784E+03  0.12508993699E+03 0.  0.
         23    2    1    2    0    0 -0.68478239299E+02 -0.67232272073E+02  0.29585543248E+03  0.32498228226E+03  0.94199783381E+02 0.  0.
          5    1    3    3  502    0  0.10404025870E+03  0.50038475632E+02  0.72328660099E+03  0.73245423341E+03  0.41800000000E+01 0. -1.
         -5    1    3    3    0  502 -0.35562019402E+02  0.17193796441E+02  0.16486781213E+03  0.16958523443E+03  0.41800000000E+01 0. -1.
        -11    1    4    4    0    0 -0.62621146876E+02  0.42369925754E+01  0.13797530813E+03  0.15158016294E+03  0.00000000000E+00 0. -1.
         11    1    4    4    0    0 -0.58570924230E+01 -0.71469264648E+02  0.15788012435E+03  0.17340211932E+03  0.00000000000E+00 0.  1.
</event>
<event>
 8    1  0.6185113E-009  0.1944253E+03  0.7561462E-02  0.1154529E+00
          2   -1    0    0  501    0  0.00000000000E+00  0.00000000000E+00  0.21027195709E+03  0.21027195709E+03  0.00000000000E+00 0. -1.
         -2   -1    0    0    0  501 -0.00000000000E+00 -0.00000000000E+00 -0.23060417041E+03  0.23060417041E+03  0.00000000000E+00 0.  1.
         25    2    1    2    0    0  0.14339537446E+03 -0.11866236485E+03 -0.54565481101E+02  0.23080799663E+03  0.12510775088E+03 0.  0.
         23    2    1    2    0    0 -0.14339537446E+03  0.11866236485E+03  0.34233267774E+02  0.21006813087E+03  0.91179563157E+02 0.  0.
          5    1    3    3  502    0  0.12957666550E+03 -0.13034324317E+03 -0.79018869952E+02  0.20010229256E+03  0.41800000000E+01 0.  1.
         -5    1    3    3    0  502  0.13818708964E+02  0.11680878320E+02  0.24453388851E+02  0.30705704064E+02  0.41800000000E+01 0.  1.
        -11    1    4    4    0    0 -0.67361801456E+02  0.48762520634E+02 -0.30042527493E+02  0.88419167447E+02  0.00000000000E+00 0.  1.
         11    1    4    4    0    0 -0.76033573005E+02  0.69899844215E+02  0.64275795267E+02  0.12164896343E+03  0.00000000000E+00 0. -1.
</event>
<event>
 8    1  0.6185113E-009  0.2260923E+03  0.7561462E-02  0.1129421E+00
          2   -1    0    0  501    0  0.00000000000E+00  0.00000000000E+00  0.83139649442E+03  0.83139649442E+03  0.00000000000E+00 0. -1.
         -2   -1    0    0    0  501 -0.00000000000E+00 -0.00000000000E+00 -0.93497617819E+02  0.93497617819E+02  0.00000000000E+00 0.  1.
         25    2    1    2    0    0 -0.15894162084E+03  0.15295719034E+03  0.15966397295E+03  0.29966365986E+03  0.12508950345E+03 0.  0.
         23    2    1    2    0    0  0.15894162084E+03 -0.15295719034E+03  0.57823490365E+03  0.62523045237E+03  0.88877296650E+02 0.  0.
          5    1    3    3  502    0 -0.15694806563E+02 -0.58915115757E+01 -0.15463184666E+02  0.23186619886E+02  0.41800000000E+01 0. -1.
         -5    1    3    3    0  502 -0.14324681428E+03  0.15884870192E+03  0.17512715761E+03  0.27647703998E+03  0.41800000000E+01 0. -1.
        -11    1    4    4    0    0  0.84384731956E+02 -0.72200247118E+02  0.40598834510E+03  0.42090402116E+03  0.00000000000E+00 0. -1.
         11    1    4    4    0    0  0.74556888884E+02 -0.80756943225E+02  0.17224655855E+03  0.20432643121E+03  0.00000000000E+00 0.  1.
</event>
<event>
 8    1  0.6185113E-009  0.1106462E+03  0.7561462E-02  0.1259378E+00
         -1   -1    0    0    0  501 -0.00000000000E+00  0.00000000000E+00  0.76438599311E+02  0.76438599311E+02  0.00000000000E+00 0.  1.
          1   -1    0    0  501    0  0.00000000000E+00 -0.00000000000E+00 -0.30595096132E+03  0.30595096132E+03  0.00000000000E+00 0. -1.
         25    2    1    2    0    0  0.45283899144E+02  0.96059349267E+02 -0.14504389037E+03  0.21900425040E+03  0.12508837459E+03 0.  0.
         23    2    1    2    0    0 -0.45283899144E+02 -0.96059349267E+02 -0.84468471646E+02  0.16338531024E+03  0.91004432835E+02 0.  0.
          5    1    3    3  502    0  0.21554895636E+02  0.54759528902E+02 -0.15867233673E+03  0.16928556458E+03  0.41800000000E+01 0. -1.
         -5    1    3    3    0  502  0.23729003508E+02  0.41299820365E+02  0.13628446361E+02  0.49718685822E+02  0.41800000000E+01 0. -1.
        -11    1    4    4    0    0 -0.17419033552E+02 -0.80910280642E+02 -0.11164078328E+02  0.83513668871E+02  0.00000000000E+00 0.  1.
         11    1    4    4    0    0 -0.27864865592E+02 -0.15149068625E+02 -0.73304393318E+02  0.79871641365E+02  0.00000000000E+00 0. -1.
</event>
<event>
 8    1  0.6185113E-009  0.1232489E+03  0.7561462E-02  0.1237832E+00
          1   -1    0    0  501    0  0.00000000000E+00  0.00000000000E+00  0.84073669427E+03  0.84073669427E+03  0.00000000000E+00 0. -1.
         -1   -1    0    0    0  501 -0.00000000000E+00 -0.00000000000E+00 -0.26102204903E+02  0.26102204903E+02  0.00000000000E+00 0.  1.
         25    2    1    2    0    0 -0.49910893250E+02  0.87100301431E+02  0.50429339862E+03  0.52918527172E+03  0.12509060775E+03 0.  0.
         23    2    1    2    0    0  0.49910893250E+02 -0.87100301431E+02  0.31034109075E+03  0.33765362745E+03  0.87297306637E+02 0.  0.
          5    1    3    3  502    0 -0.18400717464E+02 -0.21802267390E+02  0.23790738465E+03  0.23964832847E+03  0.41800000000E+01 0.  1.
         -5    1    3    3    0  502 -0.31510175786E+02  0.10890256882E+03  0.26638601397E+03  0.28953694326E+03  0.41800000000E+01 0.  1.
        -11    1    4    4    0    0  0.52996068887E+02 -0.75701959846E+02  0.31229897262E+03  0.32568392399E+03  0.00000000000E+00 0. -1.
         11    1    4    4    0    0 -0.30851756371E+01 -0.11398341584E+02 -0.19578818697E+01  0.11969703463E+02  0.00000000000E+00 0.  1.
</event>
<event>
 8    1  0.6185113E-009  0.1518072E+03  0.7561462E-02  0.1198270E+00
          2   -1    0    0  501    0  0.00000000000E+00  0.00000000000E+00  0.10712015814E+03  0.10712015814E+03  0.00000000000E+00 0. -1.
         -2   -1    0    0    0  501 -0.00000000000E+00 -0.00000000000E+00 -0.26288213559E+03  0.26288213559E+03  0.00000000000E+00 0.  1.
         25    2    1    2    0    0 -0.45267854207E+02  0.11479331027E+03 -0.45138330047E+02  0.18142958390E+03  0.12511012096E+03 0.  0.
         23    2    1    2    0    0  0.45267854207E+02 -0.11479331027E+03 -0.11062364741E+03  0.18857270983E+03  0.89974400907E+02 0.  0.
          5    1    3    3  502    0 -0.80054435972E+02  0.11383300314E+03 -0.45197753902E+02  0.14637955691E+03  0.41800000000E+01 0. -1.
         -5    1    3    3    0  502  0.34786581766E+02  0.96030712795E+00  0.59423854796E-01  0.35050026989E+02  0.41800000000E+01 0. -1.
        -11    1    4    4    0    0  0.14051250214E+02 -0.85106829999E+02 -0.20468561458E+02  0.88654228062E+02  0.00000000000E+00 0. -1.
         11    1    4    4    0    0  0.31216603993E+02 -0.29686480272E+02 -0.90155085951E+02  0.99918481767E+02  0.00000000000E+00 0.  1.
</event>
<event>
 8    1  0.6185113E-009  0.1236514E+03  0.7561462E-02  0.1237192E+00
          2   -1    0    0  501    0  0.00000000000E+00  0.00000000000E+00  0.69131708241E+02  0.69131708241E+02  0.00000000000E+00 0. -1.
         -2   -1    0    0    0  501 -0.00000000000E+00 -0.00000000000E+00 -0.30826591218E+03  0.30826591218E+03  0.00000000000E+00 0.  1.
         25    2    1    2    0    0 -0.26610204526E+02  0.77789309315E+02 -0.19306727507E+03  0.24429927809E+03  0.12509150627E+03 0.  0.
         23    2    1    2    0    0  0.26610204526E+02 -0.77789309315E+02 -0.46066928872E+02  0.13309834234E+03  0.93987909696E+02 0.  0.
          5    1    3    3  502    0 -0.29335673507E+02 -0.23486396256E+02 -0.99047370576E+02  0.10601908586E+03  0.41800000000E+01 0.  1.
         -5    1    3    3    0  502  0.27254689813E+01  0.10127570557E+03 -0.94019904495E+02  0.13828019222E+03  0.41800000000E+01 0.  1.
        -11    1    4    4    0    0  0.31100937721E+02 -0.89926115474E+02 -0.11080612037E+02  0.95795378461E+02  0.00000000000E+00 0. -1.
         11    1    4    4    0    0 -0.44907331953E+01  0.12136806159E+02 -0.34986316835E+02  0.37302963878E+02  0.00000000000E+00 0.  1.
</event>
<event>
 8    1  0.6185113E-009  0.1141794E+03  0.7561462E-02  0.1253020E+00
          3   -1    0    0  501    0  0.00000000000E+00  0.00000000000E+00  0.24433490807E+03  0.24433490807E+03  0.00000000000E+00 0. -1.
         -3   -1    0    0    0  501 -0.00000000000E+00 -0.00000000000E+00 -0.70891550985E+02  0.70891550985E+02  0.00000000000E+00 0.  1.
         25    2    1    2    0    0  0.44549674083E+02  0.39594773536E+02  0.14870813096E+03  0.20327066620E+03  0.12510969575E+03 0.  0.
         23    2    1    2    0    0 -0.44549674083E+02 -0.39594773536E+02  0.24735226126E+02  0.11195579286E+03  0.91486876603E+02 0.  0.
          5    1    3    3  502    0 -0.14292741895E+01 -0.33169134357E+02  0.24986038171E+01  0.33555174262E+02  0.41800000000E+01 0. -1.
         -5    1    3    3    0  502  0.45978948272E+02  0.72763907893E+02  0.14620952714E+03  0.16971549193E+03  0.41800000000E+01 0. -1.
        -11    1    4    4    0    0  0.24770926117E+02 -0.29738981105E+02  0.13792209086E+02  0.41088085978E+02  0.00000000000E+00 0.  1.
         11    1    4    4    0    0 -0.69320600199E+02 -0.98557924309E+01  0.10943017039E+02  0.70867706879E+02  0.00000000000E+00 0. -1.
</event>
<event>
 8    1  0.6185113E-009  0.9413754E+02  0.7561462E-02  0.1293130E+00
          2   -1    0    0  501    0  0.00000000000E+00  0.00000000000E+00  0.30661770190E+02  0.30661770190E+02  0.00000000000E+00 0.  1.
         -2   -1    0    0    0  501 -0.00000000000E+00 -0.00000000000E+00 -0.59478372845E+03  0.59478372845E+03  0.00000000000E+00 0. -1.
         25    2    1    2    0    0  0.19763757129E+02 -0.62980397061E+02 -0.41534883671E+03  0.43877015082E+03  0.12508977811E+03 0.  0.
         23    2    1    2    0    0 -0.19763757129E+02  0.62980397061E+02 -0.14877312156E+03  0.18667534782E+03  0.91417215428E+02 0.  0.
          5    1    3    3  502    0  0.39148759474E+02 -0.21972325123E+02 -0.37565370785E+03  0.37834982365E+03  0.41800000000E+01 0.  1.
         -5    1    3    3    0  502 -0.19385002345E+02 -0.41008071938E+02 -0.39695128863E+02  0.60420327171E+02  0.41800000000E+01 0.  1.
        -11    1    4    4    0    0  0.11339006074E+02 -0.11970437972E+02 -0.75700820408E+02  0.77475664918E+02  0.00000000000E+00 0. -1.
         11    1    4    4    0    0 -0.31102763203E+02  0.74950835033E+02 -0.73072301147E+02  0.10919968290E+03  0.00000000000E+00 0.  1.
</event>
<event>
 8    1  0.6185113E-009  0.8263676E+02  0.7561462E-02  0.1321731E+00
         -2   -1    0    0    0  501 -0.00000000000E+00  0.00000000000E+00  0.35572399761E+02  0.35572399761E+02  0.00000000000E+00 0.  1.
          2   -1    0    0  501    0  0.00000000000E+00 -0.00000000000E+00 -0.41625765299E+03  0.41625765299E+03  0.00000000000E+00 0. -1.
         25    2    1    2    0    0 -0.34940123670E+02  0.34350387415E+02 -0.25772436983E+03  0.29063818612E+03  0.12509173861E+03 0.  0.
         23    2    1    2    0    0  0.34940123670E+02 -0.34350387415E+02 -0.12296088339E+03  0.16119186662E+03  0.91992813111E+02 0.  0.
          5    1    3    3  502    0 -0.32887033670E+02  0.48476325280E+02 -0.36996678452E+02  0.69409925175E+02  0.41800000000E+01 0. -1.
         -5    1    3    3    0  502 -0.20530899999E+01 -0.14125937866E+02 -0.22072769138E+03  0.22122826095E+03  0.41800000000E+01 0. -1.
        -11    1    4    4    0    0 -0.23391645228E+01  0.23082465127E+02 -0.72538358971E+02  0.76158291796E+02  0.00000000000E+00 0.  1.
         11    1    4    4    0    0  0.37279288193E+02 -0.57432852542E+02 -0.50422524420E+02  0.85033574829E+02  0.00000000000E+00 0. -1.
</event>
<event>
 8    1  0.6185113E-009  0.1114830E+03  0.7561462E-02  0.1257848E+00
         -1   -1    0    0    0  501 -0.00000000000E+00  0.00000000000E+00  0.78011647483E+02  0.78011647483E+02  0.00000000000E+00 0.  1.
          1   -1    0    0  501    0  0.00000000000E+00 -0.00000000000E+00 -0.22589766418E+03  0.22589766418E+03  0.00000000000E+00 0. -1.
         25    2    1    2    0    0  0.22825511309E+02 -0.54103340960E+02 -0.10977400966E+02  0.13862273818E+03  0.12509030633E+03 0.  0.
         23    2    1    2    0    0 -0.22825511309E+02  0.54103340960E+02 -0.13690861573E+03  0.16528657348E+03  0.71606611736E+02 0.  0.
          5    1    3    3  502    0 -0.51824486988E+01 -0.87741584207E+02  0.12334837894E+02  0.88854172662E+02  0.41800000000E+01 0. -1.
         -5    1    3    3    0  502  0.28007960008E+02  0.33638243247E+02 -0.23312238860E+02  0.49768565513E+02  0.41800000000E+01 0. -1.
        -11    1    4    4    0    0  0.68965836468E+01  0.60255528222E+02 -0.10493392447E+03  0.12119991771E+03  0.00000000000E+00 0. -1.
         11    1    4    4    0    0 -0.29722094956E+02 -0.61521872620E+01 -0.31974691255E+02  0.44086655776E+02  0.00000000000E+00 0.  1.
</event>
<event>
 8    1  0.6185113E-009  0.1227972E+03  0.7561462E-02  0.1238553E+00
         -3   -1    0    0    0  501 -0.00000000000E+00  0.00000000000E+00  0.19225470727E+03  0.19225470727E+03  0.00000000000E+00 0.  1.
          3   -1    0    0  501    0  0.00000000000E+00 -0.00000000000E+00 -0.84076974154E+02  0.84076974154E+02  0.00000000000E+00 0. -1.
         25    2    1    2    0    0  0.40310481501E+02  0.53522356603E+02  0.67849994397E+02  0.15728982593E+03  0.12508752945E+03 0.  0.
         23    2    1    2    0    0 -0.40310481501E+02 -0.53522356603E+02  0.40327738715E+02  0.11904185549E+03  0.89749982030E+02 0.  0.
          5    1    3    3  502    0  0.80634351427E+02  0.24606168388E+02  0.16971209182E+02  0.86097947094E+02  0.41800000000E+01 0. -1.
         -5    1    3    3    0  502 -0.40323869926E+02  0.28916188215E+02  0.50878785215E+02  0.71191878832E+02  0.41800000000E+01 0. -1.
        -11    1    4    4    0    0 -0.68711428748E+02 -0.43240321374E+02  0.23753923565E+02  0.84588620498E+02  0.00000000000E+00 0. -1.
         11    1    4    4    0    0  0.28400947247E+02 -0.10282035230E+02  0.16573815150E+02  0.34453234995E+02  0.00000000000E+00 0.  1.
</event>
<event>
 8    1  0.6185113E-009  0.1323004E+03  0.7561462E-02  0.1224082E+00
         -1   -1    0    0    0  501 -0.00000000000E+00  0.00000000000E+00  0.72805327035E+02  0.72805327035E+02  0.00000000000E+00 0.  1.
          1   -1    0    0  501    0  0.00000000000E+00 -0.00000000000E+00 -0.30474158209E+03  0.30474158209E+03  0.00000000000E+00 0. -1.
         25    2    1    2    0    0 -0.90974440505E+02 -0.70198415733E+01 -0.67573254618E+02  0.16897810233E+03  0.12514722261E+03 0.  0.
         23    2    1    2    0    0  0.90974440505E+02  0.70198415733E+01 -0.16436300043E+03  0.20856880679E+03  0.90333406078E+02 0.  0.
          5    1    3    3  502    0 -0.89884146326E+02 -0.49836068147E+02 -0.19923362831E+02  0.10477216346E+03  0.41800000000E+01 0.  1.
         -5    1    3    3    0  502 -0.10902941790E+01  0.42816226573E+02 -0.47649891787E+02  0.64205938874E+02  0.41800000000E+01 0.  1.
        -11    1    4    4    0    0  0.45722147068E+02 -0.34511644601E+02 -0.11945663671E+03  0.13248190970E+03  0.00000000000E+00 0. -1.
         11    1    4    4    0    0  0.45252293437E+02  0.41531486174E+02 -0.44906363728E+02  0.76086897088E+02  0.00000000000E+00 0.  1.
</event>
<event>
 8    1  0.6185113E-009  0.1178262E+03  0.7561462E-02  0.1246727E+00
          1   -1    0    0  501    0  0.00000000000E+00  0.00000000000E+00  0.68299654063E+03  0.68299654063E+03  0.00000000000E+00 0. -1.
         -1   -1    0    0    0  501 -0.00000000000E+00 -0.00000000000E+00 -0.30179137611E+02  0.30179137611E+02  0.00000000000E+00 0.  1.
         25    2    1    2    0    0  0.80814885983E+02  0.28452048346E+02  0.29502698613E+03  0.33170639231E+03  0.12509054043E+03 0.  0.
         23    2    1    2    0    0 -0.80814885983E+02 -0.28452048346E+02  0.35779041690E+03  0.38146928594E+03  0.10081799858E+03 0.  0.
          5    1    3    3  502    0 -0.88309358091E+01  0.20792640368E+02 -0.27344910015E+00  0.22975345376E+02  0.41800000000E+01 0. -1.
         -5    1    3    3    0  502  0.89645821792E+02  0.76594079780E+01  0.29530043523E+03  0.30873104693E+03  0.41800000000E+01 0. -1.
        -11    1    4    4    0    0 -0.56828729774E+02  0.26460094708E+02  0.11070117058E+03  0.12721788517E+03  0.00000000000E+00 0.  1.
         11    1    4    4    0    0 -0.23986156209E+02 -0.54912143055E+02  0.24708924632E+03  0.25425140077E+03  0.00000000000E+00 0. -1.
</event>
<event>
 8    1  0.6185113E-009  0.1614884E+03  0.7561462E-02  0.1187026E+00
          2   -1    0    0  501    0  0.00000000000E+00  0.00000000000E+00  0.12622763822E+04  0.12622763822E+04  0.00000000000E+00 0. -1.
         -2   -1    0    0    0  501 -0.00000000000E+00 -0.00000000000E+00 -0.31771212161E+02  0.31771212161E+02  0.00000000000E+00 0.  1.
         25    2    1    2    0    0  0.29785570525E+01 -0.14402798586E+03  0.36498592547E+03  0.41184451116E+03  0.12509293772E+03 0.  0.
         23    2    1    2    0    0 -0.29785570525E+01  0.14402798586E+03  0.86551924452E+03  0.88220308315E+03  0.91683066981E+02 0.  0.
          5    1    3    3  502    0  0.24302026125E+02 -0.11260948885E+03  0.35370004054E+03  0.37201166183E+03  0.41800000000E+01 0. -1.
         -5    1    3    3    0  502 -0.21323469073E+02 -0.31418497009E+02  0.11285884926E+02  0.39832849335E+02  0.41800000000E+01 0. -1.
        -11    1    4    4    0    0 -0.36684814028E+02  0.12608620379E+03  0.71188378791E+03  0.72389366198E+03  0.00000000000E+00 0. -1.
         11    1    4    4    0    0  0.33706256975E+02  0.17941782071E+02  0.15363545661E+03  0.15830942117E+03  0.00000000000E+00 0.  1.
</event>
<event>
 8    1  0.6185113E-009  0.7982519E+02  0.7561462E-02  0.1329548E+00
         -2   -1    0    0    0  501 -0.00000000000E+00  0.00000000000E+00  0.43386094517E+02  0.43386094517E+02  0.00000000000E+00 0. -1.
          2   -1    0    0  501    0  0.00000000000E+00 -0.00000000000E+00 -0.31154297810E+03  0.31154297810E+03  0.00000000000E+00 0.  1.
         25    2    1    2    0    0 -0.41222740332E+02  0.75293617863E+01 -0.15004431312E+03  0.19979579449E+03  0.12509619494E+03 0.  0.
         23    2    1    2    0    0  0.41222740332E+02 -0.75293617863E+01 -0.11811257047E+03  0.15513327813E+03  0.91431663391E+02 0.  0.
          5    1    3    3  502    0 -0.23410196761E+02 -0.44603932442E+02 -0.13235071031E+02  0.52251197182E+02  0.41800000000E+01 0. -1.
         -5    1    3    3    0  502 -0.17812543571E+02  0.52133294229E+02 -0.13680924209E+03  0.14754459731E+03  0.41800000000E+01 0. -1.
        -11    1    4    4    0    0  0.38627571014E+02  0.68591051989E+01 -0.13031325272E+03  0.13609070652E+03  0.00000000000E+00 0.  1.
         11    1    4    4    0    0  0.25951693179E+01 -0.14388466985E+02  0.12200682252E+02  0.19042571607E+02  0.00000000000E+00 0. -1.
</event>
<event>
 8    1  0.6185113E-009  0.7673055E+02  0.7561462E-02  0.1338594E+00
         -1   -1    0    0    0  501 -0.00000000000E+00  0.00000000000E+00  0.30149749865E+02  0.30149749865E+02  0.00000000000E+00 0.  1.
          1   -1    0    0  501    0  0.00000000000E+00 -0.00000000000E+00 -0.40781022376E+03  0.40781022376E+03  0.00000000000E+00 0. -1.
         25    2    1    2    0    0  0.51393471276E+01 -0.22154656990E+02 -0.19479188406E+03  0.23260211775E+03  0.12507048161E+03 0.  0.
         23    2    1    2    0    0 -0.51393471276E+01  0.22154656990E+02 -0.18286858983E+03  0.20535785587E+03  0.90629388757E+02 0.  0.
          5    1    3    3  502    0 -0.40066999069E+02  0.16111771373E+02 -0.15541240962E+03  0.16135502179E+03  0.41800000000E+01 0.  1.
         -5    1    3    3    0  502  0.45206346196E+02 -0.38266428363E+02 -0.39379474438E+02  0.71247095963E+02  0.41800000000E+01 0.  1.
        -11    1    4    4    0    0 -0.22604544730E+02  0.24199344449E+02 -0.18473050999E+03  0.18767507836E+03  0.00000000000E+00 0. -1.
         11    1    4    4    0    0  0.17465197602E+02 -0.20446874594E+01  0.18619201584E+01  0.17682777518E+02  0.00000000000E+00 0.  1.
</event>
<event>
 8    1  0.6185113E-009  0.9306808E+02  0.7561462E-02  0.1295588E+00
          3   -1    0    0  501    0  0.00000000000E+00  0.00000000000E+00  0.10709079857E+03  0.10709079857E+03  0.00000000000E+00 0. -1.
         -3   -1    0    0    0  501 -0.00000000000E+00 -0.00000000000E+00 -0.17872366710E+03  0.17872366710E+03  0.00000000000E+00 0.  1.
         25    2    1    2    0    0 -0.33113582440E+02 -0.71871158637E+02 -0.43357171728E+02  0.15423611945E+03  0.12508782282E+03 0.  0.
         23    2    1    2    0    0  0.33113582440E+02  0.71871158637E+02 -0.28275696797E+02  0.13157834622E+03  0.10124906606E+03 0.  0.
          5    1    3    3  502    0  0.12582258122E+02 -0.27378068914E+02  0.39333000433E+02  0.49723527630E+02  0.41800000000E+01 0.  1.
         -5    1    3    3    0  502 -0.45695840562E+02 -0.44493089723E+02 -0.82690172161E+02  0.10451259182E+03  0.41800000000E+01 0.  1.
        -11    1    4    4    0    0 -0.33017249578E+01  0.48321975943E+02 -0.60536819645E+02  0.77528196673E+02  0.00000000000E+00 0.  1.
         11    1    4    4    0    0  0.36415307398E+02  0.23549182694E+02  0.32261122848E+02  0.54050149545E+02  0.00000000000E+00 0. -1.
</event>
<event>
 8    1  0.6185113E-009  0.1096349E+03  0.7561462E-02  0.1261248E+00
          2   -1    0    0  501    0  0.00000000000E+00  0.00000000000E+00  0.27203138827E+03  0.27203138827E+03  0.00000000000E+00 0. -1.
         -2   -1    0    0    0  501 -0.00000000000E+00 -0.00000000000E+00 -0.67901013254E+02  0.67901013254E+02  0.00000000000E+00 0.  1.
         25    2    1    2    0    0  0.35133358882E+02  0.98601208008E+01  0.22329690379E+02  0.13220190252E+03  0.12508858089E+03 0.  0.
         23    2    1    2    0    0 -0.35133358882E+02 -0.98601208008E+01  0.18180068464E+03  0.20773049900E+03  0.93642385670E+02 0.  0.
          5    1    3    3  502    0 -0.13100165902E+02  0.59368926678E+02  0.13229822355E+02  0.62360118675E+02  0.41800000000E+01 0. -1.
         -5    1    3    3    0  502  0.48233524784E+02 -0.49508805878E+02  0.90998680240E+01  0.69841783845E+02  0.41800000000E+01 0. -1.
        -11    1    4    4    0    0 -0.32797522278E+01 -0.42995052456E+02  0.13668617077E+03  0.14332634297E+03  0.00000000000E+00 0. -1.
         11    1    4    4    0    0 -0.31853606655E+02  0.33134931655E+02  0.45114513865E+02  0.64404156030E+02  0.00000000000E+00 0.  1.
</event>
<event>
 8    1  0.6185113E-009  0.9315796E+02  0.7561462E-02  0.1295380E+00
          1   -1    0    0  501    0  0.00000000000E+00  0.00000000000E+00  0.13117115795E+04  0.13117115795E+04  0.00000000000E+00 0. -1.
         -1   -1    0    0    0  501 -0.00000000000E+00 -0.00000000000E+00 -0.16947954821E+02  0.16947954821E+02  0.00000000000E+00 0.  1.
         25    2    1    2    0    0  0.24479295106E+02  0.24665806555E+02  0.11238858439E+04  0.11313593065E+04  0.12508737893E+03 0.  0.
         23    2    1    2    0    0 -0.24479295106E+02 -0.24665806555E+02  0.17087778077E+03  0.19730022782E+03  0.92306695502E+02 0.  0.
          5    1    3    3  502    0  0.65278133403E+02 -0.19550800560E+02  0.51806621579E+03  0.52254525627E+03  0.41800000000E+01 0. -1.
         -5    1    3    3    0  502 -0.40798838297E+02  0.44216607114E+02  0.60581962814E+03  0.60881405025E+03  0.41800000000E+01 0. -1.
        -11    1    4    4    0    0  0.34769677418E+01 -0.29207278044E+02  0.60149518168E+01  0.30022225780E+02  0.00000000000E+00 0.  1.
         11    1    4    4    0    0 -0.27956262847E+02  0.45414714893E+01  0.16486282895E+03  0.16727800204E+03  0.00000000000E+00 0. -1.
</event>
<event>
 8    1  0.6185113E-009  0.2277239E+03  0.7561462E-02  0.1128252E+00
          1   -1    0    0  501    0  0.00000000000E+00  0.00000000000E+00  0.14847844194E+03  0.14847844194E+03  0.00000000000E+00 0. -1.
         -1   -1    0    0    0  501 -0.00000000000E+00 -0.00000000000E+00 -0.40990151916E+03  0.40990151916E+03  0.00000000000E+00 0.  1.
         25    2    1    2    0    0  0.17298040394E+03 -0.13623010264E+03 -0.15693058952E+03  0.29791497894E+03  0.12508102867E+03 0.  0.
         23    2    1    2    0    0 -0.17298040394E+03  0.13623010264E+03 -0.10449248770E+03  0.26046498216E+03  0.91882892497E+02 0.  0.
          5    1    3    3  502    0  0.14919107883E+03 -0.81043119222E+02 -0.16541747965E+03  0.23707884796E+03  0.41800000000E+01 0. -1.
         -5    1    3    3    0  502  0.23789325112E+02 -0.55186983422E+02  0.84868901264E+01  0.60836130979E+02  0.41800000000E+01 0. -1.
        -11    1    4    4    0    0 -0.29535990755E+02  0.49806185379E+02 -0.67548233133E+02  0.88970751662E+02  0.00000000000E+00 0.  1.
         11    1    4    4    0    0 -0.14344441319E+03  0.86423917265E+02 -0.36944254568E+02  0.17149423050E+03  0.00000000000E+00 0. -1.
</event>
<event>
 8    1  0.6185113E-009  0.1523026E+03  0.7561462E-02  0.1197672E+00
         -1   -1    0    0    0  501 -0.00000000000E+00  0.00000000000E+00  0.94883186921E+02  0.94883186921E+02  0.00000000000E+00 0.  1.
          1   -1    0    0  501    0  0.00000000000E+00 -0.00000000000E+00 -0.30211690243E+03  0.30211690243E+03  0.00000000000E+00 0. -1.
         25    2    1    2    0    0  0.83091834510E+02  0.84738478751E+02 -0.48819005007E+02  0.17920791772E+03  0.12508924727E+03 0.  0.
         23    2    1    2    0    0 -0.83091834510E+02 -0.84738478751E+02 -0.15841471050E+03  0.21779217162E+03  0.90847932142E+02 0.  0.
          5    1    3    3  502    0  0.92704761370E+02  0.10489596542E+03 -0.18423619057E+02  0.14125947219E+03  0.41800000000E+01 0.  1.
         -5    1    3    3    0  502 -0.96129268606E+01 -0.20157486672E+02 -0.30395385950E+02  0.37948445539E+02  0.41800000000E+01 0.  1.
        -11    1    4    4    0    0 -0.85091943905E+02 -0.97215637447E+02 -0.15932344870E+03  0.20512308595E+03  0.00000000000E+00 0. -1.
         11    1    4    4    0    0  0.20001093956E+01  0.12477158696E+02  0.90873820462E+00  0.12669085675E+02  0.00000000000E+00 0.  1.
</event>
<event>
 8    1  0.6185113E-009  0.1228231E+03  0.7561462E-02  0.1238511E+00
          2   -1    0    0  501    0  0.00000000000E+00  0.00000000000E+00  0.75045845240E+03  0.75045845240E+03  0.00000000000E+00 0. -1.
         -2   -1    0    0    0  501 -0.00000000000E+00 -0.00000000000E+00 -0.26611989749E+02  0.26611989749E+02  0.00000000000E+00 0.  1.
         25    2    1    2    0    0 -0.45984649225E+02 -0.74515522345E+02  0.44378611796E+03  0.46931954206E+03  0.12509021956E+03 0.  0.
         23    2    1    2    0    0  0.45984649225E+02  0.74515522345E+02  0.28006034469E+03  0.30775090009E+03  0.92788301007E+02 0.  0.
          5    1    3    3  502    0  0.18001503435E+01 -0.69983636321E+02  0.99810163503E+02  0.12198561814E+03  0.41800000000E+01 0. -1.
         -5    1    3    3    0  502 -0.47784799568E+02 -0.45318860234E+01  0.34397595446E+03  0.34733392392E+03  0.41800000000E+01 0. -1.
        -11    1    4    4    0    0 -0.46362593688E+01  0.76532544300E+02  0.17788902251E+03  0.19370913651E+03  0.00000000000E+00 0. -1.
         11    1    4    4    0    0  0.50620908594E+02 -0.20170219555E+01  0.10217132218E+03  0.11404176358E+03  0.00000000000E+00 0.  1.
</event>
<event>
 8    1  0.6185113E-009  0.1542083E+03  0.7561462E-02  0.1195395E+00
         -2   -1    0    0    0  501 -0.00000000000E+00  0.00000000000E+00  0.18413490586E+02  0.18413490586E+02  0.00000000000E+00 0.  1.
          2   -1    0    0  501    0  0.00000000000E+00 -0.00000000000E+00 -0.13718814039E+04  0.13718814039E+04  0.00000000000E+00 0. -1.
         25    2    1    2    0    0 -0.60466376089E+02  0.91599465204E+02 -0.88265824032E+03  0.89820909147E+03  0.12508940055E+03 0.  0.
         23    2    1    2    0    0  0.60466376089E+02 -0.91599465204E+02 -0.47080967300E+03  0.49208580303E+03  0.91869715817E+02 0.  0.
          5    1    3    3  502    0  0.34085817711E+02  0.10984580098E+01 -0.22896513574E+03  0.23152873551E+03  0.41800000000E+01 0.  1.
         -5    1    3    3    0  502 -0.94552193800E+02  0.90501007195E+02 -0.65369310457E+03  0.66668035596E+03  0.41800000000E+01 0.  1.
        -11    1    4    4    0    0  0.40835121248E+02 -0.10929723207E+03 -0.38732211039E+03  0.40451428808E+03  0.00000000000E+00 0. -1.
         11    1    4    4    0    0  0.19631254840E+02  0.17697766866E+02 -0.83487562610E+02  0.87571514942E+02  0.00000000000E+00 0.  1.
</event>
<event>
 8    1  0.6185113E-009  0.1248701E+03  0.7561462E-02  0.1235272E+00
          1   -1    0    0  501    0  0.00000000000E+00  0.00000000000E+00  0.44429928023E+03  0.44429928023E+03  0.00000000000E+00 0. -1.
         -1   -1    0    0    0  501 -0.00000000000E+00 -0.00000000000E+00 -0.57872124680E+02  0.57872124680E+02  0.00000000000E+00 0.  1.
         25    2    1    2    0    0 -0.78658641403E+02  0.13550927904E+02  0.71660336440E+02  0.16478162407E+03  0.12508785033E+03 0.  0.
         23    2    1    2    0    0  0.78658641403E+02 -0.13550927904E+02  0.31476681911E+03  0.33738978083E+03  0.91558201626E+02 0.  0.
          5    1    3    3  502    0 -0.22508221133E+02 -0.51791263387E+02  0.71578407794E+01  0.57075932462E+02  0.41800000000E+01 0.  1.
         -5    1    3    3    0  502 -0.56150420270E+02  0.65342191291E+02  0.64502495661E+02  0.10770569161E+03  0.41800000000E+01 0.  1.
        -11    1    4    4    0    0 -0.53115099906E+01  0.16763784764E+02  0.10921219206E+02  0.20700474558E+02  0.00000000000E+00 0.  1.
         11    1    4    4    0    0  0.83970151393E+02 -0.30314712668E+02  0.30384559990E+03  0.31668930628E+03  0.00000000000E+00 0. -1.
</event>
<event>
 8    1  0.6185113E-009  0.8617137E+02  0.7561462E-02  0.1312397E+00
         -1   -1    0    0    0  501 -0.00000000000E+00  0.00000000000E+00  0.34675798990E+02  0.34675798990E+02  0.00000000000E+00 0.  1.
          1   -1    0    0  501    0  0.00000000000E+00 -0.00000000000E+00 -0.37147447958E+03  0.37147447958E+03  0.00000000000E+00 0. -1.
         25    2    1    2    0    0  0.84322869024E+01 -0.31336870015E+02 -0.18332947223E+03  0.22429996400E+03  0.12509066943E+03 0.  0.
         23    2    1    2    0    0 -0.84322869024E+01  0.31336870015E+02 -0.15346920836E+03  0.18185031457E+03  0.91998022317E+02 0.  0.
          5    1    3    3  502    0  0.32985359061E+02 -0.38525356364E+02 -0.19068087852E+03  0.19735477402E+03  0.41800000000E+01 0.  1.
         -5    1    3    3    0  502 -0.24553072159E+02  0.71884863495E+01  0.73514062924E+01  0.26945189977E+02  0.41800000000E+01 0.  1.
        -11    1    4    4    0    0 -0.46181698048E+02  0.34505015948E+02 -0.10999978554E+03  0.12419057202E+03  0.00000000000E+00 0. -1.
         11    1    4    4    0    0  0.37749411146E+02 -0.31681459330E+01 -0.43469422817E+02  0.57659742547E+02  0.00000000000E+00 0.  1.
</event>
<event>
 8    1  0.6185113E-009  0.1654583E+03  0.7561462E-02  0.1182669E+00
          1   -1    0    0  501    0  0.00000000000E+00  0.00000000000E+00  0.19932584731E+03  0.19932584731E+03  0.00000000000E+00 0. -1.
         -1   -1    0    0    0  501 -0.00000000000E+00 -0.00000000000E+00 -0.14588008409E+03  0.14588008409E+03  0.00000000000E+00 0.  1.
         25    2    1    2    0    0  0.84393565921E+02 -0.10078140875E+03  0.38143030240E+02  0.18542593456E+03  0.12509484455E+03 0.  0.
         23    2    1    2    0    0 -0.84393565921E+02  0.10078140875E+03  0.15302732979E+02  0.15977999685E+03  0.89533834036E+02 0.  0.
          5    1    3    3  502    0  0.11528524753E+03 -0.79226985967E+02  0.44807973077E+02  0.14694499126E+03  0.41800000000E+01 0. -1.
         -5    1    3    3    0  502 -0.30891681613E+02 -0.21554422783E+02 -0.66649428373E+01  0.38480943302E+02  0.41800000000E+01 0. -1.
        -11    1    4    4    0    0 -0.89801325014E+02  0.51554894679E+02 -0.10249101230E+02  0.10405397261E+03  0.00000000000E+00 0.  1.
         11    1    4    4    0    0  0.54077590921E+01  0.49226514070E+02  0.25551834210E+02  0.55726024238E+02  0.00000000000E+00 0. -1.
</event>
<event>
 8    1  0.6185113E-009  0.1898397E+03  0.7561462E-02  0.1158606E+00
          2   -1    0    0  501    0  0.00000000000E+00  0.00000000000E+00  0.84127457851E+03  0.84127457851E+03  0.00000000000E+00 0. -1.
         -2   -1    0    0    0  501 -0.00000000000E+00 -0.00000000000E+00 -0.51918886232E+02  0.51918886232E+02  0.00000000000E+00 0.  1.
         25    2    1    2    0    0 -0.10084478221E+03 -0.13685997346E+03  0.52305948946E+03  0.56403615977E+03  0.12508092410E+03 0.  0.
         23    2    1    2    0    0  0.10084478221E+03  0.13685997346E+03  0.26629620282E+03  0.32915730497E+03  0.92360929772E+02 0.  0.
          5    1    3    3  502    0 -0.33036387039E+01  0.21940680688E+02  0.35679315302E+02  0.42223138659E+02  0.41800000000E+01 0.  1.
         -5    1    3    3    0  502 -0.97541143508E+02 -0.15880065415E+03  0.48738017416E+03  0.52181302111E+03  0.41800000000E+01 0.  1.
        -11    1    4    4    0    0  0.48536521342E+02  0.78731324363E+02  0.21909448505E+03  0.23781675450E+03  0.00000000000E+00 0. -1.
         11    1    4    4    0    0  0.52308260870E+02  0.58128649098E+02  0.47201717763E+02  0.91340550474E+02  0.00000000000E+00 0.  1.
</event>
<event>
 8    1  0.6185113E-009  0.1072959E+03  0.7561462E-02  0.1265661E+00
         -2   -1    0    0    0  501 -0.00000000000E+00  0.00000000000E+00  0.51765493718E+02  0.51765493718E+02  0.00000000000E+00 0. -1.
          2   -1    0    0  501    0  0.00000000000E+00 -0.00000000000E+00 -0.30583874883E+03  0.30583874883E+03  0.00000000000E+00 0.  1.
         25    2    1    2    0    0  0.16391794239E+02  0.57170443725E+02 -0.13840798075E+03  0.19580869708E+03  0.12508847334E+03 0.  0.
         23    2    1    2    0    0 -0.16391794239E+02 -0.57170443725E+02 -0.11566527437E+03  0.16179554547E+03  0.96240284113E+02 0.  0.
          5    1    3    3  502    0 -0.34375553458E+02  0.23927563576E+01 -0.11074118166E+03  0.11605380508E+03  0.41800000000E+01 0. -1.
         -5    1    3    3    0  502  0.50767347697E+02  0.54777687367E+02 -0.27666799085E+02  0.79754891995E+02  0.41800000000E+01 0. -1.
        -11    1    4    4    0    0 -0.37233501255E+02  0.67546781201E+01 -0.72827136453E+02  0.82071621747E+02  0.00000000000E+00 0. -1.
         11    1    4    4    0    0  0.20841707016E+02 -0.63925121845E+02 -0.42838137915E+02  0.79723923726E+02  0.00000000000E+00 0.  1.
</event>
<event>
 8    1  0.6185113E-009  0.1572686E+03  0.7561462E-02  0.1191815E+00
          1   -1    0    0  501    0  0.00000000000E+00  0.00000000000E+00  0.50882298076E+02  0.50882298076E+02  0.00000000000E+00 0. -1.
         -1   -1    0    0    0  501 -0.00000000000E+00 -0.00000000000E+00 -0.57638323169E+03  0.57638323169E+03  0.00000000000E+00 0.  1.
         25    2    1    2    0    0 -0.12202487562E+03  0.47533469806E+02 -0.25640281140E+03  0.31390908330E+03  0.12508800846E+03 0.  0.
         23    2    1    2    0    0  0.12202487562E+03 -0.47533469806E+02 -0.26909812221E+03  0.31335644647E+03  0.92892207116E+02 0.  0.
          5    1    3    3  502    0 -0.10077893377E+03 -0.17974491172E+02 -0.20030630271E+03  0.22498791774E+03  0.41800000000E+01 0. -1.
         -5    1    3    3    0  502 -0.21245941850E+02  0.65507960978E+02 -0.56096508689E+02  0.88921165555E+02  0.41800000000E+01 0. -1.
        -11    1    4    4    0    0  0.87976184430E+02 -0.43322705060E+01 -0.22879748064E+03  0.24516701397E+03  0.00000000000E+00 0.  1.
         11    1    4    4    0    0  0.34048691188E+02 -0.43201199300E+02 -0.40300641577E+02  0.68189432495E+02  0.00000000000E+00 0. -1.
</event>
<event>
 8    1  0.6185113E-009  0.1086045E+03  0.7561462E-02  0.1263176E+00
          1   -1    0    0  501    0  0.00000000000E+00  0.00000000000E+00  0.48821399388E+03  0.48821399388E+03  0.00000000000E+00 0. -1.
         -1   -1    0    0    0  501 -0.00000000000E+00 -0.00000000000E+00 -0.33131936107E+02  0.33131936107E+02  0.00000000000E+00 0.  1.
         25    2    1    2    0    0 -0.55772184092E+02 -0.34840756010E+02  0.23039717283E+03  0.27028655975E+03  0.12509017680E+03 0.  0.
         23    2    1    2    0    0  0.55772184092E+02  0.34840756010E+02  0.22468488494E+03  0.25105937024E+03  0.90681282896E+02 0.  0.
          5    1    3    3  502    0 -0.88423061434E+02 -0.13560218276E+02  0.10053411941E+03  0.13463691499E+03  0.41800000000E+01 0. -1.
         -5    1    3    3    0  502  0.32650877342E+02 -0.21280537734E+02  0.12986305343E+03  0.13564964476E+03  0.41800000000E+01 0. -1.
        -11    1    4    4    0    0  0.54096764983E+02  0.52336086225E+00  0.52169243129E+02  0.75155597375E+02  0.00000000000E+00 0.  1.
         11    1    4    4    0    0  0.16754191084E+01  0.34317395148E+02  0.17251564181E+03  0.17590377286E+03  0.00000000000E+00 0. -1.
</event>
<event>
 8    1  0.6185113E-009  0.8964922E+02  0.7561462E-02  0.1303703E+00
         -2   -1    0    0    0  501 -0.00000000000E+00  0.00000000000E+00  0.19948407871E+03  0.19948407871E+03  0.00000000000E+00 0.  1.
          2   -1    0    0  501    0  0.00000000000E+00 -0.00000000000E+00 -0.62785369412E+02  0.62785369412E+02  0.00000000000E+00 0. -1.
         25    2    1    2    0    0 -0.44998676523E+02 -0.78159327331E+01  0.12878006598E+03  0.18525098404E+03  0.12509057518E+03 0.  0.
         23    2    1    2    0    0  0.44998676523E+02  0.78159327331E+01  0.79186433162E+01  0.77018464083E+02  0.61507472753E+02 0.  0.
          5    1    3    3  502    0 -0.44492795849E+02  0.39088987105E+02  0.13734654064E+02  0.60939895943E+02  0.41800000000E+01 0.  1.
         -5    1    3    3    0  502 -0.50588067405E+00 -0.46904919838E+02  0.11504541192E+03  0.12431108809E+03  0.41800000000E+01 0.  1.
        -11    1    4    4    0    0  0.83625733554E+01 -0.23306932561E+02  0.14190745978E+02  0.28539849508E+02  0.00000000000E+00 0.  1.
         11    1    4    4    0    0  0.36636103167E+02  0.31122865294E+02 -0.62721026615E+01  0.48478614576E+02  0.00000000000E+00 0. -1.
</event>
<event>
 8    1  0.6185113E-009  0.5876356E+02  0.7561462E-02  0.1403095E+00
          3   -1    0    0  501    0  0.00000000000E+00  0.00000000000E+00  0.20983829454E+03  0.20983829454E+03  0.00000000000E+00 0. -1.
         -3   -1    0    0    0  501 -0.00000000000E+00 -0.00000000000E+00 -0.82537930551E+02  0.82537930551E+02  0.00000000000E+00 0.  1.
         25    2    1    2    0    0 -0.23433459938E+02  0.19882254534E+02  0.14824201037E+03  0.19638659234E+03  0.12509024311E+03 0.  0.
         23    2    1    2    0    0  0.23433459938E+02 -0.19882254534E+02 -0.20941646384E+02  0.95989632752E+02  0.88493084207E+02 0.  0.
          5    1    3    3  502    0 -0.34359862040E+02 -0.27921712883E+01  0.16317115435E+03  0.16682534086E+03  0.41800000000E+01 0.  1.
         -5    1    3    3    0  502  0.10926402102E+02  0.22674425823E+02 -0.14929143978E+02  0.29561251482E+02  0.41800000000E+01 0.  1.
        -11    1    4    4    0    0  0.23593507099E+02  0.11261152821E+02 -0.48049194531E+02  0.54700934500E+02  0.00000000000E+00 0.  1.
         11    1    4    4    0    0 -0.16004716121E+00 -0.31143407356E+02  0.27107548147E+02  0.41288698252E+02  0.00000000000E+00 0. -1.
</event>
<event>
 8    1  0.6185113E-009  0.9696773E+02  0.7561462E-02  0.1286805E+00
         -1   -1    0    0    0  501 -0.00000000000E+00  0.00000000000E+00  0.68129880799E+02  0.68129880799E+02  0.00000000000E+00 0.  1.
          1   -1    0    0  501    0  0.00000000000E+00 -0.00000000000E+00 -0.22241388901E+03  0.22241388901E+03  0.00000000000E+00 0. -1.
         25    2    1    2    0    0 -0.16033281418E+02 -0.23486820574E+02 -0.70852246411E+02  0.14654749023E+03  0.12508968470E+03 0.  0.
         23    2    1    2    0    0  0.16033281418E+02  0.23486820574E+02 -0.83431761803E+02  0.14399627958E+03  0.11386559095E+03 0.  0.
          5    1    3    3  502    0  0.47819157270E+02 -0.38398467953E+02 -0.24664258660E+02  0.66233769320E+02  0.41800000000E+01 0. -1.
         -5    1    3    3    0  502 -0.63852438688E+02  0.14911647379E+02 -0.46187987751E+02  0.80313720910E+02  0.41800000000E+01 0. -1.
        -11    1    4    4    0    0 -0.11880303952E+02  0.34701989099E+02  0.16071016537E+02  0.40045564573E+02  0.00000000000E+00 0.  1.
         11    1    4    4    0    0  0.27913585370E+02 -0.11215168525E+02 -0.99502778340E+02  0.10395071501E+03  0.00000000000E+00 0. -1.
</event>
<event>
 8    1  0.6185113E-009  0.6085520E+02  0.7561462E-02  0.1394277E+00
          1   -1    0    0  501    0  0.00000000000E+00  0.00000000000E+00  0.17124907044E+02  0.17124907044E+02  0.00000000000E+00 0. -1.
         -1   -1    0    0    0  501 -0.00000000000E+00 -0.00000000000E+00 -0.13491491396E+04  0.13491491396E+04  0.00000000000E+00 0.  1.
         25    2    1    2    0    0 -0.29517241117E+02  0.18873979588E+02 -0.11724758556E+04  0.11796498603E+04  0.12508663552E+03 0.  0.
         23    2    1    2    0    0  0.29517241117E+02 -0.18873979588E+02 -0.15954837695E+03  0.18662418630E+03  0.90251912437E+02 0.  0.
          5    1    3    3  502    0 -0.26891046641E+02  0.12734509716E+02 -0.59591869182E+02  0.66737990678E+02  0.41800000000E+01 0.  1.
         -5    1    3    3    0  502 -0.26261944758E+01  0.61394698719E+01 -0.11128839864E+04  0.11129118696E+04  0.41800000000E+01 0.  1.
        -11    1    4    4    0    0 -0.11394066619E+02  0.22736986720E+02 -0.12332203873E+02  0.28264440054E+02  0.00000000000E+00 0. -1.
         11    1    4    4    0    0  0.40911307735E+02 -0.41610966308E+02 -0.14721617307E+03  0.15835974625E+03  0.00000000000E+00 0.  1.
</event>
<event>
 8    1  0.6185113E-009  0.9052309E+02  0.7561462E-02  0.1301590E+00
          4   -1    0    0  501    0  0.00000000000E+00  0.00000000000E+00  0.29506897020E+03  0.29506897020E+03  0.00000000000E+00 0. -1.
         -4   -1    0    0    0  501 -0.00000000000E+00 -0.00000000000E+00 -0.73584848864E+02  0.73584848864E+02  0.00000000000E+00 0.  1.
         25    2    1    2    0    0 -0.95019510466E+01  0.79618793529E+02  0.45966457855E+02  0.15553010879E+03  0.12508900885E+03 0.  0.
         23    2    1    2    0    0  0.95019510466E+01 -0.79618793529E+02  0.17551766348E+03  0.21312371028E+03  0.90475556545E+02 0.  0.
          5    1    3    3  502    0 -0.39817662123E+01 -0.44067711196E+01 -0.36725111106E+02  0.37436349710E+02  0.41800000000E+01 0.  1.
         -5    1    3    3    0  502 -0.55201848343E+01  0.84025564649E+02  0.82691568961E+02  0.11809375907E+03  0.41800000000E+01 0.  1.
        -11    1    4    4    0    0  0.24807685449E+02 -0.56976702925E+02  0.37834997238E+02  0.72754745203E+02  0.00000000000E+00 0.  1.
         11    1    4    4    0    0 -0.15305734402E+02 -0.22642090604E+02  0.13768266624E+03  0.14036896507E+03  0.00000000000E+00 0. -1.
</event>
<event>
 8    1  0.6185113E-009  0.9063980E+02  0.7561462E-02  0.1301310E+00
         -1   -1    0    0    0  501 -0.00000000000E+00  0.00000000000E+00  0.27954641103E+03  0.27954641103E+03  0.00000000000E+00 0.  1.
          1   -1    0    0  501    0  0.00000000000E+00 -0.00000000000E+00 -0.47617302684E+02  0.47617302684E+02  0.00000000000E+00 0. -1.
         25    2    1    2    0    0  0.18157589005E+02  0.30132228520E+02  0.10867829190E+03  0.16939774776E+03  0.12508787543E+03 0.  0.
         23    2    1    2    0    0 -0.18157589005E+02 -0.30132228520E+02  0.12325081644E+03  0.15776596595E+03  0.91987428626E+02 0.  0.
          5    1    3    3  502    0  0.50016450118E+02  0.52181439169E+02  0.10848671497E+03  0.13042771025E+03  0.41800000000E+01 0.  1.
         -5    1    3    3    0  502 -0.31858861112E+02 -0.22049210649E+02  0.19157693108E+00  0.38970037508E+02  0.41800000000E+01 0.  1.
        -11    1    4    4    0    0  0.78231516043E+01 -0.41004670833E+02  0.12625454832E+02  0.43611774108E+02  0.00000000000E+00 0. -1.
         11    1    4    4    0    0 -0.25980740609E+02  0.10872442313E+02  0.11062536161E+03  0.11415419184E+03  0.00000000000E+00 0.  1.
</event>
<event>
 8    1  0.6185113E-009  0.1075485E+03  0.7561462E-02  0.1265178E+00
          2   -1    0    0  501    0  0.00000000000E+00  0.00000000000E+00  0.50775780827E+03  0.50775780827E+03  0.00000000000E+00 0.  1.
         -2   -1    0    0    0  501 -0.00000000000E+00 -0.00000000000E+00 -0.66012577357E+02  0.66012577357E+02  0.00000000000E+00 0. -1.
         25    2    1    2    0    0  0.65014804455E+02  0.13941810704E+02  0.43679891603E+03  0.45919700912E+03  0.12508917321E+03 0.  0.
         23    2    1    2    0    0 -0.65014804455E+02 -0.13941810704E+02  0.49463148824E+01  0.11457337651E+03  0.93173460221E+02 0.  0.
          5    1    3    3  502    0  0.44269447068E+02  0.45176258724E+02  0.40477976798E+03  0.40971308407E+03  0.41800000000E+01 0. -1.
         -5    1    3    3    0  502  0.20745357386E+02 -0.31234448020E+02  0.32019148057E+02  0.49483925051E+02  0.41800000000E+01 0. -1.
        -11    1    4    4    0    0 -0.18938220293E+02 -0.51285479043E+02 -0.28997248140E+01  0.54747282604E+02  0.00000000000E+00 0.  1.
         11    1    4    4    0    0 -0.46076584161E+02  0.37343668338E+02  0.78460396964E+01  0.59826093904E+02  0.00000000000E+00 0. -1.
</event>
<event>
 8    1  0.6185113E-009  0.1310690E+03  0.7561462E-02  0.1225878E+00
          3   -1    0    0  501    0  0.00000000000E+00  0.00000000000E+00  0.21289277264E+03  0.21289277264E+03  0.00000000000E+00 0. -1.
         -3   -1    0    0    0  501 -0.00000000000E+00 -0.00000000000E+00 -0.93086516600E+02  0.93086516600E+02  0.00000000000E+00 0.  1.
         25    2    1    2    0    0 -0.36568414690E+02  0.79265942782E+02  0.55184712865E+02  0.16221532156E+03  0.12509244332E+03 0.  0.
         23    2    1    2    0    0  0.36568414690E+02 -0.79265942782E+02  0.64621543179E+02  0.14376396769E+03  0.94190211407E+02 0.  0.
          5    1    3    3  502    0  0.12321922322E+01 -0.33333267284E+02  0.14287687001E+02  0.36527187209E+02  0.41800000000E+01 0. -1.
         -5    1    3    3    0  502 -0.37800606922E+02  0.11259921007E+03  0.40897025864E+02  0.12568813435E+03  0.41800000000E+01 0. -1.
        -11    1    4    4    0    0 -0.13849542640E+02  0.20442868534E+01 -0.14098265667E+02  0.19868317364E+02  0.00000000000E+00 0.  1.
         11    1    4    4    0    0  0.50417957330E+02 -0.81310229635E+02  0.78719808846E+02  0.12389565032E+03  0.00000000000E+00 0. -1.
</event>
<event>
 8    1  0.6185113E-009  0.1028735E+03  0.7561462E-02  0.1274367E+00
          1   -1    0    0  501    0  0.00000000000E+00  0.00000000000E+00  0.66627487727E+03  0.66627487727E+03  0.00000000000E+00 0. -1.
         -1   -1    0    0    0  501 -0.00000000000E+00 -0.00000000000E+00 -0.30755055301E+02  0.30755055301E+02  0.00000000000E+00 0.  1.
         25    2    1    2    0    0 -0.89031214977E+02  0.36730428695E+02  0.31756971726E+03  0.35464560900E+03  0.12508917232E+03 0.  0.
         23    2    1    2    0    0  0.89031214977E+02 -0.36730428695E+02  0.31795010471E+03  0.34238432357E+03  0.82819528538E+02 0.  0.
          5    1    3    3  502    0 -0.30078794985E+02  0.28184924620E+01  0.26958930475E+03  0.27130894464E+03  0.41800000000E+01 0. -1.
         -5    1    3    3    0  502 -0.58952419992E+02  0.33911936233E+02  0.47980412507E+02  0.83336664358E+02  0.41800000000E+01 0. -1.
        -11    1    4    4    0    0  0.48053225941E+02  0.53782886219E+01  0.23971038793E+03  0.24453856259E+03  0.00000000000E+00 0. -1.
         11    1    4    4    0    0  0.40977989037E+02 -0.42108717317E+02  0.78239716781E+02  0.97845760979E+02  0.00000000000E+00 0.  1.
</event>
<event>
 8    1  0.6185113E-009  0.1040069E+03  0.7561462E-02  0.1272089E+00
         -4   -1    0    0    0  501 -0.00000000000E+00  0.00000000000E+00  0.21860673827E+02  0.21860673827E+02  0.00000000000E+00 0.  1.
          4   -1    0    0  501    0  0.00000000000E+00 -0.00000000000E+00 -0.55890467442E+03  0.55890467442E+03  0.00000000000E+00 0. -1.
         25    2    1    2    0    0 -0.31471430378E+01 -0.40299274834E+01 -0.23874830966E+03  0.26958315686E+03  0.12509267874E+03 0.  0.
         23    2    1    2    0    0  0.31471430378E+01  0.40299274834E+01 -0.29829569094E+03  0.31118219139E+03  0.88475376131E+02 0.  0.
          5    1    3    3  502    0 -0.46316289567E+02 -0.44836903218E+02 -0.10675950035E+03  0.12478224987E+03  0.41800000000E+01 0.  1.
         -5    1    3    3    0  502  0.43169146529E+02  0.40806975735E+02 -0.13198880931E+03  0.14480090699E+03  0.41800000000E+01 0.  1.
        -11    1    4    4    0    0 -0.37119364451E+02  0.17986744265E+02 -0.19726031528E+03  0.20152667855E+03  0.00000000000E+00 0. -1.
         11    1    4    4    0    0  0.40266507489E+02 -0.13956816782E+02 -0.10103537566E+03  0.10965551284E+03  0.00000000000E+00 0.  1.
</event>
<event>
 8    1  0.6185113E-009  0.1231906E+03  0.7561462E-02  0.1237925E+00
          1   -1    0    0  501    0  0.00000000000E+00  0.00000000000E+00  0.39080568151E+03  0.39080568151E+03  0.00000000000E+00 0. -1.
         -1   -1    0    0    0  501 -0.00000000000E+00 -0.00000000000E+00 -0.66471079317E+02  0.66471079317E+02  0.00000000000E+00 0.  1.
         25    2    1    2    0    0  0.37934086788E+02 -0.11128549253E+03  0.19620051515E+03  0.26070346223E+03  0.12509275473E+03 0.  0.
         23    2    1    2    0    0 -0.37934086788E+02  0.11128549253E+03  0.12813408704E+03  0.19657329860E+03  0.91647485904E+02 0.  0.
          5    1    3    3  502    0  0.11374519833E+02 -0.14946524563E+02 -0.16700267270E+02  0.25478414881E+02  0.41800000000E+01 0.  1.
         -5    1    3    3    0  502  0.26559566954E+02 -0.96338967962E+02  0.21290078242E+03  0.23522504735E+03  0.41800000000E+01 0.  1.
        -11    1    4    4    0    0 -0.49409901420E+02  0.82994963770E+02  0.42252314619E+02  0.10542656430E+03  0.00000000000E+00 0.  1.
         11    1    4    4    0    0  0.11475814632E+02  0.28290528756E+02  0.85881772422E+02  0.91146734298E+02  0.00000000000E+00 0. -1.
</event>
<event>
 8    1  0.6185113E-009  0.1717350E+03  0.7561462E-02  0.1176050E+00
          2   -1    0    0  501    0  0.00000000000E+00  0.00000000000E+00  0.82131855884E+02  0.82131855884E+02  0.00000000000E+00 0. -1.
         -2   -1    0    0    0  501 -0.00000000000E+00 -0.00000000000E+00 -0.45526012800E+03  0.45526012800E+03  0.00000000000E+00 0.  1.
         25    2    1    2    0    0 -0.14952819497E+03  0.30393562232E+02 -0.26144270269E+03  0.32754205354E+03  0.12509620431E+03 0.  0.
         23    2    1    2    0    0  0.14952819497E+03 -0.30393562232E+02 -0.11168556943E+03  0.20984993034E+03  0.90999324895E+02 0.  0.
          5    1    3    3  502    0 -0.12570945822E+02  0.30162125967E+02 -0.14199353353E+03  0.14576494258E+03  0.41800000000E+01 0. -1.
         -5    1    3    3    0  502 -0.13695724914E+03  0.23143626568E+00 -0.11944916916E+03  0.18177711096E+03  0.41800000000E+01 0. -1.
        -11    1    4    4    0    0  0.50071870694E+02 -0.51505534339E+02 -0.68922274846E+02  0.99550450890E+02  0.00000000000E+00 0.  1.
         11    1    4    4    0    0  0.99456324272E+02  0.21111972107E+02 -0.42763294579E+02  0.11029947945E+03  0.00000000000E+00 0. -1.
</event>
<event>
 8    1  0.6185113E-009  0.1051273E+03  0.7561462E-02  0.1269869E+00
          1   -1    0    0  501    0  0.00000000000E+00  0.00000000000E+00  0.30432613313E+03  0.30432613313E+03  0.00000000000E+00 0. -1.
         -1   -1    0    0    0  501 -0.00000000000E+00 -0.00000000000E+00 -0.63029274317E+02  0.63029274317E+02  0.00000000000E+00 0.  1.
         25    2    1    2    0    0 -0.75961569581E+02 -0.40526020573E+02  0.12311229293E+03  0.19549002022E+03  0.12508874026E+03 0.  0.
         23    2    1    2    0    0  0.75961569581E+02  0.40526020573E+02  0.11818456588E+03  0.17186538722E+03  0.90319440410E+02 0.  0.
          5    1    3    3  502    0 -0.66948465075E+01 -0.98459325574E+01 -0.25599947672E+02  0.28541077038E+02  0.41800000000E+01 0. -1.
         -5    1    3    3    0  502 -0.69266723073E+02 -0.30680088016E+02  0.14871224060E+03  0.16694894318E+03  0.41800000000E+01 0. -1.
        -11    1    4    4    0    0  0.21421347812E+02  0.60110646318E+02  0.43040941399E+02  0.76971985679E+02  0.00000000000E+00 0. -1.
         11    1    4    4    0    0  0.54540221769E+02 -0.19584625745E+02  0.75143624484E+02  0.94893401545E+02  0.00000000000E+00 0.  1.
</event>
<event>
 8    1  0.6185113E-009  0.1827173E+03  0.7561462E-02  0.1165199E+00
         -1   -1    0    0    0  501 -0.00000000000E+00  0.00000000000E+00  0.50149754673E+02  0.50149754673E+02  0.00000000000E+00 0.  1.
          1   -1    0    0  501    0  0.00000000000E+00 -0.00000000000E+00 -0.77552112107E+03  0.77552112107E+03  0.00000000000E+00 0. -1.
         25    2    1    2    0    0 -0.41983600902E+02  0.14673202376E+03 -0.50725316983E+03  0.54428446062E+03  0.12508751424E+03 0.  0.
         23    2    1    2    0    0  0.41983600902E+02 -0.14673202376E+03 -0.21811819656E+03  0.28138641513E+03  0.91158419268E+02 0.  0.
          5    1    3    3  502    0 -0.25648678043E+01  0.15480314326E+03 -0.36774003686E+03  0.39902480978E+03  0.41800000000E+01 0. -1.
         -5    1    3    3    0  502 -0.39418733098E+02 -0.80711194959E+01 -0.13951313298E+03  0.14525965084E+03  0.41800000000E+01 0. -1.
        -11    1    4    4    0    0  0.33659362299E+01 -0.12642398141E+03 -0.12151131919E+03  0.17538344646E+03  0.00000000000E+00 0.  1.
         11    1    4    4    0    0  0.38617664672E+02 -0.20308042350E+02 -0.96606877378E+02  0.10600296866E+03  0.00000000000E+00 0. -1.
</event>
<event>
 8    1  0.6185113E-009  0.1902083E+03  0.7561462E-02  0.1158274E+00
          1   -1    0    0  501    0  0.00000000000E+00  0.00000000000E+00  0.18406544826E+03  0.18406544826E+03  0.00000000000E+00 0. -1.
         -1   -1    0    0    0  501 -0.00000000000E+00 -0.00000000000E+00 -0.20711815905E+03  0.20711815905E+03  0.00000000000E+00 0.  1.
         25    2    1    2    0    0 -0.25056393236E+02  0.15911190078E+03 -0.29929549148E+02  0.20612909380E+03  0.12509598550E+03 0.  0.
         23    2    1    2    0    0  0.25056393236E+02 -0.15911190078E+03  0.68768383622E+01  0.18505451351E+03  0.90848567688E+02 0.  0.
          5    1    3    3  502    0 -0.56530370007E+02  0.18419336170E+02 -0.56543399457E+01  0.59869847489E+02  0.41800000000E+01 0.  1.
         -5    1    3    3    0  502  0.31473976771E+02  0.14069256461E+03 -0.24275209202E+02  0.14625924631E+03  0.41800000000E+01 0.  1.
        -11    1    4    4    0    0  0.47137260219E+02 -0.67378112945E+02 -0.24196253864E+02  0.85715751797E+02  0.00000000000E+00 0.  1.
         11    1    4    4    0    0 -0.22080866983E+02 -0.91733787836E+02  0.31073092227E+02  0.99338761709E+02  0.00000000000E+00 0. -1.
</event>
<event>
 8    1  0.6185113E-009  0.8917328E+02  0.7561462E-02  0.1304866E+00
         -2   -1    0    0    0  501 -0.00000000000E+00  0.00000000000E+00  0.24439844271E+03  0.24439844271E+03  0.00000000000E+00 0.  1.
          2   -1    0    0  501    0  0.00000000000E+00 -0.00000000000E+00 -0.58984748853E+02  0.58984748853E+02  0.00000000000E+00 0. -1.
         25    2    1    2    0    0  0.15517059418E+01  0.35744961422E+01  0.17258087041E+03  0.21318330403E+03  0.12509108470E+03 0.  0.
         23    2    1    2    0    0 -0.15517059418E+01 -0.35744961422E+01  0.12832823444E+02  0.90199887533E+02  0.89197273161E+02 0.  0.
          5    1    3    3  502    0 -0.48357427945E+02 -0.14345348619E+02  0.25286719033E+02  0.56578444871E+02  0.41800000000E+01 0. -1.
         -5    1    3    3    0  502  0.49909133887E+02  0.17919844762E+02  0.14729415138E+03  0.15660485916E+03  0.41800000000E+01 0. -1.
        -11    1    4    4    0    0 -0.11005411148E+02 -0.37625049338E+02 -0.18152958766E+02  0.43200617174E+02  0.00000000000E+00 0. -1.
         11    1    4    4    0    0  0.94537052061E+01  0.34050553196E+02  0.30985782210E+02  0.46999270359E+02  0.00000000000E+00 0.  1.
</event>
<event>
 8    1  0.6185113E-009  0.1947002E+03  0.7561462E-02  0.1154289E+00
         -2   -1    0    0    0  501 -0.00000000000E+00  0.00000000000E+00  0.21251574120E+03  0.21251574120E+03  0.00000000000E+00 0. -1.
          2   -1    0    0  501    0  0.00000000000E+00 -0.00000000000E+00 -0.20422284320E+03  0.20422284320E+03  0.00000000000E+00 0.  1.
         25    2    1    2    0    0 -0.19804448973E+02 -0.17437255901E+03 -0.23942853735E+02  0.21681756799E+03  0.12505435621E+03 0.  0.
         23    2    1    2    0    0  0.19804448973E+02  0.17437255901E+03  0.32235751742E+02  0.19992101641E+03  0.90173519268E+02 0.  0.
          5    1    3    3  502    0 -0.71332504564E+02 -0.99040135778E+02  0.92192176735E+00  0.12212942742E+03  0.41800000000E+01 0.  1.
         -5    1    3    3    0  502  0.51528055591E+02 -0.75332423235E+02 -0.24864775503E+02  0.94688140568E+02  0.41800000000E+01 0.  1.
        -11    1    4    4    0    0  0.16499519445E+02  0.91825342205E+02  0.62101870272E+02  0.11207484064E+03  0.00000000000E+00 0. -1.
         11    1    4    4    0    0  0.33049295284E+01  0.82547216809E+02 -0.29866118530E+02  0.87846175774E+02  0.00000000000E+00 0.  1.
</event>
<event>
 8    1  0.6185113E-009  0.1664459E+03  0.7561462E-02  0.1181606E+00
          1   -1    0    0  501    0  0.00000000000E+00  0.00000000000E+00  0.27767283629E+03  0.27767283629E+03  0.00000000000E+00 0. -1.
         -1   -1    0    0    0  501 -0.00000000000E+00 -0.00000000000E+00 -0.25326735276E+03  0.25326735276E+03  0.00000000000E+00 0.  1.
         25    2    1    2    0    0  0.13979498531E+03  0.69840398334E+02 -0.17248192031E+03  0.26423515078E+03  0.12509949206E+03 0.  0.
         23    2    1    2    0    0 -0.13979498531E+03 -0.69840398334E+02  0.19688740384E+03  0.26670503827E+03  0.89143751800E+02 0.  0.
          5    1    3    3  502    0  0.10828269073E+03  0.28846159407E+02 -0.17974301497E+03  0.21185435057E+03  0.41800000000E+01 0.  1.
         -5    1    3    3    0  502  0.31512294581E+02  0.40994238927E+02  0.72610946582E+01  0.52380800210E+02  0.41800000000E+01 0.  1.
        -11    1    4    4    0    0 -0.95242887732E+02 -0.12188875185E+02  0.15592838828E+03  0.18312137673E+03  0.00000000000E+00 0. -1.
         11    1    4    4    0    0 -0.44552097583E+02 -0.57651523149E+02  0.40959015561E+02  0.83583661538E+02  0.00000000000E+00 0.  1.
</event>
<event>
 8    1  0.6185113E-009  0.1247208E+03  0.7561462E-02  0.1235506E+00
          2   -1    0    0  501    0  0.00000000000E+00  0.00000000000E+00  0.90206305106E+02  0.90206305106E+02  0.00000000000E+00 0.  1.
         -2   -1    0    0    0  501 -0.00000000000E+00 -0.00000000000E+00 -0.24447607622E+03  0.24447607622E+03  0.00000000000E+00 0. -1.
         25    2    1    2    0    0  0.21869442603E+02  0.97588082710E+02 -0.10080111518E+03  0.18923625540E+03  0.12509112330E+03 0.  0.
         23    2    1    2    0    0 -0.21869442603E+02 -0.97588082710E+02 -0.53468655937E+02  0.14544612593E+03  0.91071246692E+02 0.  0.
          5    1    3    3  502    0  0.16783946588E+02  0.11098651554E+03 -0.29150614530E+02  0.11604713793E+03  0.41800000000E+01 0. -1.
         -5    1    3    3    0  502  0.50854960143E+01 -0.13398432830E+02 -0.71650500651E+02  0.73189117466E+02  0.41800000000E+01 0. -1.
        -11    1    4    4    0    0 -0.46986986182E+02 -0.51607778766E+02  0.10926746931E+01  0.69802103389E+02  0.00000000000E+00 0. -1.
         11    1    4    4    0    0  0.25117543579E+02 -0.45980303944E+02 -0.54561330630E+02  0.75644022542E+02  0.00000000000E+00 0.  1.
</event>
<event>
 8    1  0.6185113E-009  0.1402607E+03  0.7561462E-02  0.1212979E+00
          1   -1    0    0  501    0  0.00000000000E+00  0.00000000000E+00  0.29151496555E+03  0.29151496555E+03  0.00000000000E+00 0. -1.
         -1   -1    0    0    0  501 -0.00000000000E+00 -0.00000000000E+00 -0.17962141683E+03  0.17962141683E+03  0.00000000000E+00 0.  1.
         25    2    1    2    0    0  0.55301053418E+02 -0.96718798275E+02  0.23094974468E+03  0.28530589595E+03  0.12509571235E+03 0.  0.
         23    2    1    2    0    0 -0.55301053418E+02  0.96718798275E+02 -0.11905619596E+03  0.18583048643E+03  0.89139550378E+02 0.  0.
          5    1    3    3  502    0  0.15695144288E+02 -0.96739121914E+02  0.22445528270E+03  0.24495395811E+03  0.41800000000E+01 0.  1.
         -5    1    3    3    0  502  0.39605909130E+02  0.20323639080E-01  0.64944619817E+01  0.40351937841E+02  0.41800000000E+01 0.  1.
        -11    1    4    4    0    0  0.12578677598E+00  0.86182848320E+02 -0.68871966632E+02  0.11032156160E+03  0.00000000000E+00 0.  1.
         11    1    4    4    0    0 -0.55426840194E+02  0.10535949955E+02 -0.50184229332E+02  0.75508924830E+02  0.00000000000E+00 0. -1.
</event>
<event>
 8    1  0.6185113E-009  0.1491520E+03  0.7561462E-02  0.1201519E+00
          1   -1    0    0  501    0  0.00000000000E+00  0.00000000000E+00  0.73138765457E+03  0.73138765457E+03  0.00000000000E+00 0. -1.
         -1   -1    0    0    0  501 -0.00000000000E+00 -0.00000000000E+00 -0.46358844206E+02  0.46358844206E+02  0.00000000000E+00 0.  1.
         25    2    1    2    0    0 -0.75030416997E+02 -0.93217244233E+02  0.55243672968E+03  0.57891948998E+03  0.12506965052E+03 0.  0.
         23    2    1    2    0    0  0.75030416997E+02  0.93217244233E+02  0.13259208069E+03  0.19882700880E+03  0.87364188718E+02 0.  0.
          5    1    3    3  502    0  0.24386172675E+02  0.59172377531E+00  0.30050101613E+02  0.38929636034E+02  0.41800000000E+01 0. -1.
         -5    1    3    3    0  502 -0.99416589672E+02 -0.93808968009E+02  0.52238662807E+03  0.53998985395E+03  0.41800000000E+01 0. -1.
        -11    1    4    4    0    0 -0.10788400187E+02  0.24814672307E+02  0.63809051792E+02  0.69309109292E+02  0.00000000000E+00 0. -1.
         11    1    4    4    0    0  0.85818817184E+02  0.68402571926E+02  0.68783028895E+02  0.12951789951E+03  0.00000000000E+00 0.  1.
</event>
<event>
 8    1  0.6185113E-009  0.8749890E+02  0.7561462E-02  0.1309024E+00
          2   -1    0    0  501    0  0.00000000000E+00  0.00000000000E+00  0.87466994370E+02  0.87466994370E+02  0.00000000000E+00 0. -1.
         -2   -1    0    0    0  501 -0.00000000000E+00 -0.00000000000E+00 -0.12873538056E+03  0.12873538056E+03  0.00000000000E+00 0.  1.
         25    2    1    2    0    0  0.11391704988E+02 -0.98001875134E+01 -0.38342550923E+02  0.13169882995E+03  0.12509442826E+03 0.  0.
         23    2    1    2    0    0 -0.11391704988E+02  0.98001875134E+01 -0.29258352623E+01  0.84503544973E+02  0.83105198292E+02 0.  0.
          5    1    3    3  502    0 -0.50303345958E+02  0.23174883243E+02 -0.21988112509E+02  0.59736515797E+02  0.41800000000E+01 0. -1.
         -5    1    3    3    0  502  0.61695050947E+02 -0.32975070756E+02 -0.16354438415E+02  0.71962314155E+02  0.41800000000E+01 0. -1.
        -11    1    4    4    0    0 -0.54024603057E+01 -0.19106361300E+02 -0.35417865691E+02  0.40603753885E+02  0.00000000000E+00 0.  1.
         11    1    4    4    0    0 -0.59892446826E+01  0.28906548814E+02  0.32492030429E+02  0.43899791088E+02  0.00000000000E+00 0. -1.
</event>
<event>
 8    1  0.6185113E-009  0.1330208E+03  0.7561462E-02  0.1223041E+00
         -2   -1    0    0    0  501 -0.00000000000E+00  0.00000000000E+00  0.27883205232E+02  0.27883205232E+02  0.00000000000E+00 0.  1.
          2   -1    0    0  501    0  0.00000000000E+00 -0.00000000000E+00 -0.88056999973E+03  0.88056999973E+03  0.00000000000E+00 0. -1.
         25    2    1    2    0    0  0.73065666146E+02 -0.73792152945E+02 -0.58356079372E+03  0.60578393421E+03  0.12508837506E+03 0.  0.
         23    2    1    2    0    0 -0.73065666146E+02  0.73792152945E+02 -0.26912600078E+03  0.30266927075E+03  0.91629742750E+02 0.  0.
          5    1    3    3  502    0 -0.38573943477E+01 -0.84080013322E+02 -0.27788016214E+03  0.29037765934E+03  0.41800000000E+01 0. -1.
         -5    1    3    3    0  502  0.76923060494E+02  0.10287860376E+02 -0.30568063158E+03  0.31540627487E+03  0.41800000000E+01 0. -1.
        -11    1    4    4    0    0 -0.62194683912E+02  0.65904976880E+02 -0.27383309262E+03  0.28843752755E+03  0.00000000000E+00 0. -1.
         11    1    4    4    0    0 -0.10870982235E+02  0.78871760657E+01  0.47070918401E+01  0.14231743204E+02  0.00000000000E+00 0.  1.
</event>
<event>
 8    1  0.6185113E-009  0.1408223E+03  0.7561462E-02  0.1212227E+00
          2   -1    0    0  501    0  0.00000000000E+00  0.00000000000E+00  0.79495895867E+03  0.79495895867E+03  0.00000000000E+00 0. -1.
         -2   -1    0    0    0  501 -0.00000000000E+00 -0.00000000000E+00 -0.42699289391E+02  0.42699289391E+02  0.00000000000E+00 0.  1.
         25    2    1    2    0    0 -0.49195759042E+02  0.87152212101E+02  0.64600793893E+03  0.66557296483E+03  0.12508150770E+03 0.  0.
         23    2    1    2    0    0  0.49195759042E+02 -0.87152212101E+02  0.10625173034E+03  0.17208528322E+03  0.91149238722E+02 0.  0.
          5    1    3    3  502    0 -0.80801487785E+02  0.80068996341E+02  0.35657939261E+03  0.37430770796E+03  0.41800000000E+01 0.  1.
         -5    1    3    3    0  502  0.31605728743E+02  0.70832157599E+01  0.28942854633E+03  0.29126525688E+03  0.41800000000E+01 0.  1.
        -11    1    4    4    0    0 -0.25817071339E+02 -0.10395784625E+02  0.18097061370E+02  0.33197848435E+02  0.00000000000E+00 0.  1.
         11    1    4    4    0    0  0.75012830381E+02 -0.76756427476E+02  0.88154668971E+02  0.13888743479E+03  0.00000000000E+00 0. -1.
</event>
<event>
 8    1  0.6185113E-009  0.1350506E+03  0.7561462E-02  0.1220148E+00
          1   -1    0    0  501    0  0.00000000000E+00  0.00000000000E+00  0.99623891090E+03  0.99623891090E+03  0.00000000000E+00 0. -1.
         -1   -1    0    0    0  501 -0.00000000000E+00 -0.00000000000E+00 -0.30671756475E+02  0.30671756475E+02  0.00000000000E+00 0.  1.
         25    2    1    2    0    0  0.24247428343E+02 -0.86893778338E+02  0.80899636349E+03  0.82356644080E+03  0.12509236502E+03 0.  0.
         23    2    1    2    0    0 -0.24247428343E+02  0.86893778338E+02  0.15657079094E+03  0.20334422657E+03  0.93252321205E+02 0.  0.
          5    1    3    3  502    0  0.52542657711E+01 -0.11264945561E+03  0.72221122518E+03  0.73097471457E+03  0.41800000000E+01 0.  1.
         -5    1    3    3    0  502  0.18993162572E+02  0.25755677276E+02  0.86785138305E+02  0.92591726234E+02  0.41800000000E+01 0.  1.
        -11    1    4    4    0    0 -0.97343431682E+01  0.10290738923E+03  0.14700889466E+03  0.17971172278E+03  0.00000000000E+00 0.  1.
         11    1    4    4    0    0 -0.14513085175E+02 -0.16013610892E+02  0.95618962793E+01  0.23632503794E+02  0.00000000000E+00 0. -1.
</event>
<event>
 8    1  0.6185113E-009  0.1191164E+03  0.7561462E-02  0.1244562E+00
         -2   -1    0    0    0  501 -0.00000000000E+00  0.00000000000E+00  0.45277885341E+03  0.45277885341E+03  0.00000000000E+00 0.  1.
          2   -1    0    0  501    0  0.00000000000E+00 -0.00000000000E+00 -0.49557780091E+02  0.49557780091E+02  0.00000000000E+00 0. -1.
         25    2    1    2    0    0  0.80553308533E+02 -0.48349142750E+02  0.14757374887E+03  0.21506525244E+03  0.12509426977E+03 0.  0.
         23    2    1    2    0    0 -0.80553308533E+02  0.48349142750E+02  0.25564732445E+03  0.28727138106E+03  0.91339021016E+02 0.  0.
          5    1    3    3  502    0  0.57200300175E+02 -0.62595271529E+02  0.16270750585E+03  0.18352451394E+03  0.41800000000E+01 0. -1.
         -5    1    3    3    0  502  0.23353008358E+02  0.14246128779E+02 -0.15133756979E+02  0.31540738496E+02  0.41800000000E+01 0. -1.
        -11    1    4    4    0    0 -0.69192903448E+02 -0.66416502074E+01  0.99839666258E+02  0.12165413418E+03  0.00000000000E+00 0. -1.
         11    1    4    4    0    0 -0.11360405085E+02  0.54990792958E+02  0.15580765819E+03  0.16561724688E+03  0.00000000000E+00 0.  1.
</event>
<event>
 8    1  0.6185113E-009  0.9511247E+02  0.7561462E-02  0.1290923E+00
         -2   -1    0    0    0  501 -0.00000000000E+00  0.00000000000E+00  0.82686228056E+02  0.82686228056E+02  0.00000000000E+00 0.  1.
          2   -1    0    0  501    0  0.00000000000E+00 -0.00000000000E+00 -0.18220081916E+03  0.18220081916E+03  0.00000000000E+00 0. -1.
         25    2    1    2    0    0 -0.18077572247E+02 -0.28361077860E+02 -0.29856254605E+02  0.13293065935E+03  0.12509202573E+03 0.  0.
         23    2    1    2    0    0  0.18077572247E+02  0.28361077860E+02 -0.69658336497E+02  0.13195638786E+03  0.10690675890E+03 0.  0.
          5    1    3    3  502    0 -0.71449324075E+02 -0.83593206273E+01 -0.21328253498E+02  0.75148193254E+02  0.41800000000E+01 0. -1.
         -5    1    3    3    0  502  0.53371751828E+02 -0.20001757232E+02 -0.85280011064E+01  0.57782466098E+02  0.41800000000E+01 0. -1.
        -11    1    4    4    0    0  0.13253364804E+02 -0.13477046594E+02  0.23240624427E+02  0.29956786999E+02  0.00000000000E+00 0.  1.
         11    1    4    4    0    0  0.48242074428E+01  0.41838124454E+02 -0.92898960924E+02  0.10199960086E+03  0.00000000000E+00 0. -1.
</event>
<event>
 8    1  0.6185113E-009  0.1639021E+03  0.7561462E-02  0.1184360E+00
         -1   -1    0    0    0  501 -0.00000000000E+00  0.00000000000E+00  0.40929901174E+02  0.40929901174E+02  0.00000000000E+00 0.  1.
          1   -1    0    0  501    0  0.00000000000E+00 -0.00000000000E+00 -0.11466631128E+04  0.11466631128E+04  0.00000000000E+00 0. -1.
         25    2    1    2    0    0 -0.14130112131E+03 -0.42640931628E+02 -0.25750078263E+03  0.32208494501E+03  0.12509117801E+03 0.  0.
         23    2    1    2    0    0  0.14130112131E+03  0.42640931628E+02 -0.84823242901E+03  0.86550806898E+03  0.88440420070E+02 0.  0.
          5    1    3    3  502    0 -0.11192737406E+03 -0.11284139936E+02 -0.76739804463E+02  0.13624073864E+03  0.41800000000E+01 0. -1.
         -5    1    3    3    0  502 -0.29373747253E+02 -0.31356791692E+02 -0.18076097817E+03  0.18584420637E+03  0.41800000000E+01 0. -1.
        -11    1    4    4    0    0  0.52567866243E+02 -0.27156623516E+02 -0.29050457410E+03  0.29646883535E+03  0.00000000000E+00 0. -1.
         11    1    4    4    0    0  0.88733255067E+02  0.69797555144E+02 -0.55772785491E+03  0.56903923362E+03  0.00000000000E+00 0.  1.
</event>
<event>
 8    1  0.6185113E-009  0.1103311E+03  0.7561462E-02  0.1259958E+00
         -1   -1    0    0    0  501 -0.00000000000E+00  0.00000000000E+00  0.42254666873E+02  0.42254666873E+02  0.00000000000E+00 0.  1.
          1   -1    0    0  501    0  0.00000000000E+00 -0.00000000000E+00 -0.60527469776E+03  0.60527469776E+03  0.00000000000E+00 0. -1.
         25    2    1    2    0    0 -0.10809986079E+03  0.96947017296E+01 -0.39071087803E+03  0.42436125058E+03  0.12509162096E+03 0.  0.
         23    2    1    2    0    0  0.10809986079E+03 -0.96947017296E+01 -0.17230915286E+03  0.22316811406E+03  0.91290721481E+02 0.  0.
          5    1    3    3  502    0 -0.69714408018E+02  0.51074995957E+01 -0.37650796344E+03  0.38296462522E+03  0.41800000000E+01 0. -1.
         -5    1    3    3    0  502 -0.38385452774E+02  0.45872021339E+01 -0.14202914593E+02  0.41396625358E+02  0.41800000000E+01 0. -1.
        -11    1    4    4    0    0  0.72665372806E+02  0.61729686669E+01 -0.35790926634E+02  0.81236398102E+02  0.00000000000E+00 0.  1.
         11    1    4    4    0    0  0.35434487986E+02 -0.15867670397E+02 -0.13651822623E+03  0.14193171596E+03  0.00000000000E+00 0. -1.
</event>
<event>
 8    1  0.6185113E-009  0.2485255E+03  0.7561462E-02  0.1114240E+00
         -2   -1    0    0    0  501 -0.00000000000E+00  0.00000000000E+00  0.34969049861E+03  0.34969049861E+03  0.00000000000E+00 0.  1.
          2   -1    0    0  501    0  0.00000000000E+00 -0.00000000000E+00 -0.20845349549E+03  0.20845349549E+03  0.00000000000E+00 0. -1.
         25    2    1    2    0    0  0.17392760880E+03  0.17497407022E+03  0.62011104573E+02  0.28347951066E+03  0.12509403473E+03 0.  0.
         23    2    1    2    0    0 -0.17392760880E+03 -0.17497407022E+03  0.79225898543E+02  0.27466448344E+03  0.91088402732E+02 0.  0.
          5    1    3    3  502    0  0.11737609907E+03  0.91603643233E+02  0.95850843710E+02  0.17712490713E+03  0.41800000000E+01 0.  1.
         -5    1    3    3    0  502  0.56551509725E+02  0.83370426982E+02 -0.33839739136E+02  0.10635460353E+03  0.41800000000E+01 0.  1.
        -11    1    4    4    0    0 -0.72509324493E+01 -0.12852130476E+02 -0.17446882201E+02  0.22850535611E+02  0.00000000000E+00 0. -1.
         11    1    4    4    0    0 -0.16667667635E+03 -0.16212193974E+03  0.96672780744E+02  0.25181394783E+03  0.00000000000E+00 0.  1.
</event>
<event>
 8    1  0.6185113E-009  0.1139780E+03  0.7561462E-02  0.1253376E+00
          1   -1    0    0  501    0  0.00000000000E+00  0.00000000000E+00  0.51112383901E+03  0.51112383901E+03  0.00000000000E+00 0. -1.
         -1   -1    0    0    0  501 -0.00000000000E+00 -0.00000000000E+00 -0.31589979070E+02  0.31589979070E+02  0.00000000000E+00 0.  1.
         25    2    1    2    0    0  0.36301195960E+01  0.51243405859E+02  0.34917213989E+03  0.37444387806E+03  0.12509184677E+03 0.  0.
         23    2    1    2    0    0 -0.36301195960E+01 -0.51243405859E+02  0.13036172005E+03  0.16826994002E+03  0.93174729665E+02 0.  0.
          5    1    3    3  502    0 -0.59829178508E+02  0.26835644190E+02  0.14458923019E+03  0.15881813589E+03  0.41800000000E+01 0.  1.
         -5    1    3    3    0  502  0.63459298104E+02  0.24407761668E+02  0.20458290971E+03  0.21562574218E+03  0.41800000000E+01 0.  1.
        -11    1    4    4    0    0  0.37573045652E+02 -0.21232937741E+02  0.21831263022E+02  0.48365023000E+02  0.00000000000E+00 0.  1.
         11    1    4    4    0    0 -0.41203165248E+02 -0.30010468118E+02  0.10853045703E+03  0.11990491702E+03  0.00000000000E+00 0. -1.
</event>
<event>
 8    1  0.6185113E-009  0.1506300E+03  0.7561462E-02  0.1199701E+00
         -2   -1    0    0    0  501 -0.00000000000E+00  0.00000000000E+00  0.44001220642E+02  0.44001220642E+02  0.00000000000E+00 0.  1.
          2   -1    0    0  501    0  0.00000000000E+00 -0.00000000000E+00 -0.51680850731E+03  0.51680850731E+03  0.00000000000E+00 0. -1.
         25    2    1    2    0    0 -0.69019522797E+02 -0.78277954671E+02 -0.26252877849E+03  0.30896578518E+03  0.12508942465E+03 0.  0.
         23    2    1    2    0    0  0.69019522797E+02  0.78277954671E+02 -0.21027850818E+03  0.25184394278E+03  0.91198617303E+02 0.  0.
          5    1    3    3  502    0 -0.90824598798E+02 -0.10713231728E+02 -0.15597695256E+03  0.18085951236E+03  0.41800000000E+01 0.  1.
         -5    1    3    3    0  502  0.21805076001E+02 -0.67564722943E+02 -0.10655182594E+03  0.12810627282E+03  0.41800000000E+01 0.  1.
        -11    1    4    4    0    0  0.47148163764E+02  0.98247366550E+02 -0.16600799108E+03  0.19858033005E+03  0.00000000000E+00 0.  1.
         11    1    4    4    0    0  0.21871359033E+02 -0.19969411879E+02 -0.44270517102E+02  0.53263612732E+02  0.00000000000E+00 0. -1.
</event>
<event>
 8    1  0.6185113E-009  0.8454954E+02  0.7561462E-02  0.1316615E+00
         -1   -1    0    0    0  501 -0.00000000000E+00  0.00000000000E+00  0.12800953566E+03  0.12800953566E+03  0.00000000000E+00 0.  1.
          1   -1    0    0  501    0  0.00000000000E+00 -0.00000000000E+00 -0.12906853698E+03  0.12906853698E+03  0.00000000000E+00 0. -1.
         25    2    1    2    0    0  0.28484208440E+01  0.35179810235E+02 -0.59085302957E+02  0.14277309714E+03  0.12508937481E+03 0.  0.
         23    2    1    2    0    0 -0.28484208440E+01 -0.35179810235E+02  0.58026301641E+02  0.11430497551E+03  0.91939345188E+02 0.  0.
          5    1    3    3  502    0  0.45699234091E+02 -0.11931594298E+02 -0.62979474353E+02  0.78833175305E+02  0.41800000000E+01 0.  1.
         -5    1    3    3    0  502 -0.42850813247E+02  0.47111404533E+02  0.38941713956E+01  0.63939921832E+02  0.41800000000E+01 0.  1.
        -11    1    4    4    0    0  0.21439415398E+02 -0.13734367331E+02 -0.18320417103E+02  0.31367484142E+02  0.00000000000E+00 0. -1.
         11    1    4    4    0    0 -0.24287836242E+02 -0.21445442904E+02  0.76346718744E+02  0.82937491363E+02  0.00000000000E+00 0.  1.
</event>
<event>
 8    1  0.6185113E-009  0.4568421E+03  0.7561462E-02  0.1025701E+00
         -2   -1    0    0    0  501 -0.00000000000E+00  0.00000000000E+00  0.19428062423E+04  0.19428062423E+04  0.00000000000E+00 0.  1.
          2   -1    0    0  501    0  0.00000000000E+00 -0.00000000000E+00 -0.11063260040E+03  0.11063260040E+03  0.00000000000E+00 0. -1.
         25    2    1    2    0    0  0.43370515551E+03 -0.12106077545E+03  0.95653499967E+03  0.10645925044E+04  0.12506846763E+03 0.  0.
         23    2    1    2    0    0 -0.43370515551E+03  0.12106077545E+03  0.87563864222E+03  0.98884633828E+03  0.91204033450E+02 0.  0.
          5    1    3    3  502    0  0.21172382272E+02 -0.35658628718E+02  0.51123409292E+02  0.65961223084E+02  0.41800000000E+01 0.  1.
         -5    1    3    3    0  502  0.41253277324E+03 -0.85402146731E+02  0.90541159038E+03  0.99863128133E+03  0.41800000000E+01 0.  1.
        -11    1    4    4    0    0 -0.29927343000E+03  0.74165079303E+02  0.50353471328E+03  0.59043395259E+03  0.00000000000E+00 0.  1.
         11    1    4    4    0    0 -0.13443172551E+03  0.46895696146E+02  0.37210392894E+03  0.39841238570E+03  0.00000000000E+00 0. -1.
</event>
<event>
 8    1  0.6185113E-009  0.4115754E+03  0.7561462E-02  0.1039844E+00
         -2   -1    0    0    0  501 -0.00000000000E+00  0.00000000000E+00  0.19023528694E+03  0.19023528694E+03  0.00000000000E+00 0.  1.
          2   -1    0    0  501    0  0.00000000000E+00 -0.00000000000E+00 -0.12231149649E+04  0.12231149649E+04  0.00000000000E+00 0. -1.
         25    2    1    2    0    0  0.46537991271E+02  0.40445225435E+03 -0.17585560485E+03  0.46078304398E+03  0.12509360168E+03 0.  0.
         23    2    1    2    0    0 -0.46537991271E+02 -0.40445225435E+03 -0.85702407310E+03  0.95256720786E+03  0.84537642075E+02 0.  0.
          5    1    3    3  502    0 -0.12394811606E+01  0.12864478398E+03 -0.11863077392E+03  0.17504784969E+03  0.41800000000E+01 0.  1.
         -5    1    3    3    0  502  0.47777472432E+02  0.27580747037E+03 -0.57224830936E+02  0.28573519430E+03  0.41800000000E+01 0.  1.
        -11    1    4    4    0    0  0.21649699737E+02 -0.12304378725E+03 -0.29421742712E+03  0.31964414198E+03  0.00000000000E+00 0.  1.
         11    1    4    4    0    0 -0.68187691008E+02 -0.28140846710E+03 -0.56280664598E+03  0.63292306588E+03  0.00000000000E+00 0. -1.
</event>
<event>
 8    1  0.6185113E-009  0.1316851E+03  0.7561462E-02  0.1224977E+00
          1   -1    0    0  501    0  0.00000000000E+00  0.00000000000E+00  0.20379591161E+03  0.20379591161E+03  0.00000000000E+00 0. -1.
         -1   -1    0    0    0  501 -0.00000000000E+00 -0.00000000000E+00 -0.10030325651E+03  0.10030325651E+03  0.00000000000E+00 0.  1.
         25    2    1    2    0    0 -0.33477590920E+02 -0.82251868230E+02  0.89146515312E+02  0.17742849137E+03  0.12509056494E+03 0.  0.
         23    2    1    2    0    0  0.33477590920E+02  0.82251868230E+02  0.14346139786E+02  0.12667067676E+03  0.89182563892E+02 0.  0.
          5    1    3    3  502    0 -0.60273477951E+02  0.57754758698E+01  0.27787778192E+02  0.66752387843E+02  0.41800000000E+01 0. -1.
         -5    1    3    3    0  502  0.26795887031E+02 -0.88027344100E+02  0.61358737120E+02  0.11067610353E+03  0.41800000000E+01 0. -1.
        -11    1    4    4    0    0  0.42267797245E+02  0.18377917568E+02  0.36183984236E+02  0.58596887744E+02  0.00000000000E+00 0. -1.
         11    1    4    4    0    0 -0.87902063251E+01  0.63873950663E+02 -0.21837844450E+02  0.68073789014E+02  0.00000000000E+00 0.  1.
</event>
<event>
 8    1  0.6185113E-009  0.1375001E+03  0.7561462E-02  0.1216733E+00
         -2   -1    0    0    0  501 -0.00000000000E+00  0.00000000000E+00  0.50510617083E+02  0.50510617083E+02  0.00000000000E+00 0.  1.
          2   -1    0    0  501    0  0.00000000000E+00 -0.00000000000E+00 -0.52171503440E+03  0.52171503440E+03  0.00000000000E+00 0. -1.
         25    2    1    2    0    0 -0.75790419599E+02 -0.78388087048E+02 -0.33215619250E+03  0.37129921962E+03  0.12508594798E+03 0.  0.
         23    2    1    2    0    0  0.75790419599E+02  0.78388087048E+02 -0.13904822482E+03  0.20092643187E+03  0.95645921510E+02 0.  0.
          5    1    3    3  502    0 -0.84114170302E+02 -0.18630017280E+02 -0.27453116055E+03  0.28776223120E+03  0.41800000000E+01 0.  1.
         -5    1    3    3    0  502  0.83237507028E+01 -0.59758069767E+02 -0.57625031942E+02  0.83536988421E+02  0.41800000000E+01 0.  1.
        -11    1    4    4    0    0  0.76584048900E+02  0.33866524945E+02 -0.13129848062E+03  0.15572844657E+03  0.00000000000E+00 0. -1.
         11    1    4    4    0    0 -0.79362930087E+00  0.44521562102E+02 -0.77497442024E+01  0.45197985295E+02  0.00000000000E+00 0.  1.
</event>
<event>
 8    1  0.6185113E-009  0.1470308E+03  0.7561462E-02  0.1204170E+00
         -1   -1    0    0    0  501 -0.00000000000E+00  0.00000000000E+00  0.20527867804E+03  0.20527867804E+03  0.00000000000E+00 0.  1.
          1   -1    0    0  501    0  0.00000000000E+00 -0.00000000000E+00 -0.14210742674E+03  0.14210742674E+03  0.00000000000E+00 0. -1.
         25    2    1    2    0    0  0.11106078241E+03  0.67751805933E+02  0.54074697734E+02  0.18840388353E+03  0.12508855183E+03 0.  0.
         23    2    1    2    0    0 -0.11106078241E+03 -0.67751805933E+02  0.90965535680E+01  0.15898222126E+03  0.90927414965E+02 0.  0.
          5    1    3    3  502    0  0.11680812964E+03  0.54986781124E+02  0.84705380501E+02  0.15446734002E+03  0.41800000000E+01 0. -1.
         -5    1    3    3    0  502 -0.57473472286E+01  0.12765024809E+02 -0.30630682766E+02  0.33936543508E+02  0.41800000000E+01 0. -1.
        -11    1    4    4    0    0 -0.13300155088E+02 -0.48954696338E+02  0.27561429106E+02  0.57732909101E+02  0.00000000000E+00 0.  1.
         11    1    4    4    0    0 -0.97760627320E+02 -0.18797109595E+02 -0.18464875538E+02  0.10124931215E+03  0.00000000000E+00 0. -1.
</event>
<event>
 8    1  0.6185113E-009  0.1014343E+03  0.7561462E-02  0.1277308E+00
         -2   -1    0    0    0  501 -0.00000000000E+00  0.00000000000E+00  0.42552148289E+02  0.42552148289E+02  0.00000000000E+00 0.  1.
          2   -1    0    0  501    0  0.00000000000E+00 -0.00000000000E+00 -0.29117595427E+03  0.29117595427E+03  0.00000000000E+00 0. -1.
         25    2    1    2    0    0 -0.10470887426E+02  0.10434700031E+02 -0.17731084074E+03  0.21747430883E+03  0.12504966338E+03 0.  0.
         23    2    1    2    0    0  0.10470887426E+02 -0.10434700031E+02 -0.71312965245E+02  0.11625379373E+03  0.90613923300E+02 0.  0.
          5    1    3    3  502    0  0.50126538054E+02  0.13972780791E+02 -0.35416176096E+02  0.63084755287E+02  0.41800000000E+01 0.  1.
         -5    1    3    3    0  502 -0.60597425480E+02 -0.35380807602E+01 -0.14189466464E+03  0.15438955355E+03  0.41800000000E+01 0.  1.
        -11    1    4    4    0    0  0.12417971863E+02  0.38701183195E+02 -0.44408264911E+02  0.60200345500E+02  0.00000000000E+00 0. -1.
         11    1    4    4    0    0 -0.19470844370E+01 -0.49135883226E+02 -0.26904700334E+02  0.56053448228E+02  0.00000000000E+00 0.  1.
</event>
<event>
 8    1  0.6185113E-009  0.1222910E+03  0.7561462E-02  0.1239365E+00
         -2   -1    0    0    0  501 -0.00000000000E+00  0.00000000000E+00  0.13189930866E+03  0.13189930866E+03  0.00000000000E+00 0.  1.
          2   -1    0    0  501    0  0.00000000000E+00 -0.00000000000E+00 -0.22590634798E+03  0.22590634798E+03  0.00000000000E+00 0. -1.
         25    2    1    2    0    0 -0.21640799369E+02  0.60124299658E+02 -0.17208347969E+03  0.22213395503E+03  0.12509002514E+03 0.  0.
         23    2    1    2    0    0  0.21640799369E+02 -0.60124299658E+02  0.78076440368E+02  0.13567170161E+03  0.90706253758E+02 0.  0.
          5    1    3    3  502    0  0.45510566456E+02  0.46494732888E+02 -0.11771848907E+03  0.13456629189E+03  0.41800000000E+01 0. -1.
         -5    1    3    3    0  502 -0.67151365826E+02  0.13629566771E+02 -0.54364990624E+02  0.87567663142E+02  0.41800000000E+01 0. -1.
        -11    1    4    4    0    0 -0.11999760632E+02 -0.73546606005E+02  0.48517694989E+02  0.88921674732E+02  0.00000000000E+00 0.  1.
         11    1    4    4    0    0  0.33640560001E+02  0.13422306347E+02  0.29558745378E+02  0.46750026879E+02  0.00000000000E+00 0. -1.
</event>
<event>
 8    1  0.6185113E-009  0.1844692E+03  0.7561462E-02  0.1163546E+00
          2   -1    0    0  501    0  0.00000000000E+00  0.00000000000E+00  0.29749112424E+03  0.29749112424E+03  0.00000000000E+00 0.  1.
         -2   -1    0    0    0  501 -0.00000000000E+00 -0.00000000000E+00 -0.12947816714E+03  0.12947816714E+03  0.00000000000E+00 0. -1.
         25    2    1    2    0    0 -0.13641563073E+03 -0.79435253671E+02  0.13538056631E+03  0.24268311655E+03  0.12509202010E+03 0.  0.
         23    2    1    2    0    0  0.13641563073E+03  0.79435253671E+02  0.32632390787E+02  0.18428617483E+03  0.89315941861E+02 0.  0.
          5    1    3    3  502    0 -0.73287638936E+02  0.14007836432E+02  0.99159002570E+02  0.12416633075E+03  0.41800000000E+01 0. -1.
         -5    1    3    3    0  502 -0.63127991797E+02 -0.93443090103E+02  0.36221563741E+02  0.11851678580E+03  0.41800000000E+01 0. -1.
        -11    1    4    4    0    0  0.61478110397E+02  0.86466634985E+02  0.18008992834E+02  0.10761208504E+03  0.00000000000E+00 0.  1.
         11    1    4    4    0    0  0.74937520337E+02 -0.70313813144E+01  0.14623397952E+02  0.76674089790E+02  0.00000000000E+00 0. -1.
</event>
<event>
 8    1  0.6185113E-009  0.8055465E+02  0.7561462E-02  0.1327485E+00
         -2   -1    0    0    0  501 -0.00000000000E+00  0.00000000000E+00  0.81654185688E+02  0.81654185688E+02  0.00000000000E+00 0.  1.
          2   -1    0    0  501    0  0.00000000000E+00 -0.00000000000E+00 -0.51335973870E+03  0.51335973870E+03  0.00000000000E+00 0. -1.
         25    2    1    2    0    0  0.71188067121E+02  0.15249203154E+02 -0.45370669656E+03  0.47622878316E+03  0.12507521063E+03 0.  0.
         23    2    1    2    0    0 -0.71188067121E+02 -0.15249203154E+02  0.22001143540E+02  0.11878514123E+03  0.91244618269E+02 0.  0.
          5    1    3    3  502    0  0.36999259178E+02 -0.17031459304E+02 -0.40954395564E+03  0.41158564089E+03  0.41800000000E+01 0. -1.
         -5    1    3    3    0  502  0.34188807943E+02  0.32280662459E+02 -0.44162740912E+02  0.64643142267E+02  0.41800000000E+01 0. -1.
        -11    1    4    4    0    0 -0.53334883756E+02 -0.13520060786E+02 -0.30775411438E+02  0.63043856307E+02  0.00000000000E+00 0. -1.
         11    1    4    4    0    0 -0.17853183366E+02 -0.17291423687E+01  0.52776554978E+02  0.55741284924E+02  0.00000000000E+00 0.  1.
</event>
<event>
 8    1  0.6185113E-009  0.3031217E+03  0.7561462E-02  0.1083690E+00
          3   -1    0    0  501    0  0.00000000000E+00  0.00000000000E+00  0.19125058689E+03  0.19125058689E+03  0.00000000000E+00 0. -1.
         -3   -1    0    0    0  501 -0.00000000000E+00 -0.00000000000E+00 -0.61241512421E+03  0.61241512421E+03  0.00000000000E+00 0.  1.
         25    2    1    2    0    0 -0.24090025828E+03 -0.18083933340E+03 -0.35474195348E+03  0.48189641736E+03  0.12508598864E+03 0.  0.
         23    2    1    2    0    0  0.24090025828E+03  0.18083933340E+03 -0.66422583828E+02  0.32176929374E+03  0.91584495464E+02 0.  0.
          5    1    3    3  502    0 -0.13056499420E+03 -0.12668709897E+03 -0.12330478086E+03  0.21981442204E+03  0.41800000000E+01 0.  1.
         -5    1    3    3    0  502 -0.11033526408E+03 -0.54152234430E+02 -0.23143717263E+03  0.26208199531E+03  0.41800000000E+01 0.  1.
        -11    1    4    4    0    0  0.15945226296E+03  0.11590854992E+03 -0.87201108752E+02  0.21555474820E+03  0.00000000000E+00 0.  1.
         11    1    4    4    0    0  0.81447995323E+02  0.64930783486E+02  0.20778524924E+02  0.10621454554E+03  0.00000000000E+00 0. -1.
</event>
<event>
 8    1  0.6185113E-009  0.2247673E+03  0.7561462E-02  0.1130378E+00
         -2   -1    0    0    0  501 -0.00000000000E+00  0.00000000000E+00  0.11497714711E+03  0.11497714711E+03  0.00000000000E+00 0. -1.
          2   -1    0    0  501    0  0.00000000000E+00 -0.00000000000E+00 -0.57002764852E+03  0.57002764852E+03  0.00000000000E+00 0.  1.
         25    2    1    2    0    0 -0.12636453577E+03  0.18013482699E+03 -0.32802333649E+03  0.41432252135E+03  0.12508913069E+03 0.  0.
         23    2    1    2    0    0  0.12636453577E+03 -0.18013482699E+03 -0.12702716492E+03  0.27068227429E+03  0.93361882969E+02 0.  0.
          5    1    3    3  502    0 -0.12051965157E+02  0.30204174731E+02 -0.15487036292E+03  0.15830301244E+03  0.41800000000E+01 0.  1.
         -5    1    3    3    0  502 -0.11431257061E+03  0.14993065226E+03 -0.17315297357E+03  0.25601950891E+03  0.41800000000E+01 0.  1.
        -11    1    4    4    0    0  0.12753139870E+03 -0.14538508042E+03 -0.13392130130E+03  0.23523603933E+03  0.00000000000E+00 0.  1.
         11    1    4    4    0    0 -0.11668629308E+01 -0.34749746571E+02  0.68941363749E+01  0.35446234951E+02  0.00000000000E+00 0. -1.
</event>
<event>
 8    1  0.6185113E-009  0.1125682E+03  0.7561462E-02  0.1255887E+00
          1   -1    0    0  501    0  0.00000000000E+00  0.00000000000E+00  0.49488734728E+03  0.49488734728E+03  0.00000000000E+00 0. -1.
         -1   -1    0    0    0  501 -0.00000000000E+00 -0.00000000000E+00 -0.42256569568E+02  0.42256569568E+02  0.00000000000E+00 0.  1.
         25    2    1    2    0    0 -0.67789810605E+01  0.73715834900E+02  0.35429827150E+03  0.38295805865E+03  0.12509848359E+03 0.  0.
         23    2    1    2    0    0  0.67789810605E+01 -0.73715834900E+02  0.98332506216E+02  0.15418585820E+03  0.92865592076E+02 0.  0.
          5    1    3    3  502    0 -0.38114047990E+00  0.92261587055E+02  0.35060093640E+03  0.36256149095E+03  0.41800000000E+01 0. -1.
         -5    1    3    3    0  502 -0.63978405806E+01 -0.18545752155E+02  0.36973350985E+01  0.20396567700E+02  0.41800000000E+01 0. -1.
        -11    1    4    4    0    0 -0.37514633657E+02 -0.18189231296E+02  0.61157913454E+02  0.74016797091E+02  0.00000000000E+00 0. -1.
         11    1    4    4    0    0  0.44293614717E+02 -0.55526603603E+02  0.37174592762E+02  0.80169061111E+02  0.00000000000E+00 0.  1.
</event>
<event>
 8    1  0.6185113E-009  0.7153777E+02  0.7561462E-02  0.1354941E+00
         -2   -1    0    0    0  501 -0.00000000000E+00  0.00000000000E+00  0.13600088619E+02  0.13600088619E+02  0.00000000000E+00 0.  1.
          2   -1    0    0  501    0  0.00000000000E+00 -0.00000000000E+00 -0.90249577325E+03  0.90249577325E+03  0.00000000000E+00 0. -1.
         25    2    1    2    0    0 -0.11517860068E+02 -0.14405876494E+02 -0.43441741944E+03  0.45244353949E+03  0.12508585746E+03 0.  0.
         23    2    1    2    0    0  0.11517860068E+02  0.14405876494E+02 -0.45447826518E+03  0.46365232237E+03  0.89904349936E+02 0.  0.
          5    1    3    3  502    0 -0.29365862049E+02 -0.24533858016E+01 -0.16650816167E+02  0.34104179140E+02  0.41800000000E+01 0.  1.
         -5    1    3    3    0  502  0.17848001982E+02 -0.11952490692E+02 -0.41776660327E+03  0.41833936035E+03  0.41800000000E+01 0.  1.
        -11    1    4    4    0    0 -0.39351333215E+02  0.80225892559E+01 -0.17982403735E+03  0.18425410110E+03  0.00000000000E+00 0.  1.
         11    1    4    4    0    0  0.50869193282E+02  0.63832872381E+01 -0.27465422784E+03  0.27939822127E+03  0.00000000000E+00 0. -1.
</event>
<event>
 8    1  0.6185113E-009  0.9698987E+02  0.7561462E-02  0.1286756E+00
         -2   -1    0    0    0  501 -0.00000000000E+00  0.00000000000E+00  0.27221971666E+02  0.27221971666E+02  0.00000000000E+00 0. -1.
          2   -1    0    0  501    0  0.00000000000E+00 -0.00000000000E+00 -0.54580898749E+03  0.54580898749E+03  0.00000000000E+00 0.  1.
         25    2    1    2    0    0 -0.10843529990E+02  0.26727291662E+02 -0.40312560377E+03  0.42307163114E+03  0.12508965746E+03 0.  0.
         23    2    1    2    0    0  0.10843529990E+02 -0.26727291662E+02 -0.11546141206E+03  0.14995932801E+03  0.91238873961E+02 0.  0.
          5    1    3    3  502    0 -0.42306284855E+02 -0.18137473420E+02 -0.32064581871E+03  0.32395987890E+03  0.41800000000E+01 0. -1.
         -5    1    3    3    0  502  0.31462754865E+02  0.44864765082E+02 -0.82479785054E+02  0.99111752240E+02  0.41800000000E+01 0. -1.
        -11    1    4    4    0    0  0.38818107938E+02 -0.44969715583E+02 -0.55361705606E+02  0.81203690009E+02  0.00000000000E+00 0. -1.
         11    1    4    4    0    0 -0.27974577948E+02  0.18242423921E+02 -0.60099706452E+02  0.68755638005E+02  0.00000000000E+00 0.  1.
</event>
<event>
 8    1  0.6185113E-009  0.1282300E+03  0.7561462E-02  0.1230106E+00
         -1   -1    0    0    0  501 -0.00000000000E+00  0.00000000000E+00  0.18450864066E+03  0.18450864066E+03  0.00000000000E+00 0.  1.
          1   -1    0    0  501    0  0.00000000000E+00 -0.00000000000E+00 -0.98205507904E+02  0.98205507904E+02  0.00000000000E+00 0. -1.
         25    2    1    2    0    0 -0.42474880406E+02  0.64547382636E+02  0.70762037303E+02  0.16317302022E+03  0.12509072121E+03 0.  0.
         23    2    1    2    0    0  0.42474880406E+02 -0.64547382636E+02  0.15541095457E+02  0.11954112835E+03  0.89878115516E+02 0.  0.
          5    1    3    3  502    0 -0.36754513495E+02 -0.32022493116E+02  0.34090868891E+02  0.59632156336E+02  0.41800000000E+01 0. -1.
         -5    1    3    3    0  502 -0.57203669113E+01  0.96569875752E+02  0.36671168413E+02  0.10354086388E+03  0.41800000000E+01 0. -1.
        -11    1    4    4    0    0  0.24193738725E+02 -0.81960579284E+02  0.29851117261E+02  0.90520510116E+02  0.00000000000E+00 0.  1.
         11    1    4    4    0    0  0.18281141681E+02  0.17413196648E+02 -0.14310021804E+02  0.29020618234E+02  0.00000000000E+00 0. -1.
</event>
<event>
 7    1  0.6185113E-009  0.9715574E+02  0.7561462E-02  0.1286393E+00
          3   -1    0    0  501    0  0.00000000000E+00  0.00000000000E+00  0.46363418435E+02  0.46363418435E+02  0.00000000000E+00 0. -1.
         -3   -1    0    0    0  501 -0.00000000000E+00 -0.00000000000E+00 -0.30040414041E+03  0.30040414041E+03  0.00000000000E+00 0.  1.
         23    2    1    2    0    0  0.10657784894E+02  0.26170293786E+02 -0.16480587462E+03  0.19046038294E+03  0.91190506658E+02 0.  0.
          5    1    1    2  502    0 -0.49990024998E+02 -0.37405281876E+02 -0.52475128030E+01  0.62794637527E+02  0.41800000000E+01 0. -1.
         -5    1    1    2    0  502  0.39332240103E+02  0.11234988090E+02 -0.83987334547E+02  0.93512538375E+02  0.41800000000E+01 0. -1.
        -11    1    3    3    0    0  0.24456392069E+02 -0.26564444861E+02 -0.96731598034E+02  0.10325108669E+03  0.00000000000E+00 0.  1.
         11    1    3    3    0    0 -0.13798607175E+02  0.52734738648E+02 -0.68074276588E+02  0.87209296255E+02  0.00000000000E+00 0. -1.
</event>
<event>
 8    1  0.6185113E-009  0.1028107E+03  0.7561462E-02  0.1274494E+00
          2   -1    0    0  501    0  0.00000000000E+00  0.00000000000E+00  0.10471372738E+03  0.10471372738E+03  0.00000000000E+00 0. -1.
         -2   -1    0    0    0  501 -0.00000000000E+00 -0.00000000000E+00 -0.15554612566E+03  0.15554612566E+03  0.00000000000E+00 0.  1.
         25    2    1    2    0    0  0.44532025449E+02 -0.51865317969E+02 -0.21457668260E+02  0.14415303078E+03  0.12508617932E+03 0.  0.
         23    2    1    2    0    0 -0.44532025449E+02  0.51865317969E+02 -0.29374730020E+02  0.11610682227E+03  0.89133646373E+02 0.  0.
          5    1    3    3  502    0  0.41172761199E+02  0.31435681183E+02  0.13438025273E+02  0.53679150882E+02  0.41800000000E+01 0. -1.
         -5    1    3    3    0  502  0.33592642497E+01 -0.83300999152E+02 -0.34895693533E+02  0.90473879895E+02  0.41800000000E+01 0. -1.
        -11    1    4    4    0    0 -0.15841349205E+02  0.79575798023E+01 -0.54960368359E+02  0.57748710039E+02  0.00000000000E+00 0.  1.
         11    1    4    4    0    0 -0.28690676244E+02  0.43907738166E+02  0.25585638339E+02  0.58358112233E+02  0.00000000000E+00 0. -1.
</event>
<event>
 8    1  0.6185113E-009  0.9113248E+02  0.7561462E-02  0.1300132E+00
         -1   -1    0    0    0  501 -0.00000000000E+00  0.00000000000E+00  0.65559741818E+02  0.65559741818E+02  0.00000000000E+00 0.  1.
          1   -1    0    0  501    0  0.00000000000E+00 -0.00000000000E+00 -0.22153909363E+03  0.22153909363E+03  0.00000000000E+00 0. -1.
         25    2    1    2    0    0  0.39562076118E+02  0.25998250862E+02 -0.12802438369E+03  0.18514521284E+03  0.12508972821E+03 0.  0.
         23    2    1    2    0    0 -0.39562076118E+02 -0.25998250862E+02 -0.27954968122E+02  0.10195362261E+03  0.85860316831E+02 0.  0.
          5    1    3    3  502    0  0.66696563965E+02 -0.15624458581E+02 -0.29458050744E+02  0.74684700604E+02  0.41800000000E+01 0. -1.
         -5    1    3    3    0  502 -0.27134487847E+02  0.41622709442E+02 -0.98566332951E+02  0.11046051224E+03  0.41800000000E+01 0. -1.
        -11    1    4    4    0    0 -0.26330677257E+02 -0.37784381684E+02 -0.53672457841E+02  0.70722675252E+02  0.00000000000E+00 0. -1.
         11    1    4    4    0    0 -0.13231398860E+02  0.11786130822E+02  0.25717489719E+02  0.31230947360E+02  0.00000000000E+00 0.  1.
</event>
<event>
 8    1  0.6185113E-009  0.1316942E+03  0.7561462E-02  0.1224963E+00
          2   -1    0    0  501    0  0.00000000000E+00  0.00000000000E+00  0.38403665601E+03  0.38403665601E+03  0.00000000000E+00 0. -1.
         -2   -1    0    0    0  501 -0.00000000000E+00 -0.00000000000E+00 -0.46130480969E+02  0.46130480969E+02  0.00000000000E+00 0.  1.
         25    2    1    2    0    0 -0.49763482720E+02 -0.59173934458E+02  0.16463583674E+03  0.22075054928E+03  0.12509151665E+03 0.  0.
         23    2    1    2    0    0  0.49763482720E+02  0.59173934458E+02  0.17327033830E+03  0.20941658770E+03  0.88626961671E+02 0.  0.
          5    1    3    3  502    0 -0.25830572249E+02  0.38329472431E+02  0.56915314080E+02  0.73438357119E+02  0.41800000000E+01 0.  1.
         -5    1    3    3    0  502 -0.23932910471E+02 -0.97503406888E+02  0.10772052266E+03  0.14731219216E+03  0.41800000000E+01 0.  1.
        -11    1    4    4    0    0  0.56565714998E+01  0.70684167350E+02  0.11918045697E+03  0.13868031453E+03  0.00000000000E+00 0.  1.
         11    1    4    4    0    0  0.44106911220E+02 -0.11510232892E+02  0.54089881336E+02  0.70736273167E+02  0.00000000000E+00 0. -1.
</event>
<event>
 8    1  0.6185113E-009  0.1066751E+03  0.7561462E-02  0.1266854E+00
          2   -1    0    0  501    0  0.00000000000E+00  0.00000000000E+00  0.17891079523E+03  0.17891079523E+03  0.00000000000E+00 0. -1.
         -2   -1    0    0    0  501 -0.00000000000E+00 -0.00000000000E+00 -0.68740966612E+02  0.68740966612E+02  0.00000000000E+00 0.  1.
         25    2    1    2    0    0  0.17270445159E+02 -0.91190044248E+01  0.48708478457E+02  0.13565109644E+03  0.12508908655E+03 0.  0.
         23    2    1    2    0    0 -0.17270445159E+02  0.91190044248E+01  0.61461350163E+02  0.11200066540E+03  0.91570884941E+02 0.  0.
          5    1    3    3  502    0 -0.95863072424E+01 -0.62510414047E+02  0.40414386052E+02  0.75168105941E+02  0.41800000000E+01 0.  1.
         -5    1    3    3    0  502  0.26856752401E+02  0.53391409622E+02  0.82940924052E+01  0.60482990500E+02  0.41800000000E+01 0.  1.
        -11    1    4    4    0    0  0.35814584412E+02  0.91881805580E+01  0.10554946680E+02  0.38451450142E+02  0.00000000000E+00 0.  1.
         11    1    4    4    0    0 -0.53085029571E+02 -0.69176133207E-01  0.50906403483E+02  0.73549215260E+02  0.00000000000E+00 0. -1.
</event>
<event>
 8    1  0.6185113E-009  0.1716437E+03  0.7561462E-02  0.1176144E+00
          2   -1    0    0  501    0  0.00000000000E+00  0.00000000000E+00  0.46465375837E+03  0.46465375837E+03  0.00000000000E+00 0. -1.
         -2   -1    0    0    0  501 -0.00000000000E+00 -0.00000000000E+00 -0.14320356526E+03  0.14320356526E+03  0.00000000000E+00 0.  1.
         25    2    1    2    0    0  0.12602120146E+02 -0.13359184690E+03  0.38884521876E+03  0.42994735728E+03  0.12509408812E+03 0.  0.
         23    2    1    2    0    0 -0.12602120146E+02  0.13359184690E+03 -0.67395025654E+02  0.17790996636E+03  0.95416307086E+02 0.  0.
          5    1    3    3  502    0  0.18043881112E+02 -0.15557249054E+03  0.30352853520E+03  0.34157784697E+03  0.41800000000E+01 0. -1.
         -5    1    3    3    0  502 -0.54417609660E+01  0.21980643643E+02  0.85316683567E+02  0.88369510309E+02  0.41800000000E+01 0. -1.
        -11    1    4    4    0    0 -0.47511332247E+02  0.11412415354E+03 -0.42021492193E+02  0.13056590259E+03  0.00000000000E+00 0. -1.
         11    1    4    4    0    0  0.34909212101E+02  0.19467693361E+02 -0.25373533460E+02  0.47344063773E+02  0.00000000000E+00 0.  1.
</event>
<event>
 8    1  0.6185113E-009  0.1638690E+03  0.7561462E-02  0.1184397E+00
         -1   -1    0    0    0  501 -0.00000000000E+00  0.00000000000E+00  0.19373464177E+03  0.19373464177E+03  0.00000000000E+00 0.  1.
          1   -1    0    0  501    0  0.00000000000E+00 -0.00000000000E+00 -0.15313389391E+03  0.15313389391E+03  0.00000000000E+00 0. -1.
         25    2    1    2    0    0 -0.12460673214E+03  0.38004769577E+02  0.47377673570E+02  0.18672320307E+03  0.12509880258E+03 0.  0.
         23    2    1    2    0    0  0.12460673214E+03 -0.38004769577E+02 -0.67769257117E+01  0.16014533260E+03  0.92894567262E+02 0.  0.
          5    1    3    3  502    0 -0.14538721402E+03  0.24056572933E+02  0.18979079020E+02  0.14863996280E+03  0.41800000000E+01 0.  1.
         -5    1    3    3    0  502  0.20780481879E+02  0.13948196644E+02  0.28398594550E+02  0.38083240266E+02  0.41800000000E+01 0.  1.
        -11    1    4    4    0    0  0.10358886606E+03 -0.63805359995E+02  0.11454452036E+02  0.12220057941E+03  0.00000000000E+00 0. -1.
         11    1    4    4    0    0  0.21017866081E+02  0.25800590419E+02 -0.18231377747E+02  0.37944753196E+02  0.00000000000E+00 0.  1.
</event>
<event>
 8    1  0.6185113E-009  0.1251876E+03  0.7561462E-02  0.1234776E+00
         -1   -1    0    0    0  501 -0.00000000000E+00  0.00000000000E+00  0.55970953317E+03  0.55970953317E+03  0.00000000000E+00 0.  1.
          1   -1    0    0  501    0  0.00000000000E+00 -0.00000000000E+00 -0.40080337475E+02  0.40080337475E+02  0.00000000000E+00 0. -1.
         25    2    1    2    0    0  0.54112134919E+01 -0.82020708647E+02  0.41692460133E+03  0.44297893754E+03  0.12509011965E+03 0.  0.
         23    2    1    2    0    0 -0.54112134919E+01  0.82020708647E+02  0.10270459436E+03  0.15681093310E+03  0.85350788853E+02 0.  0.
          5    1    3    3  502    0 -0.58480253408E+02 -0.47446033662E+02  0.24330607682E+03  0.25472806199E+03  0.41800000000E+01 0.  1.
         -5    1    3    3    0  502  0.63891466899E+02 -0.34574674985E+02  0.17361852451E+03  0.18825087555E+03  0.41800000000E+01 0.  1.
        -11    1    4    4    0    0  0.20986468817E+02  0.61722415173E+01 -0.50202997884E+01  0.22443971322E+02  0.00000000000E+00 0. -1.
         11    1    4    4    0    0 -0.26397682309E+02  0.75848467130E+02  0.10772489415E+03  0.13436696178E+03  0.00000000000E+00 0.  1.
</event>
<event>
 8    1  0.6185113E-009  0.1046008E+03  0.7561462E-02  0.1270908E+00
         -2   -1    0    0    0  501 -0.00000000000E+00  0.00000000000E+00  0.20291804484E+03  0.20291804484E+03  0.00000000000E+00 0.  1.
          2   -1    0    0  501    0  0.00000000000E+00 -0.00000000000E+00 -0.56209346090E+02  0.56209346090E+02  0.00000000000E+00 0. -1.
         25    2    1    2    0    0 -0.24800537365E+02  0.97637559245E+01  0.98006468731E+02  0.16113206877E+03  0.12509147889E+03 0.  0.
         23    2    1    2    0    0  0.24800537365E+02 -0.97637559245E+01  0.48702230022E+02  0.97995322162E+02  0.80751336665E+02 0.  0.
          5    1    3    3  502    0  0.44402878276E+02 -0.24125069696E+02  0.40409003820E+02  0.64838218488E+02  0.41800000000E+01 0.  1.
         -5    1    3    3    0  502 -0.69203415641E+02  0.33888825620E+02  0.57597464911E+02  0.96293850283E+02  0.41800000000E+01 0.  1.
        -11    1    4    4    0    0  0.12660730913E+02 -0.43588183314E+02  0.41165358747E+02  0.61276509306E+02  0.00000000000E+00 0.  1.
         11    1    4    4    0    0  0.12139806452E+02  0.33824427390E+02  0.75368712750E+01  0.36718812856E+02  0.00000000000E+00 0. -1.
</event>
<event>
 8    1  0.6185113E-009  0.6073701E+02  0.7561462E-02  0.1394765E+00
          2   -1    0    0  501    0  0.00000000000E+00  0.00000000000E+00  0.33058976725E+04  0.33058976725E+04  0.00000000000E+00 0. -1.
         -2   -1    0    0    0  501 -0.00000000000E+00 -0.00000000000E+00 -0.88144754920E+01  0.88144754920E+01  0.00000000000E+00 0.  1.
         25    2    1    2    0    0 -0.44460984882E+02 -0.12808722123E+02  0.29536993848E+04  0.29567099504E+04  0.12511128069E+03 0.  0.
         23    2    1    2    0    0  0.44460984882E+02  0.12808722123E+02  0.34338381220E+03  0.35800219757E+03  0.90068243275E+02 0.  0.
          5    1    3    3  502    0 -0.41834524678E+02 -0.44250158691E+01  0.29375648318E+04  0.29378690103E+04  0.41800000000E+01 0.  1.
         -5    1    3    3    0  502 -0.26264602043E+01 -0.83837062541E+01  0.16134552959E+02  0.18840940076E+02  0.41800000000E+01 0.  1.
        -11    1    4    4    0    0 -0.11848584242E+02  0.38073553969E+01  0.29033346323E+01  0.12779446609E+02  0.00000000000E+00 0.  1.
         11    1    4    4    0    0  0.56309569124E+02  0.90013667262E+01  0.34048047757E+03  0.34522275096E+03  0.00000000000E+00 0. -1.
</event>
<event>
 8    1  0.6185113E-009  0.1065382E+03  0.7561462E-02  0.1267118E+00
         -2   -1    0    0    0  501 -0.00000000000E+00  0.00000000000E+00  0.19754687912E+02  0.19754687912E+02  0.00000000000E+00 0.  1.
          2   -1    0    0  501    0  0.00000000000E+00 -0.00000000000E+00 -0.69990347025E+03  0.69990347025E+03  0.00000000000E+00 0. -1.
         25    2    1    2    0    0  0.20799292105E+01  0.41822085183E+02 -0.42360828802E+03  0.44367185614E+03  0.12508925351E+03 0.  0.
         23    2    1    2    0    0 -0.20799292105E+01 -0.41822085183E+02 -0.25654049433E+03  0.27598630202E+03  0.92746971708E+02 0.  0.
          5    1    3    3  502    0 -0.15772661160E+02  0.81071657687E+02 -0.20962715476E+03  0.22534952170E+03  0.41800000000E+01 0.  1.
         -5    1    3    3    0  502  0.17852590370E+02 -0.39249572504E+02 -0.21398113326E+03  0.21832233444E+03  0.41800000000E+01 0.  1.
        -11    1    4    4    0    0  0.71963094817E+01 -0.63276315993E+02 -0.23734584596E+03  0.24574118424E+03  0.00000000000E+00 0. -1.
         11    1    4    4    0    0 -0.92762386922E+01  0.21454230810E+02 -0.19194648362E+02  0.30245117783E+02  0.00000000000E+00 0.  1.
</event>
<event>
 8    1  0.6185113E-009  0.1147710E+03  0.7561462E-02  0.1251981E+00
          4   -1    0    0  501    0  0.00000000000E+00  0.00000000000E+00  0.13624597163E+03  0.13624597163E+03  0.00000000000E+00 0. -1.
         -4   -1    0    0    0  501 -0.00000000000E+00 -0.00000000000E+00 -0.10329595526E+03  0.10329595526E+03  0.00000000000E+00 0.  1.
         25    2    1    2    0    0 -0.17163368980E+02  0.41545820221E+02  0.40329711011E+01  0.13298586665E+03  0.12509332301E+03 0.  0.
         23    2    1    2    0    0  0.17163368980E+02 -0.41545820221E+02  0.28917045272E+02  0.10655606023E+03  0.92181137181E+02 0.  0.
          5    1    3    3  502    0 -0.15806193812E+02  0.83511403059E+02  0.20766235096E+02  0.87593944561E+02  0.41800000000E+01 0.  1.
         -5    1    3    3    0  502 -0.13571751685E+01 -0.41965582838E+02 -0.16733263994E+02  0.45391922093E+02  0.41800000000E+01 0.  1.
        -11    1    4    4    0    0 -0.25814680705E+02 -0.51968041014E+02  0.20481058088E+02  0.61534939401E+02  0.00000000000E+00 0. -1.
         11    1    4    4    0    0  0.42978049685E+02  0.10422220793E+02  0.84359871839E+01  0.45021120829E+02  0.00000000000E+00 0.  1.
</event>
<event>
 8    1  0.6185113E-009  0.1366513E+03  0.7561462E-02  0.1217907E+00
         -1   -1    0    0    0  501 -0.00000000000E+00  0.00000000000E+00  0.84564527336E+02  0.84564527336E+02  0.00000000000E+00 0.  1.
          1   -1    0    0  501    0  0.00000000000E+00 -0.00000000000E+00 -0.24430902127E+03  0.24430902127E+03  0.00000000000E+00 0. -1.
         25    2    1    2    0    0  0.80113731861E+02 -0.51370452923E+02 -0.95646404033E+02  0.18399150641E+03  0.12508999305E+03 0.  0.
         23    2    1    2    0    0 -0.80113731861E+02  0.51370452923E+02 -0.64098089898E+02  0.14488204219E+03  0.88459637996E+02 0.  0.
          5    1    3    3  502    0  0.93665640580E+01 -0.79861979768E+02 -0.54525518031E+02  0.97242855014E+02  0.41800000000E+01 0.  1.
         -5    1    3    3    0  502  0.70747167803E+02  0.28491526845E+02 -0.41120886002E+02  0.86748651400E+02  0.41800000000E+01 0.  1.
        -11    1    4    4    0    0 -0.73805216647E+01  0.42492075033E+02 -0.56696865744E+02  0.71236108301E+02  0.00000000000E+00 0. -1.
         11    1    4    4    0    0 -0.72733210196E+02  0.88783778904E+01 -0.74012241538E+01  0.73645933889E+02  0.00000000000E+00 0.  1.
</event>
<event>
 8    1  0.6185113E-009  0.1035039E+03  0.7561462E-02  0.1273096E+00
          1   -1    0    0  501    0  0.00000000000E+00  0.00000000000E+00  0.40819500684E+03  0.40819500684E+03  0.00000000000E+00 0. -1.
         -1   -1    0    0    0  501 -0.00000000000E+00 -0.00000000000E+00 -0.31907215200E+02  0.31907215200E+02  0.00000000000E+00 0.  1.
         25    2    1    2    0    0 -0.37708371550E+01 -0.43503423663E+02  0.20316074660E+03  0.24254325450E+03  0.12508466837E+03 0.  0.
         23    2    1    2    0    0  0.37708371550E+01  0.43503423663E+02  0.17312704504E+03  0.19755896754E+03  0.84556518664E+02 0.  0.
          5    1    3    3  502    0  0.36802972453E+02 -0.57780974945E+02  0.18182655015E+03  0.19434882707E+03  0.41800000000E+01 0.  1.
         -5    1    3    3    0  502 -0.40573809608E+02  0.14277551282E+02  0.21334196459E+02  0.48194427429E+02  0.41800000000E+01 0.  1.
        -11    1    4    4    0    0  0.10644891651E+02 -0.24550416143E+02  0.47609441317E+02  0.54614060036E+02  0.00000000000E+00 0. -1.
         11    1    4    4    0    0 -0.68740544964E+01  0.68053839806E+02  0.12551760372E+03  0.14294490750E+03  0.00000000000E+00 0.  1.
</event>
<event>
 8    1  0.6185113E-009  0.7322819E+02  0.7561462E-02  0.1349447E+00
          1   -1    0    0  501    0  0.00000000000E+00  0.00000000000E+00  0.33945347655E+03  0.33945347655E+03  0.00000000000E+00 0. -1.
         -1   -1    0    0    0  501 -0.00000000000E+00 -0.00000000000E+00 -0.48088478135E+02  0.48088478135E+02  0.00000000000E+00 0.  1.
         25    2    1    2    0    0 -0.43634964965E+02 -0.47916180477E+02  0.20493203896E+03  0.24868721559E+03  0.12509284588E+03 0.  0.
         23    2    1    2    0    0  0.43634964965E+02  0.47916180477E+02  0.86432959463E+02  0.13885473910E+03  0.87235380261E+02 0.  0.
          5    1    3    3  502    0 -0.41825701418E+02 -0.51774047426E+02  0.29112555149E+02  0.72766438371E+02  0.41800000000E+01 0. -1.
         -5    1    3    3    0  502 -0.18092635478E+01  0.38578669493E+01  0.17581948381E+03  0.17592077722E+03  0.41800000000E+01 0. -1.
        -11    1    4    4    0    0  0.20602231293E+02  0.46338189366E+02  0.99966548285E+02  0.11209366844E+03  0.00000000000E+00 0. -1.
         11    1    4    4    0    0  0.23032733673E+02  0.15779911103E+01 -0.13533588822E+02  0.26761070658E+02  0.00000000000E+00 0.  1.
</event>
<event>
 8    1  0.6185113E-009  0.1169391E+03  0.7561462E-02  0.1248234E+00
         -1   -1    0    0    0  501 -0.00000000000E+00  0.00000000000E+00  0.13086692344E+03  0.13086692344E+03  0.00000000000E+00 0.  1.
          1   -1    0    0  501    0  0.00000000000E+00 -0.00000000000E+00 -0.13067383091E+03  0.13067383091E+03  0.00000000000E+00 0. -1.
         25    2    1    2    0    0 -0.27859105680E+02 -0.64049439620E+02  0.21645401582E+02  0.14489868921E+03  0.12509454920E+03 0.  0.
         23    2    1    2    0    0  0.27859105680E+02  0.64049439620E+02 -0.21452309055E+02  0.11664206515E+03  0.90921445834E+02 0.  0.
          5    1    3    3  502    0 -0.65306668249E+02  0.39027659808E+01  0.10992140017E+02  0.66471738673E+02  0.41800000000E+01 0. -1.
         -5    1    3    3    0  502  0.37447562568E+02 -0.67952205601E+02  0.10653261565E+02  0.78426950535E+02  0.41800000000E+01 0. -1.
        -11    1    4    4    0    0  0.43813477093E+02  0.30237843430E+02 -0.47281834056E+02  0.71200560264E+02  0.00000000000E+00 0. -1.
         11    1    4    4    0    0 -0.15954371412E+02  0.33811596190E+02  0.25829525001E+02  0.45441504881E+02  0.00000000000E+00 0.  1.
</event>
<event>
 8    1  0.6185113E-009  0.8791926E+02  0.7561462E-02  0.1307970E+00
         -1   -1    0    0    0  501 -0.00000000000E+00  0.00000000000E+00  0.15281595245E+03  0.15281595245E+03  0.00000000000E+00 0.  1.
          1   -1    0    0  501    0  0.00000000000E+00 -0.00000000000E+00 -0.91872733068E+02  0.91872733068E+02  0.00000000000E+00 0. -1.
         25    2    1    2    0    0  0.41228430218E+02  0.34303012199E+02  0.28584950961E+02  0.13907328742E+03  0.12509116575E+03 0.  0.
         23    2    1    2    0    0 -0.41228430218E+02 -0.34303012199E+02  0.32358268422E+02  0.10561539809E+03  0.85035725873E+02 0.  0.
          5    1    3    3  502    0 -0.22453208434E+02  0.50100339577E+02  0.45227900228E+02  0.71254655664E+02  0.41800000000E+01 0.  1.
         -5    1    3    3    0  502  0.63681638652E+02 -0.15797327378E+02 -0.16642949268E+02  0.67818631761E+02  0.41800000000E+01 0.  1.
        -11    1    4    4    0    0 -0.36498041095E+02 -0.23960404854E+02 -0.22829049553E+02  0.49268382438E+02  0.00000000000E+00 0. -1.
         11    1    4    4    0    0 -0.47303891225E+01 -0.10342607345E+02  0.55187317975E+02  0.56347015654E+02  0.00000000000E+00 0.  1.
</event>
<event>
 8    1  0.6185113E-009  0.2754344E+03  0.7561462E-02  0.1098209E+00
         -2   -1    0    0    0  501 -0.00000000000E+00  0.00000000000E+00  0.14950942570E+03  0.14950942570E+03  0.00000000000E+00 0.  1.
          2   -1    0    0  501    0  0.00000000000E+00 -0.00000000000E+00 -0.63818333193E+03  0.63818333193E+03  0.00000000000E+00 0. -1.
         25    2    1    2    0    0 -0.12506789622E+03  0.22305378556E+03 -0.41908032796E+03  0.50662706004E+03  0.12509071413E+03 0.  0.
         23    2    1    2    0    0  0.12506789622E+03 -0.22305378556E+03 -0.69593578276E+02  0.28106569759E+03  0.93593217214E+02 0.  0.
          5    1    3    3  502    0  0.20237304693E+02  0.17442268739E+02 -0.16186686482E+02  0.31516066684E+02  0.41800000000E+01 0. -1.
         -5    1    3    3    0  502 -0.14530520092E+03  0.20561151682E+03 -0.40289364147E+03  0.47511099335E+03  0.41800000000E+01 0. -1.
        -11    1    4    4    0    0  0.79526447173E+02 -0.21013626745E+03 -0.52477719868E+02  0.23072845030E+03  0.00000000000E+00 0. -1.
         11    1    4    4    0    0  0.45541449050E+02 -0.12917518112E+02 -0.17115858408E+02  0.50337247291E+02  0.00000000000E+00 0.  1.
</event>
<event>
 8    1  0.6185113E-009  0.1059018E+03  0.7561462E-02  0.1268353E+00
         -1   -1    0    0    0  501 -0.00000000000E+00  0.00000000000E+00  0.65898272624E+02  0.65898272624E+02  0.00000000000E+00 0.  1.
          1   -1    0    0  501    0  0.00000000000E+00 -0.00000000000E+00 -0.23479082794E+03  0.23479082794E+03  0.00000000000E+00 0. -1.
         25    2    1    2    0    0  0.12655683559E+02  0.10161378460E+02 -0.29224271729E+02  0.12948188421E+03  0.12509228730E+03 0.  0.
         23    2    1    2    0    0 -0.12655683559E+02 -0.10161378460E+02 -0.13966828359E+03  0.17120721636E+03  0.97679381414E+02 0.  0.
          5    1    3    3  502    0 -0.36735455182E+02 -0.31117061135E+02  0.15772839256E+02  0.50833257021E+02  0.41800000000E+01 0. -1.
         -5    1    3    3    0  502  0.49391138741E+02  0.41278439595E+02 -0.44997110985E+02  0.78648627188E+02  0.41800000000E+01 0. -1.
        -11    1    4    4    0    0  0.28645247356E+02 -0.39153596538E+02 -0.71015754709E+02  0.86004602987E+02  0.00000000000E+00 0. -1.
         11    1    4    4    0    0 -0.41300930915E+02  0.28992218078E+02 -0.68652528880E+02  0.85202613371E+02  0.00000000000E+00 0.  1.
</event>
<event>
 8    1  0.6185113E-009  0.1342418E+03  0.7561462E-02  0.1221294E+00
          2   -1    0    0  501    0  0.00000000000E+00  0.00000000000E+00  0.66316557166E+03  0.66316557166E+03  0.00000000000E+00 0. -1.
         -2   -1    0    0    0  501 -0.00000000000E+00 -0.00000000000E+00 -0.28401213402E+02  0.28401213402E+02  0.00000000000E+00 0.  1.
         25    2    1    2    0    0  0.74953138576E+02  0.35161826313E+02  0.31360710169E+03  0.34763388003E+03  0.12508226612E+03 0.  0.
         23    2    1    2    0    0 -0.74953138576E+02 -0.35161826313E+02  0.32115725657E+03  0.34393290504E+03  0.91068835007E+02 0.  0.
          5    1    3    3  502    0  0.89548484416E+02 -0.18691451919E+02  0.16289123964E+03  0.18686714475E+03  0.41800000000E+01 0. -1.
         -5    1    3    3    0  502 -0.14595345840E+02  0.53853278233E+02  0.15071586205E+03  0.16076673527E+03  0.41800000000E+01 0. -1.
        -11    1    4    4    0    0  0.19015930204E+02  0.35183330760E+01  0.31444932754E+02  0.36915688603E+02  0.00000000000E+00 0. -1.
         11    1    4    4    0    0 -0.93969068780E+02 -0.38680159389E+02  0.28971232381E+03  0.30701721643E+03  0.00000000000E+00 0.  1.
</event>
<event>
 8    1  0.6185113E-009  0.1581780E+03  0.7561462E-02  0.1190769E+00
          2   -1    0    0  501    0  0.00000000000E+00  0.00000000000E+00  0.34078152158E+03  0.34078152158E+03  0.00000000000E+00 0. -1.
         -2   -1    0    0    0  501 -0.00000000000E+00 -0.00000000000E+00 -0.10261665749E+03  0.10261665749E+03  0.00000000000E+00 0.  1.
         25    2    1    2    0    0  0.14691120225E+03 -0.23251041651E+02  0.97141606979E+02  0.21726944009E+03  0.12508399381E+03 0.  0.
         23    2    1    2    0    0 -0.14691120225E+03  0.23251041651E+02  0.14102325712E+03  0.22612873898E+03  0.95515104874E+02 0.  0.
          5    1    3    3  502    0  0.57399743702E+02  0.19610105320E+01  0.10915088038E+03  0.12340973716E+03  0.41800000000E+01 0.  1.
         -5    1    3    3    0  502  0.89511458545E+02 -0.25212052183E+02 -0.12009273400E+02  0.93859702928E+02  0.41800000000E+01 0.  1.
        -11    1    4    4    0    0 -0.13719023107E+03 -0.34847392900E+01  0.80123735082E+02  0.15891228974E+03  0.00000000000E+00 0.  1.
         11    1    4    4    0    0 -0.97209711819E+01  0.26735780941E+02  0.60899522038E+02  0.67216449235E+02  0.00000000000E+00 0. -1.
</event>
<event>
 8    1  0.6185113E-009  0.1731514E+03  0.7561462E-02  0.1174601E+00
         -2   -1    0    0    0  501 -0.00000000000E+00  0.00000000000E+00  0.27488249572E+02  0.27488249572E+02  0.00000000000E+00 0.  1.
          2   -1    0    0  501    0  0.00000000000E+00 -0.00000000000E+00 -0.13940609693E+04  0.13940609693E+04  0.00000000000E+00 0. -1.
         25    2    1    2    0    0 -0.15468463766E+03 -0.46007520551E+02 -0.78099501395E+03  0.80724455413E+03  0.12508608754E+03 0.  0.
         23    2    1    2    0    0  0.15468463766E+03  0.46007520551E+02 -0.58557770581E+03  0.61430466477E+03  0.91787485733E+02 0.  0.
          5    1    3    3  502    0  0.51102383785E+00 -0.19884183564E+02 -0.30936290185E+03  0.31002986846E+03  0.41800000000E+01 0. -1.
         -5    1    3    3    0  502 -0.15519566149E+03 -0.26123336987E+02 -0.47163211210E+03  0.49721468567E+03  0.41800000000E+01 0. -1.
        -11    1    4    4    0    0  0.16322175884E+02  0.23119298813E+02 -0.29763501986E+02  0.41070445014E+02  0.00000000000E+00 0.  1.
         11    1    4    4    0    0  0.13836246177E+03  0.22888221738E+02 -0.55581420382E+03  0.57323421975E+03  0.00000000000E+00 0. -1.
</event>
<event>
 8    1  0.6185113E-009  0.8870234E+02  0.7561462E-02  0.1306025E+00
          1   -1    0    0  501    0  0.00000000000E+00  0.00000000000E+00  0.14829539309E+03  0.14829539309E+03  0.00000000000E+00 0. -1.
         -1   -1    0    0    0  501 -0.00000000000E+00 -0.00000000000E+00 -0.13766957058E+03  0.13766957058E+03  0.00000000000E+00 0.  1.
         25    2    1    2    0    0 -0.11843655247E+02  0.59361544532E+01  0.10270400807E+03  0.16239271468E+03  0.12509104847E+03 0.  0.
         23    2    1    2    0    0  0.11843655247E+02 -0.59361544532E+01 -0.92078185551E+02  0.12357224899E+03  0.81340017008E+02 0.  0.
          5    1    3    3  502    0  0.30683966744E+02 -0.44882622707E+02  0.24433301857E+02  0.59752943658E+02  0.41800000000E+01 0. -1.
         -5    1    3    3    0  502 -0.42527621991E+02  0.50818777160E+02  0.78270706211E+02  0.10263977102E+03  0.41800000000E+01 0. -1.
        -11    1    4    4    0    0 -0.15314699161E+02 -0.20556739857E+02 -0.88950195367E+02  0.92570280435E+02  0.00000000000E+00 0.  1.
         11    1    4    4    0    0  0.27158354408E+02  0.14620585404E+02 -0.31279901843E+01  0.31001968556E+02  0.00000000000E+00 0. -1.
</event>
<event>
 8    1  0.6185113E-009  0.1489854E+03  0.7561462E-02  0.1201725E+00
          1   -1    0    0  501    0  0.00000000000E+00  0.00000000000E+00  0.23490894972E+03  0.23490894972E+03  0.00000000000E+00 0.  1.
         -1   -1    0    0    0  501 -0.00000000000E+00 -0.00000000000E+00 -0.10363556885E+03  0.10363556885E+03  0.00000000000E+00 0. -1.
         25    2    1    2    0    0 -0.38966725745E+02 -0.10232554615E+03  0.77215119500E+02  0.18330873277E+03  0.12510393168E+03 0.  0.
         23    2    1    2    0    0  0.38966725745E+02  0.10232554615E+03  0.54058261379E+02  0.15523578580E+03  0.95848476555E+02 0.  0.
          5    1    3    3  502    0  0.36706595984E+02 -0.66127981185E+02  0.62144713307E+02  0.97978170407E+02  0.41800000000E+01 0.  1.
         -5    1    3    3    0  502 -0.75673321729E+02 -0.36197564967E+02  0.15070406193E+02  0.85330562367E+02  0.41800000000E+01 0.  1.
        -11    1    4    4    0    0  0.54870058115E+02  0.26824711333E+02  0.48294909968E+02  0.77863256703E+02  0.00000000000E+00 0. -1.
         11    1    4    4    0    0 -0.15903332369E+02  0.75500834819E+02  0.57633514108E+01  0.77372529093E+02  0.00000000000E+00 0.  1.
</event>
<event>
 8    1  0.6185113E-009  0.1350690E+03  0.7561462E-02  0.1220122E+00
          4   -1    0    0  501    0  0.00000000000E+00  0.00000000000E+00  0.84194256826E+02  0.84194256826E+02  0.00000000000E+00 0. -1.
         -4   -1    0    0    0  501 -0.00000000000E+00 -0.00000000000E+00 -0.37482790702E+03  0.37482790702E+03  0.00000000000E+00 0.  1.
         25    2    1    2    0    0  0.72237334430E+02 -0.67510330766E+02 -0.28234731784E+03  0.32425570901E+03  0.12508349087E+03 0.  0.
         23    2    1    2    0    0 -0.72237334430E+02  0.67510330766E+02 -0.82863323608E+01  0.13476645484E+03  0.91200092114E+02 0.  0.
          5    1    3    3  502    0 -0.11756356357E+02  0.22405508337E+02 -0.14481445310E+02  0.29451712631E+02  0.41800000000E+01 0.  1.
         -5    1    3    3    0  502  0.83993690787E+02 -0.89915839104E+02 -0.26786587253E+03  0.29480399638E+03  0.41800000000E+01 0.  1.
        -11    1    4    4    0    0 -0.49100715648E+02 -0.95367157524E+00  0.25107968892E+02  0.55156140805E+02  0.00000000000E+00 0. -1.
         11    1    4    4    0    0 -0.23136618782E+02  0.68464002341E+02 -0.33394301252E+02  0.79610314039E+02  0.00000000000E+00 0.  1.
</event>
<event>
 8    1  0.6185113E-009  0.9622280E+02  0.7561462E-02  0.1288446E+00
          1   -1    0    0  501    0  0.00000000000E+00  0.00000000000E+00  0.20821680601E+03  0.20821680601E+03  0.00000000000E+00 0. -1.
         -1   -1    0    0    0  501 -0.00000000000E+00 -0.00000000000E+00 -0.94024441735E+02  0.94024441735E+02  0.00000000000E+00 0.  1.
         25    2    1    2    0    0 -0.60419860093E+02 -0.31540716432E+02  0.17733990683E+01  0.14246597858E+03  0.12509210136E+03 0.  0.
         23    2    1    2    0    0  0.60419860093E+02  0.31540716432E+02  0.11241896521E+03  0.15977526916E+03  0.90800531994E+02 0.  0.
          5    1    3    3  502    0 -0.56629511603E+02  0.22784104762E+02 -0.40522630340E+02  0.73386463219E+02  0.41800000000E+01 0.  1.
         -5    1    3    3    0  502 -0.37903484904E+01 -0.54324821194E+02  0.42296029408E+02  0.69079515366E+02  0.41800000000E+01 0.  1.
        -11    1    4    4    0    0 -0.19329859237E+01  0.10741522771E+02 -0.13723693278E+02  0.17534437636E+02  0.00000000000E+00 0.  1.
         11    1    4    4    0    0  0.62352846017E+02  0.20799193661E+02  0.12614265849E+03  0.14224083153E+03  0.00000000000E+00 0. -1.
</event>
<event>
 8    1  0.6185113E-009  0.9281268E+02  0.7561462E-02  0.1296180E+00
         -4   -1    0    0    0  501 -0.00000000000E+00  0.00000000000E+00  0.24799412920E+03  0.24799412920E+03  0.00000000000E+00 0.  1.
          4   -1    0    0  501    0  0.00000000000E+00 -0.00000000000E+00 -0.65914487584E+02  0.65914487584E+02  0.00000000000E+00 0. -1.
         25    2    1    2    0    0 -0.40179865775E+02  0.44597552736E+02  0.59645229932E+02  0.15102523125E+03  0.12509078183E+03 0.  0.
         23    2    1    2    0    0  0.40179865775E+02 -0.44597552736E+02  0.12243441168E+03  0.16288338553E+03  0.89092361029E+02 0.  0.
          5    1    3    3  502    0 -0.31823549287E+02 -0.21647140510E+02  0.73161369006E+02  0.82773155651E+02  0.41800000000E+01 0. -1.
         -5    1    3    3    0  502 -0.83563164882E+01  0.66244693247E+02 -0.13516139074E+02  0.68252075603E+02  0.41800000000E+01 0. -1.
        -11    1    4    4    0    0 -0.50891153213E+01 -0.32850317364E+02  0.15623665370E+01  0.33278873702E+02  0.00000000000E+00 0. -1.
         11    1    4    4    0    0  0.45268981097E+02 -0.11747235372E+02  0.12087204515E+03  0.12960451183E+03  0.00000000000E+00 0.  1.
</event>
<event>
 8    1  0.6185113E-009  0.3455014E+03  0.7561462E-02  0.1064477E+00
          1   -1    0    0  501    0  0.00000000000E+00  0.00000000000E+00  0.80025140209E+03  0.80025140209E+03  0.00000000000E+00 0. -1.
         -1   -1    0    0    0  501 -0.00000000000E+00 -0.00000000000E+00 -0.20017186887E+03  0.20017186887E+03  0.00000000000E+00 0.  1.
         25    2    1    2    0    0  0.17900432236E+03 -0.28154057654E+03  0.64080905140E+02  0.36202407835E+03  0.12508967678E+03 0.  0.
         23    2    1    2    0    0 -0.17900432236E+03  0.28154057654E+03  0.53599862807E+03  0.63839919261E+03  0.94611606954E+02 0.  0.
          5    1    3    3  502    0  0.10959990959E+03 -0.74349264527E+02  0.54477970513E+02  0.14326644754E+03  0.41800000000E+01 0.  1.
         -5    1    3    3    0  502  0.69404412771E+02 -0.20719131201E+03  0.96029346263E+01  0.21875763081E+03  0.41800000000E+01 0.  1.
        -11    1    4    4    0    0 -0.94217074651E+02  0.20546836873E+03  0.29328461624E+03  0.37028363970E+03  0.00000000000E+00 0.  1.
         11    1    4    4    0    0 -0.84787247713E+02  0.76072207807E+02  0.24271401183E+03  0.26811555291E+03  0.00000000000E+00 0. -1.
</event>
<event>
 8    1  0.6185113E-009  0.1278538E+03  0.7561462E-02  0.1230676E+00
          1   -1    0    0  501    0  0.00000000000E+00  0.00000000000E+00  0.40155816137E+03  0.40155816137E+03  0.00000000000E+00 0. -1.
         -1   -1    0    0    0  501 -0.00000000000E+00 -0.00000000000E+00 -0.45789607641E+02  0.45789607641E+02  0.00000000000E+00 0.  1.
         25    2    1    2    0    0 -0.65077910913E+02  0.37636851154E+02  0.20844050052E+03  0.25445196728E+03  0.12508674726E+03 0.  0.
         23    2    1    2    0    0  0.65077910913E+02 -0.37636851154E+02  0.14732805321E+03  0.19289580174E+03  0.99255065416E+02 0.  0.
          5    1    3    3  502    0  0.37542449051E+02  0.61084504178E+01  0.61307966566E+02  0.72269549685E+02  0.41800000000E+01 0.  1.
         -5    1    3    3    0  502 -0.10262035996E+03  0.31528400736E+02  0.14713253395E+03  0.18218241759E+03  0.41800000000E+01 0.  1.
        -11    1    4    4    0    0 -0.16448705563E+02  0.60335828088E+01  0.70551975107E+02  0.72694877589E+02  0.00000000000E+00 0. -1.
         11    1    4    4    0    0  0.81526616477E+02 -0.43670433962E+02  0.76776078105E+02  0.12020092415E+03  0.00000000000E+00 0.  1.
</event>
<event>
 8    1  0.6185113E-009  0.1349365E+03  0.7561462E-02  0.1220309E+00
         -2   -1    0    0    0  501 -0.00000000000E+00  0.00000000000E+00  0.30377874793E+02  0.30377874793E+02  0.00000000000E+00 0. -1.
          2   -1    0    0  501    0  0.00000000000E+00 -0.00000000000E+00 -0.89944220627E+03  0.89944220627E+03  0.00000000000E+00 0.  1.
         25    2    1    2    0    0 -0.12277582673E+03 -0.23139077975E+01 -0.55260376454E+03  0.57973867713E+03  0.12508699126E+03 0.  0.
         23    2    1    2    0    0  0.12277582673E+03  0.23139077975E+01 -0.31646056694E+03  0.35008140394E+03  0.85617995504E+02 0.  0.
          5    1    3    3  502    0 -0.45054210908E+02  0.21533794776E+02 -0.42784968780E+03  0.43077420302E+03  0.41800000000E+01 0. -1.
         -5    1    3    3    0  502 -0.77721615822E+02 -0.23847702573E+02 -0.12475407674E+03  0.14896447411E+03  0.41800000000E+01 0. -1.
        -11    1    4    4    0    0  0.45653325632E+02 -0.30117987258E+02 -0.19549785137E+03  0.20300425904E+03  0.00000000000E+00 0.  1.
         11    1    4    4    0    0  0.77122501097E+02  0.32431895055E+02 -0.12096271557E+03  0.14707714490E+03  0.00000000000E+00 0. -1.
</event>
<event>
 8    1  0.6185113E-009  0.8867257E+02  0.7561462E-02  0.1306098E+00
          2   -1    0    0  501    0  0.00000000000E+00  0.00000000000E+00  0.80386059890E+03  0.80386059890E+03  0.00000000000E+00 0. -1.
         -2   -1    0    0    0  501 -0.00000000000E+00 -0.00000000000E+00 -0.16204105055E+02  0.16204105055E+02  0.00000000000E+00 0.  1.
         25    2    1    2    0    0 -0.23683456923E+02 -0.18175055061E+02  0.37468867131E+03  0.39614433151E+03  0.12508993653E+03 0.  0.
         23    2    1    2    0    0  0.23683456923E+02  0.18175055061E+02  0.41296782253E+03  0.42392037244E+03  0.90966042931E+02 0.  0.
          5    1    3    3  502    0 -0.42022208588E+02  0.14867556585E+02  0.34503301233E+03  0.34792551250E+03  0.41800000000E+01 0.  1.
         -5    1    3    3    0  502  0.18338751664E+02 -0.33042611647E+02  0.29655658986E+02  0.48218819012E+02  0.41800000000E+01 0.  1.
        -11    1    4    4    0    0 -0.86962699198E+01 -0.32927526664E+02  0.18212723124E+03  0.18528404001E+03  0.00000000000E+00 0.  1.
         11    1    4    4    0    0  0.32379726843E+02  0.51102581725E+02  0.23084059129E+03  0.23863633243E+03  0.00000000000E+00 0. -1.
</event>
<event>
 8    1  0.6185113E-009  0.1410603E+03  0.7561462E-02  0.1211909E+00
         -2   -1    0    0    0  501 -0.00000000000E+00  0.00000000000E+00  0.64196468063E+02  0.64196468063E+02  0.00000000000E+00 0.  1.
          2   -1    0    0  501    0  0.00000000000E+00 -0.00000000000E+00 -0.42754808566E+03  0.42754808566E+03  0.00000000000E+00 0. -1.
         25    2    1    2    0    0  0.24879933426E+02 -0.10503624084E+03 -0.10237926079E+03  0.19437762635E+03  0.12509806396E+03 0.  0.
         23    2    1    2    0    0 -0.24879933426E+02  0.10503624084E+03 -0.26097235681E+03  0.29736692738E+03  0.93106903632E+02 0.  0.
          5    1    3    3  502    0 -0.44791868280E+02 -0.67480580189E+02 -0.75163856975E+02  0.11057584710E+03  0.41800000000E+01 0.  1.
         -5    1    3    3    0  502  0.69671801705E+02 -0.37555660650E+02 -0.27215403816E+02  0.83801779245E+02  0.41800000000E+01 0.  1.
        -11    1    4    4    0    0  0.15254508627E+02  0.57784060542E+02 -0.20604897644E+03  0.21454108786E+03  0.00000000000E+00 0.  1.
         11    1    4    4    0    0 -0.40134442053E+02  0.47252180297E+02 -0.54923380367E+02  0.82825839523E+02  0.00000000000E+00 0. -1.
</event>
<event>
 8    1  0.6185113E-009  0.9163804E+02  0.7561462E-02  0.1298933E+00
          1   -1    0    0  501    0  0.00000000000E+00  0.00000000000E+00  0.18106569782E+03  0.18106569782E+03  0.00000000000E+00 0. -1.
         -1   -1    0    0    0  501 -0.00000000000E+00 -0.00000000000E+00 -0.18606036972E+03  0.18606036972E+03  0.00000000000E+00 0.  1.
         25    2    1    2    0    0 -0.40845469394E+02  0.47864346909E+02 -0.13556393221E+03  0.19489706102E+03  0.12509171277E+03 0.  0.
         23    2    1    2    0    0  0.40845469394E+02 -0.47864346909E+02  0.13056926031E+03  0.17222900651E+03  0.93033063318E+02 0.  0.
          5    1    3    3  502    0 -0.37921027056E+02  0.74172243414E+02 -0.34365799760E+02  0.90210900556E+02  0.41800000000E+01 0.  1.
         -5    1    3    3    0  502 -0.29244423381E+01 -0.26307896505E+02 -0.10119813245E+03  0.10468616047E+03  0.41800000000E+01 0.  1.
        -11    1    4    4    0    0 -0.29747861944E+01 -0.21969577952E+02  0.11764310099E+03  0.11971387104E+03  0.00000000000E+00 0. -1.
         11    1    4    4    0    0  0.43820255588E+02 -0.25894768957E+02  0.12926159326E+02  0.52515135476E+02  0.00000000000E+00 0.  1.
</event>
<event>
 8    1  0.6185113E-009  0.1159818E+03  0.7561462E-02  0.1249877E+00
         -1   -1    0    0    0  501 -0.00000000000E+00  0.00000000000E+00  0.24250608607E+02  0.24250608607E+02  0.00000000000E+00 0.  1.
          1   -1    0    0  501    0  0.00000000000E+00 -0.00000000000E+00 -0.98634093473E+03  0.98634093473E+03  0.00000000000E+00 0. -1.
         25    2    1    2    0    0 -0.54047613532E+02  0.60474625160E+02 -0.77670991073E+03  0.79088869746E+03  0.12509325137E+03 0.  0.
         23    2    1    2    0    0  0.54047613532E+02 -0.60474625160E+02 -0.18538041540E+03  0.21970284588E+03  0.85586898856E+02 0.  0.
          5    1    3    3  502    0  0.18657570447E+02 -0.25243616431E+02 -0.99981188849E+02  0.10487638261E+03  0.41800000000E+01 0. -1.
         -5    1    3    3    0  502 -0.72705183979E+02  0.85718241591E+02 -0.67672872188E+03  0.68601231485E+03  0.41800000000E+01 0. -1.
        -11    1    4    4    0    0  0.28976507872E+02 -0.54986409903E+02 -0.18376017849E+03  0.19398697503E+03  0.00000000000E+00 0. -1.
         11    1    4    4    0    0  0.25071105660E+02 -0.54882152578E+01 -0.16202369089E+01  0.25715870846E+02  0.00000000000E+00 0.  1.
</event>
<event>
 8    1  0.6185113E-009  0.1395063E+03  0.7561462E-02  0.1213995E+00
         -1   -1    0    0    0  501 -0.00000000000E+00  0.00000000000E+00  0.45927617785E+02  0.45927617785E+02  0.00000000000E+00 0.  1.
          1   -1    0    0  501    0  0.00000000000E+00 -0.00000000000E+00 -0.43817809236E+03  0.43817809236E+03  0.00000000000E+00 0. -1.
         25    2    1    2    0    0  0.43881135757E+02  0.80873887351E+02 -0.22513581374E+03  0.27349359643E+03  0.12508586224E+03 0.  0.
         23    2    1    2    0    0 -0.43881135757E+02 -0.80873887351E+02 -0.16711466083E+03  0.21061211371E+03  0.89241318039E+02 0.  0.
          5    1    3    3  502    0  0.82251168215E+02  0.23136775296E+02 -0.11595165336E+03  0.14409310657E+03  0.41800000000E+01 0. -1.
         -5    1    3    3    0  502 -0.38370032458E+02  0.57737112054E+02 -0.10918416038E+03  0.12940048986E+03  0.41800000000E+01 0. -1.
        -11    1    4    4    0    0 -0.67845922435E+02 -0.70683201404E+02 -0.15095955286E+03  0.17996658232E+03  0.00000000000E+00 0. -1.
         11    1    4    4    0    0  0.23964786678E+02 -0.10190685947E+02 -0.16155107973E+02  0.30645531391E+02  0.00000000000E+00 0.  1.
</event>
<event>
 8    1  0.6185113E-009  0.1696401E+03  0.7561462E-02  0.1178224E+00
          1   -1    0    0  501    0  0.00000000000E+00  0.00000000000E+00  0.19583418046E+03  0.19583418046E+03  0.00000000000E+00 0. -1.
         -1   -1    0    0    0  501 -0.00000000000E+00 -0.00000000000E+00 -0.20459421734E+03  0.20459421734E+03  0.00000000000E+00 0.  1.
         25    2    1    2    0    0  0.97319154564E+02  0.13452456126E+03  0.19023080655E+02  0.20875037018E+03  0.12508782525E+03 0.  0.
         23    2    1    2    0    0 -0.97319154564E+02 -0.13452456126E+03 -0.27783117534E+02  0.19167802762E+03  0.91655273845E+02 0.  0.
          5    1    3    3  502    0 -0.35190671783E+01  0.67112800294E+01 -0.35864377299E+02  0.36893780945E+02  0.41800000000E+01 0.  1.
         -5    1    3    3    0  502  0.10083822174E+03  0.12781328123E+03  0.54887457954E+02  0.17185658924E+03  0.41800000000E+01 0.  1.
        -11    1    4    4    0    0 -0.20686306523E+02 -0.47527651834E+02 -0.51800432880E+02  0.73280869352E+02  0.00000000000E+00 0.  1.
         11    1    4    4    0    0 -0.76632848042E+02 -0.86996909427E+02  0.24017315345E+02  0.11839715826E+03  0.00000000000E+00 0. -1.
</event>
<event>
 8    1  0.6185113E-009  0.3027495E+03  0.7561462E-02  0.1083874E+00
          1   -1    0    0  501    0  0.00000000000E+00  0.00000000000E+00  0.64498980103E+03  0.64498980103E+03  0.00000000000E+00 0. -1.
         -1   -1    0    0    0  501 -0.00000000000E+00 -0.00000000000E+00 -0.16049904849E+03  0.16049904849E+03  0.00000000000E+00 0.  1.
         25    2    1    2    0    0  0.28187270656E+03  0.67191256490E+02  0.13756948721E+03  0.34430527058E+03  0.12511541828E+03 0.  0.
         23    2    1    2    0    0 -0.28187270656E+03 -0.67191256490E+02  0.34692126533E+03  0.46118357894E+03  0.91482465514E+02 0.  0.
          5    1    3    3  502    0  0.78535934079E+02 -0.33675715913E+02  0.16892750567E+02  0.87205413855E+02  0.41800000000E+01 0. -1.
         -5    1    3    3    0  502  0.20333677248E+03  0.10086697240E+03  0.12067673664E+03  0.25709985673E+03  0.41800000000E+01 0. -1.
        -11    1    4    4    0    0 -0.22850400433E+03 -0.36613279649E+02  0.21612117807E+03  0.31664329434E+03  0.00000000000E+00 0.  1.
         11    1    4    4    0    0 -0.53368702228E+02 -0.30577976841E+02  0.13080008726E+03  0.14454028460E+03  0.00000000000E+00 0. -1.
</event>
<event>
 8    1  0.6185113E-009  0.1581071E+03  0.7561462E-02  0.1190851E+00
         -2   -1    0    0    0  501 -0.00000000000E+00  0.00000000000E+00  0.28422368830E+02  0.28422368830E+02  0.00000000000E+00 0. -1.
          2   -1    0    0  501    0  0.00000000000E+00 -0.00000000000E+00 -0.10713308382E+04  0.10713308382E+04  0.00000000000E+00 0.  1.
         25    2    1    2    0    0  0.12044489721E+03  0.62219560214E+02 -0.48599811833E+03  0.51982597194E+03  0.12508646268E+03 0.  0.
         23    2    1    2    0    0 -0.12044489721E+03 -0.62219560214E+02 -0.55691035108E+03  0.57992723513E+03  0.88250846841E+02 0.  0.
          5    1    3    3  502    0 -0.14660547667E+02 -0.40144165471E+01 -0.15976236517E+03  0.16053826000E+03  0.41800000000E+01 0. -1.
         -5    1    3    3    0  502  0.13510544488E+03  0.66233976761E+02 -0.32623575316E+03  0.35928771194E+03  0.41800000000E+01 0. -1.
        -11    1    4    4    0    0 -0.24260550398E+02 -0.46521547566E+02 -0.31125749067E+03  0.31564862457E+03  0.00000000000E+00 0.  1.
         11    1    4    4    0    0 -0.96184346812E+02 -0.15698012648E+02 -0.24565286041E+03  0.26427861056E+03  0.00000000000E+00 0. -1.
</event>
<event>
 8    1  0.6185113E-009  0.7016877E+02  0.7561462E-02  0.1359520E+00
         -1   -1    0    0    0  501 -0.00000000000E+00  0.00000000000E+00  0.40984627336E+03  0.40984627336E+03  0.00000000000E+00 0.  1.
          1   -1    0    0  501    0  0.00000000000E+00 -0.00000000000E+00 -0.40389807117E+02  0.40389807117E+02  0.00000000000E+00 0. -1.
         25    2    1    2    0    0 -0.23370791484E+02  0.59274129791E+02  0.25275096060E+03  0.28911794859E+03  0.12508606539E+03 0.  0.
         23    2    1    2    0    0  0.23370791484E+02 -0.59274129791E+02  0.11670550565E+03  0.16111813189E+03  0.90990444658E+02 0.  0.
          5    1    3    3  502    0 -0.17358927436E+02  0.56457194278E+02  0.26665656242E+03  0.27315186587E+03  0.41800000000E+01 0.  1.
         -5    1    3    3    0  502 -0.60118640482E+01  0.28169355130E+01 -0.13905601826E+02  0.15966082712E+02  0.41800000000E+01 0.  1.
        -11    1    4    4    0    0  0.19061990554E+02 -0.62216522882E+01 -0.10924037988E+02  0.22834251620E+02  0.00000000000E+00 0. -1.
         11    1    4    4    0    0  0.43088009301E+01 -0.53052477503E+02  0.12762954364E+03  0.13828388027E+03  0.00000000000E+00 0.  1.
</event>
<event>
 8    1  0.6185113E-009  0.8259878E+02  0.7561462E-02  0.1321834E+00
         -3   -1    0    0    0  501 -0.00000000000E+00  0.00000000000E+00  0.52058966350E+02  0.52058966350E+02  0.00000000000E+00 0.  1.
          3   -1    0    0  501    0  0.00000000000E+00 -0.00000000000E+00 -0.28579185122E+03  0.28579185122E+03  0.00000000000E+00 0. -1.
         25    2    1    2    0    0  0.37113868742E+02  0.21780893173E+02 -0.81261955680E+02  0.15525162048E+03  0.12509082164E+03 0.  0.
         23    2    1    2    0    0 -0.37113868742E+02 -0.21780893173E+02 -0.15247092919E+03  0.18259919709E+03  0.90792268230E+02 0.  0.
          5    1    3    3  502    0  0.30592468271E+02 -0.34426694191E+02  0.10446945805E+02  0.47409993297E+02  0.41800000000E+01 0.  1.
         -5    1    3    3    0  502  0.65214004713E+01  0.56207587364E+02 -0.91708901485E+02  0.10784162718E+03  0.41800000000E+01 0.  1.
        -11    1    4    4    0    0 -0.25831839243E+02 -0.35845562494E+02 -0.15774274281E+03  0.16381380033E+03  0.00000000000E+00 0. -1.
         11    1    4    4    0    0 -0.11282029499E+02  0.14064669321E+02  0.52718136198E+01  0.18785396763E+02  0.00000000000E+00 0.  1.
</event>
<event>
 8    1  0.6185113E-009  0.9263550E+02  0.7561462E-02  0.1296592E+00
          2   -1    0    0  501    0  0.00000000000E+00  0.00000000000E+00  0.11607131150E+03  0.11607131150E+03  0.00000000000E+00 0. -1.
         -2   -1    0    0    0  501 -0.00000000000E+00 -0.00000000000E+00 -0.10392126884E+03  0.10392126884E+03  0.00000000000E+00 0.  1.
         25    2    1    2    0    0  0.11014557108E+02  0.94240509998E+01  0.10688255733E+02  0.12637897664E+03  0.12508906315E+03 0.  0.
         23    2    1    2    0    0 -0.11014557108E+02 -0.94240509998E+01  0.14617869260E+01  0.93613603698E+02  0.92472897493E+02 0.  0.
          5    1    3    3  502    0  0.11298268315E+02  0.54589762814E+02 -0.31726177902E+02  0.64278424338E+02  0.41800000000E+01 0.  1.
         -5    1    3    3    0  502 -0.28371120720E+00 -0.45165711815E+02  0.42414433636E+02  0.62100552303E+02  0.41800000000E+01 0.  1.
        -11    1    4    4    0    0 -0.45428363410E+02 -0.17460830215E+02  0.21256173550E+02  0.53107830947E+02  0.00000000000E+00 0. -1.
         11    1    4    4    0    0  0.34413806302E+02  0.80367792149E+01 -0.19794386624E+02  0.40505772751E+02  0.00000000000E+00 0.  1.
</event>
<event>
 8    1  0.6185113E-009  0.1666977E+03  0.7561462E-02  0.1181336E+00
          1   -1    0    0  501    0  0.00000000000E+00  0.00000000000E+00  0.65790727651E+02  0.65790727651E+02  0.00000000000E+00 0. -1.
         -1   -1    0    0    0  501 -0.00000000000E+00 -0.00000000000E+00 -0.51130322032E+03  0.51130322032E+03  0.00000000000E+00 0.  1.
         25    2    1    2    0    0 -0.89495379173E+02 -0.10788763046E+03 -0.15892532899E+03  0.24607749948E+03  0.12509081443E+03 0.  0.
         23    2    1    2    0    0  0.89495379173E+02  0.10788763046E+03 -0.28658716368E+03  0.33101644849E+03  0.88263939892E+02 0.  0.
          5    1    3    3  502    0 -0.88920746356E+02 -0.35431222746E+02 -0.14241469550E+03  0.17164407526E+03  0.41800000000E+01 0.  1.
         -5    1    3    3    0  502 -0.57463281633E+00 -0.72456407717E+02 -0.16510633485E+02  0.74433424214E+02  0.41800000000E+01 0.  1.
        -11    1    4    4    0    0  0.10633100338E+03  0.82683436599E+02 -0.22191879825E+03  0.25959735358E+03  0.00000000000E+00 0.  1.
         11    1    4    4    0    0 -0.16835624209E+02  0.25204193864E+02 -0.64668365427E+02  0.71419094910E+02  0.00000000000E+00 0. -1.
</event>
<event>
 7    1  0.6185113E-009  0.2777827E+03  0.7561462E-02  0.1096906E+00
          1   -1    0    0  501    0  0.00000000000E+00  0.00000000000E+00  0.83245656236E+02  0.83245656236E+02  0.00000000000E+00 0. -1.
         -1   -1    0    0    0  501 -0.00000000000E+00 -0.00000000000E+00 -0.98955811104E+03  0.98955811104E+03  0.00000000000E+00 0.  1.
         25    2    1    2    0    0  0.58111575452E+01  0.25388265916E+03 -0.43363387435E+03  0.51785760474E+03  0.12509191671E+03 0.  0.
          5    1    3    3  502    0 -0.51393641087E+02  0.15025729993E+03 -0.29869906947E+03  0.33831519184E+03  0.41800000000E+01 0.  1.
         -5    1    3    3    0  502  0.57204798632E+02  0.10362535922E+03 -0.13493480488E+03  0.17954241290E+03  0.41800000000E+01 0.  1.
        -11    1    1    2    0    0 -0.21240760983E+02  0.25293535787E+01 -0.10034418928E+03  0.10259884930E+03  0.00000000000E+00 0. -1.
         11    1    1    2    0    0  0.15429603438E+02 -0.25641201274E+03 -0.37233439118E+03  0.45234731324E+03  0.00000000000E+00 0.  1.
</event>
<event>
 8    1  0.6185113E-009  0.1084586E+03  0.7561462E-02  0.1263451E+00
         -2   -1    0    0    0  501 -0.00000000000E+00  0.00000000000E+00  0.10558548653E+03  0.10558548653E+03  0.00000000000E+00 0.  1.
          2   -1    0    0  501    0  0.00000000000E+00 -0.00000000000E+00 -0.20634650715E+03  0.20634650715E+03  0.00000000000E+00 0. -1.
         25    2    1    2    0    0  0.25514553646E+02 -0.82683995616E+02 -0.23835311172E+01  0.15212093354E+03  0.12508981422E+03 0.  0.
         23    2    1    2    0    0 -0.25514553646E+02  0.82683995616E+02 -0.98377489509E+02  0.15981106014E+03  0.91508518305E+02 0.  0.
          5    1    3    3  502    0  0.62891776553E+02 -0.48345286518E+02  0.37106987686E+02  0.87675784693E+02  0.41800000000E+01 0.  1.
         -5    1    3    3    0  502 -0.37377222907E+02 -0.34338709098E+02 -0.39490518803E+02  0.64445148848E+02  0.41800000000E+01 0.  1.
        -11    1    4    4    0    0 -0.15247103524E+02  0.46142250745E+02 -0.10988256580E+03  0.12014890651E+03  0.00000000000E+00 0. -1.
         11    1    4    4    0    0 -0.10267450122E+02  0.36541744871E+02  0.11505076287E+02  0.39662153630E+02  0.00000000000E+00 0.  1.
</event>
<event>
 8    1  0.6185113E-009  0.1142452E+03  0.7561462E-02  0.1252904E+00
         -2   -1    0    0    0  501 -0.00000000000E+00  0.00000000000E+00  0.12803575908E+03  0.12803575908E+03  0.00000000000E+00 0.  1.
          2   -1    0    0  501    0  0.00000000000E+00 -0.00000000000E+00 -0.15678670642E+03  0.15678670642E+03  0.00000000000E+00 0. -1.
         25    2    1    2    0    0  0.37915428994E+02 -0.73321604673E+02 -0.51870935169E+02  0.15860982618E+03  0.12511133273E+03 0.  0.
         23    2    1    2    0    0 -0.37915428994E+02  0.73321604673E+02  0.23119987823E+02  0.12621263932E+03  0.92636164749E+02 0.  0.
          5    1    3    3  502    0 -0.11298443916E+02 -0.64656997327E+02  0.21978219934E+02  0.69344766852E+02  0.41800000000E+01 0.  1.
         -5    1    3    3    0  502  0.49213872910E+02 -0.86646073460E+01 -0.73849155103E+02  0.89265059328E+02  0.41800000000E+01 0.  1.
        -11    1    4    4    0    0 -0.18995270762E+02  0.87114476116E+02 -0.53855309254E+01  0.89323883725E+02  0.00000000000E+00 0. -1.
         11    1    4    4    0    0 -0.18920158232E+02 -0.13792871444E+02  0.28505518748E+02  0.36888755594E+02  0.00000000000E+00 0.  1.
</event>
<event>
 8    1  0.6185113E-009  0.1176971E+03  0.7561462E-02  0.1246945E+00
          1   -1    0    0  501    0  0.00000000000E+00  0.00000000000E+00  0.84040644243E+02  0.84040644243E+02  0.00000000000E+00 0. -1.
         -1   -1    0    0    0  501 -0.00000000000E+00 -0.00000000000E+00 -0.26285444494E+03  0.26285444494E+03  0.00000000000E+00 0.  1.
         25    2    1    2    0    0  0.30537066072E+02 -0.96000096916E+02 -0.10322986032E+03  0.19092289080E+03  0.12508643075E+03 0.  0.
         23    2    1    2    0    0 -0.30537066072E+02  0.96000096916E+02 -0.75583940378E+02  0.15597219838E+03  0.92010127773E+02 0.  0.
          5    1    3    3  502    0  0.46890152042E+02 -0.14120515690E+02 -0.94945664567E+02  0.10691223944E+03  0.41800000000E+01 0.  1.
         -5    1    3    3    0  502 -0.16353085971E+02 -0.81879581226E+02 -0.82841957488E+01  0.84010651359E+02  0.41800000000E+01 0.  1.
        -11    1    4    4    0    0 -0.10488897915E+02  0.64209502766E+02  0.68050572459E+01  0.65415487685E+02  0.00000000000E+00 0. -1.
         11    1    4    4    0    0 -0.20048168157E+02  0.31790594150E+02 -0.82388997624E+02  0.90556710697E+02  0.00000000000E+00 0.  1.
</event>
<event>
 8    1  0.6185113E-009  0.1196307E+03  0.7561462E-02  0.1243707E+00
         -2   -1    0    0    0  501 -0.00000000000E+00  0.00000000000E+00  0.74124606349E+02  0.74124606349E+02  0.00000000000E+00 0.  1.
          2   -1    0    0  501    0  0.00000000000E+00 -0.00000000000E+00 -0.28291935990E+03  0.28291935990E+03  0.00000000000E+00 0. -1.
         25    2    1    2    0    0  0.52773956860E+02  0.58648630785E+02 -0.52151650073E+02  0.15682082902E+03  0.12509286707E+03 0.  0.
         23    2    1    2    0    0 -0.52773956860E+02 -0.58648630785E+02 -0.15664310348E+03  0.20022313724E+03  0.96578933526E+02 0.  0.
          5    1    3    3  502    0  0.47809340914E+02 -0.25999994466E+02 -0.46554797480E+02  0.71739489539E+02  0.41800000000E+01 0.  1.
         -5    1    3    3    0  502  0.49646159458E+01  0.84648625250E+02 -0.55968525934E+01  0.85081339477E+02  0.41800000000E+01 0.  1.
        -11    1    4    4    0    0  0.13902432516E+02 -0.12475607178E+02  0.50326591460E+01  0.19345440352E+02  0.00000000000E+00 0.  1.
         11    1    4    4    0    0 -0.66676389376E+02 -0.46173023607E+02 -0.16167576263E+03  0.18087769688E+03  0.00000000000E+00 0. -1.
</event>
<event>
 8    1  0.6185113E-009  0.1596770E+03  0.7561462E-02  0.1189062E+00
         -1   -1    0    0    0  501 -0.00000000000E+00  0.00000000000E+00  0.17012475637E+02  0.17012475637E+02  0.00000000000E+00 0.  1.
          1   -1    0    0  501    0  0.00000000000E+00 -0.00000000000E+00 -0.21813246406E+04  0.21813246406E+04  0.00000000000E+00 0. -1.
         25    2    1    2    0    0 -0.13831917215E+03 -0.66150076503E+02 -0.13758515052E+04  0.13900078344E+04  0.12508552813E+03 0.  0.
         23    2    1    2    0    0  0.13831917215E+03  0.66150076503E+02 -0.78846065981E+03  0.80832928188E+03  0.90653129389E+02 0.  0.
          5    1    3    3  502    0 -0.61518521864E+01 -0.11682777417E+02 -0.65290809121E+03  0.65305495982E+03  0.41800000000E+01 0.  1.
         -5    1    3    3    0  502 -0.13216731996E+03 -0.54467299086E+02 -0.72294341397E+03  0.73695287457E+03  0.41800000000E+01 0.  1.
        -11    1    4    4    0    0  0.12955958560E+03  0.41048592232E+02 -0.74565546249E+03  0.75793980096E+03  0.00000000000E+00 0. -1.
         11    1    4    4    0    0  0.87595865512E+01  0.25101484271E+02 -0.42805197321E+02  0.50389480914E+02  0.00000000000E+00 0.  1.
</event>
<event>
 8    1  0.6185113E-009  0.1887310E+03  0.7561462E-02  0.1159611E+00
          1   -1    0    0  501    0  0.00000000000E+00  0.00000000000E+00  0.14858675852E+04  0.14858675852E+04  0.00000000000E+00 0. -1.
         -1   -1    0    0    0  501 -0.00000000000E+00 -0.00000000000E+00 -0.28266593728E+02  0.28266593728E+02  0.00000000000E+00 0.  1.
         25    2    1    2    0    0 -0.16089165668E+03 -0.19038810143E+02  0.99181029370E+03  0.10127106780E+04  0.12508659878E+03 0.  0.
         23    2    1    2    0    0  0.16089165668E+03  0.19038810143E+02  0.46579069778E+03  0.50142350092E+03  0.90641886888E+02 0.  0.
          5    1    3    3  502    0 -0.10734503486E+03 -0.61215073368E+02  0.45229919431E+03  0.46889473796E+03  0.41800000000E+01 0. -1.
         -5    1    3    3    0  502 -0.53546621815E+02  0.42176263225E+02  0.53951109939E+03  0.54381594005E+03  0.41800000000E+01 0. -1.
        -11    1    4    4    0    0  0.12541130231E+03 -0.26116018790E+02  0.31323600937E+03  0.33841814188E+03  0.00000000000E+00 0. -1.
         11    1    4    4    0    0  0.35480354365E+02  0.45154828933E+02  0.15255468841E+03  0.16300535905E+03  0.00000000000E+00 0.  1.
</event>
<event>
 8    1  0.6185113E-009  0.2000527E+03  0.7561462E-02  0.1149695E+00
          2   -1    0    0  501    0  0.00000000000E+00  0.00000000000E+00  0.18039867785E+04  0.18039867785E+04  0.00000000000E+00 0. -1.
         -2   -1    0    0    0  501 -0.00000000000E+00 -0.00000000000E+00 -0.31958751120E+02  0.31958751120E+02  0.00000000000E+00 0.  1.
         25    2    1    2    0    0 -0.14991854387E+01  0.17505081335E+03  0.13803140342E+04  0.13969843839E+04  0.12511395217E+03 0.  0.
         23    2    1    2    0    0  0.14991854387E+01 -0.17505081335E+03  0.39171399312E+03  0.43896114566E+03  0.92746968608E+02 0.  0.
          5    1    3    3  502    0  0.47408004662E+02  0.45262488490E+02  0.26254794459E+03  0.27063833317E+03  0.41800000000E+01 0.  1.
         -5    1    3    3    0  502 -0.48907190100E+02  0.12978832486E+03  0.11177660896E+04  0.11263460507E+04  0.41800000000E+01 0.  1.
        -11    1    4    4    0    0  0.42280153568E+02 -0.58442246210E+02  0.11248715771E+03  0.13362809652E+03  0.00000000000E+00 0. -1.
         11    1    4    4    0    0 -0.40780968129E+02 -0.11660856714E+03  0.27922683541E+03  0.30533304915E+03  0.00000000000E+00 0.  1.
</event>
<event>
 8    1  0.6185113E-009  0.8758177E+02  0.7561462E-02  0.1308816E+00
          1   -1    0    0  501    0  0.00000000000E+00  0.00000000000E+00  0.26261667777E+03  0.26261667777E+03  0.00000000000E+00 0. -1.
         -1   -1    0    0    0  501 -0.00000000000E+00 -0.00000000000E+00 -0.70432126013E+02  0.70432126013E+02  0.00000000000E+00 0.  1.
         25    2    1    2    0    0  0.53571630550E+01 -0.29169254839E+02  0.11515768002E+02  0.12907444602E+03  0.12509218632E+03 0.  0.
         23    2    1    2    0    0 -0.53571630550E+01  0.29169254839E+02  0.18066878376E+03  0.20397435776E+03  0.89915430142E+02 0.  0.
          5    1    3    3  502    0  0.39833958948E+02 -0.38578115517E+02 -0.38372550826E+02  0.67564342217E+02  0.41800000000E+01 0.  1.
         -5    1    3    3    0  502 -0.34476795893E+02  0.94088606777E+01  0.49888318829E+02  0.61510103803E+02  0.41800000000E+01 0.  1.
        -11    1    4    4    0    0 -0.39169322473E+02  0.39118004716E+00  0.38071799215E+02  0.54624634921E+02  0.00000000000E+00 0.  1.
         11    1    4    4    0    0  0.33812159418E+02  0.28778074792E+02  0.14259698454E+03  0.14934972284E+03  0.00000000000E+00 0. -1.
</event>
<event>
 8    1  0.6185113E-009  0.9807496E+02  0.7561462E-02  0.1284397E+00
         -1   -1    0    0    0  501 -0.00000000000E+00  0.00000000000E+00  0.31893395739E+02  0.31893395739E+02  0.00000000000E+00 0.  1.
          1   -1    0    0  501    0  0.00000000000E+00 -0.00000000000E+00 -0.51152832488E+03  0.51152832488E+03  0.00000000000E+00 0. -1.
         25    2    1    2    0    0 -0.30948756970E+02 -0.60862896966E+02 -0.28562835790E+03  0.31920863398E+03  0.12509386630E+03 0.  0.
         23    2    1    2    0    0  0.30948756970E+02  0.60862896966E+02 -0.19400657124E+03  0.22421308664E+03  0.89279565133E+02 0.  0.
          5    1    3    3  502    0 -0.50524124791E+02  0.17913551028E+01 -0.22190197436E+03  0.22762656867E+03  0.41800000000E+01 0. -1.
         -5    1    3    3    0  502  0.19575367821E+02 -0.62654252068E+02 -0.63726383535E+02  0.91582065308E+02  0.41800000000E+01 0. -1.
        -11    1    4    4    0    0  0.20602850347E+02  0.29443494737E+01  0.68733990766E+00  0.20823522094E+02  0.00000000000E+00 0.  1.
         11    1    4    4    0    0  0.10345906623E+02  0.57918547492E+02 -0.19469391115E+03  0.20338956455E+03  0.00000000000E+00 0. -1.
</event>
<event>
 8    1  0.6185113E-009  0.1125343E+03  0.7561462E-02  0.1255947E+00
         -2   -1    0    0    0  501 -0.00000000000E+00  0.00000000000E+00  0.31167798712E+02  0.31167798712E+02  0.00000000000E+00 0.  1.
          2   -1    0    0  501    0  0.00000000000E+00 -0.00000000000E+00 -0.61497247977E+03  0.61497247977E+03  0.00000000000E+00 0. -1.
         25    2    1    2    0    0 -0.62019745935E+00 -0.72962622571E+02 -0.21441379529E+03  0.25873692390E+03  0.12509033233E+03 0.  0.
         23    2    1    2    0    0  0.62019745935E+00  0.72962622571E+02 -0.36939088577E+03  0.38740335459E+03  0.91147154184E+02 0.  0.
          5    1    3    3  502    0  0.39795896660E+02 -0.43091724321E+02 -0.27093052014E+02  0.64746551748E+02  0.41800000000E+01 0. -1.
         -5    1    3    3    0  502 -0.40416094119E+02 -0.29870898250E+02 -0.18732074328E+03  0.19399037215E+03  0.41800000000E+01 0. -1.
        -11    1    4    4    0    0  0.31735444493E+02 -0.47812931207E+01 -0.12543183864E+03  0.12947256599E+03  0.00000000000E+00 0.  1.
         11    1    4    4    0    0 -0.31115247034E+02  0.77743915692E+02 -0.24395904713E+03  0.25793078859E+03  0.00000000000E+00 0. -1.
</event>
<event>
 8    1  0.6185113E-009  0.1414774E+03  0.7561462E-02  0.1211355E+00
         -1   -1    0    0    0  501 -0.00000000000E+00  0.00000000000E+00  0.63020927853E+02  0.63020927853E+02  0.00000000000E+00 0.  1.
          1   -1    0    0  501    0  0.00000000000E+00 -0.00000000000E+00 -0.53731657307E+03  0.53731657307E+03  0.00000000000E+00 0. -1.
         25    2    1    2    0    0  0.10060294261E+03 -0.34732290044E+02 -0.41913514891E+03  0.45016144969E+03  0.12507507228E+03 0.  0.
         23    2    1    2    0    0 -0.10060294261E+03  0.34732290044E+02 -0.55160496305E+02  0.15017605123E+03  0.90459283525E+02 0.  0.
          5    1    3    3  502    0 -0.26153771250E+02  0.27672339271E+01 -0.12278685221E+03  0.12564139767E+03  0.41800000000E+01 0. -1.
         -5    1    3    3    0  502  0.12675671386E+03 -0.37499523971E+02 -0.29634829670E+03  0.32452005202E+03  0.41800000000E+01 0. -1.
        -11    1    4    4    0    0 -0.33920544835E+02 -0.18599642388E+02  0.13116246750E+02  0.40848329069E+02  0.00000000000E+00 0.  1.
         11    1    4    4    0    0 -0.66682397774E+02  0.53331932433E+02 -0.68276743055E+02  0.10932772216E+03  0.00000000000E+00 0. -1.
</event>
<event>
 8    1  0.6185113E-009  0.1273430E+03  0.7561462E-02  0.1231452E+00
          2   -1    0    0  501    0  0.00000000000E+00  0.00000000000E+00  0.17431287963E+03  0.17431287963E+03  0.00000000000E+00 0.  1.
         -2   -1    0    0    0  501 -0.00000000000E+00 -0.00000000000E+00 -0.17024697665E+03  0.17024697665E+03  0.00000000000E+00 0. -1.
         25    2    1    2    0    0  0.86321653278E+02 -0.54044103445E+02  0.88704844172E+02  0.18408705582E+03  0.12508917539E+03 0.  0.
         23    2    1    2    0    0 -0.86321653278E+02  0.54044103445E+02 -0.84638941199E+02  0.16047280046E+03  0.90639816738E+02 0.  0.
          5    1    3    3  502    0  0.94625112759E+02 -0.21022071758E+02  0.10763186037E+03  0.14490662246E+03  0.41800000000E+01 0.  1.
         -5    1    3    3    0  502 -0.83034594810E+01 -0.33022031688E+02 -0.18927016199E+02  0.39180433361E+02  0.41800000000E+01 0.  1.
        -11    1    4    4    0    0 -0.16336620937E+02 -0.17038763587E+02 -0.49273954554E+02  0.54636318009E+02  0.00000000000E+00 0. -1.
         11    1    4    4    0    0 -0.69985032340E+02  0.71082867032E+02 -0.35364986645E+02  0.10583648245E+03  0.00000000000E+00 0.  1.
</event>
<event>
 8    1  0.6185113E-009  0.1387835E+03  0.7561462E-02  0.1214975E+00
          4   -1    0    0  501    0  0.00000000000E+00  0.00000000000E+00  0.32397439863E+03  0.32397439863E+03  0.00000000000E+00 0. -1.
         -4   -1    0    0    0  501 -0.00000000000E+00 -0.00000000000E+00 -0.72700439546E+02  0.72700439546E+02  0.00000000000E+00 0.  1.
         25    2    1    2    0    0  0.56634768674E+02  0.83485211867E+02  0.83933027936E+02  0.18130065307E+03  0.12509155048E+03 0.  0.
         23    2    1    2    0    0 -0.56634768674E+02 -0.83485211867E+02  0.16734093115E+03  0.21537418511E+03  0.90585731491E+02 0.  0.
          5    1    3    3  502    0  0.27385907458E+02 -0.30478919062E+02  0.10360083440E+02  0.42470650611E+02  0.41800000000E+01 0.  1.
         -5    1    3    3    0  502  0.29248861216E+02  0.11396413093E+03  0.73572944497E+02  0.13883000246E+03  0.41800000000E+01 0.  1.
        -11    1    4    4    0    0 -0.59962302583E+02 -0.33763539622E+02  0.42316964643E+02  0.80784774775E+02  0.00000000000E+00 0.  1.
         11    1    4    4    0    0  0.33275339095E+01 -0.49721672244E+02  0.12502396650E+03  0.13458941033E+03  0.00000000000E+00 0. -1.
</event>
<event>
 8    1  0.6185113E-009  0.1122546E+03  0.7561462E-02  0.1256451E+00
         -2   -1    0    0    0  501 -0.00000000000E+00  0.00000000000E+00  0.64144999735E+02  0.64144999735E+02  0.00000000000E+00 0.  1.
          2   -1    0    0  501    0  0.00000000000E+00 -0.00000000000E+00 -0.29270241685E+03  0.29270241685E+03  0.00000000000E+00 0. -1.
         25    2    1    2    0    0  0.77316136516E+01 -0.41750006359E+02 -0.21976506389E+03  0.25641516956E+03  0.12509682248E+03 0.  0.
         23    2    1    2    0    0 -0.77316136516E+01  0.41750006359E+02 -0.87923532332E+01  0.10043224703E+03  0.90589678703E+02 0.  0.
          5    1    3    3  502    0 -0.53363300742E+02 -0.37747611866E+02 -0.14891355475E+03  0.16268141644E+03  0.41800000000E+01 0.  1.
         -5    1    3    3    0  502  0.61094914394E+02 -0.40023944927E+01 -0.70851509135E+02  0.93733753116E+02  0.41800000000E+01 0.  1.
        -11    1    4    4    0    0 -0.23041937765E+02  0.65472423829E+02  0.38103116683E+01  0.69513219269E+02  0.00000000000E+00 0.  1.
         11    1    4    4    0    0  0.15310324114E+02 -0.23722417470E+02 -0.12602664901E+02  0.30919027762E+02  0.00000000000E+00 0. -1.
</event>
<event>
 8    1  0.6185113E-009  0.7939686E+02  0.7561462E-02  0.1330772E+00
         -2   -1    0    0    0  501 -0.00000000000E+00  0.00000000000E+00  0.23255217981E+03  0.23255217981E+03  0.00000000000E+00 0.  1.
          2   -1    0    0  501    0  0.00000000000E+00 -0.00000000000E+00 -0.64986533465E+02  0.64986533465E+02  0.00000000000E+00 0. -1.
         25    2    1    2    0    0  0.41584834323E+02 -0.41147764987E+02  0.82688286833E+02  0.16095899917E+03  0.12509200464E+03 0.  0.
         23    2    1    2    0    0 -0.41584834323E+02  0.41147764987E+02  0.84877359512E+02  0.13657971411E+03  0.89595843314E+02 0.  0.
          5    1    3    3  502    0  0.33343440955E+02 -0.46295616587E+02 -0.17803135754E+02  0.59912379460E+02  0.41800000000E+01 0.  1.
         -5    1    3    3    0  502  0.82413933681E+01  0.51478516001E+01  0.10049142259E+03  0.10104661971E+03  0.41800000000E+01 0.  1.
        -11    1    4    4    0    0  0.75635904650E+01  0.41172222182E+02  0.41479616485E+01  0.42066202182E+02  0.00000000000E+00 0. -1.
         11    1    4    4    0    0 -0.49148424788E+02 -0.24457195680E-01  0.80729397864E+02  0.94513511927E+02  0.00000000000E+00 0.  1.
</event>
<event>
 8    1  0.6185113E-009  0.1000254E+03  0.7561462E-02  0.1280242E+00
         -1   -1    0    0    0  501 -0.00000000000E+00  0.00000000000E+00  0.14712274947E+02  0.14712274947E+02  0.00000000000E+00 0.  1.
          1   -1    0    0  501    0  0.00000000000E+00 -0.00000000000E+00 -0.11344473263E+04  0.11344473263E+04  0.00000000000E+00 0. -1.
         25    2    1    2    0    0 -0.69264583156E+02 -0.25929049912E+01 -0.67743072587E+03  0.69236136879E+03  0.12509025146E+03 0.  0.
         23    2    1    2    0    0  0.69264583156E+02  0.25929049912E+01 -0.44230432550E+03  0.45679823247E+03  0.90703931534E+02 0.  0.
          5    1    3    3  502    0 -0.46919476191E+02  0.28701211466E+02 -0.62381908103E+03  0.62625307588E+03  0.41800000000E+01 0.  1.
         -5    1    3    3    0  502 -0.22345106965E+02 -0.31294116457E+02 -0.53611644836E+02  0.66108292915E+02  0.41800000000E+01 0.  1.
        -11    1    4    4    0    0  0.33412602760E+02  0.41516679766E+02 -0.13810931682E+03  0.14803452339E+03  0.00000000000E+00 0.  1.
         11    1    4    4    0    0  0.35851980396E+02 -0.38923774774E+02 -0.30419500868E+03  0.30876370908E+03  0.00000000000E+00 0. -1.
</event>
<event>
 8    1  0.6185113E-009  0.6969230E+02  0.7561462E-02  0.1361143E+00
         -2   -1    0    0    0  501 -0.00000000000E+00  0.00000000000E+00  0.10834537398E+03  0.10834537398E+03  0.00000000000E+00 0.  1.
          2   -1    0    0  501    0  0.00000000000E+00 -0.00000000000E+00 -0.11719206314E+03  0.11719206314E+03  0.00000000000E+00 0. -1.
         25    2    1    2    0    0  0.11392995091E+02 -0.29211381208E+02 -0.29975598668E+02  0.13238549211E+03  0.12507708374E+03 0.  0.
         23    2    1    2    0    0 -0.11392995091E+02  0.29211381208E+02  0.21128909508E+02  0.93151945012E+02  0.85133711968E+02 0.  0.
          5    1    3    3  502    0 -0.43672519283E+02  0.19792263483E+01 -0.49357166716E+02  0.66066697993E+02  0.41800000000E+01 0. -1.
         -5    1    3    3    0  502  0.55065514374E+02 -0.31190607556E+02  0.19381568048E+02  0.66318794116E+02  0.41800000000E+01 0. -1.
        -11    1    4    4    0    0 -0.10433674020E+01  0.11375203446E+02 -0.33163251175E+02  0.35075420133E+02  0.00000000000E+00 0. -1.
         11    1    4    4    0    0 -0.10349627689E+02  0.17836177762E+02  0.54292160683E+02  0.58076524880E+02  0.00000000000E+00 0.  1.
</event>
<event>
 8    1  0.6185113E-009  0.7049778E+02  0.7561462E-02  0.1358408E+00
         -2   -1    0    0    0  501 -0.00000000000E+00  0.00000000000E+00  0.34041593466E+02  0.34041593466E+02  0.00000000000E+00 0.  1.
          2   -1    0    0  501    0  0.00000000000E+00 -0.00000000000E+00 -0.46244350716E+03  0.46244350716E+03  0.00000000000E+00 0. -1.
         25    2    1    2    0    0 -0.12346563192E+02 -0.50180808646E+02 -0.31206168352E+03  0.34014876162E+03  0.12509250388E+03 0.  0.
         23    2    1    2    0    0  0.12346563192E+02  0.50180808646E+02 -0.11634023018E+03  0.15633633901E+03  0.90749383249E+02 0.  0.
          5    1    3    3  502    0  0.17153814884E+01 -0.29071834564E+02 -0.25057913049E+01  0.29527368467E+02  0.41800000000E+01 0.  1.
         -5    1    3    3    0  502 -0.14061944681E+02 -0.21108974083E+02 -0.30955589222E+03  0.31062139315E+03  0.41800000000E+01 0.  1.
        -11    1    4    4    0    0  0.19981436032E+02 -0.11942262428E+02  0.10505355246E+01  0.23301910709E+02  0.00000000000E+00 0.  1.
         11    1    4    4    0    0 -0.76348728394E+01  0.62123071074E+02 -0.11739076570E+03  0.13303442831E+03  0.00000000000E+00 0. -1.
</event>
<event>
 8    1  0.6185113E-009  0.1026412E+03  0.7561462E-02  0.1274838E+00
         -2   -1    0    0    0  501 -0.00000000000E+00  0.00000000000E+00  0.53770182263E+02  0.53770182263E+02  0.00000000000E+00 0.  1.
          2   -1    0    0  501    0  0.00000000000E+00 -0.00000000000E+00 -0.22157719112E+03  0.22157719112E+03  0.00000000000E+00 0. -1.
         25    2    1    2    0    0 -0.47996977336E+01  0.90818331500E+01 -0.82218911548E+02  0.15004540574E+03  0.12509259601E+03 0.  0.
         23    2    1    2    0    0  0.47996977336E+01 -0.90818331500E+01 -0.85588097312E+02  0.12530196765E+03  0.90938132283E+02 0.  0.
          5    1    3    3  502    0 -0.19373288662E+01  0.66363152073E+02 -0.55508001082E+02  0.86639666321E+02  0.41800000000E+01 0.  1.
         -5    1    3    3    0  502 -0.28623688674E+01 -0.57281318923E+02 -0.26710910466E+02  0.63405739417E+02  0.41800000000E+01 0.  1.
        -11    1    4    4    0    0 -0.35413588201E+02  0.99215941446E+01 -0.68320438520E+02  0.77590222188E+02  0.00000000000E+00 0.  1.
         11    1    4    4    0    0  0.40213285935E+02 -0.19003427295E+02 -0.17267658792E+02  0.47711745460E+02  0.00000000000E+00 0. -1.
</event>
<event>
 8    1  0.6185113E-009  0.9730617E+02  0.7561462E-02  0.1286065E+00
         -3   -1    0    0    0  501 -0.00000000000E+00  0.00000000000E+00  0.85779731403E+03  0.85779731403E+03  0.00000000000E+00 0.  1.
          3   -1    0    0  501    0  0.00000000000E+00 -0.00000000000E+00 -0.22445841298E+02  0.22445841298E+02  0.00000000000E+00 0. -1.
         25    2    1    2    0    0 -0.74905580507E+02  0.26992530377E+02  0.52105266339E+03  0.54174568146E+03  0.12511220031E+03 0.  0.
         23    2    1    2    0    0  0.74905580507E+02 -0.26992530377E+02  0.31429880935E+03  0.33849747387E+03  0.97248936113E+02 0.  0.
          5    1    3    3  502    0 -0.17427997299E+02  0.31360835767E+02  0.29030894683E+02  0.46341151863E+02  0.41800000000E+01 0. -1.
         -5    1    3    3    0  502 -0.57477583209E+02 -0.43683053903E+01  0.49202176871E+03  0.49540452960E+03  0.41800000000E+01 0. -1.
        -11    1    4    4    0    0  0.17937717943E+02  0.19987341913E+02  0.16143896586E+02  0.31334979795E+02  0.00000000000E+00 0. -1.
         11    1    4    4    0    0  0.56967862564E+02 -0.46979872290E+02  0.29815491276E+03  0.30716249408E+03  0.00000000000E+00 0.  1.
</event>
<event>
 8    1  0.6185113E-009  0.1046702E+03  0.7561462E-02  0.1270771E+00
          1   -1    0    0  501    0  0.00000000000E+00  0.00000000000E+00  0.36585385994E+03  0.36585385994E+03  0.00000000000E+00 0. -1.
         -1   -1    0    0    0  501 -0.00000000000E+00 -0.00000000000E+00 -0.41264489540E+02  0.41264489540E+02  0.00000000000E+00 0.  1.
         25    2    1    2    0    0 -0.14776072084E+02  0.53803221408E+02  0.16195880767E+03  0.21211568010E+03  0.12509711196E+03 0.  0.
         23    2    1    2    0    0  0.14776072084E+02 -0.53803221408E+02  0.16263056273E+03  0.19500266939E+03  0.92001207567E+02 0.  0.
          5    1    3    3  502    0 -0.14339150742E+02 -0.39678942493E+02  0.39064017301E+02  0.57649801119E+02  0.41800000000E+01 0. -1.
         -5    1    3    3    0  502 -0.43692134245E+00  0.93482163902E+02  0.12289479037E+03  0.15446587898E+03  0.41800000000E+01 0. -1.
        -11    1    4    4    0    0  0.32167927990E+02 -0.30862399508E+02  0.16000050081E+03  0.16609462229E+03  0.00000000000E+00 0. -1.
         11    1    4    4    0    0 -0.17391855906E+02 -0.22940821900E+02  0.26300619234E+01  0.28908047098E+02  0.00000000000E+00 0.  1.
</event>
<event>
 8    1  0.6185113E-009  0.1511130E+03  0.7561462E-02  0.1199112E+00
          1   -1    0    0  501    0  0.00000000000E+00  0.00000000000E+00  0.76233329581E+03  0.76233329581E+03  0.00000000000E+00 0. -1.
         -1   -1    0    0    0  501 -0.00000000000E+00 -0.00000000000E+00 -0.45890687425E+02  0.45890687425E+02  0.00000000000E+00 0.  1.
         25    2    1    2    0    0 -0.16463599741E+02 -0.10310431163E+03  0.61184056863E+03  0.63316499250E+03  0.12508987614E+03 0.  0.
         23    2    1    2    0    0  0.16463599741E+02  0.10310431163E+03  0.10460203976E+03  0.17505899074E+03  0.93821715628E+02 0.  0.
          5    1    3    3  502    0  0.54421607043E+02 -0.52389035524E+02  0.28949242584E+03  0.29921507211E+03  0.41800000000E+01 0. -1.
         -5    1    3    3    0  502 -0.70885206784E+02 -0.50715276107E+02  0.32234814279E+03  0.33394992039E+03  0.41800000000E+01 0. -1.
        -11    1    4    4    0    0  0.48426708504E+02  0.24113634503E+02  0.30323850846E+02  0.62017331413E+02  0.00000000000E+00 0.  1.
         11    1    4    4    0    0 -0.31963108763E+02  0.78990677127E+02  0.74278188914E+02  0.11304165933E+03  0.00000000000E+00 0. -1.
</event>
<event>
 8    1  0.6185113E-009  0.1735695E+03  0.7561462E-02  0.1174176E+00
         -1   -1    0    0    0  501 -0.00000000000E+00  0.00000000000E+00  0.68566753911E+03  0.68566753911E+03  0.00000000000E+00 0.  1.
          1   -1    0    0  501    0  0.00000000000E+00 -0.00000000000E+00 -0.50156537060E+02  0.50156537060E+02  0.00000000000E+00 0. -1.
         25    2    1    2    0    0  0.68325179000E+02 -0.13338617978E+03  0.35360805683E+03  0.40391279145E+03  0.12508669874E+03 0.  0.
         23    2    1    2    0    0 -0.68325179000E+02  0.13338617978E+03  0.28190294522E+03  0.33191128472E+03  0.90750357352E+02 0.  0.
          5    1    3    3  502    0  0.64976211219E+02 -0.15467885835E+03  0.33667806429E+03  0.37618751790E+03  0.41800000000E+01 0. -1.
         -5    1    3    3    0  502  0.33489677807E+01  0.21292678578E+02  0.16929992535E+02  0.27725273551E+02  0.41800000000E+01 0. -1.
        -11    1    4    4    0    0 -0.20896117794E+02  0.92215225087E+02  0.92132203447E+02  0.13201756849E+03  0.00000000000E+00 0. -1.
         11    1    4    4    0    0 -0.47429061206E+02  0.41170954690E+02  0.18977074177E+03  0.19989371623E+03  0.00000000000E+00 0.  1.
</event>
<event>
 8    1  0.6185113E-009  0.2941200E+03  0.7561462E-02  0.1088217E+00
          2   -1    0    0  501    0  0.00000000000E+00  0.00000000000E+00  0.14467992063E+04  0.14467992063E+04  0.00000000000E+00 0.  1.
         -2   -1    0    0    0  501 -0.00000000000E+00 -0.00000000000E+00 -0.63200342735E+02  0.63200342735E+02  0.00000000000E+00 0. -1.
         25    2    1    2    0    0 -0.72188371449E+01  0.27636167822E+03  0.81758151909E+03  0.87207485969E+03  0.12508849568E+03 0.  0.
         23    2    1    2    0    0  0.72188371449E+01 -0.27636167822E+03  0.56601734451E+03  0.63792468938E+03  0.10071934392E+03 0.  0.
          5    1    3    3  502    0 -0.62566236001E+02  0.19007965489E+03  0.51210573831E+03  0.54983140025E+03  0.41800000000E+01 0. -1.
         -5    1    3    3    0  502  0.55347398856E+02  0.86282023326E+02  0.30547578078E+03  0.32224345944E+03  0.41800000000E+01 0. -1.
        -11    1    4    4    0    0 -0.16680788077E+02 -0.13267979047E+02  0.99911703708E+02  0.10215985756E+03  0.00000000000E+00 0.  1.
         11    1    4    4    0    0  0.23899625222E+02 -0.26309369917E+03  0.46610564080E+03  0.53576483182E+03  0.00000000000E+00 0. -1.
</event>
<event>
 8    1  0.6185113E-009  0.1125881E+03  0.7561462E-02  0.1255851E+00
         -3   -1    0    0    0  501 -0.00000000000E+00  0.00000000000E+00  0.40717007588E+02  0.40717007588E+02  0.00000000000E+00 0.  1.
          3   -1    0    0  501    0  0.00000000000E+00 -0.00000000000E+00 -0.33327143302E+03  0.33327143302E+03  0.00000000000E+00 0. -1.
         25    2    1    2    0    0 -0.35165000219E+02  0.26814537815E+02 -0.16199496206E+03  0.20939655008E+03  0.12509576641E+03 0.  0.
         23    2    1    2    0    0  0.35165000219E+02 -0.26814537815E+02 -0.13055946338E+03  0.16459189053E+03  0.89939536761E+02 0.  0.
          5    1    3    3  502    0 -0.76611813466E+02  0.16055131149E+00 -0.12851115739E+03  0.14967292913E+03  0.41800000000E+01 0.  1.
         -5    1    3    3    0  502  0.41446813246E+02  0.26653986504E+02 -0.33483804666E+02  0.59723620953E+02  0.41800000000E+01 0.  1.
        -11    1    4    4    0    0 -0.29413508287E+02 -0.94563130885E+00 -0.51222000452E+02  0.59074038449E+02  0.00000000000E+00 0.  1.
         11    1    4    4    0    0  0.64578508507E+02 -0.25868906507E+02 -0.79337462924E+02  0.10551785208E+03  0.00000000000E+00 0. -1.
</event>
<event>
 8    1  0.6185113E-009  0.1083696E+03  0.7561462E-02  0.1263619E+00
         -1   -1    0    0    0  501 -0.00000000000E+00  0.00000000000E+00  0.31962858566E+02  0.31962858566E+02  0.00000000000E+00 0.  1.
          1   -1    0    0  501    0  0.00000000000E+00 -0.00000000000E+00 -0.52141918766E+03  0.52141918766E+03  0.00000000000E+00 0. -1.
         25    2    1    2    0    0  0.21280985488E+02  0.60155305840E+02 -0.33729048584E+03  0.36536033934E+03  0.12510701243E+03 0.  0.
         23    2    1    2    0    0 -0.21280985488E+02 -0.60155305840E+02 -0.15216584326E+03  0.18802170689E+03  0.90145311825E+02 0.  0.
          5    1    3    3  502    0 -0.18230252999E+02  0.84785626931E+02 -0.16033212872E+03  0.18233158958E+03  0.41800000000E+01 0. -1.
         -5    1    3    3    0  502  0.39511238487E+02 -0.24630321091E+02 -0.17695835712E+03  0.18302874976E+03  0.41800000000E+01 0. -1.
        -11    1    4    4    0    0 -0.18970807970E+02  0.36521462404E+01  0.36233772360E+01  0.19656006455E+02  0.00000000000E+00 0.  1.
         11    1    4    4    0    0 -0.23101775183E+01 -0.63807452081E+02 -0.15578922050E+03  0.16836570044E+03  0.00000000000E+00 0. -1.
</event>
<event>
 8    1  0.6185113E-009  0.1083925E+03  0.7561462E-02  0.1263576E+00
          1   -1    0    0  501    0  0.00000000000E+00  0.00000000000E+00  0.61829042542E+03  0.61829042542E+03  0.00000000000E+00 0. -1.
         -1   -1    0    0    0  501 -0.00000000000E+00 -0.00000000000E+00 -0.28326971329E+02  0.28326971329E+02  0.00000000000E+00 0.  1.
         25    2    1    2    0    0  0.82974430790E+01 -0.73143128030E+02  0.28871917528E+03  0.32314852413E+03  0.12508973472E+03 0.  0.
         23    2    1    2    0    0 -0.82974430790E+01  0.73143128030E+02  0.30124427881E+03  0.32346887262E+03  0.92006691593E+02 0.  0.
          5    1    3    3  502    0  0.19780677619E+02 -0.88003866940E+02  0.29013021502E+03  0.30385682463E+03  0.41800000000E+01 0. -1.
         -5    1    3    3    0  502 -0.11483234540E+02  0.14860738910E+02 -0.14110397438E+01  0.19291699500E+02  0.41800000000E+01 0. -1.
        -11    1    4    4    0    0 -0.43112259891E+02  0.34344272981E+02  0.87136877845E+02  0.10310689366E+03  0.00000000000E+00 0.  1.
         11    1    4    4    0    0  0.34814816812E+02  0.38798855049E+02  0.21410740097E+03  0.22036197896E+03  0.00000000000E+00 0. -1.
</event>
<event>
 8    1  0.6185113E-009  0.1190721E+03  0.7561462E-02  0.1244636E+00
          1   -1    0    0  501    0  0.00000000000E+00  0.00000000000E+00  0.25785448256E+02  0.25785448256E+02  0.00000000000E+00 0. -1.
         -1   -1    0    0    0  501 -0.00000000000E+00 -0.00000000000E+00 -0.13389519664E+04  0.13389519664E+04  0.00000000000E+00 0.  1.
         25    2    1    2    0    0 -0.45371890969E+02  0.34823427389E+02 -0.11910553949E+04  0.11989716004E+04  0.12509462527E+03 0.  0.
         23    2    1    2    0    0  0.45371890969E+02 -0.34823427389E+02 -0.12211112325E+03  0.16576581426E+03  0.96415243455E+02 0.  0.
          5    1    3    3  502    0  0.27143129062E+02  0.50189024653E+02 -0.70018099910E+03  0.70251447782E+03  0.41800000000E+01 0.  1.
         -5    1    3    3    0  502 -0.72515020031E+02 -0.15365597264E+02 -0.49087439581E+03  0.49645712260E+03  0.41800000000E+01 0.  1.
        -11    1    4    4    0    0  0.38021001926E+02 -0.65178436858E+02 -0.10736042831E+03  0.13122532830E+03  0.00000000000E+00 0.  1.
         11    1    4    4    0    0  0.73508890429E+01  0.30355009469E+02 -0.14750694942E+02  0.34540485968E+02  0.00000000000E+00 0. -1.
</event>
<event>
 8    1  0.6185113E-009  0.9859837E+02  0.7561462E-02  0.1283271E+00
         -1   -1    0    0    0  501 -0.00000000000E+00  0.00000000000E+00  0.77705915611E+02  0.77705915611E+02  0.00000000000E+00 0.  1.
          1   -1    0    0  501    0  0.00000000000E+00 -0.00000000000E+00 -0.17031155714E+03  0.17031155714E+03  0.00000000000E+00 0. -1.
         25    2    1    2    0    0  0.24667258274E+02 -0.27947012318E+02 -0.52204613690E+02  0.14059513887E+03  0.12510860184E+03 0.  0.
         23    2    1    2    0    0 -0.24667258274E+02  0.27947012318E+02 -0.40401027839E+02  0.10742233388E+03  0.92291958685E+02 0.  0.
          5    1    3    3  502    0 -0.34111534562E+02 -0.95300770494E+00  0.22961626958E+02  0.41342638117E+02  0.41800000000E+01 0.  1.
         -5    1    3    3    0  502  0.58778792837E+02 -0.26994004613E+02 -0.75166240648E+02  0.99252500752E+02  0.41800000000E+01 0.  1.
        -11    1    4    4    0    0  0.32618297138E+02  0.24158168912E+02 -0.75796400148E+01  0.41291904487E+02  0.00000000000E+00 0.  1.
         11    1    4    4    0    0 -0.57285555413E+02  0.37888434060E+01 -0.32821387824E+02  0.66130429395E+02  0.00000000000E+00 0. -1.
</event>
<event>
 8    1  0.6185113E-009  0.1206403E+03  0.7561462E-02  0.1242044E+00
          2   -1    0    0  501    0  0.00000000000E+00  0.00000000000E+00  0.10886382758E+04  0.10886382758E+04  0.00000000000E+00 0. -1.
         -2   -1    0    0    0  501 -0.00000000000E+00 -0.00000000000E+00 -0.18788471734E+02  0.18788471734E+02  0.00000000000E+00 0.  1.
         25    2    1    2    0    0 -0.55894071764E+02  0.72011844697E+02  0.65587056721E+03  0.67388692114E+03  0.12509008161E+03 0.  0.
         23    2    1    2    0    0  0.55894071764E+02 -0.72011844697E+02  0.41397923691E+03  0.43353982644E+03  0.90929200414E+02 0.  0.
          5    1    3    3  502    0  0.15906686434E+02  0.69012478672E+02  0.19659599052E+03  0.20900526494E+03  0.41800000000E+01 0. -1.
         -5    1    3    3    0  502 -0.71800758198E+02  0.29993660252E+01  0.45927457669E+03  0.46488165620E+03  0.41800000000E+01 0. -1.
        -11    1    4    4    0    0  0.61079696405E+02 -0.61761211048E+02  0.41297171685E+03  0.42200807507E+03  0.00000000000E+00 0. -1.
         11    1    4    4    0    0 -0.51856246413E+01 -0.10250633649E+02  0.10075200548E+01  0.11531751376E+02  0.00000000000E+00 0.  1.
</event>
<event>
 8    1  0.6185113E-009  0.1071536E+03  0.7561462E-02  0.1265934E+00
         -4   -1    0    0    0  501 -0.00000000000E+00  0.00000000000E+00  0.81914899748E+02  0.81914899748E+02  0.00000000000E+00 0. -1.
          4   -1    0    0  501    0  0.00000000000E+00 -0.00000000000E+00 -0.17001994475E+03  0.17001994475E+03  0.00000000000E+00 0.  1.
         25    2    1    2    0    0 -0.28690970358E+02  0.29860815490E+02 -0.70944183438E+02  0.14964875497E+03  0.12508729999E+03 0.  0.
         23    2    1    2    0    0  0.28690970358E+02 -0.29860815490E+02 -0.17160861562E+02  0.10228608953E+03  0.91940789966E+02 0.  0.
          5    1    3    3  502    0 -0.76452846078E+01 -0.41339570589E+02 -0.61607272286E+02  0.74701665789E+02  0.41800000000E+01 0. -1.
         -5    1    3    3    0  502 -0.21045685750E+02  0.71200386079E+02 -0.93369111514E+01  0.74947089178E+02  0.41800000000E+01 0. -1.
        -11    1    4    4    0    0  0.58102216895E+02 -0.35013983471E+02 -0.23442458944E+02  0.71773222918E+02  0.00000000000E+00 0.  1.
         11    1    4    4    0    0 -0.29411246537E+02  0.51531679812E+01  0.62815973819E+01  0.30512866610E+02  0.00000000000E+00 0. -1.
</event>
<event>
 8    1  0.6185113E-009  0.1156082E+03  0.7561462E-02  0.1250523E+00
         -2   -1    0    0    0  501 -0.00000000000E+00  0.00000000000E+00  0.26805496930E+02  0.26805496930E+02  0.00000000000E+00 0.  1.
          2   -1    0    0  501    0  0.00000000000E+00 -0.00000000000E+00 -0.60059240933E+03  0.60059240933E+03  0.00000000000E+00 0. -1.
         25    2    1    2    0    0  0.48461397686E+02  0.41453408180E+02 -0.28708633930E+03  0.31958272334E+03  0.12509060207E+03 0.  0.
         23    2    1    2    0    0 -0.48461397686E+02 -0.41453408180E+02 -0.28670057310E+03  0.30781518292E+03  0.92119900712E+02 0.  0.
          5    1    3    3  502    0  0.19084144325E+02  0.80814251141E+02 -0.22769921844E+03  0.24240370094E+03  0.41800000000E+01 0. -1.
         -5    1    3    3    0  502  0.29377253362E+02 -0.39360842961E+02 -0.59387120862E+02  0.77179022396E+02  0.41800000000E+01 0. -1.
        -11    1    4    4    0    0  0.15679530381E+02  0.81748338862E+01 -0.11941149796E+02  0.21336978242E+02  0.00000000000E+00 0.  1.
         11    1    4    4    0    0 -0.64140928067E+02 -0.49628242066E+02 -0.27475942330E+03  0.28647820468E+03  0.00000000000E+00 0. -1.
</event>
<event>
 8    1  0.6185113E-009  0.3252489E+03  0.7561462E-02  0.1073259E+00
         -1   -1    0    0    0  501 -0.00000000000E+00  0.00000000000E+00  0.29773651041E+03  0.29773651041E+03  0.00000000000E+00 0.  1.
          1   -1    0    0  501    0  0.00000000000E+00 -0.00000000000E+00 -0.41223719632E+03  0.41223719632E+03  0.00000000000E+00 0. -1.
         25    2    1    2    0    0 -0.27246070299E+03  0.16122611918E+03  0.46114906683E+02  0.34351329843E+03  0.12508439312E+03 0.  0.
         23    2    1    2    0    0  0.27246070299E+03 -0.16122611918E+03 -0.16061559259E+03  0.36646040830E+03  0.90923957723E+02 0.  0.
          5    1    3    3  502    0 -0.11812040234E+03  0.13064338242E+03  0.58491099817E+02  0.18563082712E+03  0.41800000000E+01 0. -1.
         -5    1    3    3    0  502 -0.15434030065E+03  0.30582736763E+02 -0.12376193134E+02  0.15788247131E+03  0.41800000000E+01 0. -1.
        -11    1    4    4    0    0  0.20208518395E+03 -0.12690327115E+03 -0.74310125511E+02  0.24992970322E+03  0.00000000000E+00 0.  1.
         11    1    4    4    0    0  0.70375519040E+02 -0.34322848028E+02 -0.86305467083E+02  0.11653070508E+03  0.00000000000E+00 0. -1.
</event>
<event>
 8    1  0.6185113E-009  0.1240196E+03  0.7561462E-02  0.1236609E+00
          1   -1    0    0  501    0  0.00000000000E+00  0.00000000000E+00  0.14730476503E+03  0.14730476503E+03  0.00000000000E+00 0. -1.
         -1   -1    0    0    0  501 -0.00000000000E+00 -0.00000000000E+00 -0.22639321967E+03  0.22639321967E+03  0.00000000000E+00 0.  1.
         25    2    1    2    0    0 -0.74756401768E+02 -0.46272248427E+02 -0.16385705657E+03  0.22410894537E+03  0.12508414699E+03 0.  0.
         23    2    1    2    0    0  0.74756401768E+02  0.46272248427E+02  0.84768601926E+02  0.14958903933E+03  0.86380114814E+02 0.  0.
          5    1    3    3  502    0 -0.97172446347E+02 -0.51792202658E+02 -0.16736893016E+03  0.20038649598E+03  0.41800000000E+01 0.  1.
         -5    1    3    3    0  502  0.22416044579E+02  0.55199542309E+01  0.35118735925E+01  0.23722449397E+02  0.41800000000E+01 0.  1.
        -11    1    4    4    0    0  0.86254170433E+02  0.24340393794E+02  0.39397084729E+02  0.97899780246E+02  0.00000000000E+00 0.  1.
         11    1    4    4    0    0 -0.11497768664E+02  0.21931854633E+02  0.45371517197E+02  0.51689259084E+02  0.00000000000E+00 0. -1.
</event>
<event>
 8    1  0.6185113E-009  0.1065034E+03  0.7561462E-02  0.1267185E+00
         -2   -1    0    0    0  501 -0.00000000000E+00  0.00000000000E+00  0.19988617130E+03  0.19988617130E+03  0.00000000000E+00 0.  1.
          2   -1    0    0  501    0  0.00000000000E+00 -0.00000000000E+00 -0.10725589295E+03  0.10725589295E+03  0.00000000000E+00 0. -1.
         25    2    1    2    0    0  0.98811054004E+01 -0.82875001273E+02 -0.37922162973E+00  0.15037570951E+03  0.12508720207E+03 0.  0.
         23    2    1    2    0    0 -0.98811054004E+01  0.82875001273E+02  0.93009499972E+02  0.15676635474E+03  0.94652104124E+02 0.  0.
          5    1    3    3  502    0  0.39510466450E+02 -0.57964128118E+02 -0.50770621643E+02  0.86695129792E+02  0.41800000000E+01 0. -1.
         -5    1    3    3    0  502 -0.29629361050E+02 -0.24910873155E+02  0.50391400014E+02  0.63680579716E+02  0.41800000000E+01 0. -1.
        -11    1    4    4    0    0 -0.33316753898E+02  0.25925935887E+02  0.84684407609E+02  0.94623512585E+02  0.00000000000E+00 0.  1.
         11    1    4    4    0    0  0.23435648497E+02  0.56949065386E+02  0.83250923632E+01  0.62142842160E+02  0.00000000000E+00 0. -1.
</event>
<event>
 8    1  0.6185113E-009  0.9318666E+02  0.7561462E-02  0.1295313E+00
          2   -1    0    0  501    0  0.00000000000E+00  0.00000000000E+00  0.64821603693E+03  0.64821603693E+03  0.00000000000E+00 0. -1.
         -2   -1    0    0    0  501 -0.00000000000E+00 -0.00000000000E+00 -0.30326236555E+02  0.30326236555E+02  0.00000000000E+00 0.  1.
         25    2    1    2    0    0  0.39736500746E+02 -0.40368823458E+02  0.50586092965E+03  0.52416450057E+03  0.12507802411E+03 0.  0.
         23    2    1    2    0    0 -0.39736500746E+02  0.40368823458E+02  0.11202887073E+03  0.15437777291E+03  0.89852086756E+02 0.  0.
          5    1    3    3  502    0 -0.19346382395E+02 -0.27509182045E+02  0.32553077571E+02  0.46991625508E+02  0.41800000000E+01 0.  1.
         -5    1    3    3    0  502  0.59082883141E+02 -0.12859641414E+02  0.47330785208E+03  0.47717287506E+03  0.41800000000E+01 0.  1.
        -11    1    4    4    0    0 -0.56909418216E+02  0.46651597457E+02  0.48167081905E+02  0.87949537840E+02  0.00000000000E+00 0.  1.
         11    1    4    4    0    0  0.17172917470E+02 -0.62827739982E+01  0.63861788820E+02  0.66428235073E+02  0.00000000000E+00 0. -1.
</event>
<event>
 8    1  0.6185113E-009  0.9056740E+02  0.7561462E-02  0.1301483E+00
          1   -1    0    0  501    0  0.00000000000E+00  0.00000000000E+00  0.95217085899E+02  0.95217085899E+02  0.00000000000E+00 0. -1.
         -1   -1    0    0    0  501 -0.00000000000E+00 -0.00000000000E+00 -0.16251436885E+03  0.16251436885E+03  0.00000000000E+00 0.  1.
         25    2    1    2    0    0  0.19761067672E+02  0.58768019933E+02 -0.33830353913E+02  0.14365557307E+03  0.12509296890E+03 0.  0.
         23    2    1    2    0    0 -0.19761067672E+02 -0.58768019933E+02 -0.33466929039E+02  0.11407588168E+03  0.89716729088E+02 0.  0.
          5    1    3    3  502    0  0.17072404965E+02 -0.20959719009E+02 -0.54642108700E+02  0.61106540365E+02  0.41800000000E+01 0. -1.
         -5    1    3    3    0  502  0.26886627067E+01  0.79727738942E+02  0.20811754787E+02  0.82549032709E+02  0.41800000000E+01 0. -1.
        -11    1    4    4    0    0 -0.31235026204E+02 -0.31720771125E+02  0.23233279694E+02  0.50215729289E+02  0.00000000000E+00 0. -1.
         11    1    4    4    0    0  0.11473958531E+02 -0.27047248808E+02 -0.56700208733E+02  0.63860152386E+02  0.00000000000E+00 0.  1.
</event>
<event>
 8    1  0.6185113E-009  0.1148331E+03  0.7561462E-02  0.1251873E+00
         -1   -1    0    0    0  501 -0.00000000000E+00  0.00000000000E+00  0.52837278425E+02  0.52837278425E+02  0.00000000000E+00 0.  1.
          1   -1    0    0  501    0  0.00000000000E+00 -0.00000000000E+00 -0.28448066960E+03  0.28448066960E+03  0.00000000000E+00 0. -1.
         25    2    1    2    0    0  0.21140649367E+02  0.51458245500E+02 -0.10546889290E+03  0.17281513177E+03  0.12508598768E+03 0.  0.
         23    2    1    2    0    0 -0.21140649367E+02 -0.51458245500E+02 -0.12617449828E+03  0.16450281626E+03  0.89701139659E+02 0.  0.
          5    1    3    3  502    0  0.19975543617E+02 -0.33669783159E+02 -0.29396786304E+01  0.39481524176E+02  0.41800000000E+01 0.  1.
         -5    1    3    3    0  502  0.11651057502E+01  0.85128028660E+02 -0.10252921427E+03  0.13333360759E+03  0.41800000000E+01 0.  1.
        -11    1    4    4    0    0  0.16918377585E+02 -0.63042169442E+02 -0.85979641667E+02  0.10794927239E+03  0.00000000000E+00 0.  1.
         11    1    4    4    0    0 -0.38059026952E+02  0.11583923942E+02 -0.40194856617E+02  0.56553543876E+02  0.00000000000E+00 0. -1.
</event>
<event>
 8    1  0.6185113E-009  0.1800855E+03  0.7561462E-02  0.1167720E+00
         -1   -1    0    0    0  501 -0.00000000000E+00  0.00000000000E+00  0.62242129628E+02  0.62242129628E+02  0.00000000000E+00 0.  1.
          1   -1    0    0  501    0  0.00000000000E+00 -0.00000000000E+00 -0.67912076026E+03  0.67912076026E+03  0.00000000000E+00 0. -1.
         25    2    1    2    0    0 -0.16926677332E+03  0.19091672914E+02 -0.39290678830E+03  0.44613799095E+03  0.12509048787E+03 0.  0.
         23    2    1    2    0    0  0.16926677332E+03 -0.19091672914E+02 -0.22397184233E+03  0.29522489893E+03  0.89323134014E+02 0.  0.
          5    1    3    3  502    0 -0.13302394862E+03 -0.21974575876E+02 -0.17244667854E+03  0.21893739340E+03  0.41800000000E+01 0.  1.
         -5    1    3    3    0  502 -0.36242824698E+02  0.41066248790E+02 -0.22046010976E+03  0.22720059755E+03  0.41800000000E+01 0.  1.
        -11    1    4    4    0    0  0.94310132649E+02 -0.98096893023E+01 -0.19012744860E+03  0.21245959106E+03  0.00000000000E+00 0. -1.
         11    1    4    4    0    0  0.74956640667E+02 -0.92819836116E+01 -0.33844393734E+02  0.82765307872E+02  0.00000000000E+00 0.  1.
</event>
<event>
 8    1  0.6185113E-009  0.7252965E+02  0.7561462E-02  0.1351696E+00
         -1   -1    0    0    0  501 -0.00000000000E+00  0.00000000000E+00  0.14122401795E+03  0.14122401795E+03  0.00000000000E+00 0. -1.
          1   -1    0    0  501    0  0.00000000000E+00 -0.00000000000E+00 -0.88137345440E+02  0.88137345440E+02  0.00000000000E+00 0.  1.
         25    2    1    2    0    0 -0.26401019786E+02  0.81015461715E+01  0.29499779831E+02  0.13144566118E+03  0.12508027797E+03 0.  0.
         23    2    1    2    0    0  0.26401019786E+02 -0.81015461715E+01  0.23586892679E+02  0.97915702213E+02  0.90931261607E+02 0.  0.
          5    1    3    3  502    0  0.24472286532E+02  0.40960181585E+02  0.48173441763E+02  0.67932188062E+02  0.41800000000E+01 0. -1.
         -5    1    3    3    0  502 -0.50873306319E+02 -0.32858635414E+02 -0.18673661932E+02  0.63513473114E+02  0.41800000000E+01 0. -1.
        -11    1    4    4    0    0  0.70726061015E+01  0.84430175886E+01 -0.33581466850E+02  0.35341494293E+02  0.00000000000E+00 0.  1.
         11    1    4    4    0    0  0.19328413685E+02 -0.16544563760E+02  0.57168359528E+02  0.62574207920E+02  0.00000000000E+00 0. -1.
</event>
<event>
 8    1  0.6185113E-009  0.1541727E+03  0.7561462E-02  0.1195437E+00
          2   -1    0    0  501    0  0.00000000000E+00  0.00000000000E+00  0.11432491565E+04  0.11432491565E+04  0.00000000000E+00 0. -1.
         -2   -1    0    0    0  501 -0.00000000000E+00 -0.00000000000E+00 -0.25082945004E+02  0.25082945004E+02  0.00000000000E+00 0.  1.
         25    2    1    2    0    0  0.19971441848E+02 -0.12318113078E+03  0.72439640398E+03  0.74563423186E+03  0.12509119935E+03 0.  0.
         23    2    1    2    0    0 -0.19971441848E+02  0.12318113078E+03  0.39376980749E+03  0.42269786962E+03  0.89701606543E+02 0.  0.
          5    1    3    3  502    0 -0.18051110791E+02  0.19765355551E+02  0.79892971974E+02  0.84361550790E+02  0.41800000000E+01 0. -1.
         -5    1    3    3    0  502  0.38022552639E+02 -0.14294648633E+03  0.64450343200E+03  0.66127268107E+03  0.41800000000E+01 0. -1.
        -11    1    4    4    0    0 -0.35426244140E+02  0.85052724511E+02  0.15426324197E+03  0.17968342312E+03  0.00000000000E+00 0.  1.
         11    1    4    4    0    0  0.15454802292E+02  0.38128406272E+02  0.23950656552E+03  0.24301444650E+03  0.00000000000E+00 0. -1.
</event>
<event>
 8    1  0.6185113E-009  0.1148280E+03  0.7561462E-02  0.1251882E+00
         -3   -1    0    0    0  501 -0.00000000000E+00  0.00000000000E+00  0.98052155451E+02  0.98052155451E+02  0.00000000000E+00 0. -1.
          3   -1    0    0  501    0  0.00000000000E+00 -0.00000000000E+00 -0.13798872181E+03  0.13798872181E+03  0.00000000000E+00 0.  1.
         25    2    1    2    0    0 -0.57324687920E+01  0.40554318738E+02 -0.19773005383E+02  0.13310663702E+03  0.12509552794E+03 0.  0.
         23    2    1    2    0    0  0.57324687920E+01 -0.40554318738E+02 -0.20163560973E+02  0.10293424024E+03  0.92257111679E+02 0.  0.
          5    1    3    3  502    0  0.29851430347E+02 -0.36076142831E+02 -0.83272712856E+01  0.47743186135E+02  0.41800000000E+01 0.  1.
         -5    1    3    3    0  502 -0.35583899139E+02  0.76630461568E+02 -0.11445734097E+02  0.85363450886E+02  0.41800000000E+01 0.  1.
        -11    1    4    4    0    0 -0.93693554791E+01  0.27130574938E+02 -0.17326568341E+02  0.33527047127E+02  0.00000000000E+00 0.  1.
         11    1    4    4    0    0  0.15101824271E+02 -0.67684893676E+02 -0.28369926319E+01  0.69407193110E+02  0.00000000000E+00 0. -1.
</event>
<event>
 8    1  0.6185113E-009  0.1107396E+03  0.7561462E-02  0.1259206E+00
          2   -1    0    0  501    0  0.00000000000E+00  0.00000000000E+00  0.67714027592E+03  0.67714027592E+03  0.00000000000E+00 0. -1.
         -2   -1    0    0    0  501 -0.00000000000E+00 -0.00000000000E+00 -0.26069196024E+02  0.26069196024E+02  0.00000000000E+00 0.  1.
         25    2    1    2    0    0  0.32808894624E+02 -0.31217627538E+02  0.19980436760E+03  0.24004366850E+03  0.12509282010E+03 0.  0.
         23    2    1    2    0    0 -0.32808894624E+02  0.31217627538E+02  0.45126671229E+03  0.46316580344E+03  0.93967824367E+02 0.  0.
          5    1    3    3  502    0  0.38462850445E+02 -0.68961751867E+02  0.73227883019E+02  0.10777248877E+03  0.41800000000E+01 0. -1.
         -5    1    3    3    0  502 -0.56539558214E+01  0.37744124329E+02  0.12657648458E+03  0.13227117973E+03  0.41800000000E+01 0. -1.
        -11    1    4    4    0    0  0.31962315805E+02  0.21489226222E+02  0.18436786269E+03  0.18834777744E+03  0.00000000000E+00 0.  1.
         11    1    4    4    0    0 -0.64771210429E+02  0.97284013153E+01  0.26689884961E+03  0.27481802600E+03  0.00000000000E+00 0. -1.
</event>
<event>
 8    1  0.6185113E-009  0.7110622E+02  0.7561462E-02  0.1356371E+00
          4   -1    0    0  501    0  0.00000000000E+00  0.00000000000E+00  0.10546693946E+03  0.10546693946E+03  0.00000000000E+00 0. -1.
         -4   -1    0    0    0  501 -0.00000000000E+00 -0.00000000000E+00 -0.14426543458E+03  0.14426543458E+03  0.00000000000E+00 0.  1.
         25    2    1    2    0    0 -0.16030947764E+02  0.11802791248E+01 -0.80419298386E+02  0.14957650316E+03  0.12508989728E+03 0.  0.
         23    2    1    2    0    0  0.16030947764E+02 -0.11802791248E+01  0.41620803267E+02  0.10015587087E+03  0.89668962640E+02 0.  0.
          5    1    3    3  502    0 -0.88285016292E+01  0.24578411651E+02 -0.10873896303E+03  0.11190922769E+03  0.41800000000E+01 0. -1.
         -5    1    3    3    0  502 -0.72024461344E+01 -0.23398132526E+02  0.28319664646E+02  0.37667275475E+02  0.41800000000E+01 0. -1.
        -11    1    4    4    0    0  0.45700390938E+01  0.44040891938E+02  0.17211718430E+02  0.47505038379E+02  0.00000000000E+00 0.  1.
         11    1    4    4    0    0  0.11460908670E+02 -0.45221171063E+02  0.24409084837E+02  0.52650832495E+02  0.00000000000E+00 0. -1.
</event>
<event>
 8    1  0.6185113E-009  0.1658450E+03  0.7561462E-02  0.1182251E+00
          1   -1    0    0  501    0  0.00000000000E+00  0.00000000000E+00  0.15516952995E+04  0.15516952995E+04  0.00000000000E+00 0. -1.
         -1   -1    0    0    0  501 -0.00000000000E+00 -0.00000000000E+00 -0.18965879040E+02  0.18965879040E+02  0.00000000000E+00 0.  1.
         25    2    1    2    0    0 -0.26278939559E+02  0.12968418533E+03  0.77620810741E+03  0.79728395025E+03  0.12511634874E+03 0.  0.
         23    2    1    2    0    0  0.26278939559E+02 -0.12968418533E+03  0.75652131307E+03  0.77337722831E+03  0.90990491567E+02 0.  0.
          5    1    3    3  502    0 -0.98100155987E+01  0.15225463602E+03  0.61763612890E+03  0.63621503497E+03  0.41800000000E+01 0. -1.
         -5    1    3    3    0  502 -0.16468923960E+02 -0.22570450687E+02  0.15857197851E+03  0.16106891527E+03  0.41800000000E+01 0. -1.
        -11    1    4    4    0    0  0.68748788873E+01 -0.13117036744E+03  0.72106860708E+03  0.73293442092E+03  0.00000000000E+00 0. -1.
         11    1    4    4    0    0  0.19404060672E+02  0.14861821081E+01  0.35452705988E+02  0.40442807392E+02  0.00000000000E+00 0.  1.
</event>
<event>
 8    1  0.6185113E-009  0.9997793E+02  0.7561462E-02  0.1280342E+00
         -2   -1    0    0    0  501 -0.00000000000E+00  0.00000000000E+00  0.29975772163E+02  0.29975772163E+02  0.00000000000E+00 0. -1.
          2   -1    0    0  501    0  0.00000000000E+00 -0.00000000000E+00 -0.52663505902E+03  0.52663505902E+03  0.00000000000E+00 0.  1.
         25    2    1    2    0    0  0.52245181713E+02 -0.35326021709E+02 -0.28776008001E+03  0.32004875921E+03  0.12509139778E+03 0.  0.
         23    2    1    2    0    0 -0.52245181713E+02  0.35326021709E+02 -0.20889920684E+03  0.23656207198E+03  0.91352331423E+02 0.  0.
          5    1    3    3  502    0  0.12208363848E+02 -0.55007977266E+02 -0.42426920942E+02  0.70657184570E+02  0.41800000000E+01 0.  1.
         -5    1    3    3    0  502  0.40036817865E+02  0.19681955556E+02 -0.24533315907E+03  0.24939157464E+03  0.41800000000E+01 0.  1.
        -11    1    4    4    0    0 -0.44642431935E+01  0.48798387667E+02 -0.15815610675E+03  0.16557344657E+03  0.00000000000E+00 0. -1.
         11    1    4    4    0    0 -0.47780938519E+02 -0.13472365958E+02 -0.50743100091E+02  0.70988625407E+02  0.00000000000E+00 0.  1.
</event>
<event>
 8    1  0.6185113E-009  0.1075291E+03  0.7561462E-02  0.1265215E+00
         -1   -1    0    0    0  501 -0.00000000000E+00  0.00000000000E+00  0.13932867388E+03  0.13932867388E+03  0.00000000000E+00 0.  1.
          1   -1    0    0  501    0  0.00000000000E+00 -0.00000000000E+00 -0.16782224486E+03  0.16782224486E+03  0.00000000000E+00 0. -1.
         25    2    1    2    0    0  0.53624682849E+01 -0.70436228237E+02 -0.94009790897E+02  0.17168507098E+03  0.12509158445E+03 0.  0.
         23    2    1    2    0    0 -0.53624682849E+01  0.70436228237E+02  0.65516219925E+02  0.13546584776E+03  0.95229210441E+02 0.  0.
          5    1    3    3  502    0 -0.47229511446E+02 -0.18516661165E+01 -0.52706803550E+01  0.47742097673E+02  0.41800000000E+01 0. -1.
         -5    1    3    3    0  502  0.52591979731E+02 -0.68584562121E+02 -0.88739110542E+02  0.12394297331E+03  0.41800000000E+01 0. -1.
        -11    1    4    4    0    0  0.13578576573E+02  0.54980325132E+02  0.86404830739E+02  0.10331025442E+03  0.00000000000E+00 0.  1.
         11    1    4    4    0    0 -0.18941044858E+02  0.15455903105E+02 -0.20888610815E+02  0.32155593337E+02  0.00000000000E+00 0. -1.
</event>
<event>
 8    1  0.6185113E-009  0.1076707E+03  0.7561462E-02  0.1264945E+00
          1   -1    0    0  501    0  0.00000000000E+00  0.00000000000E+00  0.78512148508E+02  0.78512148508E+02  0.00000000000E+00 0. -1.
         -1   -1    0    0    0  501 -0.00000000000E+00 -0.00000000000E+00 -0.25127831405E+03  0.25127831405E+03  0.00000000000E+00 0.  1.
         25    2    1    2    0    0 -0.43815617906E+02  0.19857279474E+02 -0.18115940948E+03  0.22534362406E+03  0.12508755870E+03 0.  0.
         23    2    1    2    0    0  0.43815617906E+02 -0.19857279474E+02  0.83932439410E+01  0.10444683849E+03  0.92328628315E+02 0.  0.
          5    1    3    3  502    0 -0.86160153698E+02  0.56725566487E+01 -0.96658970727E+02  0.12967721082E+03  0.41800000000E+01 0.  1.
         -5    1    3    3    0  502  0.42344535792E+02  0.14184722826E+02 -0.84500438753E+02  0.95666413241E+02  0.41800000000E+01 0.  1.
        -11    1    4    4    0    0 -0.13514233221E+01 -0.36038003922E+02  0.34429735966E+02  0.49859510531E+02  0.00000000000E+00 0. -1.
         11    1    4    4    0    0  0.45167041228E+02  0.16180724448E+02 -0.26036492025E+02  0.54587327961E+02  0.00000000000E+00 0.  1.
</event>
<event>
 8    1  0.6185113E-009  0.8971536E+02  0.7561462E-02  0.1303542E+00
         -2   -1    0    0    0  501 -0.00000000000E+00  0.00000000000E+00  0.10786301801E+03  0.10786301801E+03  0.00000000000E+00 0. -1.
          2   -1    0    0  501    0  0.00000000000E+00 -0.00000000000E+00 -0.13366715273E+03  0.13366715273E+03  0.00000000000E+00 0.  1.
         25    2    1    2    0    0 -0.94092869822E+01 -0.29023828113E+02 -0.56032945325E+02  0.14041204183E+03  0.12507970758E+03 0.  0.
         23    2    1    2    0    0  0.94092869822E+01  0.29023828113E+02  0.30228810609E+02  0.10111812891E+03  0.91543310643E+02 0.  0.
          5    1    3    3  502    0 -0.31551671695E+02  0.33648608026E+02  0.91615357155E+01  0.47213800371E+02  0.41800000000E+01 0.  1.
         -5    1    3    3    0  502  0.22142384713E+02 -0.62672436139E+02 -0.65194481041E+02  0.93198241457E+02  0.41800000000E+01 0.  1.
        -11    1    4    4    0    0 -0.16479012868E+02  0.36093836635E+02 -0.19801763373E+02  0.44344478132E+02  0.00000000000E+00 0.  1.
         11    1    4    4    0    0  0.25888299850E+02 -0.70700085220E+01  0.50030573982E+02  0.56773650777E+02  0.00000000000E+00 0. -1.
</event>
<event>
 8    1  0.6185113E-009  0.9885002E+02  0.7561462E-02  0.1282733E+00
         -1   -1    0    0    0  501 -0.00000000000E+00  0.00000000000E+00  0.10674106013E+02  0.10674106013E+02  0.00000000000E+00 0.  1.
          1   -1    0    0  501    0  0.00000000000E+00 -0.00000000000E+00 -0.13276033546E+04  0.13276033546E+04  0.00000000000E+00 0. -1.
         25    2    1    2    0    0 -0.19710847326E+02  0.45693760371E+02 -0.86845929810E+03  0.87883117963E+03  0.12508498152E+03 0.  0.
         23    2    1    2    0    0  0.19710847326E+02 -0.45693760371E+02 -0.44846995054E+03  0.45944628103E+03  0.86539883159E+02 0.  0.
          5    1    3    3  502    0  0.20195308838E+02 -0.14795725878E+02 -0.60565533481E+03  0.60618695217E+03  0.41800000000E+01 0. -1.
         -5    1    3    3    0  502 -0.39906156164E+02  0.60489486248E+02 -0.26280396329E+03  0.27264422746E+03  0.41800000000E+01 0. -1.
        -11    1    4    4    0    0  0.53999569558E+02 -0.32275554606E+02 -0.27300197805E+03  0.28015664361E+03  0.00000000000E+00 0.  1.
         11    1    4    4    0    0 -0.34288722232E+02 -0.13418205765E+02 -0.17546797249E+03  0.17928963742E+03  0.00000000000E+00 0. -1.
</event>
<event>
 8    1  0.6185113E-009  0.1003077E+03  0.7561462E-02  0.1279650E+00
          2   -1    0    0  501    0  0.00000000000E+00  0.00000000000E+00  0.20415687539E+03  0.20415687539E+03  0.00000000000E+00 0. -1.
         -2   -1    0    0    0  501 -0.00000000000E+00 -0.00000000000E+00 -0.76163960232E+02  0.76163960232E+02  0.00000000000E+00 0.  1.
         25    2    1    2    0    0  0.26082955601E+02  0.24431460529E+02  0.12667272795E+03  0.18157766457E+03  0.12508897405E+03 0.  0.
         23    2    1    2    0    0 -0.26082955601E+02 -0.24431460529E+02  0.13201872067E+01  0.98743171045E+02  0.92039415998E+02 0.  0.
          5    1    3    3  502    0 -0.39958442171E+02 -0.20267048679E+02  0.71624009461E+02  0.84586650804E+02  0.41800000000E+01 0. -1.
         -5    1    3    3    0  502  0.66041397772E+02  0.44698509208E+02  0.55048718486E+02  0.96991013770E+02  0.41800000000E+01 0. -1.
        -11    1    4    4    0    0 -0.46629389309E+02 -0.40251527422E+01 -0.30387169502E+02  0.55802167272E+02  0.00000000000E+00 0.  1.
         11    1    4    4    0    0  0.20546433708E+02 -0.20406307787E+02  0.31707356708E+02  0.42941003773E+02  0.00000000000E+00 0. -1.
</event>
<event>
 8    1  0.6185113E-009  0.7514093E+02  0.7561462E-02  0.1343435E+00
          2   -1    0    0  501    0  0.00000000000E+00  0.00000000000E+00  0.15855867378E+03  0.15855867378E+03  0.00000000000E+00 0.  1.
         -2   -1    0    0    0  501 -0.00000000000E+00 -0.00000000000E+00 -0.10858112597E+03  0.10858112597E+03  0.00000000000E+00 0. -1.
         25    2    1    2    0    0  0.27807937568E+02 -0.32149170316E+02 -0.32660118149E+02  0.13609083655E+03  0.12508869626E+03 0.  0.
         23    2    1    2    0    0 -0.27807937568E+02  0.32149170316E+02  0.82637665965E+02  0.13104896320E+03  0.92401279078E+02 0.  0.
          5    1    3    3  502    0  0.13258460884E+02 -0.92389518165E+00  0.47095458580E+02  0.49113083656E+02  0.41800000000E+01 0.  1.
         -5    1    3    3    0  502  0.14549476684E+02 -0.31225275135E+02 -0.79755576729E+02  0.86977752894E+02  0.41800000000E+01 0.  1.
        -11    1    4    4    0    0 -0.38920329370E+02  0.60081724976E+02  0.60256651331E+02  0.93570667113E+02  0.00000000000E+00 0. -1.
         11    1    4    4    0    0  0.11112391802E+02 -0.27932554660E+02  0.22381014634E+02  0.37478296085E+02  0.00000000000E+00 0.  1.
</event>
<event>
 7    1  0.6185113E-009  0.1238590E+03  0.7561462E-02  0.1236863E+00
          2   -1    0    0  501    0  0.00000000000E+00  0.00000000000E+00  0.75560906621E+03  0.75560906621E+03  0.00000000000E+00 0. -1.
         -2   -1    0    0    0  501 -0.00000000000E+00 -0.00000000000E+00 -0.20930852300E+02  0.20930852300E+02  0.00000000000E+00 0.  1.
         23    2    1    2    0    0  0.44814650129E+02 -0.44520008727E+02  0.30060055038E+03  0.32042100018E+03  0.91206043806E+02 0.  0.
          5    1    1    2  502    0 -0.11945395372E+02  0.84628160092E+02  0.30958931250E+03  0.32119718673E+03  0.41800000000E+01 0. -1.
         -5    1    1    2    0  502 -0.32869254756E+02 -0.40108151365E+02  0.12448835104E+03  0.13492173160E+03  0.41800000000E+01 0. -1.
        -11    1    3    3    0    0  0.34765761461E+02 -0.72494608643E+02  0.20113525233E+03  0.21660913227E+03  0.00000000000E+00 0.  1.
         11    1    3    3    0    0  0.10048888668E+02  0.27974599916E+02  0.99465298044E+02  0.10381186791E+03  0.00000000000E+00 0. -1.
</event>
<event>
 8    1  0.6185113E-009  0.7326597E+02  0.7561462E-02  0.1349326E+00
          1   -1    0    0  501    0  0.00000000000E+00  0.00000000000E+00  0.32904786445E+03  0.32904786445E+03  0.00000000000E+00 0. -1.
         -1   -1    0    0    0  501 -0.00000000000E+00 -0.00000000000E+00 -0.42013973884E+02  0.42013973884E+02  0.00000000000E+00 0.  1.
         25    2    1    2    0    0 -0.19367938752E+02 -0.27225232717E+02  0.11295343636E+03  0.17181960714E+03  0.12508864162E+03 0.  0.
         23    2    1    2    0    0  0.19367938752E+02  0.27225232717E+02  0.17408045420E+03  0.19924223119E+03  0.90978743712E+02 0.  0.
          5    1    3    3  502    0  0.15242615005E+02 -0.41962645022E+01 -0.23771523343E+02  0.28853139690E+02  0.41800000000E+01 0. -1.
         -5    1    3    3    0  502 -0.34610553757E+02 -0.23028968215E+02  0.13672495970E+03  0.14296646745E+03  0.41800000000E+01 0. -1.
        -11    1    4    4    0    0 -0.70470249877E-01  0.54722901659E+02  0.14415459288E+03  0.15419191801E+03  0.00000000000E+00 0. -1.
         11    1    4    4    0    0  0.19438409002E+02 -0.27497668942E+02  0.29925861324E+02  0.45050313181E+02  0.00000000000E+00 0.  1.
</event>
<event>
 8    1  0.6185113E-009  0.1067915E+03  0.7561462E-02  0.1266629E+00
          3   -1    0    0  501    0  0.00000000000E+00  0.00000000000E+00  0.20678269049E+03  0.20678269049E+03  0.00000000000E+00 0.  1.
         -3   -1    0    0    0  501 -0.00000000000E+00 -0.00000000000E+00 -0.70992542901E+02  0.70992542901E+02  0.00000000000E+00 0. -1.
         25    2    1    2    0    0  0.82877338923E+01 -0.35170078930E+02  0.11684813497E+03  0.17494966083E+03  0.12509307013E+03 0.  0.
         23    2    1    2    0    0 -0.82877338923E+01  0.35170078930E+02  0.18942012626E+02  0.10282557256E+03  0.94385791015E+02 0.  0.
          5    1    3    3  502    0 -0.55684851003E+02 -0.13668593205E+01  0.65741774711E+02  0.86267747610E+02  0.41800000000E+01 0.  1.
         -5    1    3    3    0  502  0.63972584895E+02 -0.33803219610E+02  0.51106360257E+02  0.88681913223E+02  0.41800000000E+01 0.  1.
        -11    1    4    4    0    0 -0.21660914438E+02  0.56255227994E+02  0.38136475442E+02  0.71331876816E+02  0.00000000000E+00 0.  1.
         11    1    4    4    0    0  0.13373180546E+02 -0.21085149064E+02 -0.19194462816E+02  0.31493695746E+02  0.00000000000E+00 0. -1.
</event>
<event>
 8    1  0.6185113E-009  0.1044439E+03  0.7561462E-02  0.1271219E+00
          1   -1    0    0  501    0  0.00000000000E+00  0.00000000000E+00  0.41031437861E+02  0.41031437861E+02  0.00000000000E+00 0. -1.
         -1   -1    0    0    0  501 -0.00000000000E+00 -0.00000000000E+00 -0.38203776393E+03  0.38203776393E+03  0.00000000000E+00 0.  1.
         25    2    1    2    0    0 -0.32379094473E+02  0.50744408753E+02 -0.21739691584E+03  0.25794091613E+03  0.12509474976E+03 0.  0.
         23    2    1    2    0    0  0.32379094473E+02 -0.50744408753E+02 -0.12360941023E+03  0.16512828566E+03  0.91458535138E+02 0.  0.
          5    1    3    3  502    0  0.26890853901E+02  0.20664203545E+02 -0.17652493336E+03  0.17980170141E+03  0.41800000000E+01 0.  1.
         -5    1    3    3    0  502 -0.59269948374E+02  0.30080205208E+02 -0.40871982484E+02  0.78139214725E+02  0.41800000000E+01 0.  1.
        -11    1    4    4    0    0 -0.20955916100E+02  0.13265952141E+02 -0.40190273410E+02  0.47227047151E+02  0.00000000000E+00 0.  1.
         11    1    4    4    0    0  0.53335010574E+02 -0.64010360893E+02 -0.83419136815E+02  0.11790123851E+03  0.00000000000E+00 0. -1.
</event>
<event>
 8    1  0.6185113E-009  0.1534985E+03  0.7561462E-02  0.1196239E+00
          2   -1    0    0  501    0  0.00000000000E+00  0.00000000000E+00  0.51874857927E+03  0.51874857927E+03  0.00000000000E+00 0. -1.
         -2   -1    0    0    0  501 -0.00000000000E+00 -0.00000000000E+00 -0.65774347735E+02  0.65774347735E+02  0.00000000000E+00 0.  1.
         25    2    1    2    0    0  0.10034082576E+03  0.47262243127E+02  0.39618073101E+03  0.43001046433E+03  0.12509127417E+03 0.  0.
         23    2    1    2    0    0 -0.10034082576E+03 -0.47262243127E+02  0.56793500527E+02  0.15451246268E+03  0.91359720231E+02 0.  0.
          5    1    3    3  502    0  0.10791100600E+03  0.76806627897E+02  0.35237414402E+03  0.37646919274E+03  0.41800000000E+01 0. -1.
         -5    1    3    3    0  502 -0.75701802458E+01 -0.29544384771E+02  0.43806586988E+02  0.53541271595E+02  0.41800000000E+01 0. -1.
        -11    1    4    4    0    0 -0.60246024912E+02 -0.74058395320E+02  0.38202467543E+02  0.10282829358E+03  0.00000000000E+00 0.  1.
         11    1    4    4    0    0 -0.40094800846E+02  0.26796152193E+02  0.18591032985E+02  0.51684169091E+02  0.00000000000E+00 0. -1.
</event>
<event>
 8    1  0.6185113E-009  0.1306889E+03  0.7561462E-02  0.1226437E+00
          2   -1    0    0  501    0  0.00000000000E+00  0.00000000000E+00  0.12037715434E+03  0.12037715434E+03  0.00000000000E+00 0. -1.
         -2   -1    0    0    0  501 -0.00000000000E+00 -0.00000000000E+00 -0.15215532083E+03  0.15215532083E+03  0.00000000000E+00 0.  1.
         25    2    1    2    0    0  0.63244689711E+02 -0.48604325182E+02 -0.24744361211E+02  0.15040869814E+03  0.12509285295E+03 0.  0.
         23    2    1    2    0    0 -0.63244689711E+02  0.48604325182E+02 -0.70338052852E+01  0.12212377704E+03  0.92208846094E+02 0.  0.
          5    1    3    3  502    0 -0.85798140211E+00 -0.76719594843E+02 -0.26334384479E+01  0.76883286630E+02  0.41800000000E+01 0. -1.
         -5    1    3    3    0  502  0.64102671113E+02  0.28115269660E+02 -0.22110922763E+02  0.73525411507E+02  0.41800000000E+01 0. -1.
        -11    1    4    4    0    0 -0.33190726300E+02  0.70037441640E+02 -0.24503118402E+02  0.81285117674E+02  0.00000000000E+00 0.  1.
         11    1    4    4    0    0 -0.30053963411E+02 -0.21433116458E+02  0.17469313117E+02  0.40838659363E+02  0.00000000000E+00 0. -1.
</event>
<event>
 8    1  0.6185113E-009  0.9943907E+02  0.7561462E-02  0.1281480E+00
          2   -1    0    0  501    0  0.00000000000E+00  0.00000000000E+00  0.28404522532E+03  0.28404522532E+03  0.00000000000E+00 0. -1.
         -2   -1    0    0    0  501 -0.00000000000E+00 -0.00000000000E+00 -0.70288911249E+02  0.70288911249E+02  0.00000000000E+00 0.  1.
         25    2    1    2    0    0 -0.64824403709E+02  0.25153851551E+02  0.19464614848E+03  0.24159442069E+03  0.12508325797E+03 0.  0.
         23    2    1    2    0    0  0.64824403709E+02 -0.25153851551E+02  0.19110165592E+02  0.11273971589E+03  0.86660980522E+02 0.  0.
          5    1    3    3  502    0 -0.75372112426E+02  0.23834211718E+02  0.20886078456E+03  0.22335918317E+03  0.41800000000E+01 0. -1.
         -5    1    3    3    0  502  0.10547708717E+02  0.13196398333E+01 -0.14214636077E+02  0.18235237516E+02  0.41800000000E+01 0. -1.
        -11    1    4    4    0    0  0.65777260412E+02 -0.50502213129E+02  0.25161691339E+02  0.86661596046E+02  0.00000000000E+00 0. -1.
         11    1    4    4    0    0 -0.95285670319E+00  0.25348361577E+02 -0.60515257462E+01  0.26078119840E+02  0.00000000000E+00 0.  1.
</event>
<event>
 8    1  0.6185113E-009  0.1303685E+03  0.7561462E-02  0.1226910E+00
         -2   -1    0    0    0  501 -0.00000000000E+00  0.00000000000E+00  0.38699721199E+02  0.38699721199E+02  0.00000000000E+00 0.  1.
          2   -1    0    0  501    0  0.00000000000E+00 -0.00000000000E+00 -0.48121408235E+03  0.48121408235E+03  0.00000000000E+00 0. -1.
         25    2    1    2    0    0  0.35301344439E+02 -0.72083655420E+02 -0.27876913524E+03  0.31591463888E+03  0.12509032736E+03 0.  0.
         23    2    1    2    0    0 -0.35301344439E+02  0.72083655420E+02 -0.16374522591E+03  0.20399916467E+03  0.91438076748E+02 0.  0.
          5    1    3    3  502    0  0.44711003984E+02 -0.10359287796E+03 -0.23757131638E+03  0.26303642525E+03  0.41800000000E+01 0.  1.
         -5    1    3    3    0  502 -0.94096595448E+01  0.31509222542E+02 -0.41197818863E+02  0.52878213634E+02  0.41800000000E+01 0.  1.
        -11    1    4    4    0    0 -0.61075419235E+02  0.61927201919E+02 -0.89717502168E+02  0.12495765430E+03  0.00000000000E+00 0.  1.
         11    1    4    4    0    0  0.25774074795E+02  0.10156453501E+02 -0.74027723747E+02  0.79041510375E+02  0.00000000000E+00 0. -1.
</event>
<event>
 8    1  0.6185113E-009  0.1344832E+03  0.7561462E-02  0.1220951E+00
          2   -1    0    0  501    0  0.00000000000E+00  0.00000000000E+00  0.32883626147E+03  0.32883626147E+03  0.00000000000E+00 0. -1.
         -2   -1    0    0    0  501 -0.00000000000E+00 -0.00000000000E+00 -0.11483606318E+03  0.11483606318E+03  0.00000000000E+00 0.  1.
         25    2    1    2    0    0  0.38488978448E+00  0.82648726619E+02 -0.45524784094E+02  0.15668861607E+03  0.12509139174E+03 0.  0.
         23    2    1    2    0    0 -0.38488978448E+00 -0.82648726619E+02  0.25952498238E+03  0.28698370858E+03  0.90418318714E+02 0.  0.
          5    1    3    3  502    0  0.58199188149E+02  0.68221585353E+02 -0.21535199071E+02  0.92317752401E+02  0.41800000000E+01 0.  1.
         -5    1    3    3    0  502 -0.57814298365E+02  0.14427141267E+02 -0.23989585023E+02  0.64370863674E+02  0.41800000000E+01 0.  1.
        -11    1    4    4    0    0 -0.41493529953E+02 -0.58704550254E+02  0.12374918418E+03  0.14311463180E+03  0.00000000000E+00 0. -1.
         11    1    4    4    0    0  0.41108640169E+02 -0.23944176365E+02  0.13577579819E+03  0.14386907678E+03  0.00000000000E+00 0.  1.
</event>
<event>
 8    1  0.6185113E-009  0.2111674E+03  0.7561462E-02  0.1140645E+00
         -1   -1    0    0    0  501 -0.00000000000E+00  0.00000000000E+00  0.73479175641E+03  0.73479175641E+03  0.00000000000E+00 0.  1.
          1   -1    0    0  501    0  0.00000000000E+00 -0.00000000000E+00 -0.70134258388E+02  0.70134258388E+02  0.00000000000E+00 0. -1.
         25    2    1    2    0    0  0.15097464933E+02  0.19933326528E+03  0.35833072818E+03  0.42896432374E+03  0.12509115151E+03 0.  0.
         23    2    1    2    0    0 -0.15097464933E+02 -0.19933326528E+03  0.30632676983E+03  0.37596169105E+03  0.86887393376E+02 0.  0.
          5    1    3    3  502    0 -0.14392146778E+02  0.14689457681E+03  0.33161871102E+03  0.36300632568E+03  0.41800000000E+01 0.  1.
         -5    1    3    3    0  502  0.29489611710E+02  0.52438688467E+02  0.26712017164E+02  0.65957998059E+02  0.41800000000E+01 0.  1.
        -11    1    4    4    0    0 -0.45388829864E+02 -0.14760442267E+03  0.18779632169E+03  0.24313508572E+03  0.00000000000E+00 0. -1.
         11    1    4    4    0    0  0.30291364932E+02 -0.51728842616E+02  0.11853044814E+03  0.13282660533E+03  0.00000000000E+00 0.  1.
</event>
<event>
 8    1  0.6185113E-009  0.1179747E+03  0.7561462E-02  0.1246476E+00
          1   -1    0    0  501    0  0.00000000000E+00  0.00000000000E+00  0.27727706317E+03  0.27727706317E+03  0.00000000000E+00 0. -1.
         -1   -1    0    0    0  501 -0.00000000000E+00 -0.00000000000E+00 -0.80131824068E+02  0.80131824068E+02  0.00000000000E+00 0.  1.
         25    2    1    2    0    0  0.76931270885E+02  0.35526925845E+02  0.17326545400E+03  0.22988917799E+03  0.12509010235E+03 0.  0.
         23    2    1    2    0    0 -0.76931270885E+02 -0.35526925845E+02  0.23879785095E+02  0.12751970924E+03  0.92252095962E+02 0.  0.
          5    1    3    3  502    0  0.42271427189E+02  0.82363619379E+02  0.10577674152E+03  0.14063012053E+03  0.41800000000E+01 0. -1.
         -5    1    3    3    0  502  0.34659843695E+02 -0.46836693534E+02  0.67488712479E+02  0.89259057458E+02  0.41800000000E+01 0. -1.
        -11    1    4    4    0    0 -0.43320761142E+02 -0.22490504032E+02 -0.33891325195E+02  0.59423337512E+02  0.00000000000E+00 0.  1.
         11    1    4    4    0    0 -0.33610509742E+02 -0.13036421813E+02  0.57771110290E+02  0.68096371732E+02  0.00000000000E+00 0. -1.
</event>
<event>
 8    1  0.6185113E-009  0.8124376E+02  0.7561462E-02  0.1325558E+00
         -1   -1    0    0    0  501 -0.00000000000E+00  0.00000000000E+00  0.72439713429E+02  0.72439713429E+02  0.00000000000E+00 0.  1.
          1   -1    0    0  501    0  0.00000000000E+00 -0.00000000000E+00 -0.21746751772E+03  0.21746751772E+03  0.00000000000E+00 0. -1.
         25    2    1    2    0    0 -0.50652500586E+02 -0.84544097368E+01 -0.12410119026E+03  0.18353632551E+03  0.12508926612E+03 0.  0.
         23    2    1    2    0    0  0.50652500586E+02  0.84544097368E+01 -0.20926614035E+02  0.10637090564E+03  0.90772757655E+02 0.  0.
          5    1    3    3  502    0  0.25940108012E+02 -0.11432206572E+02  0.88718519072E+01  0.29996111532E+02  0.41800000000E+01 0. -1.
         -5    1    3    3    0  502 -0.76592608598E+02  0.29777968352E+01 -0.13297304217E+03  0.15354021398E+03  0.41800000000E+01 0. -1.
        -11    1    4    4    0    0  0.40859290769E+02 -0.41923712133E+01  0.31369888931E+02  0.51682952219E+02  0.00000000000E+00 0.  1.
         11    1    4    4    0    0  0.97932098169E+01  0.12646780950E+02 -0.52296502967E+02  0.54687953422E+02  0.00000000000E+00 0. -1.
</event>
<event>
 8    1  0.6185113E-009  0.3224384E+03  0.7561462E-02  0.1074533E+00
          2   -1    0    0  501    0  0.00000000000E+00  0.00000000000E+00  0.64789656979E+03  0.64789656979E+03  0.00000000000E+00 0. -1.
         -2   -1    0    0    0  501 -0.00000000000E+00 -0.00000000000E+00 -0.17119585179E+03  0.17119585179E+03  0.00000000000E+00 0.  1.
         25    2    1    2    0    0 -0.61018321915E+02  0.30660094712E+03  0.28730255638E+03  0.44262815004E+03  0.12509813715E+03 0.  0.
         23    2    1    2    0    0  0.61018321915E+02 -0.30660094712E+03  0.18939816162E+03  0.37646427154E+03  0.90146035614E+02 0.  0.
          5    1    3    3  502    0 -0.30111745737E+02  0.14076170779E+02  0.31950155919E+01  0.33653177261E+02  0.41800000000E+01 0.  1.
         -5    1    3    3    0  502 -0.30906576177E+02  0.29252477634E+03  0.28410754079E+03  0.40897497278E+03  0.41800000000E+01 0.  1.
        -11    1    4    4    0    0  0.48038504543E+02 -0.29746841473E+03  0.15560167770E+03  0.33912687565E+03  0.00000000000E+00 0.  1.
         11    1    4    4    0    0  0.12979817372E+02 -0.91325323878E+01  0.33796483921E+02  0.37337395895E+02  0.00000000000E+00 0. -1.
</event>
<event>
 8    1  0.6185113E-009  0.1118942E+03  0.7561462E-02  0.1257102E+00
          3   -1    0    0  501    0  0.00000000000E+00  0.00000000000E+00  0.10361231315E+03  0.10361231315E+03  0.00000000000E+00 0. -1.
         -3   -1    0    0    0  501 -0.00000000000E+00 -0.00000000000E+00 -0.14446385579E+03  0.14446385579E+03  0.00000000000E+00 0.  1.
         25    2    1    2    0    0  0.40282919647E+02 -0.46283562889E+02 -0.27307323994E+02  0.14198063276E+03  0.12509167969E+03 0.  0.
         23    2    1    2    0    0 -0.40282919647E+02  0.46283562889E+02 -0.13544218646E+02  0.10609553617E+03  0.85486461662E+02 0.  0.
          5    1    3    3  502    0 -0.33677402588E+02 -0.53477407814E+01 -0.43888237889E+02  0.55735227653E+02  0.41800000000E+01 0. -1.
         -5    1    3    3    0  502  0.73960322235E+02 -0.40935822107E+02  0.16580913895E+02  0.86245405108E+02  0.41800000000E+01 0. -1.
        -11    1    4    4    0    0 -0.66671766288E+02  0.26199015641E+02 -0.13698293107E+02  0.72932544687E+02  0.00000000000E+00 0.  1.
         11    1    4    4    0    0  0.26388846641E+02  0.20084547248E+02  0.15407446067E+00  0.33162991483E+02  0.00000000000E+00 0. -1.
</event>
<event>
 8    1  0.6185113E-009  0.1826478E+03  0.7561462E-02  0.1165265E+00
          2   -1    0    0  501    0  0.00000000000E+00  0.00000000000E+00  0.72584610977E+03  0.72584610977E+03  0.00000000000E+00 0.  1.
         -2   -1    0    0    0  501 -0.00000000000E+00 -0.00000000000E+00 -0.55393710640E+02  0.55393710640E+02  0.00000000000E+00 0. -1.
         25    2    1    2    0    0  0.31932736927E+02 -0.15464293895E+03  0.46354542710E+03  0.50542630070E+03  0.12508894514E+03 0.  0.
         23    2    1    2    0    0 -0.31932736927E+02  0.15464293895E+03  0.20690697203E+03  0.27581351971E+03  0.91260420365E+02 0.  0.
          5    1    3    3  502    0  0.56765735772E+02 -0.35582800340E+02  0.25769958787E+03  0.26629876910E+03  0.41800000000E+01 0.  1.
         -5    1    3    3    0  502 -0.24832998844E+02 -0.11906013861E+03  0.20584583924E+03  0.23912753160E+03  0.41800000000E+01 0.  1.
        -11    1    4    4    0    0 -0.58478036324E+02  0.10649736311E+03  0.10755208014E+03  0.16226157593E+03  0.00000000000E+00 0. -1.
         11    1    4    4    0    0  0.26545299396E+02  0.48145575841E+02  0.99354891890E+02  0.11355194378E+03  0.00000000000E+00 0.  1.
</event>
<event>
 8    1  0.6185113E-009  0.8605351E+02  0.7561462E-02  0.1312700E+00
         -1   -1    0    0    0  501 -0.00000000000E+00  0.00000000000E+00  0.22076881828E+03  0.22076881828E+03  0.00000000000E+00 0.  1.
          1   -1    0    0  501    0  0.00000000000E+00 -0.00000000000E+00 -0.60429484139E+02  0.60429484139E+02  0.00000000000E+00 0. -1.
         25    2    1    2    0    0 -0.15210311640E+02 -0.20163322410E+02  0.13633085156E+03  0.18673711926E+03  0.12508691967E+03 0.  0.
         23    2    1    2    0    0  0.15210311640E+02  0.20163322410E+02  0.24008482588E+02  0.94461183158E+02  0.87798603273E+02 0.  0.
          5    1    3    3  502    0 -0.45566592327E+02 -0.33223576494E+02  0.14209404671E+03  0.15293237356E+03  0.41800000000E+01 0.  1.
         -5    1    3    3    0  502  0.30356280688E+02  0.13060254084E+02 -0.57631951523E+01  0.33804745707E+02  0.41800000000E+01 0.  1.
        -11    1    4    4    0    0 -0.12314592643E+02 -0.25849378213E+02  0.28823955164E+02  0.40628314477E+02  0.00000000000E+00 0.  1.
         11    1    4    4    0    0  0.27524904283E+02  0.46012700622E+02 -0.48154725761E+01  0.53832868681E+02  0.00000000000E+00 0. -1.
</event>
<event>
 8    1  0.6185113E-009  0.9018717E+02  0.7561462E-02  0.1302399E+00
          1   -1    0    0  501    0  0.00000000000E+00  0.00000000000E+00  0.14614584594E+03  0.14614584594E+03  0.00000000000E+00 0. -1.
         -1   -1    0    0    0  501 -0.00000000000E+00 -0.00000000000E+00 -0.16680317814E+03  0.16680317814E+03  0.00000000000E+00 0.  1.
         25    2    1    2    0    0  0.39548718580E+02  0.51968382120E+01  0.94199662001E+02  0.16158759680E+03  0.12508343955E+03 0.  0.
         23    2    1    2    0    0 -0.39548718580E+02 -0.51968382120E+01 -0.11485699420E+03  0.15136142729E+03  0.90150120832E+02 0.  0.
          5    1    3    3  502    0 -0.43460308490E+02 -0.14184975769E+02  0.34813853894E+02  0.57615004769E+02  0.41800000000E+01 0.  1.
         -5    1    3    3    0  502  0.83009027070E+02  0.19381813981E+02  0.59385808108E+02  0.10397259203E+03  0.41800000000E+01 0.  1.
        -11    1    4    4    0    0 -0.14866286837E+02 -0.16297258164E+02  0.95551342725E+01  0.24039710875E+02  0.00000000000E+00 0. -1.
         11    1    4    4    0    0 -0.24682431743E+02  0.11100419952E+02 -0.12441212847E+03  0.12732171642E+03  0.00000000000E+00 0.  1.
</event>
<event>
 8    1  0.6185113E-009  0.1394155E+03  0.7561462E-02  0.1214118E+00
          2   -1    0    0  501    0  0.00000000000E+00  0.00000000000E+00  0.14138062455E+03  0.14138062455E+03  0.00000000000E+00 0.  1.
         -2   -1    0    0    0  501 -0.00000000000E+00 -0.00000000000E+00 -0.22363340889E+03  0.22363340889E+03  0.00000000000E+00 0. -1.
         25    2    1    2    0    0 -0.81028910028E+02  0.86996506361E+02  0.33254420875E+02  0.17573751406E+03  0.12507494138E+03 0.  0.
         23    2    1    2    0    0  0.81028910028E+02 -0.86996506361E+02 -0.11550720521E+03  0.18927651938E+03  0.91376200143E+02 0.  0.
          5    1    3    3  502    0 -0.67057255403E+02  0.35428323444E+02  0.75803019101E+02  0.10730988635E+03  0.41800000000E+01 0.  1.
         -5    1    3    3    0  502 -0.13971654626E+02  0.51568182917E+02 -0.42548598226E+02  0.68427627705E+02  0.41800000000E+01 0.  1.
        -11    1    4    4    0    0  0.94775853351E+02 -0.94317523310E+02 -0.97586832007E+02  0.16553382543E+03  0.00000000000E+00 0. -1.
         11    1    4    4    0    0 -0.13746943323E+02  0.73210169485E+01 -0.17920373207E+02  0.23742693945E+02  0.00000000000E+00 0.  1.
</event>
<event>
 8    1  0.6185113E-009  0.1089673E+03  0.7561462E-02  0.1262494E+00
         -2   -1    0    0    0  501 -0.00000000000E+00  0.00000000000E+00  0.46734471387E+02  0.46734471387E+02  0.00000000000E+00 0.  1.
          2   -1    0    0  501    0  0.00000000000E+00 -0.00000000000E+00 -0.53153136241E+03  0.53153136241E+03  0.00000000000E+00 0. -1.
         25    2    1    2    0    0  0.52000442528E+02  0.63689356250E+02 -0.11581907189E+03  0.18926783303E+03  0.12509146687E+03 0.  0.
         23    2    1    2    0    0 -0.52000442528E+02 -0.63689356250E+02 -0.36897781913E+03  0.38899800077E+03  0.91730221126E+02 0.  0.
          5    1    3    3  502    0  0.38126904210E+02 -0.10869524215E+02  0.11078154573E+02  0.41376385657E+02  0.41800000000E+01 0. -1.
         -5    1    3    3    0  502  0.13873538318E+02  0.74558880465E+02 -0.12689722647E+03  0.14789144737E+03  0.41800000000E+01 0. -1.
        -11    1    4    4    0    0 -0.55390082584E+02 -0.20916124925E+02 -0.31255668629E+03  0.31811511701E+03  0.00000000000E+00 0. -1.
         11    1    4    4    0    0  0.33896400556E+01 -0.42773231325E+02 -0.56421132843E+02  0.70882883752E+02  0.00000000000E+00 0.  1.
</event>
<event>
 8    1  0.6185113E-009  0.1176409E+03  0.7561462E-02  0.1247040E+00
         -2   -1    0    0    0  501 -0.00000000000E+00  0.00000000000E+00  0.11110386512E+02  0.11110386512E+02  0.00000000000E+00 0.  1.
          2   -1    0    0  501    0  0.00000000000E+00 -0.00000000000E+00 -0.14809621607E+04  0.14809621607E+04  0.00000000000E+00 0. -1.
         25    2    1    2    0    0  0.46554047392E+02 -0.37681508156E+02 -0.10030982554E+04  0.10126405120E+04  0.12509005245E+03 0.  0.
         23    2    1    2    0    0 -0.46554047392E+02  0.37681508156E+02 -0.46675351874E+03  0.47943203514E+03  0.91700892450E+02 0.  0.
          5    1    3    3  502    0  0.77022645308E+02 -0.52427937143E+02 -0.51685663830E+03  0.52520418262E+03  0.41800000000E+01 0. -1.
         -5    1    3    3    0  502 -0.30468597916E+02  0.14746428987E+02 -0.48624161711E+03  0.48743632942E+03  0.41800000000E+01 0. -1.
        -11    1    4    4    0    0 -0.71453407753E+02  0.12579948905E+02 -0.27284183257E+03  0.28232341418E+03  0.00000000000E+00 0.  1.
         11    1    4    4    0    0  0.24899360361E+02  0.25101559252E+02 -0.19391168617E+03  0.19710862096E+03  0.00000000000E+00 0. -1.
</event>
<event>
 8    1  0.6185113E-009  0.7452286E+02  0.7561462E-02  0.1345355E+00
          4   -1    0    0  501    0  0.00000000000E+00  0.00000000000E+00  0.55152762075E+03  0.55152762075E+03  0.00000000000E+00 0. -1.
         -4   -1    0    0    0  501 -0.00000000000E+00 -0.00000000000E+00 -0.22361526010E+02  0.22361526010E+02  0.00000000000E+00 0.  1.
         25    2    1    2    0    0  0.18147718427E+02 -0.52625058801E+01  0.35149196780E+03  0.37355891897E+03  0.12507049555E+03 0.  0.
         23    2    1    2    0    0 -0.18147718427E+02  0.52625058801E+01  0.17767412693E+03  0.20033022779E+03  0.90592886762E+02 0.  0.
          5    1    3    3  502    0  0.29415338199E+02 -0.39032160612E+02  0.32576499373E+03  0.32943751338E+03  0.41800000000E+01 0. -1.
         -5    1    3    3    0  502 -0.11267619772E+02  0.33769654732E+02  0.25726974077E+02  0.44121405590E+02  0.41800000000E+01 0. -1.
        -11    1    4    4    0    0 -0.37916248422E+02 -0.99541063527E+01  0.16965680025E+03  0.17412683883E+03  0.00000000000E+00 0. -1.
         11    1    4    4    0    0  0.19768529995E+02  0.15216612233E+02  0.80173266821E+01  0.26203388963E+02  0.00000000000E+00 0.  1.
</event>
<event>
 8    1  0.6185113E-009  0.1047902E+03  0.7561462E-02  0.1270534E+00
         -2   -1    0    0    0  501 -0.00000000000E+00  0.00000000000E+00  0.29489576603E+02  0.29489576603E+02  0.00000000000E+00 0.  1.
          2   -1    0    0  501    0  0.00000000000E+00 -0.00000000000E+00 -0.38587240243E+03  0.38587240243E+03  0.00000000000E+00 0. -1.
         25    2    1    2    0    0 -0.59442270384E+01  0.10798851542E+02 -0.18979937724E+03  0.22764836474E+03  0.12509206744E+03 0.  0.
         23    2    1    2    0    0  0.59442270384E+01 -0.10798851542E+02 -0.16658344858E+03  0.18771361429E+03  0.85641150268E+02 0.  0.
          5    1    3    3  502    0  0.41355271108E+02 -0.37535193883E+02 -0.10597930461E+03  0.11986757124E+03  0.41800000000E+01 0.  1.
         -5    1    3    3    0  502 -0.47299498147E+02  0.48334045425E+02 -0.83820072633E+02  0.10778079350E+03  0.41800000000E+01 0.  1.
        -11    1    4    4    0    0  0.61743013768E+01 -0.48111125598E+02 -0.10583547769E+03  0.11642143592E+03  0.00000000000E+00 0.  1.
         11    1    4    4    0    0 -0.23007433835E+00  0.37312274056E+02 -0.60747970891E+02  0.71292178370E+02  0.00000000000E+00 0. -1.
</event>
<event>
 8    1  0.6185113E-009  0.1096604E+03  0.7561462E-02  0.1261200E+00
         -1   -1    0    0    0  501 -0.00000000000E+00  0.00000000000E+00  0.41984581020E+02  0.41984581020E+02  0.00000000000E+00 0.  1.
          1   -1    0    0  501    0  0.00000000000E+00 -0.00000000000E+00 -0.41383029027E+03  0.41383029027E+03  0.00000000000E+00 0. -1.
         25    2    1    2    0    0  0.49436669059E+02  0.40622038993E+02 -0.26663856597E+03  0.30139270434E+03  0.12508918046E+03 0.  0.
         23    2    1    2    0    0 -0.49436669059E+02 -0.40622038993E+02 -0.10520714328E+03  0.15442216694E+03  0.93185451374E+02 0.  0.
          5    1    3    3  502    0 -0.22387473594E+02 -0.31111094329E+02 -0.64128376420E+02  0.74826601062E+02  0.41800000000E+01 0.  1.
         -5    1    3    3    0  502  0.71824142653E+02  0.71733133322E+02 -0.20251018955E+03  0.22656610328E+03  0.41800000000E+01 0.  1.
        -11    1    4    4    0    0 -0.36307760433E+02 -0.50880651827E+02 -0.11792138334E+03  0.13346365365E+03  0.00000000000E+00 0. -1.
         11    1    4    4    0    0 -0.13128908626E+02  0.10258612834E+02  0.12714240062E+02  0.20958513291E+02  0.00000000000E+00 0.  1.
</event>
<event>
 8    1  0.6185113E-009  0.1176460E+03  0.7561462E-02  0.1247032E+00
          3   -1    0    0  501    0  0.00000000000E+00  0.00000000000E+00  0.23994279546E+02  0.23994279546E+02  0.00000000000E+00 0. -1.
         -3   -1    0    0    0  501 -0.00000000000E+00 -0.00000000000E+00 -0.71821589757E+03  0.71821589757E+03  0.00000000000E+00 0.  1.
         25    2    1    2    0    0 -0.31445665532E+02 -0.61168285708E+02 -0.31042841914E+03  0.34167731171E+03  0.12508873999E+03 0.  0.
         23    2    1    2    0    0  0.31445665532E+02  0.61168285708E+02 -0.38379319888E+03  0.40053286540E+03  0.91645882078E+02 0.  0.
          5    1    3    3  502    0 -0.53540037268E+02 -0.86895214415E+02 -0.18122288410E+03  0.20803009398E+03  0.41800000000E+01 0. -1.
         -5    1    3    3    0  502  0.22094371736E+02  0.25726928707E+02 -0.12920553503E+03  0.13364721773E+03  0.41800000000E+01 0. -1.
        -11    1    4    4    0    0  0.22737832365E+02  0.77335680864E+02 -0.36666581792E+03  0.37542194739E+03  0.00000000000E+00 0.  1.
         11    1    4    4    0    0  0.87078331668E+01 -0.16167395156E+02 -0.17127380967E+02  0.25110918012E+02  0.00000000000E+00 0. -1.
</event>
<event>
 8    1  0.6185113E-009  0.9311067E+02  0.7561462E-02  0.1295489E+00
          4   -1    0    0  501    0  0.00000000000E+00  0.00000000000E+00  0.28335234965E+02  0.28335234965E+02  0.00000000000E+00 0. -1.
         -4   -1    0    0    0  501 -0.00000000000E+00 -0.00000000000E+00 -0.45417598302E+03  0.45417598302E+03  0.00000000000E+00 0.  1.
         25    2    1    2    0    0  0.26560300920E+02 -0.19182195179E+02 -0.26885268709E+03  0.29833058889E+03  0.12508383872E+03 0.  0.
         23    2    1    2    0    0 -0.26560300920E+02  0.19182195179E+02 -0.15698806096E+03  0.18418062910E+03  0.90575088488E+02 0.  0.
          5    1    3    3  502    0 -0.30501975799E+02 -0.21701773992E+02 -0.21956143387E+03  0.22276901302E+03  0.41800000000E+01 0. -1.
         -5    1    3    3    0  502  0.57062276719E+02  0.25195788131E+01 -0.49291253228E+02  0.75561575861E+02  0.41800000000E+01 0. -1.
        -11    1    4    4    0    0 -0.56415226901E+02  0.23507633599E+02 -0.74572262252E+02  0.96417368566E+02  0.00000000000E+00 0. -1.
         11    1    4    4    0    0  0.29854925981E+02 -0.43254384204E+01 -0.82415798705E+02  0.87763260531E+02  0.00000000000E+00 0.  1.
</event>
<event>
 8    1  0.6185113E-009  0.1610477E+03  0.7561462E-02  0.1187519E+00
         -2   -1    0    0    0  501 -0.00000000000E+00  0.00000000000E+00  0.43107923982E+02  0.43107923982E+02  0.00000000000E+00 0.  1.
          2   -1    0    0  501    0  0.00000000000E+00 -0.00000000000E+00 -0.76583474289E+03  0.76583474289E+03  0.00000000000E+00 0. -1.
         25    2    1    2    0    0  0.54895058264E+02 -0.13413029399E+03 -0.36294320191E+03  0.41034168564E+03  0.12509247770E+03 0.  0.
         23    2    1    2    0    0 -0.54895058264E+02  0.13413029399E+03 -0.35978361700E+03  0.39860098123E+03  0.91837290835E+02 0.  0.
          5    1    3    3  502    0 -0.19127498113E+02 -0.23098189880E+02 -0.82948997002E+01  0.31395307306E+02  0.41800000000E+01 0.  1.
         -5    1    3    3    0  502  0.74022556377E+02 -0.11103210411E+03 -0.35464830221E+03  0.37894637834E+03  0.41800000000E+01 0.  1.
        -11    1    4    4    0    0 -0.46538946356E+02  0.33531744461E+02 -0.63394631816E+02  0.85493454473E+02  0.00000000000E+00 0.  1.
         11    1    4    4    0    0 -0.83561119085E+01  0.10059854953E+03 -0.29638898519E+03  0.31310752676E+03  0.00000000000E+00 0. -1.
</event>
<event>
 8    1  0.6185113E-009  0.1055731E+03  0.7561462E-02  0.1268995E+00
          2   -1    0    0  501    0  0.00000000000E+00  0.00000000000E+00  0.48860158300E+03  0.48860158300E+03  0.00000000000E+00 0. -1.
         -2   -1    0    0    0  501 -0.00000000000E+00 -0.00000000000E+00 -0.42403627759E+02  0.42403627759E+02  0.00000000000E+00 0.  1.
         25    2    1    2    0    0 -0.34085149070E+02  0.19950451053E+02  0.40371993498E+03  0.42449709002E+03  0.12509266826E+03 0.  0.
         23    2    1    2    0    0  0.34085149070E+02 -0.19950451053E+02  0.42478020261E+02  0.10650812074E+03  0.89329612632E+02 0.  0.
          5    1    3    3  502    0  0.39206986191E+02  0.16109582546E+02  0.63746237326E+02  0.76666561089E+02  0.41800000000E+01 0. -1.
         -5    1    3    3    0  502 -0.73292135260E+02  0.38408685078E+01  0.33997369765E+03  0.34783052893E+03  0.41800000000E+01 0. -1.
        -11    1    4    4    0    0 -0.62819571577E+01 -0.46372349631E+02  0.86597750906E+01  0.47590434970E+02  0.00000000000E+00 0.  1.
         11    1    4    4    0    0  0.40367106227E+02  0.26421898577E+02  0.33818245171E+02  0.58917685766E+02  0.00000000000E+00 0. -1.
</event>
<event>
 8    1  0.6185113E-009  0.1931524E+03  0.7561462E-02  0.1155648E+00
          2   -1    0    0  501    0  0.00000000000E+00  0.00000000000E+00  0.79792868485E+03  0.79792868485E+03  0.00000000000E+00 0.  1.
         -2   -1    0    0    0  501 -0.00000000000E+00 -0.00000000000E+00 -0.97960906791E+02  0.97960906791E+02  0.00000000000E+00 0. -1.
         25    2    1    2    0    0  0.13091609754E+03  0.11531159045E+03  0.66128334171E+03  0.69525333215E+03  0.12508297389E+03 0.  0.
         23    2    1    2    0    0 -0.13091609754E+03 -0.11531159045E+03  0.38684436350E+02  0.20063625949E+03  0.91228479763E+02 0.  0.
          5    1    3    3  502    0  0.12469030542E+03  0.65174686643E+02  0.31163676112E+03  0.34195080834E+03  0.41800000000E+01 0. -1.
         -5    1    3    3    0  502  0.62257921184E+01  0.50136903808E+02  0.34964658059E+03  0.35330252381E+03  0.41800000000E+01 0. -1.
        -11    1    4    4    0    0 -0.77392068510E+02 -0.11816336305E+03  0.15031687632E+02  0.14204951344E+03  0.00000000000E+00 0. -1.
         11    1    4    4    0    0 -0.53524029029E+02  0.28517726041E+01  0.23652748718E+02  0.58586746047E+02  0.00000000000E+00 0.  1.
</event>
<event>
 8    1  0.6185113E-009  0.1165201E+03  0.7561462E-02  0.1248951E+00
          2   -1    0    0  501    0  0.00000000000E+00  0.00000000000E+00  0.60716896014E+03  0.60716896014E+03  0.00000000000E+00 0. -1.
         -2   -1    0    0    0  501 -0.00000000000E+00 -0.00000000000E+00 -0.32236059369E+02  0.32236059369E+02  0.00000000000E+00 0.  1.
         25    2    1    2    0    0  0.57601025023E+02  0.28513220442E+02  0.17788776552E+03  0.22676536525E+03  0.12509033509E+03 0.  0.
         23    2    1    2    0    0 -0.57601025023E+02 -0.28513220442E+02  0.39704513525E+03  0.41263965426E+03  0.92172463429E+02 0.  0.
          5    1    3    3  502    0 -0.19984542349E+02 -0.26955124280E+02  0.93218205322E+02  0.99161821592E+02  0.41800000000E+01 0. -1.
         -5    1    3    3    0  502  0.77585567372E+02  0.55468344723E+02  0.84669560199E+02  0.12760354366E+03  0.41800000000E+01 0. -1.
        -11    1    4    4    0    0  0.20138104887E+01 -0.42482310656E+02  0.89921713764E+02  0.99472190875E+02  0.00000000000E+00 0.  1.
         11    1    4    4    0    0 -0.59614835512E+02  0.13969090213E+02  0.30712342149E+03  0.31316746338E+03  0.00000000000E+00 0. -1.
</event>
<event>
 7    1  0.6185113E-009  0.8672641E+02  0.7561462E-02  0.1310979E+00
         -1   -1    0    0    0  501 -0.00000000000E+00  0.00000000000E+00  0.11127711516E+03  0.11127711516E+03  0.00000000000E+00 0.  1.
          1   -1    0    0  501    0  0.00000000000E+00 -0.00000000000E+00 -0.11591873621E+03  0.11591873621E+03  0.00000000000E+00 0. -1.
         23    2    1    2    0    0 -0.13135014212E+02 -0.29691453896E+02 -0.11249477172E+02  0.97907949647E+02  0.91680449577E+02 0.  0.
          5    1    1    2  502    0 -0.41180709102E+02  0.40147385118E+02 -0.27796795591E+02  0.64014042046E+02  0.41800000000E+01 0.  1.
         -5    1    1    2    0  502  0.54315723314E+02 -0.10455931222E+02  0.34404651722E+02  0.65273859676E+02  0.41800000000E+01 0.  1.
        -11    1    3    3    0    0  0.18195464222E+02 -0.16476367162E+01 -0.42009034205E+02  0.45809917920E+02  0.00000000000E+00 0. -1.
         11    1    3    3    0    0 -0.31330478434E+02 -0.28043817180E+02  0.30759557033E+02  0.52098031727E+02  0.00000000000E+00 0.  1.
</event>
<event>
 8    1  0.6185113E-009  0.1191875E+03  0.7561462E-02  0.1244444E+00
         -1   -1    0    0    0  501 -0.00000000000E+00  0.00000000000E+00  0.14232558790E+03  0.14232558790E+03  0.00000000000E+00 0.  1.
          1   -1    0    0  501    0  0.00000000000E+00 -0.00000000000E+00 -0.15666094732E+03  0.15666094732E+03  0.00000000000E+00 0. -1.
         25    2    1    2    0    0  0.96408777978E+02 -0.32854585195E+02 -0.16982879047E+02  0.16220416635E+03  0.12509075570E+03 0.  0.
         23    2    1    2    0    0 -0.96408777978E+02  0.32854585195E+02  0.26475196266E+01  0.13678236886E+03  0.91259688971E+02 0.  0.
          5    1    3    3  502    0 -0.17643780028E+01  0.14429295211E+02  0.37404371415E+02  0.40346957642E+02  0.41800000000E+01 0. -1.
         -5    1    3    3    0  502  0.98173155981E+02 -0.47283880406E+02 -0.54387250462E+02  0.12185720871E+03  0.41800000000E+01 0. -1.
        -11    1    4    4    0    0 -0.48216951546E+02 -0.10536246001E+02  0.38580610910E+02  0.62644636118E+02  0.00000000000E+00 0.  1.
         11    1    4    4    0    0 -0.48191826432E+02  0.43390831197E+02 -0.35933091284E+02  0.74137732741E+02  0.00000000000E+00 0. -1.
</event>
<event>
 8    1  0.6185113E-009  0.1732293E+03  0.7561462E-02  0.1174521E+00
          1   -1    0    0  501    0  0.00000000000E+00  0.00000000000E+00  0.73141888525E+02  0.73141888525E+02  0.00000000000E+00 0. -1.
         -1   -1    0    0    0  501 -0.00000000000E+00 -0.00000000000E+00 -0.52049906288E+03  0.52049906288E+03  0.00000000000E+00 0.  1.
         25    2    1    2    0    0 -0.82994028464E+02  0.13595463975E+03 -0.28141878406E+03  0.34672034848E+03  0.12508715042E+03 0.  0.
         23    2    1    2    0    0  0.82994028464E+02 -0.13595463975E+03 -0.16593839030E+03  0.24692060292E+03  0.89791769910E+02 0.  0.
          5    1    3    3  502    0 -0.94355100517E+02  0.13120533377E+03 -0.28937819845E+03  0.33147388847E+03  0.41800000000E+01 0.  1.
         -5    1    3    3    0  502  0.11361072053E+02  0.47493059781E+01  0.79594143850E+01  0.15246460010E+02  0.41800000000E+01 0.  1.
        -11    1    4    4    0    0  0.83630397989E+02 -0.79677230867E+02 -0.68213030549E+02  0.13414738955E+03  0.00000000000E+00 0. -1.
         11    1    4    4    0    0 -0.63636952561E+00 -0.56277408884E+02 -0.97725359746E+02  0.11277321337E+03  0.00000000000E+00 0.  1.
</event>
<event>
 8    1  0.6185113E-009  0.1114050E+03  0.7561462E-02  0.1257990E+00
          2   -1    0    0  501    0  0.00000000000E+00  0.00000000000E+00  0.73922908323E+03  0.73922908323E+03  0.00000000000E+00 0. -1.
         -2   -1    0    0    0  501 -0.00000000000E+00 -0.00000000000E+00 -0.23607502387E+02  0.23607502387E+02  0.00000000000E+00 0.  1.
         25    2    1    2    0    0 -0.16104242731E+02 -0.69919776214E+02  0.34743039887E+03  0.37617388580E+03  0.12510311171E+03 0.  0.
         23    2    1    2    0    0  0.16104242731E+02  0.69919776214E+02  0.36819118197E+03  0.38666269981E+03  0.93782595445E+02 0.  0.
          5    1    3    3  502    0 -0.63040679284E+02 -0.25364369655E+02  0.10437700614E+03  0.12461745585E+03  0.41800000000E+01 0.  1.
         -5    1    3    3    0  502  0.46936436553E+02 -0.44555406559E+02  0.24305339274E+03  0.25155642995E+03  0.41800000000E+01 0.  1.
        -11    1    4    4    0    0 -0.14245716438E+02  0.53514500300E+02  0.33228511582E+03  0.33686813499E+03  0.00000000000E+00 0. -1.
         11    1    4    4    0    0  0.30349959169E+02  0.16405275914E+02  0.35906066150E+02  0.49794564821E+02  0.00000000000E+00 0.  1.
</event>
<event>
 8    1  0.6185113E-009  0.7171782E+02  0.7561462E-02  0.1354347E+00
          1   -1    0    0  501    0  0.00000000000E+00  0.00000000000E+00  0.18089749083E+03  0.18089749083E+03  0.00000000000E+00 0. -1.
         -1   -1    0    0    0  501 -0.00000000000E+00 -0.00000000000E+00 -0.81751821048E+02  0.81751821048E+02  0.00000000000E+00 0.  1.
         25    2    1    2    0    0  0.67985314976E+01 -0.15091915433E+01  0.11569232616E+03  0.17053036949E+03  0.12508954751E+03 0.  0.
         23    2    1    2    0    0 -0.67985314976E+01  0.15091915433E+01 -0.16546656369E+02  0.92118942393E+02  0.90352697917E+02 0.  0.
          5    1    3    3  502    0  0.24524986430E+02  0.36932462218E+02 -0.28156359268E+01  0.44619299978E+02  0.41800000000E+01 0.  1.
         -5    1    3    3    0  502 -0.17726454932E+02 -0.38441653761E+02  0.11850796208E+03  0.12591106951E+03  0.41800000000E+01 0.  1.
        -11    1    4    4    0    0  0.24704854011E+02 -0.13006810692E+01 -0.43842496198E+02  0.50340699795E+02  0.00000000000E+00 0.  1.
         11    1    4    4    0    0 -0.31503385509E+02  0.28098726126E+01  0.27295839829E+02  0.41778242598E+02  0.00000000000E+00 0. -1.
</event>
<event>
 8    1  0.6185113E-009  0.1369507E+03  0.7561462E-02  0.1217492E+00
         -2   -1    0    0    0  501 -0.00000000000E+00  0.00000000000E+00  0.28542994148E+02  0.28542994148E+02  0.00000000000E+00 0.  1.
          2   -1    0    0  501    0  0.00000000000E+00 -0.00000000000E+00 -0.15501456765E+04  0.15501456765E+04  0.00000000000E+00 0. -1.
         25    2    1    2    0    0 -0.77919843159E+02  0.73167530995E+02 -0.13691387449E+04  0.13789896561E+04  0.12508628741E+03 0.  0.
         23    2    1    2    0    0  0.77919843159E+02 -0.73167530995E+02 -0.15246393749E+03  0.19969901459E+03  0.72176551880E+02 0.  0.
          5    1    3    3  502    0 -0.60250795106E+02 -0.23926831446E+02 -0.61078781930E+03  0.61423276059E+03  0.41800000000E+01 0.  1.
         -5    1    3    3    0  502 -0.17669048053E+02  0.97094362441E+02 -0.75835092560E+03  0.76475689551E+03  0.41800000000E+01 0.  1.
        -11    1    4    4    0    0  0.42220341430E+02 -0.57097206539E+02 -0.41999487427E+02  0.82502152512E+02  0.00000000000E+00 0.  1.
         11    1    4    4    0    0  0.35699501728E+02 -0.16070324456E+02 -0.11046445006E+03  0.11719686207E+03  0.00000000000E+00 0. -1.
</event>
<event>
 8    1  0.6185113E-009  0.7187952E+02  0.7561462E-02  0.1353816E+00
         -2   -1    0    0    0  501 -0.00000000000E+00  0.00000000000E+00  0.14706041918E+03  0.14706041918E+03  0.00000000000E+00 0.  1.
          2   -1    0    0  501    0  0.00000000000E+00 -0.00000000000E+00 -0.79028223407E+02  0.79028223407E+02  0.00000000000E+00 0. -1.
         25    2    1    2    0    0  0.62229238298E+01 -0.90243346256E+01  0.42739394408E+02  0.13264385713E+03  0.12509026182E+03 0.  0.
         23    2    1    2    0    0 -0.62229238298E+01  0.90243346256E+01  0.25292801363E+02  0.93444785459E+02  0.89286274042E+02 0.  0.
          5    1    3    3  502    0 -0.15544111721E+02 -0.24647618193E+02  0.80751703712E+02  0.85950186412E+02  0.41800000000E+01 0. -1.
         -5    1    3    3    0  502  0.21767035551E+02  0.15623283567E+02 -0.38012309304E+02  0.46693670714E+02  0.41800000000E+01 0. -1.
        -11    1    4    4    0    0  0.82434977103E+01 -0.37544774995E+02  0.22634324780E+02  0.44608049074E+02  0.00000000000E+00 0.  1.
         11    1    4    4    0    0 -0.14466421540E+02  0.46569109620E+02  0.26584765828E+01  0.48836736385E+02  0.00000000000E+00 0. -1.
</event>
<event>
 8    1  0.6185113E-009  0.1039731E+03  0.7561462E-02  0.1272156E+00
         -3   -1    0    0    0  501 -0.00000000000E+00  0.00000000000E+00  0.87748096266E+02  0.87748096266E+02  0.00000000000E+00 0.  1.
          3   -1    0    0  501    0  0.00000000000E+00 -0.00000000000E+00 -0.17337369690E+03  0.17337369690E+03  0.00000000000E+00 0. -1.
         25    2    1    2    0    0  0.11383563582E+01 -0.43893693074E+02 -0.16343233775E+02  0.13356037300E+03  0.12507325773E+03 0.  0.
         23    2    1    2    0    0 -0.11383563582E+01  0.43893693074E+02 -0.69282366858E+02  0.12756142017E+03  0.97692975239E+02 0.  0.
          5    1    3    3  502    0  0.10260145162E+02 -0.72541430224E+02 -0.49569933415E+02  0.88556086049E+02  0.41800000000E+01 0.  1.
         -5    1    3    3    0  502 -0.91217888034E+01  0.28647737150E+02  0.33226699639E+02  0.45004286948E+02  0.41800000000E+01 0.  1.
        -11    1    4    4    0    0 -0.38685769577E+02 -0.86382755272E+01 -0.41125265252E+02  0.57118263401E+02  0.00000000000E+00 0. -1.
         11    1    4    4    0    0  0.37547413219E+02  0.52531968601E+02 -0.28157101606E+02  0.70443156767E+02  0.00000000000E+00 0.  1.
</event>
<event>
 8    1  0.6185113E-009  0.7792756E+02  0.7561462E-02  0.1335038E+00
          1   -1    0    0  501    0  0.00000000000E+00  0.00000000000E+00  0.13021155234E+03  0.13021155234E+03  0.00000000000E+00 0. -1.
         -1   -1    0    0    0  501 -0.00000000000E+00 -0.00000000000E+00 -0.10473611423E+03  0.10473611423E+03  0.00000000000E+00 0.  1.
         25    2    1    2    0    0 -0.23846100327E+02 -0.18350727149E+02 -0.17107811800E+02  0.12979130953E+03  0.12509085145E+03 0.  0.
         23    2    1    2    0    0  0.23846100327E+02  0.18350727149E+02  0.42583249914E+02  0.10515635704E+03  0.91318894894E+02 0.  0.
          5    1    3    3  502    0 -0.58109705985E+02 -0.40173581020E+02 -0.41680992090E+02  0.82130579221E+02  0.41800000000E+01 0.  1.
         -5    1    3    3    0  502  0.34263605658E+02  0.21822853871E+02  0.24573180290E+02  0.47660730306E+02  0.41800000000E+01 0.  1.
        -11    1    4    4    0    0  0.17468605730E+02  0.27809915216E+02 -0.22028685883E+02  0.39544994275E+02  0.00000000000E+00 0.  1.
         11    1    4    4    0    0  0.63774945972E+01 -0.94591880668E+01  0.64611935797E+02  0.65611362764E+02  0.00000000000E+00 0. -1.
</event>
<event>
 8    1  0.6185113E-009  0.1123182E+03  0.7561462E-02  0.1256336E+00
         -1   -1    0    0    0  501 -0.00000000000E+00  0.00000000000E+00  0.88035426467E+02  0.88035426467E+02  0.00000000000E+00 0.  1.
          1   -1    0    0  501    0  0.00000000000E+00 -0.00000000000E+00 -0.25919757282E+03  0.25919757282E+03  0.00000000000E+00 0. -1.
         25    2    1    2    0    0 -0.20728291356E+01  0.42326703738E+02 -0.20339020499E+03  0.24250749482E+03  0.12508582289E+03 0.  0.
         23    2    1    2    0    0  0.20728291356E+01 -0.42326703738E+02  0.32228058633E+02  0.10472550447E+03  0.90182797987E+02 0.  0.
          5    1    3    3  502    0 -0.32884648602E+01  0.86067218630E+02 -0.15310400729E+03  0.17571764160E+03  0.41800000000E+01 0.  1.
         -5    1    3    3    0  502  0.12156357246E+01 -0.43740514892E+02 -0.50286197700E+02  0.66789853215E+02  0.41800000000E+01 0.  1.
        -11    1    4    4    0    0 -0.37846458260E+02 -0.39072199037E+02  0.18001115036E+01  0.54426386448E+02  0.00000000000E+00 0.  1.
         11    1    4    4    0    0  0.39919287396E+02 -0.32545047014E+01  0.30427947130E+02  0.50299118020E+02  0.00000000000E+00 0. -1.
</event>
<event>
 8    1  0.6185113E-009  0.8265072E+02  0.7561462E-02  0.1321693E+00
          1   -1    0    0  501    0  0.00000000000E+00  0.00000000000E+00  0.17916037557E+03  0.17916037557E+03  0.00000000000E+00 0. -1.
         -1   -1    0    0    0  501 -0.00000000000E+00 -0.00000000000E+00 -0.71520581743E+02  0.71520581743E+02  0.00000000000E+00 0.  1.
         25    2    1    2    0    0 -0.76585629093E+01  0.49691430537E+00  0.98810039790E+02  0.15959954677E+03  0.12509872444E+03 0.  0.
         23    2    1    2    0    0  0.76585629093E+01 -0.49691430537E+00  0.88297540319E+01  0.91081410540E+02  0.90326952124E+02 0.  0.
          5    1    3    3  502    0 -0.34448718688E+02 -0.36100344658E+02 -0.78868371968E+00  0.50080370662E+02  0.41800000000E+01 0. -1.
         -5    1    3    3    0  502  0.26790155778E+02  0.36597258963E+02  0.99598723510E+02  0.10951917611E+03  0.41800000000E+01 0. -1.
        -11    1    4    4    0    0  0.29512475137E+02  0.23129591785E+02  0.33694592620E+02  0.50411206856E+02  0.00000000000E+00 0. -1.
         11    1    4    4    0    0 -0.21853912228E+02 -0.23626506090E+02 -0.24864838588E+02  0.40670203684E+02  0.00000000000E+00 0.  1.
</event>
<event>
 8    1  0.6185113E-009  0.1153817E+03  0.7561462E-02  0.1250916E+00
          1   -1    0    0  501    0  0.00000000000E+00  0.00000000000E+00  0.43252639984E+02  0.43252639984E+02  0.00000000000E+00 0. -1.
         -1   -1    0    0    0  501 -0.00000000000E+00 -0.00000000000E+00 -0.63033464757E+03  0.63033464757E+03  0.00000000000E+00 0.  1.
         25    2    1    2    0    0 -0.38613853318E+02 -0.95418440319E+02 -0.45590367940E+03  0.48383085061E+03  0.12509363969E+03 0.  0.
         23    2    1    2    0    0  0.38613853318E+02  0.95418440319E+02 -0.13117832818E+03  0.18975643694E+03  0.90576173218E+02 0.  0.
          5    1    3    3  502    0 -0.17779907127E+02 -0.10094578454E+03 -0.44935904129E+03  0.46091994631E+03  0.41800000000E+01 0. -1.
         -5    1    3    3    0  502 -0.20833946190E+02  0.55273442177E+01 -0.65446381081E+01  0.22910904302E+02  0.41800000000E+01 0. -1.
        -11    1    4    4    0    0  0.30758412496E+02  0.41080848016E+02 -0.12423400039E+03  0.13441652750E+03  0.00000000000E+00 0.  1.
         11    1    4    4    0    0  0.78554408213E+01  0.54337592303E+02 -0.69443277874E+01  0.55339909434E+02  0.00000000000E+00 0. -1.
</event>
<event>
 8    1  0.6185113E-009  0.1162118E+03  0.7561462E-02  0.1249480E+00
          2   -1    0    0  501    0  0.00000000000E+00  0.00000000000E+00  0.11034067067E+03  0.11034067067E+03  0.00000000000E+00 0. -1.
         -2   -1    0    0    0  501 -0.00000000000E+00 -0.00000000000E+00 -0.18037702047E+03  0.18037702047E+03  0.00000000000E+00 0.  1.
         25    2    1    2    0    0  0.40754600786E+02  0.26641595355E+02 -0.11544261380E+03  0.17704564656E+03  0.12508977494E+03 0.  0.
         23    2    1    2    0    0 -0.40754600786E+02 -0.26641595355E+02  0.45406263997E+02  0.11367204458E+03  0.92135187747E+02 0.  0.
          5    1    3    3  502    0  0.85439030909E+02  0.22484348242E+02 -0.67649471647E+02  0.11135213214E+03  0.41800000000E+01 0.  1.
         -5    1    3    3    0  502 -0.44684430122E+02  0.41572471132E+01 -0.47793142156E+02  0.65693514414E+02  0.41800000000E+01 0.  1.
        -11    1    4    4    0    0 -0.17782060117E+02 -0.57640955643E+02  0.96897326501E+01  0.61094781678E+02  0.00000000000E+00 0.  1.
         11    1    4    4    0    0 -0.22972540669E+02  0.30999360288E+02  0.35716531347E+02  0.52577262905E+02  0.00000000000E+00 0. -1.
</event>
<event>
 8    1  0.6185113E-009  0.1937077E+03  0.7561462E-02  0.1155159E+00
          2   -1    0    0  501    0  0.00000000000E+00  0.00000000000E+00  0.85264818261E+03  0.85264818261E+03  0.00000000000E+00 0. -1.
         -2   -1    0    0    0  501 -0.00000000000E+00 -0.00000000000E+00 -0.56549986625E+02  0.56549986625E+02  0.00000000000E+00 0.  1.
         25    2    1    2    0    0 -0.93477750567E+02 -0.13982480190E+03  0.59780834414E+03  0.63349257452E+03  0.12509580557E+03 0.  0.
         23    2    1    2    0    0  0.93477750567E+02  0.13982480190E+03  0.19828985185E+03  0.27570559472E+03  0.91682302198E+02 0.  0.
          5    1    3    3  502    0  0.35318640569E+01 -0.97133321351E+02  0.36349547127E+03  0.37628949788E+03  0.41800000000E+01 0.  1.
         -5    1    3    3    0  502 -0.97009614624E+02 -0.42691480545E+02  0.23431287287E+03  0.25720307664E+03  0.41800000000E+01 0.  1.
        -11    1    4    4    0    0  0.92181129163E+02  0.73970056350E+02  0.88419526532E+02  0.14760400564E+03  0.00000000000E+00 0.  1.
         11    1    4    4    0    0  0.12966214040E+01  0.65854745546E+02  0.10987032531E+03  0.12810158907E+03  0.00000000000E+00 0. -1.
</event>
<event>
 8    1  0.6185113E-009  0.1844634E+03  0.7561462E-02  0.1163552E+00
         -2   -1    0    0    0  501 -0.00000000000E+00  0.00000000000E+00  0.16451507567E+03  0.16451507567E+03  0.00000000000E+00 0.  1.
          2   -1    0    0  501    0  0.00000000000E+00 -0.00000000000E+00 -0.29611838458E+03  0.29611838458E+03  0.00000000000E+00 0. -1.
         25    2    1    2    0    0 -0.14956009661E+03 -0.89478241540E+02 -0.15535700871E+03  0.26487247735E+03  0.12508817249E+03 0.  0.
         23    2    1    2    0    0  0.14956009661E+03  0.89478241540E+02  0.23753699797E+02  0.19576098289E+03  0.85927562297E+02 0.  0.
          5    1    3    3  502    0 -0.16106035053E+02 -0.13668830616E+02 -0.99002103668E+02  0.10131697896E+03  0.41800000000E+01 0.  1.
         -5    1    3    3    0  502 -0.13345406156E+03 -0.75809410924E+02 -0.56354905040E+02  0.16355549839E+03  0.41800000000E+01 0.  1.
        -11    1    4    4    0    0  0.99044686566E+02  0.98236476643E+01  0.54533293667E+01  0.99679951803E+02  0.00000000000E+00 0.  1.
         11    1    4    4    0    0  0.50515410043E+02  0.79654593876E+02  0.18300370430E+02  0.96081031090E+02  0.00000000000E+00 0. -1.
</event>
<event>
 8    1  0.6185113E-009  0.1266868E+03  0.7561462E-02  0.1232456E+00
         -2   -1    0    0    0  501 -0.00000000000E+00  0.00000000000E+00  0.55744023494E+02  0.55744023494E+02  0.00000000000E+00 0. -1.
          2   -1    0    0  501    0  0.00000000000E+00 -0.00000000000E+00 -0.50960506773E+03  0.50960506773E+03  0.00000000000E+00 0.  1.
         25    2    1    2    0    0  0.78837527630E+01  0.72177725744E+02 -0.61241851662E+02  0.15706621254E+03  0.12508978006E+03 0.  0.
         23    2    1    2    0    0 -0.78837527630E+01 -0.72177725744E+02 -0.39261919258E+03  0.40828287869E+03  0.85283650249E+02 0.  0.
          5    1    3    3  502    0  0.42430014646E+02 -0.17689401625E+02 -0.32668779750E+02  0.56550354933E+02  0.41800000000E+01 0. -1.
         -5    1    3    3    0  502 -0.34546261883E+02  0.89867127369E+02 -0.28573071912E+02  0.10051585761E+03  0.41800000000E+01 0. -1.
        -11    1    4    4    0    0  0.29856397270E+02 -0.52511670493E+00 -0.13370547728E+03  0.13699939730E+03  0.00000000000E+00 0. -1.
         11    1    4    4    0    0 -0.37740150032E+02 -0.71652609039E+02 -0.25891371529E+03  0.27128348139E+03  0.00000000000E+00 0.  1.
</event>
<event>
 8    1  0.6185113E-009  0.2228367E+03  0.7561462E-02  0.1131786E+00
          3   -1    0    0  501    0  0.00000000000E+00  0.00000000000E+00  0.37355873404E+03  0.37355873404E+03  0.00000000000E+00 0. -1.
         -3   -1    0    0    0  501 -0.00000000000E+00 -0.00000000000E+00 -0.14523147843E+03  0.14523147843E+03  0.00000000000E+00 0.  1.
         25    2    1    2    0    0 -0.13573367092E+03  0.15703085256E+03  0.95518488270E+02  0.26048682296E+03  0.12508910926E+03 0.  0.
         23    2    1    2    0    0  0.13573367092E+03 -0.15703085256E+03  0.13280876734E+03  0.25830338951E+03  0.77460662754E+02 0.  0.
          5    1    3    3  502    0 -0.18883691442E+02 -0.18665462820E+02  0.28214878652E+02  0.38968513984E+02  0.41800000000E+01 0.  1.
         -5    1    3    3    0  502 -0.11684997948E+03  0.17569631538E+03  0.67303609618E+02  0.22151830897E+03  0.41800000000E+01 0.  1.
        -11    1    4    4    0    0  0.90828709164E+01 -0.14162543467E+02 -0.10275060342E+02  0.19714285343E+02  0.00000000000E+00 0.  1.
         11    1    4    4    0    0  0.12665080000E+03 -0.14286830910E+03  0.14308382768E+03  0.23858910417E+03  0.00000000000E+00 0. -1.
</event>
<event>
 8    1  0.6185113E-009  0.1511639E+03  0.7561462E-02  0.1199050E+00
          1   -1    0    0  501    0  0.00000000000E+00  0.00000000000E+00  0.88815327746E+03  0.88815327746E+03  0.00000000000E+00 0. -1.
         -1   -1    0    0    0  501 -0.00000000000E+00 -0.00000000000E+00 -0.42831662974E+02  0.42831662974E+02  0.00000000000E+00 0.  1.
         25    2    1    2    0    0 -0.63998513655E+02 -0.13675507255E+03  0.30196732984E+03  0.36003635240E+03  0.12507656513E+03 0.  0.
         23    2    1    2    0    0  0.63998513655E+02  0.13675507255E+03  0.54335428465E+03  0.57094858803E+03  0.89166428143E+02 0.  0.
          5    1    3    3  502    0 -0.26900868495E+02 -0.52903759354E+02  0.18849807252E+02  0.62411954889E+02  0.41800000000E+01 0.  1.
         -5    1    3    3    0  502 -0.37097645160E+02 -0.83851313198E+02  0.28311752259E+03  0.29762439752E+03  0.41800000000E+01 0.  1.
        -11    1    4    4    0    0  0.98368761858E+01  0.17750594940E+02  0.11641856270E+02  0.23396165738E+02  0.00000000000E+00 0.  1.
         11    1    4    4    0    0  0.54161637469E+02  0.11900447761E+03  0.53171242838E+03  0.54755242229E+03  0.00000000000E+00 0. -1.
</event>
<event>
 8    1  0.6185113E-009  0.8214017E+02  0.7561462E-02  0.1323085E+00
          2   -1    0    0  501    0  0.00000000000E+00  0.00000000000E+00  0.42387374376E+03  0.42387374376E+03  0.00000000000E+00 0. -1.
         -2   -1    0    0    0  501 -0.00000000000E+00 -0.00000000000E+00 -0.39281681252E+02  0.39281681252E+02  0.00000000000E+00 0.  1.
         25    2    1    2    0    0 -0.59826566056E+02 -0.48128248612E+01  0.27668528231E+03  0.30952334069E+03  0.12509025418E+03 0.  0.
         23    2    1    2    0    0  0.59826566056E+02  0.48128248612E+01  0.10790678020E+03  0.15363208433E+03  0.91414237590E+02 0.  0.
          5    1    3    3  502    0 -0.26182580808E+02  0.10643187635E+01 -0.39137173920E+01  0.26822563189E+02  0.41800000000E+01 0.  1.
         -5    1    3    3    0  502 -0.33643985247E+02 -0.58771436248E+01  0.28059899971E+03  0.28270077750E+03  0.41800000000E+01 0.  1.
        -11    1    4    4    0    0  0.44353474839E+02  0.43220438314E+02  0.38831535458E+02  0.73096683676E+02  0.00000000000E+00 0. -1.
         11    1    4    4    0    0  0.15473091217E+02 -0.38407613452E+02  0.69075244740E+02  0.80535400656E+02  0.00000000000E+00 0.  1.
</event>
<event>
 8    1  0.6185113E-009  0.1019364E+03  0.7561462E-02  0.1276276E+00
          1   -1    0    0  501    0  0.00000000000E+00  0.00000000000E+00  0.11108408138E+04  0.11108408138E+04  0.00000000000E+00 0. -1.
         -1   -1    0    0    0  501 -0.00000000000E+00 -0.00000000000E+00 -0.12702339365E+02  0.12702339365E+02  0.00000000000E+00 0.  1.
         25    2    1    2    0    0  0.19001152633E+02  0.44817510306E+02  0.64363073652E+03  0.65747820345E+03  0.12508960783E+03 0.  0.
         23    2    1    2    0    0 -0.19001152633E+02 -0.44817510306E+02  0.45450773791E+03  0.46606494971E+03  0.90937343793E+02 0.  0.
          5    1    3    3  502    0  0.13801795417E+02 -0.26759370955E+02  0.43565427329E+02  0.53122239683E+02  0.41800000000E+01 0. -1.
         -5    1    3    3    0  502  0.51993572166E+01  0.71576881260E+02  0.60006530919E+03  0.60435596377E+03  0.41800000000E+01 0. -1.
        -11    1    4    4    0    0 -0.50428814753E+02 -0.47307374615E+01  0.26699068923E+03  0.27175259588E+03  0.00000000000E+00 0. -1.
         11    1    4    4    0    0  0.31427662120E+02 -0.40086772844E+02  0.18751704869E+03  0.19431235383E+03  0.00000000000E+00 0.  1.
</event>
<event>
 8    1  0.6185113E-009  0.9739353E+02  0.7561462E-02  0.1285874E+00
         -3   -1    0    0    0  501 -0.00000000000E+00  0.00000000000E+00  0.78660319563E+02  0.78660319563E+02  0.00000000000E+00 0. -1.
          3   -1    0    0  501    0  0.00000000000E+00 -0.00000000000E+00 -0.18577949908E+03  0.18577949908E+03  0.00000000000E+00 0.  1.
         25    2    1    2    0    0 -0.46180548117E+02  0.29422540542E+02 -0.56069189806E+02  0.14761389961E+03  0.12509108840E+03 0.  0.
         23    2    1    2    0    0  0.46180548117E+02 -0.29422540542E+02 -0.51049989715E+02  0.11682591903E+03  0.89687596646E+02 0.  0.
          5    1    3    3  502    0 -0.89225579094E+02  0.20564209972E+02 -0.44955982376E+02  0.10209115264E+03  0.41800000000E+01 0. -1.
         -5    1    3    3    0  502  0.43045030977E+02  0.88583305709E+01 -0.11113207430E+02  0.45522746970E+02  0.41800000000E+01 0. -1.
        -11    1    4    4    0    0  0.41053803876E+02 -0.15055684206E+02 -0.75942131376E+02  0.87631591093E+02  0.00000000000E+00 0.  1.
         11    1    4    4    0    0  0.51267442416E+01 -0.14366856336E+02  0.24892141661E+02  0.29194327942E+02  0.00000000000E+00 0. -1.
</event>
<event>
 8    1  0.6185113E-009  0.7648913E+02  0.7561462E-02  0.1339321E+00
         -2   -1    0    0    0  501 -0.00000000000E+00  0.00000000000E+00  0.16175864000E+03  0.16175864000E+03  0.00000000000E+00 0.  1.
          2   -1    0    0  501    0  0.00000000000E+00 -0.00000000000E+00 -0.10709467319E+03  0.10709467319E+03  0.00000000000E+00 0. -1.
         25    2    1    2    0    0  0.60576508558E+02 -0.89611748934E+01  0.64337795449E+02  0.15341512823E+03  0.12508810336E+03 0.  0.
         23    2    1    2    0    0 -0.60576508558E+02  0.89611748934E+01 -0.96738286438E+01  0.11543818496E+03  0.97378516834E+02 0.  0.
          5    1    3    3  502    0 -0.98995520355E+01 -0.14278299961E+02 -0.30328709598E+02  0.35201903445E+02  0.41800000000E+01 0. -1.
         -5    1    3    3    0  502  0.70476060594E+02  0.53171250678E+01  0.94666505047E+02  0.11821322478E+03  0.41800000000E+01 0. -1.
        -11    1    4    4    0    0 -0.10788376804E+02  0.97098081263E+01 -0.49558362909E+02  0.51640108270E+02  0.00000000000E+00 0. -1.
         11    1    4    4    0    0 -0.49788131754E+02 -0.74863323292E+00  0.39884534265E+02  0.63798076686E+02  0.00000000000E+00 0.  1.
</event>
<event>
 8    1  0.6185113E-009  0.8373382E+02  0.7561462E-02  0.1318777E+00
          1   -1    0    0  501    0  0.00000000000E+00  0.00000000000E+00  0.21358063581E+04  0.21358063581E+04  0.00000000000E+00 0. -1.
         -1   -1    0    0    0  501 -0.00000000000E+00 -0.00000000000E+00 -0.43215224197E+02  0.43215224197E+02  0.00000000000E+00 0.  1.
         25    2    1    2    0    0  0.36889934311E+01 -0.12096246197E+02  0.20786083541E+04  0.20824070841E+04  0.12508655614E+03 0.  0.
         23    2    1    2    0    0 -0.36889934311E+01  0.12096246197E+02  0.13982779849E+02  0.96614498196E+02  0.94757138437E+02 0.  0.
          5    1    3    3  502    0 -0.38623212365E+02 -0.25949581642E+02  0.33679785421E+03  0.34002264678E+03  0.41800000000E+01 0. -1.
         -5    1    3    3    0  502  0.42312205796E+02  0.13853335445E+02  0.17418104999E+04  0.17423844374E+04  0.41800000000E+01 0. -1.
        -11    1    4    4    0    0  0.35624018373E+02  0.35546427996E+01 -0.22517680410E+02  0.42293641384E+02  0.00000000000E+00 0.  1.
         11    1    4    4    0    0 -0.39313011804E+02  0.85416033974E+01  0.36500460258E+02  0.54320856812E+02  0.00000000000E+00 0. -1.
</event>
<event>
 8    1  0.6185113E-009  0.1051003E+03  0.7561462E-02  0.1269922E+00
          2   -1    0    0  501    0  0.00000000000E+00  0.00000000000E+00  0.76010652533E+03  0.76010652533E+03  0.00000000000E+00 0. -1.
         -2   -1    0    0    0  501 -0.00000000000E+00 -0.00000000000E+00 -0.27475163389E+02  0.27475163389E+02  0.00000000000E+00 0.  1.
         25    2    1    2    0    0  0.29219153645E+02  0.70410077384E+02  0.55297708193E+03  0.57205112115E+03  0.12508994416E+03 0.  0.
         23    2    1    2    0    0 -0.29219153645E+02 -0.70410077384E+02  0.17965428001E+03  0.21553056757E+03  0.91468176400E+02 0.  0.
          5    1    3    3  502    0  0.13687743805E+02 -0.27359297484E+02  0.45472297156E+02  0.54964422110E+02  0.41800000000E+01 0.  1.
         -5    1    3    3    0  502  0.15531409840E+02  0.97769374868E+02  0.50750478477E+03  0.51708669904E+03  0.41800000000E+01 0.  1.
        -11    1    4    4    0    0 -0.36026562426E+01 -0.41330591756E+02  0.17081623464E+03  0.17578220321E+03  0.00000000000E+00 0. -1.
         11    1    4    4    0    0 -0.25616497403E+02 -0.29079485628E+02  0.88380453681E+01  0.39748364363E+02  0.00000000000E+00 0.  1.
</event>
<event>
 8    1  0.6185113E-009  0.1141424E+03  0.7561462E-02  0.1253086E+00
          2   -1    0    0  501    0  0.00000000000E+00  0.00000000000E+00  0.42023558277E+02  0.42023558277E+02  0.00000000000E+00 0. -1.
         -2   -1    0    0    0  501 -0.00000000000E+00 -0.00000000000E+00 -0.39159750989E+03  0.39159750989E+03  0.00000000000E+00 0.  1.
         25    2    1    2    0    0  0.66358634334E+02 -0.40626515195E+01 -0.14736705157E+03  0.20441398567E+03  0.12509219065E+03 0.  0.
         23    2    1    2    0    0 -0.66358634334E+02  0.40626515195E+01 -0.20220690004E+03  0.22920708249E+03  0.85019308107E+02 0.  0.
          5    1    3    3  502    0  0.53876174285E+02 -0.59392940983E+02 -0.60303678679E+02  0.10041996642E+03  0.41800000000E+01 0.  1.
         -5    1    3    3    0  502  0.12482460049E+02  0.55330289463E+02 -0.87063372888E+02  0.10399401925E+03  0.41800000000E+01 0.  1.
        -11    1    4    4    0    0  0.27592525004E+01 -0.18269638750E+02 -0.51376853282E+01  0.19177825345E+02  0.00000000000E+00 0. -1.
         11    1    4    4    0    0 -0.69117886835E+02  0.22332290270E+02 -0.19706921471E+03  0.21002925715E+03  0.00000000000E+00 0.  1.
</event>
<event>
 8    1  0.6185113E-009  0.1464078E+03  0.7561462E-02  0.1204958E+00
         -4   -1    0    0    0  501 -0.00000000000E+00  0.00000000000E+00  0.10783913704E+03  0.10783913704E+03  0.00000000000E+00 0. -1.
          4   -1    0    0  501    0  0.00000000000E+00 -0.00000000000E+00 -0.37906270915E+03  0.37906270915E+03  0.00000000000E+00 0.  1.
         25    2    1    2    0    0 -0.25130665423E+02 -0.13218292907E+03 -0.17012840758E+02  0.18450234287E+03  0.12509116951E+03 0.  0.
         23    2    1    2    0    0  0.25130665423E+02  0.13218292907E+03 -0.25421073136E+03  0.30239950332E+03  0.93372836457E+02 0.  0.
          5    1    3    3  502    0 -0.57203065258E+01 -0.78045644395E+02  0.52393391124E+02  0.94267620895E+02  0.41800000000E+01 0. -1.
         -5    1    3    3    0  502 -0.19410358897E+02 -0.54137284679E+02 -0.69406231882E+02  0.90234721970E+02  0.41800000000E+01 0. -1.
        -11    1    4    4    0    0 -0.29467651669E+02  0.52222868729E+02 -0.14229962869E+03  0.15441746935E+03  0.00000000000E+00 0.  1.
         11    1    4    4    0    0  0.54598317091E+02  0.79960060346E+02 -0.11191110267E+03  0.14798203398E+03  0.00000000000E+00 0. -1.
</event>
<event>
 8    1  0.6185113E-009  0.1108880E+03  0.7561462E-02  0.1258934E+00
         -2   -1    0    0    0  501 -0.00000000000E+00  0.00000000000E+00  0.60844683966E+02  0.60844683966E+02  0.00000000000E+00 0.  1.
          2   -1    0    0  501    0  0.00000000000E+00 -0.00000000000E+00 -0.20786546960E+03  0.20786546960E+03  0.00000000000E+00 0. -1.
         25    2    1    2    0    0 -0.25922462151E+02 -0.24761176682E+01 -0.63557197115E+02  0.14270499454E+03  0.12508834062E+03 0.  0.
         23    2    1    2    0    0  0.25922462151E+02  0.24761176682E+01 -0.83463588515E+02  0.12600515902E+03  0.90736014293E+02 0.  0.
          5    1    3    3  502    0 -0.46448659261E+02 -0.54462850175E+02 -0.36921665259E+02  0.80649623445E+02  0.41800000000E+01 0. -1.
         -5    1    3    3    0  502  0.20526197110E+02  0.51986732506E+02 -0.26635531856E+02  0.62055371095E+02  0.41800000000E+01 0. -1.
        -11    1    4    4    0    0  0.78328309265E+01  0.46120565577E+02 -0.35932525132E+02  0.58988186714E+02  0.00000000000E+00 0.  1.
         11    1    4    4    0    0  0.18089631225E+02 -0.43644447908E+02 -0.47531063383E+02  0.67016972308E+02  0.00000000000E+00 0. -1.
</event>
<event>
 8    1  0.6185113E-009  0.1439779E+03  0.7561462E-02  0.1208074E+00
          2   -1    0    0  501    0  0.00000000000E+00  0.00000000000E+00  0.55142912274E+03  0.55142912274E+03  0.00000000000E+00 0. -1.
         -2   -1    0    0    0  501 -0.00000000000E+00 -0.00000000000E+00 -0.59913313694E+02  0.59913313694E+02  0.00000000000E+00 0.  1.
         25    2    1    2    0    0 -0.11366471536E+03  0.39727217027E+02  0.12038409936E+03  0.21127501168E+03  0.12508748894E+03 0.  0.
         23    2    1    2    0    0  0.11366471536E+03 -0.39727217027E+02  0.37113170968E+03  0.40006742476E+03  0.88415378359E+02 0.  0.
          5    1    3    3  502    0 -0.78239592287E+02 -0.18767219929E+02  0.97645642107E+01  0.81157017314E+02  0.41800000000E+01 0.  1.
         -5    1    3    3    0  502 -0.35425123071E+02  0.58494436956E+02  0.11061953515E+03  0.13011799436E+03  0.41800000000E+01 0.  1.
        -11    1    4    4    0    0  0.74875055008E+02 -0.59220010384E+02  0.17660093756E+03  0.20075152462E+03  0.00000000000E+00 0.  1.
         11    1    4    4    0    0  0.38789660350E+02  0.19492793357E+02  0.19453077212E+03  0.19931590013E+03  0.00000000000E+00 0. -1.
</event>
<event>
 8    1  0.6185113E-009  0.1435915E+03  0.7561462E-02  0.1208576E+00
          2   -1    0    0  501    0  0.00000000000E+00  0.00000000000E+00  0.97624932625E+03  0.97624932625E+03  0.00000000000E+00 0.  1.
         -2   -1    0    0    0  501 -0.00000000000E+00 -0.00000000000E+00 -0.26193647622E+02  0.26193647622E+02  0.00000000000E+00 0. -1.
         25    2    1    2    0    0  0.88616701203E+02 -0.57037149594E+02  0.36978321007E+03  0.40434508897E+03  0.12509665209E+03 0.  0.
         23    2    1    2    0    0 -0.88616701203E+02  0.57037149594E+02  0.58027246857E+03  0.59809788490E+03  0.99492642848E+02 0.  0.
          5    1    3    3  502    0 -0.11529490516E+02 -0.44100587837E+02  0.44955112511E+02  0.64157817450E+02  0.41800000000E+01 0.  1.
         -5    1    3    3    0  502  0.10014619172E+03 -0.12936561757E+02  0.32482809756E+03  0.34018727152E+03  0.41800000000E+01 0.  1.
        -11    1    4    4    0    0 -0.13338124286E+02  0.63408686933E+02  0.34372743562E+03  0.34978152772E+03  0.00000000000E+00 0.  1.
         11    1    4    4    0    0 -0.75278576917E+02 -0.63715373392E+01  0.23654503295E+03  0.24831635718E+03  0.00000000000E+00 0. -1.
</event>
<event>
 8    1  0.6185113E-009  0.1574919E+03  0.7561462E-02  0.1191558E+00
         -1   -1    0    0    0  501 -0.00000000000E+00  0.00000000000E+00  0.44313974098E+02  0.44313974098E+02  0.00000000000E+00 0.  1.
          1   -1    0    0  501    0  0.00000000000E+00 -0.00000000000E+00 -0.60300264746E+03  0.60300264746E+03  0.00000000000E+00 0. -1.
         25    2    1    2    0    0  0.11835238639E+03 -0.30511704378E+02 -0.30664989902E+03  0.35301492781E+03  0.12508847755E+03 0.  0.
         23    2    1    2    0    0 -0.11835238639E+03  0.30511704378E+02 -0.25203877434E+03  0.29430169375E+03  0.90286719445E+02 0.  0.
          5    1    3    3  502    0  0.27635106339E+01 -0.54632693579E+02 -0.74420827052E+02  0.92457017569E+02  0.41800000000E+01 0.  1.
         -5    1    3    3    0  502  0.11558887575E+03  0.24120989201E+02 -0.23222907197E+03  0.26055791024E+03  0.41800000000E+01 0.  1.
        -11    1    4    4    0    0 -0.12848708563E+03  0.27509480076E+02 -0.25145329955E+03  0.28371546401E+03  0.00000000000E+00 0. -1.
         11    1    4    4    0    0  0.10134699238E+02  0.30022243021E+01 -0.58547479210E+00  0.10586229741E+02  0.00000000000E+00 0.  1.
</event>
<event>
 8    1  0.6185113E-009  0.8858945E+02  0.7561462E-02  0.1306304E+00
          2   -1    0    0  501    0  0.00000000000E+00  0.00000000000E+00  0.12707028374E+02  0.12707028374E+02  0.00000000000E+00 0. -1.
         -2   -1    0    0    0  501 -0.00000000000E+00 -0.00000000000E+00 -0.11545145689E+04  0.11545145689E+04  0.00000000000E+00 0.  1.
         25    2    1    2    0    0  0.49375023126E+02 -0.14811571968E+02 -0.76768288261E+03  0.77951385456E+03  0.12509022996E+03 0.  0.
         23    2    1    2    0    0 -0.49375023126E+02  0.14811571968E+02 -0.37412465794E+03  0.38770774274E+03  0.87696969867E+02 0.  0.
          5    1    3    3  502    0  0.56333964370E+02  0.10595058829E+02 -0.73538059279E+03  0.73762311478E+03  0.41800000000E+01 0. -1.
         -5    1    3    3    0  502 -0.69589412434E+01 -0.25406630796E+02 -0.32302289821E+02  0.41890739780E+02  0.41800000000E+01 0. -1.
        -11    1    4    4    0    0 -0.49134596954E+02 -0.23678325768E+02 -0.29148318775E+03  0.29654227434E+03  0.00000000000E+00 0.  1.
         11    1    4    4    0    0 -0.24042617201E+00  0.38489897736E+02 -0.82641470191E+02  0.91165468396E+02  0.00000000000E+00 0. -1.
</event>
<event>
 8    1  0.6185113E-009  0.1177829E+03  0.7561462E-02  0.1246800E+00
         -4   -1    0    0    0  501 -0.00000000000E+00  0.00000000000E+00  0.70344033439E+02  0.70344033439E+02  0.00000000000E+00 0.  1.
          4   -1    0    0  501    0  0.00000000000E+00 -0.00000000000E+00 -0.25405398907E+03  0.25405398907E+03  0.00000000000E+00 0. -1.
         25    2    1    2    0    0  0.90875362053E+00  0.68806895477E+02 -0.57346155669E+02  0.15385306378E+03  0.12508784500E+03 0.  0.
         23    2    1    2    0    0 -0.90875362053E+00 -0.68806895477E+02 -0.12636379996E+03  0.17054495873E+03  0.91556312222E+02 0.  0.
          5    1    3    3  502    0 -0.46893435825E+02  0.57796558060E+01  0.11606299049E+02  0.48832134116E+02  0.41800000000E+01 0.  1.
         -5    1    3    3    0  502  0.47802189446E+02  0.63027239671E+02 -0.68952454718E+02  0.10502092967E+03  0.41800000000E+01 0.  1.
        -11    1    4    4    0    0  0.16116674524E+02  0.15827304152E+02 -0.51652568987E+02  0.56375869283E+02  0.00000000000E+00 0. -1.
         11    1    4    4    0    0 -0.17025428145E+02 -0.84634199629E+02 -0.74711230974E+02  0.11416908944E+03  0.00000000000E+00 0.  1.
</event>
<event>
 8    1  0.6185113E-009  0.1399282E+03  0.7561462E-02  0.1213426E+00
         -2   -1    0    0    0  501 -0.00000000000E+00  0.00000000000E+00  0.34192345876E+03  0.34192345876E+03  0.00000000000E+00 0.  1.
          2   -1    0    0  501    0  0.00000000000E+00 -0.00000000000E+00 -0.58344068301E+02  0.58344068301E+02  0.00000000000E+00 0. -1.
         25    2    1    2    0    0 -0.21503357385E+02  0.86185851439E+02  0.17903888288E+03  0.23578027711E+03  0.12508805748E+03 0.  0.
         23    2    1    2    0    0  0.21503357385E+02 -0.86185851439E+02  0.10454050757E+03  0.16448724994E+03  0.90757601904E+02 0.  0.
          5    1    3    3  502    0 -0.65502029056E+02  0.86720137167E+02  0.13535808878E+03  0.17363807935E+03  0.41800000000E+01 0.  1.
         -5    1    3    3    0  502  0.43998671671E+02 -0.53428572791E+00  0.43680794103E+02  0.62142197769E+02  0.41800000000E+01 0.  1.
        -11    1    4    4    0    0 -0.34464835013E+02 -0.18656896475E+02  0.35260967006E+02  0.52718501807E+02  0.00000000000E+00 0.  1.
         11    1    4    4    0    0  0.55968192399E+02 -0.67528954964E+02  0.69279540566E+02  0.11176874814E+03  0.00000000000E+00 0. -1.
</event>
<event>
 8    1  0.6185113E-009  0.8418319E+02  0.7561462E-02  0.1317582E+00
         -2   -1    0    0    0  501 -0.00000000000E+00  0.00000000000E+00  0.83816017143E+02  0.83816017143E+02  0.00000000000E+00 0.  1.
          2   -1    0    0  501    0  0.00000000000E+00 -0.00000000000E+00 -0.22229035514E+03  0.22229035514E+03  0.00000000000E+00 0. -1.
         25    2    1    2    0    0  0.29645091152E+01  0.24366342098E+02  0.17110743954E+02  0.12861599773E+03  0.12508713112E+03 0.  0.
         23    2    1    2    0    0 -0.29645091152E+01 -0.24366342098E+02 -0.15558508195E+03  0.17749037455E+03  0.81814475434E+02 0.  0.
          5    1    3    3  502    0  0.19312433287E+02 -0.25534562005E+02 -0.39680006318E+02  0.51156223841E+02  0.41800000000E+01 0. -1.
         -5    1    3    3    0  502 -0.16347924172E+02  0.49900904104E+02  0.56790750271E+02  0.77459773892E+02  0.41800000000E+01 0. -1.
        -11    1    4    4    0    0  0.32868658538E+02  0.93794934700E+01 -0.45555924127E+02  0.56953189857E+02  0.00000000000E+00 0.  1.
         11    1    4    4    0    0 -0.35833167653E+02 -0.33745835568E+02 -0.11002915782E+03  0.12053718469E+03  0.00000000000E+00 0. -1.
</event>
<event>
 7    1  0.6185113E-009  0.1350349E+03  0.7561462E-02  0.1220170E+00
          1   -1    0    0  501    0  0.00000000000E+00  0.00000000000E+00  0.14949821795E+04  0.14949821795E+04  0.00000000000E+00 0. -1.
         -1   -1    0    0    0  501 -0.00000000000E+00 -0.00000000000E+00 -0.17506561856E+02  0.17506561856E+02  0.00000000000E+00 0.  1.
         23    2    1    2    0    0  0.60009569266E+02 -0.83550712511E+02  0.39154964241E+03  0.41456601097E+03  0.89285973227E+02 0.  0.
          5    1    1    2  502    0 -0.72871679325E+02  0.23199469390E+02  0.30199118086E+03  0.31155199044E+03  0.41800000000E+01 0. -1.
         -5    1    1    2    0  502  0.12862110059E+02  0.60351243121E+02  0.78393479435E+03  0.78637073993E+03  0.41800000000E+01 0. -1.
        -11    1    3    3    0    0  0.80042797943E+02 -0.56517166019E+02  0.23815549533E+03  0.25752491047E+03  0.00000000000E+00 0.  1.
         11    1    3    3    0    0 -0.20033228677E+02 -0.27033546493E+02  0.15339414709E+03  0.15704110050E+03  0.00000000000E+00 0. -1.
</event>
<event>
 8    1  0.6185113E-009  0.9776911E+02  0.7561462E-02  0.1285058E+00
         -2   -1    0    0    0  501 -0.00000000000E+00  0.00000000000E+00  0.13330422844E+02  0.13330422844E+02  0.00000000000E+00 0. -1.
          2   -1    0    0  501    0  0.00000000000E+00 -0.00000000000E+00 -0.13708781861E+04  0.13708781861E+04  0.00000000000E+00 0.  1.
         25    2    1    2    0    0 -0.30222969562E+02 -0.22428012206E+02 -0.11186547815E+04  0.11262562943E+04  0.12509307217E+03 0.  0.
         23    2    1    2    0    0  0.30222969562E+02  0.22428012206E+02 -0.23889298180E+03  0.25795231467E+03  0.89739045393E+02 0.  0.
          5    1    3    3  502    0 -0.86173758446E+01 -0.66980483105E+02 -0.87347440664E+03  0.87609112297E+03  0.41800000000E+01 0.  1.
         -5    1    3    3    0  502 -0.21605593717E+02  0.44552470899E+02 -0.24518037486E+03  0.25016517136E+03  0.41800000000E+01 0.  1.
        -11    1    4    4    0    0 -0.24414332199E+01  0.40689644879E+02 -0.19948344829E+03  0.20360563337E+03  0.00000000000E+00 0.  1.
         11    1    4    4    0    0  0.32664402782E+02 -0.18261632673E+02 -0.39409533510E+02  0.54346681301E+02  0.00000000000E+00 0. -1.
</event>
<event>
 8    1  0.6185113E-009  0.1490027E+03  0.7561462E-02  0.1201704E+00
          1   -1    0    0  501    0  0.00000000000E+00  0.00000000000E+00  0.64518497946E+03  0.64518497946E+03  0.00000000000E+00 0. -1.
         -1   -1    0    0    0  501 -0.00000000000E+00 -0.00000000000E+00 -0.51736555090E+02  0.51736555090E+02  0.00000000000E+00 0.  1.
         25    2    1    2    0    0 -0.13935011170E+03  0.31347946455E+02  0.25257347881E+03  0.31597749073E+03  0.12508902859E+03 0.  0.
         23    2    1    2    0    0  0.13935011170E+03 -0.31347946455E+02  0.34087494556E+03  0.38094404382E+03  0.92311909471E+02 0.  0.
          5    1    3    3  502    0 -0.63596346558E+02  0.37322215567E+02  0.22199747282E+03  0.23396109379E+03  0.41800000000E+01 0. -1.
         -5    1    3    3    0  502 -0.75753765144E+02 -0.59742691123E+01  0.30576005992E+02  0.82016396941E+02  0.41800000000E+01 0. -1.
        -11    1    4    4    0    0  0.44531672341E+02 -0.29104706453E+02  0.43217659747E+02  0.68541373588E+02  0.00000000000E+00 0.  1.
         11    1    4    4    0    0  0.94818439361E+02 -0.22432400020E+01  0.29765728581E+03  0.31240267023E+03  0.00000000000E+00 0. -1.
</event>
<event>
 8    1  0.6185113E-009  0.1334443E+03  0.7561462E-02  0.1222433E+00
          1   -1    0    0  501    0  0.00000000000E+00  0.00000000000E+00  0.32303014875E+02  0.32303014875E+02  0.00000000000E+00 0. -1.
         -1   -1    0    0    0  501 -0.00000000000E+00 -0.00000000000E+00 -0.86825361755E+03  0.86825361755E+03  0.00000000000E+00 0.  1.
         25    2    1    2    0    0 -0.10946116257E+03 -0.14148552386E+02 -0.61410182335E+03  0.63635729246E+03  0.12509047354E+03 0.  0.
         23    2    1    2    0    0  0.10946116257E+03  0.14148552386E+02 -0.22184877932E+03  0.26419933996E+03  0.91665057176E+02 0.  0.
          5    1    3    3  502    0 -0.36219079921E+02  0.21479878157E+02 -0.46056071341E+03  0.46250064871E+03  0.41800000000E+01 0. -1.
         -5    1    3    3    0  502 -0.73242082648E+02 -0.35628430543E+02 -0.15354110994E+03  0.17385664375E+03  0.41800000000E+01 0. -1.
        -11    1    4    4    0    0  0.57807582371E+02  0.52966011678E+02 -0.11107985530E+03  0.13596267585E+03  0.00000000000E+00 0.  1.
         11    1    4    4    0    0  0.51653580198E+02 -0.38817459293E+02 -0.11076892402E+03  0.12823666411E+03  0.00000000000E+00 0. -1.
</event>
<event>
 8    1  0.6185113E-009  0.9699222E+02  0.7561462E-02  0.1286751E+00
         -2   -1    0    0    0  501 -0.00000000000E+00  0.00000000000E+00  0.50134531580E+02  0.50134531580E+02  0.00000000000E+00 0.  1.
          2   -1    0    0  501    0  0.00000000000E+00 -0.00000000000E+00 -0.35452107786E+03  0.35452107786E+03  0.00000000000E+00 0. -1.
         25    2    1    2    0    0 -0.21491813071E+02  0.64462620639E+02 -0.22742151749E+03  0.26830083731E+03  0.12508982849E+03 0.  0.
         23    2    1    2    0    0  0.21491813071E+02 -0.64462620639E+02 -0.76965028793E+02  0.13635477214E+03  0.89731158128E+02 0.  0.
          5    1    3    3  502    0 -0.25363814152E+02  0.57246195287E+01  0.64372660453E+01  0.27110978058E+02  0.41800000000E+01 0. -1.
         -5    1    3    3    0  502  0.38720010814E+01  0.58738001110E+02 -0.23385878354E+03  0.24118985925E+03  0.41800000000E+01 0. -1.
        -11    1    4    4    0    0 -0.25081450008E+02  0.44373266844E+01 -0.34762709118E+02  0.43095416785E+02  0.00000000000E+00 0. -1.
         11    1    4    4    0    0  0.46573263079E+02 -0.68899947324E+02 -0.42202319675E+02  0.93259355354E+02  0.00000000000E+00 0.  1.
</event>
<event>
 8    1  0.6185113E-009  0.9764307E+02  0.7561462E-02  0.1285332E+00
         -2   -1    0    0    0  501 -0.00000000000E+00  0.00000000000E+00  0.28648678092E+03  0.28648678092E+03  0.00000000000E+00 0.  1.
          2   -1    0    0  501    0  0.00000000000E+00 -0.00000000000E+00 -0.65517718963E+02  0.65517718963E+02  0.00000000000E+00 0. -1.
         25    2    1    2    0    0 -0.54258227867E+02 -0.32610021552E+02  0.18735096145E+03  0.23399962750E+03  0.12509226243E+03 0.  0.
         23    2    1    2    0    0  0.54258227867E+02  0.32610021552E+02  0.33618100507E+02  0.11800487238E+03  0.93742223283E+02 0.  0.
          5    1    3    3  502    0 -0.14757253604E+02 -0.51945846494E+02  0.15178193142E+02  0.56249421766E+02  0.41800000000E+01 0.  1.
         -5    1    3    3    0  502 -0.39500974263E+02  0.19335824942E+02  0.17217276831E+03  0.17775020574E+03  0.41800000000E+01 0.  1.
        -11    1    4    4    0    0  0.16321973117E+02 -0.23864423477E+02  0.40350307515E+02  0.49639347607E+02  0.00000000000E+00 0.  1.
         11    1    4    4    0    0  0.37936254749E+02  0.56474445029E+02 -0.67322070082E+01  0.68365524769E+02  0.00000000000E+00 0. -1.
</event>
<event>
 8    1  0.6185113E-009  0.3602569E+03  0.7561462E-02  0.1058482E+00
         -2   -1    0    0    0  501 -0.00000000000E+00  0.00000000000E+00  0.10250884475E+03  0.10250884475E+03  0.00000000000E+00 0.  1.
          2   -1    0    0  501    0  0.00000000000E+00 -0.00000000000E+00 -0.13783589676E+04  0.13783589676E+04  0.00000000000E+00 0. -1.
         25    2    1    2    0    0  0.74782621049E+02 -0.34331972483E+03 -0.49478067144E+03  0.61960992628E+03  0.12509066332E+03 0.  0.
         23    2    1    2    0    0 -0.74782621049E+02  0.34331972483E+03 -0.78106945144E+03  0.86125788611E+03  0.90745713615E+02 0.  0.
          5    1    3    3  502    0 -0.15466008077E+02 -0.39911328149E+01 -0.51594675116E+02  0.54172035658E+02  0.41800000000E+01 0.  1.
         -5    1    3    3    0  502  0.90248629126E+02 -0.33932859201E+03 -0.44318599633E+03  0.56543789063E+03  0.41800000000E+01 0.  1.
        -11    1    4    4    0    0 -0.44612235211E+02  0.26847965397E+03 -0.67635570600E+03  0.72906009160E+03  0.00000000000E+00 0. -1.
         11    1    4    4    0    0 -0.30170385839E+02  0.74840070865E+02 -0.10471374544E+03  0.13219779451E+03  0.00000000000E+00 0.  1.
</event>
<event>
 8    1  0.6185113E-009  0.9915490E+02  0.7561462E-02  0.1282083E+00
          4   -1    0    0  501    0  0.00000000000E+00  0.00000000000E+00  0.42100775941E+03  0.42100775941E+03  0.00000000000E+00 0. -1.
         -4   -1    0    0    0  501 -0.00000000000E+00 -0.00000000000E+00 -0.74888891608E+02  0.74888891608E+02  0.00000000000E+00 0.  1.
         25    2    1    2    0    0  0.50455493969E+02  0.39818661748E+02  0.35948329298E+03  0.38602128535E+03  0.12511159866E+03 0.  0.
         23    2    1    2    0    0 -0.50455493969E+02 -0.39818661748E+02 -0.13364425175E+02  0.10987536567E+03  0.88106216725E+02 0.  0.
          5    1    3    3  502    0  0.77011529919E+02 -0.22306342799E+01  0.29240247009E+03  0.30241102557E+03  0.41800000000E+01 0.  1.
         -5    1    3    3    0  502 -0.26556035951E+02  0.42049296028E+02  0.67080822889E+02  0.83610259785E+02  0.41800000000E+01 0.  1.
        -11    1    4    4    0    0 -0.12749643876E+02 -0.29522663876E+02  0.35106199880E+02  0.47608679580E+02  0.00000000000E+00 0. -1.
         11    1    4    4    0    0 -0.37705850092E+02 -0.10295997872E+02 -0.48470625055E+02  0.62266686089E+02  0.00000000000E+00 0.  1.
</event>
<event>
 8    1  0.6185113E-009  0.1130719E+03  0.7561462E-02  0.1254985E+00
         -1   -1    0    0    0  501 -0.00000000000E+00  0.00000000000E+00  0.10119387493E+03  0.10119387493E+03  0.00000000000E+00 0.  1.
          1   -1    0    0  501    0  0.00000000000E+00 -0.00000000000E+00 -0.18135588375E+03  0.18135588375E+03  0.00000000000E+00 0. -1.
         25    2    1    2    0    0  0.56996100764E+01  0.53101707621E+02 -0.98620721499E+02  0.16800602286E+03  0.12509076745E+03 0.  0.
         23    2    1    2    0    0 -0.56996100764E+01 -0.53101707621E+02  0.18458712673E+02  0.11454373582E+03  0.99635668491E+02 0.  0.
          5    1    3    3  502    0 -0.67745148627E+00 -0.41093066478E+02 -0.34256991494E+02  0.53666683513E+02  0.41800000000E+01 0.  1.
         -5    1    3    3    0  502  0.63770615627E+01  0.94194774099E+02 -0.64363730005E+02  0.11433933934E+03  0.41800000000E+01 0.  1.
        -11    1    4    4    0    0  0.33608147897E+02 -0.27442222001E+02  0.43415868050E+02  0.61380133203E+02  0.00000000000E+00 0.  1.
         11    1    4    4    0    0 -0.39307757974E+02 -0.25659485619E+02 -0.24957155377E+02  0.53163602621E+02  0.00000000000E+00 0. -1.
</event>
<event>
 8    1  0.6185113E-009  0.1103104E+03  0.7561462E-02  0.1259996E+00
          3   -1    0    0  501    0  0.00000000000E+00  0.00000000000E+00  0.69466752152E+02  0.69466752152E+02  0.00000000000E+00 0. -1.
         -3   -1    0    0    0  501 -0.00000000000E+00 -0.00000000000E+00 -0.19995089748E+03  0.19995089748E+03  0.00000000000E+00 0.  1.
         25    2    1    2    0    0 -0.43934557080E+02 -0.65460270534E+01 -0.57380680421E+02  0.14464743997E+03  0.12512890804E+03 0.  0.
         23    2    1    2    0    0  0.43934557080E+02  0.65460270534E+01 -0.73103464910E+02  0.12477020967E+03  0.90831673239E+02 0.  0.
          5    1    3    3  502    0 -0.53542295130E+02  0.45881455558E+02 -0.57661846201E+02  0.91182488665E+02  0.41800000000E+01 0.  1.
         -5    1    3    3    0  502  0.96077380496E+01 -0.52427482611E+02  0.28116577977E+00  0.53464951300E+02  0.41800000000E+01 0.  1.
        -11    1    4    4    0    0 -0.14614785416E+02 -0.25784598732E+02 -0.40975808120E+02  0.50571279751E+02  0.00000000000E+00 0.  1.
         11    1    4    4    0    0  0.58549342496E+02  0.32330625785E+02 -0.32127656789E+02  0.74198929919E+02  0.00000000000E+00 0. -1.
</event>
<event>
 8    1  0.6185113E-009  0.1117610E+03  0.7561462E-02  0.1257343E+00
          2   -1    0    0  501    0  0.00000000000E+00  0.00000000000E+00  0.92196634598E+02  0.92196634598E+02  0.00000000000E+00 0. -1.
         -2   -1    0    0    0  501 -0.00000000000E+00 -0.00000000000E+00 -0.16644947978E+03  0.16644947978E+03  0.00000000000E+00 0.  1.
         25    2    1    2    0    0  0.42294128999E+02 -0.41489869072E+02 -0.41318215813E+02  0.14444906287E+03  0.12509250266E+03 0.  0.
         23    2    1    2    0    0 -0.42294128999E+02  0.41489869072E+02 -0.32934629371E+02  0.11419705151E+03  0.91902525419E+02 0.  0.
          5    1    3    3  502    0 -0.20524821689E+02 -0.63386465174E+02 -0.39908699417E+02  0.77777175070E+02  0.41800000000E+01 0.  1.
         -5    1    3    3    0  502  0.62818950688E+02  0.21896596103E+02 -0.14095163960E+01  0.66671887801E+02  0.41800000000E+01 0.  1.
        -11    1    4    4    0    0 -0.27902752325E+02 -0.15092899164E+02 -0.44528192565E+02  0.54672837182E+02  0.00000000000E+00 0.  1.
         11    1    4    4    0    0 -0.14391376674E+02  0.56582768235E+02  0.11593563194E+02  0.59524214327E+02  0.00000000000E+00 0. -1.
</event>
<event>
 8    1  0.6185113E-009  0.1330743E+03  0.7561462E-02  0.1222964E+00
          1   -1    0    0  501    0  0.00000000000E+00  0.00000000000E+00  0.19348682229E+03  0.19348682229E+03  0.00000000000E+00 0. -1.
         -1   -1    0    0    0  501 -0.00000000000E+00 -0.00000000000E+00 -0.14408864538E+03  0.14408864538E+03  0.00000000000E+00 0.  1.
         25    2    1    2    0    0  0.57898569467E+02 -0.58037647010E+02 -0.68001495545E+02  0.16429229430E+03  0.12508853565E+03 0.  0.
         23    2    1    2    0    0 -0.57898569467E+02  0.58037647010E+02  0.11739967246E+03  0.17328317337E+03  0.97589765157E+02 0.  0.
          5    1    3    3  502    0  0.35964436468E+02 -0.92021310314E+02 -0.19138518918E+02  0.10072297428E+03  0.41800000000E+01 0. -1.
         -5    1    3    3    0  502  0.21934133000E+02  0.33983663304E+02 -0.48862976626E+02  0.63569320012E+02  0.41800000000E+01 0. -1.
        -11    1    4    4    0    0 -0.80239730490E+02  0.64927720408E+02  0.10303585532E+03  0.14584378872E+03  0.00000000000E+00 0. -1.
         11    1    4    4    0    0  0.22341161023E+02 -0.68900733980E+01  0.14363817139E+02  0.27439384652E+02  0.00000000000E+00 0.  1.
</event>
<event>
 8    1  0.6185113E-009  0.1034056E+03  0.7561462E-02  0.1273293E+00
         -2   -1    0    0    0  501 -0.00000000000E+00  0.00000000000E+00  0.93655515933E+02  0.93655515933E+02  0.00000000000E+00 0. -1.
          2   -1    0    0  501    0  0.00000000000E+00 -0.00000000000E+00 -0.13567606414E+03  0.13567606414E+03  0.00000000000E+00 0.  1.
         25    2    1    2    0    0 -0.26208156228E+02  0.93243196690E+01 -0.34824465504E+02  0.13279467068E+03  0.12509144964E+03 0.  0.
         23    2    1    2    0    0  0.26208156228E+02 -0.93243196690E+01 -0.71960827044E+01  0.96536909400E+02  0.92161710488E+02 0.  0.
          5    1    3    3  502    0  0.15963504476E+01 -0.52356166634E+02  0.72002480803E+01  0.53038028732E+02  0.41800000000E+01 0.  1.
         -5    1    3    3    0  502 -0.27804506676E+02  0.61680486303E+02 -0.42024713585E+02  0.79756641943E+02  0.41800000000E+01 0.  1.
        -11    1    4    4    0    0 -0.17167703428E+02 -0.32899068299E+02  0.17849691461E+02  0.41178759345E+02  0.00000000000E+00 0. -1.
         11    1    4    4    0    0  0.43375859656E+02  0.23574748630E+02 -0.25045774166E+02  0.55358150054E+02  0.00000000000E+00 0.  1.
</event>
<event>
 8    1  0.6185113E-009  0.1142251E+03  0.7561462E-02  0.1252940E+00
         -1   -1    0    0    0  501 -0.00000000000E+00  0.00000000000E+00  0.24787045975E+03  0.24787045975E+03  0.00000000000E+00 0.  1.
          1   -1    0    0  501    0  0.00000000000E+00 -0.00000000000E+00 -0.78835477963E+02  0.78835477963E+02  0.00000000000E+00 0. -1.
         25    2    1    2    0    0 -0.71889969199E+02 -0.50029580428E+02  0.10864780358E+03  0.18741084008E+03  0.12508937271E+03 0.  0.
         23    2    1    2    0    0  0.71889969199E+02  0.50029580428E+02  0.60387178207E+02  0.13929509764E+03  0.89918776377E+02 0.  0.
          5    1    3    3  502    0 -0.18427587232E+02 -0.72021033648E+02  0.10580900626E+03  0.12938169679E+03  0.41800000000E+01 0. -1.
         -5    1    3    3    0  502 -0.53462381967E+02  0.21991453220E+02  0.28387973234E+01  0.58029143286E+02  0.41800000000E+01 0. -1.
        -11    1    4    4    0    0  0.53950559660E+02  0.13928768262E+02  0.77541267469E+02  0.95484667008E+02  0.00000000000E+00 0.  1.
         11    1    4    4    0    0  0.17939409539E+02  0.36100812166E+02 -0.17154089262E+02  0.43810430631E+02  0.00000000000E+00 0. -1.
</event>
<event>
 8    1  0.6185113E-009  0.1299350E+03  0.7561462E-02  0.1227552E+00
          2   -1    0    0  501    0  0.00000000000E+00  0.00000000000E+00  0.10616606188E+04  0.10616606188E+04  0.00000000000E+00 0. -1.
         -2   -1    0    0    0  501 -0.00000000000E+00 -0.00000000000E+00 -0.21844445981E+02  0.21844445981E+02  0.00000000000E+00 0.  1.
         25    2    1    2    0    0 -0.11218718117E+02 -0.81956559594E+02  0.79970574893E+03  0.81364618067E+03  0.12509230648E+03 0.  0.
         23    2    1    2    0    0  0.11218718117E+02  0.81956559594E+02  0.24011042385E+03  0.26985888408E+03  0.91258229101E+02 0.  0.
          5    1    3    3  502    0 -0.67430460844E+02 -0.35919234294E+02  0.37119097920E+03  0.37899508425E+03  0.41800000000E+01 0.  1.
         -5    1    3    3    0  502  0.56211742728E+02 -0.46037325300E+02  0.42851476973E+03  0.43465109642E+03  0.41800000000E+01 0.  1.
        -11    1    4    4    0    0  0.42700424150E+02  0.45165078919E+02  0.73008177836E+02  0.95882243441E+02  0.00000000000E+00 0.  1.
         11    1    4    4    0    0 -0.31481706033E+02  0.36791480676E+02  0.16710224602E+03  0.17397664064E+03  0.00000000000E+00 0. -1.
</event>
<event>
 8    1  0.6185113E-009  0.1121696E+03  0.7561462E-02  0.1256604E+00
         -1   -1    0    0    0  501 -0.00000000000E+00  0.00000000000E+00  0.20053737117E+03  0.20053737117E+03  0.00000000000E+00 0.  1.
          1   -1    0    0  501    0  0.00000000000E+00 -0.00000000000E+00 -0.11576383354E+03  0.11576383354E+03  0.00000000000E+00 0. -1.
         25    2    1    2    0    0 -0.26072632381E+02 -0.36456463493E+02 -0.55155421409E+02  0.14386959976E+03  0.12508990901E+03 0.  0.
         23    2    1    2    0    0  0.26072632381E+02  0.36456463493E+02  0.13992895904E+03  0.17243160495E+03  0.90242389804E+02 0.  0.
          5    1    3    3  502    0 -0.71230217207E+02 -0.12815352818E+02 -0.57714430986E+02  0.92662856934E+02  0.41800000000E+01 0. -1.
         -5    1    3    3    0  502  0.45157584826E+02 -0.23641110675E+02  0.25590095772E+01  0.51206742830E+02  0.41800000000E+01 0. -1.
        -11    1    4    4    0    0 -0.33886442745E+02  0.14299516623E+02  0.53942175384E+02  0.65288019289E+02  0.00000000000E+00 0. -1.
         11    1    4    4    0    0  0.59959075125E+02  0.22156946870E+02  0.85986783654E+02  0.10714358566E+03  0.00000000000E+00 0.  1.
</event>
<event>
 8    1  0.6185113E-009  0.1399132E+03  0.7561462E-02  0.1213446E+00
         -2   -1    0    0    0  501 -0.00000000000E+00  0.00000000000E+00  0.32898670917E+02  0.32898670917E+02  0.00000000000E+00 0.  1.
          2   -1    0    0  501    0  0.00000000000E+00 -0.00000000000E+00 -0.84867608298E+03  0.84867608298E+03  0.00000000000E+00 0. -1.
         25    2    1    2    0    0  0.70214122164E+02 -0.10382618063E+03 -0.37811357096E+03  0.41752491677E+03  0.12508910762E+03 0.  0.
         23    2    1    2    0    0 -0.70214122164E+02  0.10382618063E+03 -0.43766384110E+03  0.46404983712E+03  0.89903919786E+02 0.  0.
          5    1    3    3  502    0  0.81393265303E+02 -0.63795117957E+02 -0.35500925468E+03  0.36978875594E+03  0.41800000000E+01 0. -1.
         -5    1    3    3    0  502 -0.11179143139E+02 -0.40031062676E+02 -0.23104316286E+02  0.47736160835E+02  0.41800000000E+01 0. -1.
        -11    1    4    4    0    0 -0.56172717037E+02  0.39392553549E+02 -0.33555453572E+03  0.34249670635E+03  0.00000000000E+00 0.  1.
         11    1    4    4    0    0 -0.14041405127E+02  0.64433627083E+02 -0.10210930537E+03  0.12155313077E+03  0.00000000000E+00 0. -1.
</event>
<event>
 8    1  0.6185113E-009  0.1512842E+03  0.7561462E-02  0.1198904E+00
         -2   -1    0    0    0  501 -0.00000000000E+00  0.00000000000E+00  0.10599461836E+03  0.10599461836E+03  0.00000000000E+00 0.  1.
          2   -1    0    0  501    0  0.00000000000E+00 -0.00000000000E+00 -0.35673098067E+03  0.35673098067E+03  0.00000000000E+00 0. -1.
         25    2    1    2    0    0  0.37019290964E+02  0.10782550529E+03  0.46599869346E+01  0.16931010683E+03  0.12508968503E+03 0.  0.
         23    2    1    2    0    0 -0.37019290964E+02 -0.10782550529E+03 -0.25539634924E+03  0.29341549221E+03  0.88705063936E+02 0.  0.
          5    1    3    3  502    0  0.75072149654E+02  0.97540083852E+02 -0.16698379390E+02  0.12428275780E+03  0.41800000000E+01 0. -1.
         -5    1    3    3    0  502 -0.38052858690E+02  0.10285421436E+02  0.21358366325E+02  0.45027349030E+02  0.41800000000E+01 0. -1.
        -11    1    4    4    0    0 -0.67082307397E+01 -0.10922396733E+03 -0.22633207260E+03  0.25139825474E+03  0.00000000000E+00 0.  1.
         11    1    4    4    0    0 -0.30311060225E+02  0.13984620376E+01 -0.29064276646E+02  0.42017237474E+02  0.00000000000E+00 0. -1.
</event>
<event>
 8    1  0.6185113E-009  0.1578613E+03  0.7561462E-02  0.1191133E+00
         -1   -1    0    0    0  501 -0.00000000000E+00  0.00000000000E+00  0.73198905071E+03  0.73198905071E+03  0.00000000000E+00 0.  1.
          1   -1    0    0  501    0  0.00000000000E+00 -0.00000000000E+00 -0.38462586015E+02  0.38462586015E+02  0.00000000000E+00 0. -1.
         25    2    1    2    0    0  0.11864855195E+03 -0.45218182414E+02  0.38483295617E+03  0.42410630755E+03  0.12509033955E+03 0.  0.
         23    2    1    2    0    0 -0.11864855195E+03  0.45218182414E+02  0.30869350853E+03  0.34634532918E+03  0.92418839720E+02 0.  0.
          5    1    3    3  502    0  0.53882936343E+02 -0.85313211496E+02  0.24074150405E+03  0.26106638822E+03  0.41800000000E+01 0. -1.
         -5    1    3    3    0  502  0.64765615607E+02  0.40095029083E+02  0.14409145212E+03  0.16303991933E+03  0.41800000000E+01 0. -1.
        -11    1    4    4    0    0 -0.84392933131E+02  0.35009521897E+01  0.26095587915E+03  0.27428524330E+03  0.00000000000E+00 0.  1.
         11    1    4    4    0    0 -0.34255618820E+02  0.41717230224E+02  0.47737629380E+02  0.72060085880E+02  0.00000000000E+00 0. -1.
</event>
<event>
 8    1  0.6185113E-009  0.1056822E+03  0.7561462E-02  0.1268781E+00
         -2   -1    0    0    0  501 -0.00000000000E+00  0.00000000000E+00  0.30072065482E+03  0.30072065482E+03  0.00000000000E+00 0.  1.
          2   -1    0    0  501    0  0.00000000000E+00 -0.00000000000E+00 -0.54230973225E+02  0.54230973225E+02  0.00000000000E+00 0. -1.
         25    2    1    2    0    0  0.64292678083E+02  0.29008539449E+02  0.99552469479E+02  0.17473786873E+03  0.12509030647E+03 0.  0.
         23    2    1    2    0    0 -0.64292678083E+02 -0.29008539449E+02  0.14693721212E+03  0.18021375931E+03  0.76885700399E+02 0.  0.
          5    1    3    3  502    0  0.90000691962E+00  0.60488089877E+02  0.11554041055E+02  0.61729954594E+02  0.41800000000E+01 0. -1.
         -5    1    3    3    0  502  0.63392671163E+02 -0.31479550428E+02  0.87998428425E+02  0.11300791414E+03  0.41800000000E+01 0. -1.
        -11    1    4    4    0    0 -0.31312707453E+02 -0.34276163646E+02  0.22914208921E+02  0.51772599054E+02  0.00000000000E+00 0. -1.
         11    1    4    4    0    0 -0.32979970630E+02  0.52676241975E+01  0.12402300320E+03  0.12844116026E+03  0.00000000000E+00 0.  1.
</event>
<event>
 8    1  0.6185113E-009  0.1075429E+03  0.7561462E-02  0.1265189E+00
          1   -1    0    0  501    0  0.00000000000E+00  0.00000000000E+00  0.20236988399E+03  0.20236988399E+03  0.00000000000E+00 0. -1.
         -1   -1    0    0    0  501 -0.00000000000E+00 -0.00000000000E+00 -0.66206590720E+02  0.66206590720E+02  0.00000000000E+00 0.  1.
         25    2    1    2    0    0 -0.15148287095E+02  0.49064269065E+01  0.33633223873E+02  0.13050446553E+03  0.12508668254E+03 0.  0.
         23    2    1    2    0    0  0.15148287095E+02 -0.49064269065E+01  0.10253006939E+03  0.13807200917E+03  0.91092924866E+02 0.  0.
          5    1    3    3  502    0 -0.23229777221E+02  0.61197272151E+02  0.33124363952E+02  0.73480776776E+02  0.41800000000E+01 0.  1.
         -5    1    3    3    0  502  0.80814901270E+01 -0.56290845244E+02  0.50885992119E+00  0.57023688756E+02  0.41800000000E+01 0.  1.
        -11    1    4    4    0    0 -0.38368842599E+02  0.24790332494E+01  0.42321320713E+02  0.57178736215E+02  0.00000000000E+00 0. -1.
         11    1    4    4    0    0  0.53517129694E+02 -0.73854601559E+01  0.60208748679E+02  0.80893272958E+02  0.00000000000E+00 0.  1.
</event>
<event>
 8    1  0.6185113E-009  0.4361464E+03  0.7561462E-02  0.1031936E+00
         -2   -1    0    0    0  501 -0.00000000000E+00  0.00000000000E+00  0.72910343861E+02  0.72910343861E+02  0.00000000000E+00 0.  1.
          2   -1    0    0  501    0  0.00000000000E+00 -0.00000000000E+00 -0.26335380397E+04  0.26335380397E+04  0.00000000000E+00 0. -1.
         25    2    1    2    0    0 -0.21601188358E+03  0.36497630016E+03 -0.12608818088E+04  0.13361643398E+04  0.12507347217E+03 0.  0.
         23    2    1    2    0    0  0.21601188358E+03 -0.36497630016E+03 -0.12997458870E+04  0.13702840438E+04  0.92033452699E+02 0.  0.
          5    1    3    3  502    0 -0.20766582743E+03  0.25908382613E+03 -0.87441825746E+03  0.93534714744E+03  0.41800000000E+01 0.  1.
         -5    1    3    3    0  502 -0.83460561504E+01  0.10589247404E+03 -0.38646355138E+03  0.40081719232E+03  0.41800000000E+01 0.  1.
        -11    1    4    4    0    0  0.40320561623E+02 -0.15491450715E+03 -0.46895720195E+03  0.49552508461E+03  0.00000000000E+00 0.  1.
         11    1    4    4    0    0  0.17569132196E+03 -0.21006179301E+03 -0.83078868506E+03  0.87475895921E+03  0.00000000000E+00 0. -1.
</event>
<event>
 8    1  0.6185113E-009  0.2322409E+03  0.7561462E-02  0.1125072E+00
          2   -1    0    0  501    0  0.00000000000E+00  0.00000000000E+00  0.13738139337E+04  0.13738139337E+04  0.00000000000E+00 0. -1.
         -2   -1    0    0    0  501 -0.00000000000E+00 -0.00000000000E+00 -0.43352198702E+02  0.43352198702E+02  0.00000000000E+00 0.  1.
         25    2    1    2    0    0  0.38147951038E+02  0.21030425466E+03  0.55536616318E+03  0.60808137440E+03  0.12509291340E+03 0.  0.
         23    2    1    2    0    0 -0.38147951038E+02 -0.21030425466E+03  0.77509557180E+03  0.80908475799E+03  0.90342982529E+02 0.  0.
          5    1    3    3  502    0  0.76655272865E+02  0.16550196484E+03  0.35485862249E+03  0.39901008205E+03  0.41800000000E+01 0. -1.
         -5    1    3    3    0  502 -0.38507321827E+02  0.44802289821E+02  0.20050754069E+03  0.20907129234E+03  0.41800000000E+01 0. -1.
        -11    1    4    4    0    0  0.15051900124E+02 -0.90348320281E+02  0.43528267752E+03  0.44481500427E+03  0.00000000000E+00 0. -1.
         11    1    4    4    0    0 -0.53199851162E+02 -0.11995593438E+03  0.33981289428E+03  0.36426975372E+03  0.00000000000E+00 0.  1.
</event>
<event>
 8    1  0.6185113E-009  0.1817948E+03  0.7561462E-02  0.1166077E+00
         -2   -1    0    0    0  501 -0.00000000000E+00  0.00000000000E+00  0.59761091431E+02  0.59761091431E+02  0.00000000000E+00 0. -1.
          2   -1    0    0  501    0  0.00000000000E+00 -0.00000000000E+00 -0.63682425042E+03  0.63682425042E+03  0.00000000000E+00 0.  1.
         25    2    1    2    0    0 -0.13139916285E+03 -0.82825671171E+02 -0.38379785508E+03  0.43251890392E+03  0.12508387941E+03 0.  0.
         23    2    1    2    0    0  0.13139916285E+03  0.82825671171E+02 -0.19326530391E+03  0.26406643793E+03  0.90850284207E+02 0.  0.
          5    1    3    3  502    0 -0.10350869956E+03 -0.11452923446E+03 -0.32689962311E+03  0.36154091389E+03  0.41800000000E+01 0. -1.
         -5    1    3    3    0  502 -0.27890463284E+02  0.31703563290E+02 -0.56898231969E+02  0.70977990030E+02  0.41800000000E+01 0. -1.
        -11    1    4    4    0    0  0.11636222640E+03  0.42821501997E+02 -0.92750710637E+02  0.15484360849E+03  0.00000000000E+00 0. -1.
         11    1    4    4    0    0  0.15036936448E+02  0.40004169174E+02 -0.10051459327E+03  0.10922282944E+03  0.00000000000E+00 0.  1.
</event>
<event>
 8    1  0.6185113E-009  0.1160669E+03  0.7561462E-02  0.1249730E+00
          2   -1    0    0  501    0  0.00000000000E+00  0.00000000000E+00  0.55261412946E+03  0.55261412946E+03  0.00000000000E+00 0. -1.
         -2   -1    0    0    0  501 -0.00000000000E+00 -0.00000000000E+00 -0.62037282752E+02  0.62037282752E+02  0.00000000000E+00 0.  1.
         25    2    1    2    0    0  0.34563855750E+02  0.70245706619E+02  0.46983431460E+03  0.49246378033E+03  0.12508865789E+03 0.  0.
         23    2    1    2    0    0 -0.34563855750E+02 -0.70245706619E+02  0.20742532101E+02  0.12218763188E+03  0.91490137851E+02 0.  0.
          5    1    3    3  502    0  0.61838005834E+02  0.38442576801E+01  0.11784905193E+03  0.13320881624E+03  0.41800000000E+01 0. -1.
         -5    1    3    3    0  502 -0.27274150083E+02  0.66401448939E+02  0.35198526267E+03  0.35925496409E+03  0.41800000000E+01 0. -1.
        -11    1    4    4    0    0 -0.44397426289E+02 -0.23251653595E+02 -0.24882765213E+02  0.55954650036E+02  0.00000000000E+00 0.  1.
         11    1    4    4    0    0  0.98335705389E+01 -0.46994053024E+02  0.45625297313E+02  0.66232981845E+02  0.00000000000E+00 0. -1.
</event>
<event>
 8    1  0.6185113E-009  0.2051115E+03  0.7561462E-02  0.1145497E+00
          1   -1    0    0  501    0  0.00000000000E+00  0.00000000000E+00  0.18201834806E+04  0.18201834806E+04  0.00000000000E+00 0. -1.
         -1   -1    0    0    0  501 -0.00000000000E+00 -0.00000000000E+00 -0.30751624219E+02  0.30751624219E+02  0.00000000000E+00 0.  1.
         25    2    1    2    0    0  0.18512255225E+03  0.25713799956E+02  0.12964263991E+04  0.13157889877E+04  0.12509073886E+03 0.  0.
         23    2    1    2    0    0 -0.18512255225E+03 -0.25713799956E+02  0.49300545729E+03  0.53514611715E+03  0.91626562340E+02 0.  0.
          5    1    3    3  502    0  0.10775610087E+03  0.64604416309E+02  0.54143692623E+03  0.55583857851E+03  0.41800000000E+01 0.  1.
         -5    1    3    3    0  502  0.77366451376E+02 -0.38890616353E+02  0.75498947288E+03  0.75995040917E+03  0.41800000000E+01 0.  1.
        -11    1    4    4    0    0 -0.12958930695E+03  0.12831611046E+02  0.23759995712E+03  0.27094608014E+03  0.00000000000E+00 0.  1.
         11    1    4    4    0    0 -0.55533245299E+02 -0.38545411002E+02  0.25540550016E+03  0.26420003701E+03  0.00000000000E+00 0. -1.
</event>
<event>
 8    1  0.6185113E-009  0.1407923E+03  0.7561462E-02  0.1212267E+00
          3   -1    0    0  501    0  0.00000000000E+00  0.00000000000E+00  0.68035992073E+02  0.68035992073E+02  0.00000000000E+00 0. -1.
         -3   -1    0    0    0  501 -0.00000000000E+00 -0.00000000000E+00 -0.35813043579E+03  0.35813043579E+03  0.00000000000E+00 0.  1.
         25    2    1    2    0    0  0.19713651766E+02  0.10673810093E+03 -0.11611997428E+03  0.20226964219E+03  0.12509000546E+03 0.  0.
         23    2    1    2    0    0 -0.19713651766E+02 -0.10673810093E+03 -0.17397446943E+03  0.22389678567E+03  0.89894406745E+02 0.  0.
          5    1    3    3  502    0  0.46591641119E+02 -0.63045222229E+01 -0.48912567549E+02  0.67973816186E+02  0.41800000000E+01 0.  1.
         -5    1    3    3    0  502 -0.26877989353E+02  0.11304262316E+03 -0.67207406732E+02  0.13429582600E+03  0.41800000000E+01 0.  1.
        -11    1    4    4    0    0 -0.33042312805E+02 -0.94151797340E+02 -0.17896102701E+03  0.20489852261E+03  0.00000000000E+00 0.  1.
         11    1    4    4    0    0  0.13328661039E+02 -0.12586303592E+02  0.49865575742E+01  0.18998263070E+02  0.00000000000E+00 0. -1.
</event>
<event>
 8    1  0.6185113E-009  0.1225928E+03  0.7561462E-02  0.1238880E+00
         -2   -1    0    0    0  501 -0.00000000000E+00  0.00000000000E+00  0.36092665728E+03  0.36092665728E+03  0.00000000000E+00 0.  1.
          2   -1    0    0  501    0  0.00000000000E+00 -0.00000000000E+00 -0.56343630429E+02  0.56343630429E+02  0.00000000000E+00 0. -1.
         25    2    1    2    0    0 -0.76166132326E+02 -0.48928980398E+02  0.15183247064E+03  0.21655543284E+03  0.12509129273E+03 0.  0.
         23    2    1    2    0    0  0.76166132326E+02  0.48928980398E+02  0.15275055621E+03  0.20071485486E+03  0.93586300829E+02 0.  0.
          5    1    3    3  502    0  0.11561230493E+02  0.31121943109E+02  0.49401267395E+02  0.59667369756E+02  0.41800000000E+01 0.  1.
         -5    1    3    3    0  502 -0.87727362819E+02 -0.80050923508E+02  0.10243120324E+03  0.15688806309E+03  0.41800000000E+01 0.  1.
        -11    1    4    4    0    0  0.20207729139E+02  0.28655928117E+01  0.11904531613E+03  0.12078224717E+03  0.00000000000E+00 0.  1.
         11    1    4    4    0    0  0.55958403187E+02  0.46063387587E+02  0.33705240080E+02  0.79932607690E+02  0.00000000000E+00 0. -1.
</event>
<event>
 8    1  0.6185113E-009  0.1387476E+03  0.7561462E-02  0.1215024E+00
         -2   -1    0    0    0  501 -0.00000000000E+00  0.00000000000E+00  0.94951693289E+01  0.94951693289E+01  0.00000000000E+00 0.  1.
          2   -1    0    0  501    0  0.00000000000E+00 -0.00000000000E+00 -0.24118873593E+04  0.24118873593E+04  0.00000000000E+00 0. -1.
         25    2    1    2    0    0 -0.94476679071E+02  0.17750691856E+02 -0.16269123377E+04  0.16345431902E+04  0.12508699393E+03 0.  0.
         23    2    1    2    0    0  0.94476679071E+02 -0.17750691856E+02 -0.77547985227E+03  0.78683933845E+03  0.92229134788E+02 0.  0.
          5    1    3    3  502    0  0.19891843878E+02  0.21751809642E+02 -0.13505970832E+03  0.13830193017E+03  0.41800000000E+01 0.  1.
         -5    1    3    3    0  502 -0.11436852295E+03 -0.40011177863E+01 -0.14918526294E+04  0.14962412600E+04  0.41800000000E+01 0.  1.
        -11    1    4    4    0    0  0.37816151403E+02 -0.54015460522E+02 -0.37931371781E+03  0.38500211402E+03  0.00000000000E+00 0. -1.
         11    1    4    4    0    0  0.56660527668E+02  0.36264768666E+02 -0.39616613447E+03  0.40183722443E+03  0.00000000000E+00 0.  1.
</event>
<event>
 8    1  0.6185113E-009  0.1262215E+03  0.7561462E-02  0.1233173E+00
          2   -1    0    0  501    0  0.00000000000E+00  0.00000000000E+00  0.18779293242E+03  0.18779293242E+03  0.00000000000E+00 0. -1.
         -2   -1    0    0    0  501 -0.00000000000E+00 -0.00000000000E+00 -0.13523106537E+03  0.13523106537E+03  0.00000000000E+00 0.  1.
         25    2    1    2    0    0  0.74489026447E+02 -0.44640172022E+02 -0.51025143732E+02  0.16060232422E+03  0.12509269057E+03 0.  0.
         23    2    1    2    0    0 -0.74489026447E+02  0.44640172022E+02  0.10358701079E+03  0.16242167356E+03  0.90050936807E+02 0.  0.
          5    1    3    3  502    0  0.23916797393E+02 -0.68092844866E+02 -0.70914939915E+02  0.10126721988E+03  0.41800000000E+01 0. -1.
         -5    1    3    3    0  502  0.50572229054E+02  0.23452672845E+02  0.19889796182E+02  0.59335104342E+02  0.41800000000E+01 0. -1.
        -11    1    4    4    0    0 -0.46711188671E+02  0.71632214148E+02  0.79812263674E+02  0.11697481218E+03  0.00000000000E+00 0. -1.
         11    1    4    4    0    0 -0.27777837776E+02 -0.26992042126E+02  0.23774747116E+02  0.45446861389E+02  0.00000000000E+00 0.  1.
</event>
<event>
 8    1  0.6185113E-009  0.1231992E+03  0.7561462E-02  0.1237911E+00
         -2   -1    0    0    0  501 -0.00000000000E+00  0.00000000000E+00  0.60939371046E+02  0.60939371046E+02  0.00000000000E+00 0.  1.
          2   -1    0    0  501    0  0.00000000000E+00 -0.00000000000E+00 -0.28730851300E+03  0.28730851300E+03  0.00000000000E+00 0. -1.
         25    2    1    2    0    0  0.74877851173E+02 -0.17209384517E+02 -0.11775554507E+03  0.18819279822E+03  0.12508918977E+03 0.  0.
         23    2    1    2    0    0 -0.74877851173E+02  0.17209384517E+02 -0.10861359689E+03  0.16005508582E+03  0.88982366553E+02 0.  0.
          5    1    3    3  502    0  0.40885300704E+02  0.48966822073E+02 -0.86089665676E+02  0.10722994178E+03  0.41800000000E+01 0.  1.
         -5    1    3    3    0  502  0.33992550470E+02 -0.66176206591E+02 -0.31665879391E+02  0.80962856445E+02  0.41800000000E+01 0.  1.
        -11    1    4    4    0    0 -0.32320971627E+02 -0.30209750329E+02 -0.14801407363E+02  0.46651429579E+02  0.00000000000E+00 0.  1.
         11    1    4    4    0    0 -0.42556879546E+02  0.47419134846E+02 -0.93812189524E+02  0.11340365624E+03  0.00000000000E+00 0. -1.
</event>
<event>
 8    1  0.6185113E-009  0.9329464E+02  0.7561462E-02  0.1295064E+00
         -2   -1    0    0    0  501 -0.00000000000E+00  0.00000000000E+00  0.21408981257E+02  0.21408981257E+02  0.00000000000E+00 0.  1.
          2   -1    0    0  501    0  0.00000000000E+00 -0.00000000000E+00 -0.66574435481E+03  0.66574435481E+03  0.00000000000E+00 0. -1.
         25    2    1    2    0    0 -0.43615125476E+02 -0.40286362536E+01 -0.43237185453E+03  0.45223159182E+03  0.12509789353E+03 0.  0.
         23    2    1    2    0    0  0.43615125476E+02  0.40286362536E+01 -0.21196351902E+03  0.23492174425E+03  0.91330079631E+02 0.  0.
          5    1    3    3  502    0 -0.37470779270E+01  0.33444060329E+02 -0.27507757618E+02  0.43665717599E+02  0.41800000000E+01 0.  1.
         -5    1    3    3    0  502 -0.39868047549E+02 -0.37472696583E+02 -0.40486409692E+03  0.40856587422E+03  0.41800000000E+01 0.  1.
        -11    1    4    4    0    0  0.21632958105E+02  0.45771591411E+02 -0.14000184798E+03  0.14887424524E+03  0.00000000000E+00 0. -1.
         11    1    4    4    0    0  0.21982167371E+02 -0.41742955158E+02 -0.71961671039E+02  0.86047499013E+02  0.00000000000E+00 0.  1.
</event>
<event>
 8    1  0.6185113E-009  0.9856007E+02  0.7561462E-02  0.1283353E+00
          1   -1    0    0  501    0  0.00000000000E+00  0.00000000000E+00  0.35022633971E+02  0.35022633971E+02  0.00000000000E+00 0. -1.
         -1   -1    0    0    0  501 -0.00000000000E+00 -0.00000000000E+00 -0.41850092136E+03  0.41850092136E+03  0.00000000000E+00 0.  1.
         25    2    1    2    0    0 -0.43312989243E+02  0.30619673757E+02 -0.22222294925E+03  0.26047067943E+03  0.12509338997E+03 0.  0.
         23    2    1    2    0    0  0.43312989243E+02 -0.30619673757E+02 -0.16125533815E+03  0.19305287590E+03  0.91937747172E+02 0.  0.
          5    1    3    3  502    0 -0.22189260080E+02 -0.47905346179E+02 -0.69278191401E+02  0.87202211321E+02  0.41800000000E+01 0. -1.
         -5    1    3    3    0  502 -0.21123729162E+02  0.78525019937E+02 -0.15294475785E+03  0.17326846811E+03  0.41800000000E+01 0. -1.
        -11    1    4    4    0    0  0.32174040368E+02 -0.37680540888E+02 -0.17010257782E+03  0.17717189116E+03  0.00000000000E+00 0.  1.
         11    1    4    4    0    0  0.11138948874E+02  0.70608671304E+01  0.88472396727E+01  0.15880984745E+02  0.00000000000E+00 0. -1.
</event>
<event>
 8    1  0.6185113E-009  0.1287930E+03  0.7561462E-02  0.1229258E+00
         -4   -1    0    0    0  501 -0.00000000000E+00  0.00000000000E+00  0.12128564702E+03  0.12128564702E+03  0.00000000000E+00 0. -1.
          4   -1    0    0  501    0  0.00000000000E+00 -0.00000000000E+00 -0.22487146035E+03  0.22487146035E+03  0.00000000000E+00 0.  1.
         25    2    1    2    0    0 -0.50003873224E+01 -0.10494598855E+03 -0.12042541209E+03  0.20293468536E+03  0.12506615153E+03 0.  0.
         23    2    1    2    0    0  0.50003873224E+01  0.10494598855E+03  0.16839598769E+02  0.14322242201E+03  0.95866707952E+02 0.  0.
          5    1    3    3  502    0  0.27382312908E+02  0.70379902796E+01  0.77654384248E+01  0.29615853884E+02  0.41800000000E+01 0.  1.
         -5    1    3    3    0  502 -0.32382700230E+02 -0.11198397883E+03 -0.12819085052E+03  0.17331883148E+03  0.41800000000E+01 0.  1.
        -11    1    4    4    0    0  0.22044741466E+02  0.46187531921E+02 -0.35845628050E+02  0.62483340032E+02  0.00000000000E+00 0.  1.
         11    1    4    4    0    0 -0.17044354144E+02  0.58758456628E+02  0.52685226819E+02  0.80739081977E+02  0.00000000000E+00 0. -1.
</event>
<event>
 8    1  0.6185113E-009  0.1263682E+03  0.7561462E-02  0.1232946E+00
         -1   -1    0    0    0  501 -0.00000000000E+00  0.00000000000E+00  0.49479011173E+02  0.49479011173E+02  0.00000000000E+00 0.  1.
          1   -1    0    0  501    0  0.00000000000E+00 -0.00000000000E+00 -0.50065362440E+03  0.50065362440E+03  0.00000000000E+00 0. -1.
         25    2    1    2    0    0 -0.10640978657E+03  0.19675680543E+02 -0.30416049022E+03  0.34622442618E+03  0.12509026496E+03 0.  0.
         23    2    1    2    0    0  0.10640978657E+03 -0.19675680543E+02 -0.14701412300E+03  0.20390820940E+03  0.90858298546E+02 0.  0.
          5    1    3    3  502    0 -0.17326140404E+02  0.33456048993E+02 -0.21862763295E+03  0.22188964970E+03  0.41800000000E+01 0.  1.
         -5    1    3    3    0  502 -0.89083646162E+02 -0.13780368450E+02 -0.85532857275E+02  0.12433477648E+03  0.41800000000E+01 0.  1.
        -11    1    4    4    0    0  0.59319127334E+02  0.20425445537E+02 -0.25818699001E+02  0.67842191232E+02  0.00000000000E+00 0.  1.
         11    1    4    4    0    0  0.47090659232E+02 -0.40101126080E+02 -0.12119542400E+03  0.13606601816E+03  0.00000000000E+00 0. -1.
</event>
<event>
 8    1  0.6185113E-009  0.8967607E+02  0.7561462E-02  0.1303638E+00
         -1   -1    0    0    0  501 -0.00000000000E+00  0.00000000000E+00  0.49701761021E+02  0.49701761021E+02  0.00000000000E+00 0.  1.
          1   -1    0    0  501    0  0.00000000000E+00 -0.00000000000E+00 -0.30848525690E+03  0.30848525690E+03  0.00000000000E+00 0. -1.
         25    2    1    2    0    0 -0.28413536599E+02  0.28567822475E+02 -0.20487964615E+03  0.24340702129E+03  0.12509140285E+03 0.  0.
         23    2    1    2    0    0  0.28413536599E+02 -0.28567822475E+02 -0.53903849737E+02  0.11477999663E+03  0.92980498319E+02 0.  0.
          5    1    3    3  502    0 -0.75856042001E+02  0.34138127851E+02 -0.12380354043E+03  0.14921239863E+03  0.41800000000E+01 0. -1.
         -5    1    3    3    0  502  0.47442505402E+02 -0.55703053759E+01 -0.81076105717E+02  0.94194622665E+02  0.41800000000E+01 0. -1.
        -11    1    4    4    0    0  0.12806113146E+02  0.27707735743E+01  0.25129092792E+02  0.28339813420E+02  0.00000000000E+00 0.  1.
         11    1    4    4    0    0  0.15607423453E+02 -0.31338596049E+02 -0.79032942529E+02  0.86440183214E+02  0.00000000000E+00 0. -1.
</event>
<event>
 8    1  0.6185113E-009  0.1834174E+03  0.7561462E-02  0.1164536E+00
          1   -1    0    0  501    0  0.00000000000E+00  0.00000000000E+00  0.15765376108E+04  0.15765376108E+04  0.00000000000E+00 0. -1.
         -1   -1    0    0    0  501 -0.00000000000E+00 -0.00000000000E+00 -0.28891764743E+02  0.28891764743E+02  0.00000000000E+00 0.  1.
         25    2    1    2    0    0  0.16057450021E+03  0.23806900154E+02  0.11234162118E+04  0.11419555064E+04  0.12508978740E+03 0.  0.
         23    2    1    2    0    0 -0.16057450021E+03 -0.23806900154E+02  0.42422963419E+03  0.46347386913E+03  0.92121149760E+02 0.  0.
          5    1    3    3  502    0  0.12090078922E+03  0.63448324929E+02  0.59121585618E+03  0.60679185209E+03  0.41800000000E+01 0.  1.
         -5    1    3    3    0  502  0.39673710995E+02 -0.39641424775E+02  0.53220035565E+03  0.53516365428E+03  0.41800000000E+01 0.  1.
        -11    1    4    4    0    0 -0.14946647577E+03 -0.19545812255E+01  0.28220150365E+03  0.31934579445E+03  0.00000000000E+00 0.  1.
         11    1    4    4    0    0 -0.11108024441E+02 -0.21852318929E+02  0.14202813053E+03  0.14412807469E+03  0.00000000000E+00 0. -1.
</event>
<event>
 8    1  0.6185113E-009  0.1038186E+03  0.7561462E-02  0.1272465E+00
         -1   -1    0    0    0  501 -0.00000000000E+00  0.00000000000E+00  0.11299155167E+03  0.11299155167E+03  0.00000000000E+00 0.  1.
          1   -1    0    0  501    0  0.00000000000E+00 -0.00000000000E+00 -0.19418769128E+03  0.19418769128E+03  0.00000000000E+00 0. -1.
         25    2    1    2    0    0 -0.52308549660E+02  0.86580631722E+02 -0.41089159227E+02  0.16603144920E+03  0.12508290434E+03 0.  0.
         23    2    1    2    0    0  0.52308549660E+02 -0.86580631722E+02 -0.40106980379E+02  0.14114779375E+03  0.89898496366E+02 0.  0.
          5    1    3    3  502    0 -0.26331596591E+02  0.19858937401E+02 -0.78420009764E+02  0.85175704900E+02  0.41800000000E+01 0. -1.
         -5    1    3    3    0  502 -0.25976953070E+02  0.66721694321E+02  0.37330850537E+02  0.80855744296E+02  0.41800000000E+01 0. -1.
        -11    1    4    4    0    0  0.43612101711E+02 -0.56595679820E+02  0.19322623980E+02  0.74016553469E+02  0.00000000000E+00 0.  1.
         11    1    4    4    0    0  0.86964479490E+01 -0.29984951902E+02 -0.59429604360E+02  0.67131240283E+02  0.00000000000E+00 0. -1.
</event>
<event>
 8    1  0.6185113E-009  0.1043526E+03  0.7561462E-02  0.1271400E+00
          2   -1    0    0  501    0  0.00000000000E+00  0.00000000000E+00  0.81622632659E+03  0.81622632659E+03  0.00000000000E+00 0. -1.
         -2   -1    0    0    0  501 -0.00000000000E+00 -0.00000000000E+00 -0.23231320940E+02  0.23231320940E+02  0.00000000000E+00 0.  1.
         25    2    1    2    0    0  0.54563229340E+02  0.33918993695E+02  0.60419094582E+03  0.62034016147E+03  0.12509025860E+03 0.  0.
         23    2    1    2    0    0 -0.54563229340E+02 -0.33918993695E+02  0.18880405983E+03  0.21911748605E+03  0.90762633046E+02 0.  0.
          5    1    3    3  502    0  0.52698343135E+02  0.54894536734E+02  0.17824820493E+03  0.19385670093E+03  0.41800000000E+01 0. -1.
         -5    1    3    3    0  502  0.18648862044E+01 -0.20975543038E+02  0.42594274088E+03  0.42648346054E+03  0.41800000000E+01 0. -1.
        -11    1    4    4    0    0 -0.62884778582E+02  0.12289196276E+02  0.10285465157E+03  0.12118002753E+03  0.00000000000E+00 0.  1.
         11    1    4    4    0    0  0.83215492422E+01 -0.46208189972E+02  0.85949408256E+02  0.97937458522E+02  0.00000000000E+00 0. -1.
</event>
<event>
 8    1  0.6185113E-009  0.1309474E+03  0.7561462E-02  0.1226057E+00
         -2   -1    0    0    0  501 -0.00000000000E+00  0.00000000000E+00  0.48638283507E+02  0.48638283507E+02  0.00000000000E+00 0.  1.
          2   -1    0    0  501    0  0.00000000000E+00 -0.00000000000E+00 -0.53467687058E+03  0.53467687058E+03  0.00000000000E+00 0. -1.
         25    2    1    2    0    0  0.84531308967E+02 -0.48769387525E+02 -0.13788923799E+03  0.21020091877E+03  0.12508792485E+03 0.  0.
         23    2    1    2    0    0 -0.84531308967E+02  0.48769387525E+02 -0.34814934908E+03  0.37311423531E+03  0.92099228956E+02 0.  0.
          5    1    3    3  502    0  0.70153639134E+02  0.31465413945E+02 -0.69087542170E+02  0.10345127472E+03  0.41800000000E+01 0.  1.
         -5    1    3    3    0  502  0.14377669833E+02 -0.80234801470E+02 -0.68801695824E+02  0.10674964405E+03  0.41800000000E+01 0.  1.
        -11    1    4    4    0    0 -0.33532874115E+02  0.38849659430E+02 -0.29255570481E+03  0.29702287808E+03  0.00000000000E+00 0. -1.
         11    1    4    4    0    0 -0.50998434852E+02  0.99197280951E+01 -0.55593644265E+02  0.76091357233E+02  0.00000000000E+00 0.  1.
</event>
<event>
 8    1  0.6185113E-009  0.8817425E+02  0.7561462E-02  0.1307334E+00
          1   -1    0    0  501    0  0.00000000000E+00  0.00000000000E+00  0.15848202963E+04  0.15848202963E+04  0.00000000000E+00 0. -1.
         -1   -1    0    0    0  501 -0.00000000000E+00 -0.00000000000E+00 -0.10712621180E+02  0.10712621180E+02  0.00000000000E+00 0.  1.
         25    2    1    2    0    0 -0.31454725177E+02  0.29337715208E+02  0.11963746710E+04  0.12036651250E+04  0.12508908182E+03 0.  0.
         23    2    1    2    0    0  0.31454725177E+02 -0.29337715208E+02  0.37773300414E+03  0.39186779253E+03  0.95016015151E+02 0.  0.
          5    1    3    3  502    0 -0.12739546893E+02  0.48925894778E+02  0.18248863578E+03  0.18940858962E+03  0.41800000000E+01 0. -1.
         -5    1    3    3    0  502 -0.18715178285E+02 -0.19588179570E+02  0.10138860352E+04  0.10142565354E+04  0.41800000000E+01 0. -1.
        -11    1    4    4    0    0  0.40687335787E+01  0.31356777601E+02  0.67082208830E+02  0.74160803906E+02  0.00000000000E+00 0.  1.
         11    1    4    4    0    0  0.27385991599E+02 -0.60694492809E+02  0.31065079531E+03  0.31770698862E+03  0.00000000000E+00 0. -1.
</event>
<event>
 8    1  0.6185113E-009  0.1194852E+03  0.7561462E-02  0.1243949E+00
         -1   -1    0    0    0  501 -0.00000000000E+00  0.00000000000E+00  0.42429276983E+03  0.42429276983E+03  0.00000000000E+00 0.  1.
          1   -1    0    0  501    0  0.00000000000E+00 -0.00000000000E+00 -0.56237893457E+02  0.56237893457E+02  0.00000000000E+00 0. -1.
         25    2    1    2    0    0  0.74214754696E+02  0.37689920245E+02  0.31269300959E+03  0.34691841238E+03  0.12508839556E+03 0.  0.
         23    2    1    2    0    0 -0.74214754696E+02 -0.37689920245E+02  0.55361866789E+02  0.13361225091E+03  0.88650648027E+02 0.  0.
          5    1    3    3  502    0 -0.12599126525E+02  0.27993868929E+02  0.20894023380E+03  0.21122473432E+03  0.41800000000E+01 0.  1.
         -5    1    3    3    0  502  0.86813881220E+02  0.96960513155E+01  0.10375277579E+03  0.13569367807E+03  0.41800000000E+01 0.  1.
        -11    1    4    4    0    0 -0.80467014252E+02  0.18653659117E+01  0.28474222103E+02  0.85376819436E+02  0.00000000000E+00 0. -1.
         11    1    4    4    0    0  0.62522595565E+01 -0.39555286156E+02  0.26887644687E+02  0.48235431472E+02  0.00000000000E+00 0.  1.
</event>
<event>
 8    1  0.6185113E-009  0.1093098E+03  0.7561462E-02  0.1261853E+00
          2   -1    0    0  501    0  0.00000000000E+00  0.00000000000E+00  0.11289915620E+04  0.11289915620E+04  0.00000000000E+00 0. -1.
         -2   -1    0    0    0  501 -0.00000000000E+00 -0.00000000000E+00 -0.19275834098E+02  0.19275834098E+02  0.00000000000E+00 0.  1.
         25    2    1    2    0    0 -0.54032384827E+02  0.17411005848E+02  0.92107012972E+03  0.93125753467E+03  0.12509104797E+03 0.  0.
         23    2    1    2    0    0  0.54032384827E+02 -0.17411005848E+02  0.18864559821E+03  0.21700986146E+03  0.91013606182E+02 0.  0.
          5    1    3    3  502    0 -0.12188547731E+01  0.49410331043E+02  0.15618029960E+03  0.16386770519E+03  0.41800000000E+01 0.  1.
         -5    1    3    3    0  502 -0.52813530054E+02 -0.31999325195E+02  0.76488983012E+03  0.76738982948E+03  0.41800000000E+01 0.  1.
        -11    1    4    4    0    0  0.51604133202E+02 -0.51525938700E+02  0.12313526965E+03  0.14310906175E+03  0.00000000000E+00 0.  1.
         11    1    4    4    0    0  0.24282516250E+01  0.34114932852E+02  0.65510328558E+02  0.73900799706E+02  0.00000000000E+00 0. -1.
</event>
<event>
 8    1  0.6185113E-009  0.9190710E+02  0.7561462E-02  0.1298298E+00
          2   -1    0    0  501    0  0.00000000000E+00  0.00000000000E+00  0.57313574098E+03  0.57313574098E+03  0.00000000000E+00 0. -1.
         -2   -1    0    0    0  501 -0.00000000000E+00 -0.00000000000E+00 -0.32068210536E+02  0.32068210536E+02  0.00000000000E+00 0.  1.
         25    2    1    2    0    0  0.49816815224E+02 -0.15681104916E+02  0.43672639551E+03  0.45728132403E+03  0.12509457478E+03 0.  0.
         23    2    1    2    0    0 -0.49816815224E+02  0.15681104916E+02  0.10434113493E+03  0.14792262748E+03  0.90919850157E+02 0.  0.
          5    1    3    3  502    0  0.45894123668E+02  0.15965390647E+02  0.52299168767E+02  0.71511116195E+02  0.41800000000E+01 0.  1.
         -5    1    3    3    0  502  0.39226915553E+01 -0.31646495563E+02  0.38442722675E+03  0.38577020784E+03  0.41800000000E+01 0.  1.
        -11    1    4    4    0    0 -0.11813049707E+02  0.50181657814E+02  0.38007374359E+02  0.64049257841E+02  0.00000000000E+00 0. -1.
         11    1    4    4    0    0 -0.38003765516E+02 -0.34500552898E+02  0.66333760568E+02  0.83873369640E+02  0.00000000000E+00 0.  1.
</event>
<event>
 8    1  0.6185113E-009  0.9119896E+02  0.7561462E-02  0.1299974E+00
          3   -1    0    0  501    0  0.00000000000E+00  0.00000000000E+00  0.90345108949E+02  0.90345108949E+02  0.00000000000E+00 0. -1.
         -3   -1    0    0    0  501 -0.00000000000E+00 -0.00000000000E+00 -0.13114374565E+03  0.13114374565E+03  0.00000000000E+00 0.  1.
         25    2    1    2    0    0  0.54964371289E+01  0.14054875185E+02 -0.15310251421E+01  0.12600379847E+03  0.12508742084E+03 0.  0.
         23    2    1    2    0    0 -0.54964371289E+01 -0.14054875185E+02 -0.39267611561E+02  0.95485056136E+02  0.85718727767E+02 0.  0.
          5    1    3    3  502    0  0.53484648191E+01  0.69743567510E+02 -0.30232968174E+01  0.70138320543E+02  0.41800000000E+01 0. -1.
         -5    1    3    3    0  502  0.14797230980E+00 -0.55688692325E+02  0.14922716753E+01  0.55865477922E+02  0.41800000000E+01 0. -1.
        -11    1    4    4    0    0 -0.14501862602E+02 -0.32701007765E+02  0.13938207058E+02  0.38391842151E+02  0.00000000000E+00 0. -1.
         11    1    4    4    0    0  0.90054254728E+01  0.18646132580E+02 -0.53205818619E+02  0.57093213985E+02  0.00000000000E+00 0.  1.
</event>
<event>
 8    1  0.6185113E-009  0.8810098E+02  0.7561462E-02  0.1307517E+00
          4   -1    0    0  501    0  0.00000000000E+00  0.00000000000E+00  0.66566462193E+02  0.66566462193E+02  0.00000000000E+00 0. -1.
         -4   -1    0    0    0  501 -0.00000000000E+00 -0.00000000000E+00 -0.20401803237E+03  0.20401803237E+03  0.00000000000E+00 0.  1.
         25    2    1    2    0    0  0.30445270067E+02 -0.14623111117E+02 -0.10743041567E+03  0.16831228214E+03  0.12508789015E+03 0.  0.
         23    2    1    2    0    0 -0.30445270067E+02  0.14623111117E+02 -0.30021154512E+02  0.10227221242E+03  0.91747402510E+02 0.  0.
          5    1    3    3  502    0  0.62696579539E+02 -0.40623489544E+02 -0.10173463135E+03  0.12628751564E+03  0.41800000000E+01 0.  1.
         -5    1    3    3    0  502 -0.32251309473E+02  0.26000378427E+02 -0.56957843140E+01  0.42024766507E+02  0.41800000000E+01 0.  1.
        -11    1    4    4    0    0 -0.41155133341E+02  0.22067485551E+02 -0.56172690098E+02  0.73048545719E+02  0.00000000000E+00 0.  1.
         11    1    4    4    0    0  0.10709863274E+02 -0.74443744342E+01  0.26151535586E+02  0.29223666703E+02  0.00000000000E+00 0. -1.
</event>
<event>
 8    1  0.6185113E-009  0.1481595E+03  0.7561462E-02  0.1202753E+00
          1   -1    0    0  501    0  0.00000000000E+00  0.00000000000E+00  0.91401234565E+03  0.91401234565E+03  0.00000000000E+00 0. -1.
         -1   -1    0    0    0  501 -0.00000000000E+00 -0.00000000000E+00 -0.39596655395E+02  0.39596655395E+02  0.00000000000E+00 0.  1.
         25    2    1    2    0    0  0.64587302044E+02 -0.96198536556E+02  0.20084502251E+03  0.26346382896E+03  0.12509511614E+03 0.  0.
         23    2    1    2    0    0 -0.64587302044E+02  0.96198536556E+02  0.67357066774E+03  0.69014517208E+03  0.95797891878E+02 0.  0.
          5    1    3    3  502    0 -0.27478844922E+02 -0.21415070401E+02  0.64117898978E+01  0.35668972626E+02  0.41800000000E+01 0.  1.
         -5    1    3    3    0  502  0.92066146965E+02 -0.74783466154E+02  0.19443323262E+03  0.22779485634E+03  0.41800000000E+01 0.  1.
        -11    1    4    4    0    0 -0.76023503433E+02  0.41397287577E+02  0.50913026800E+03  0.51643677085E+03  0.00000000000E+00 0. -1.
         11    1    4    4    0    0  0.11436201390E+02  0.54801248979E+02  0.16444039974E+03  0.17370840124E+03  0.00000000000E+00 0.  1.
</event>
<event>
 8    1  0.6185113E-009  0.1151231E+03  0.7561462E-02  0.1251366E+00
         -1   -1    0    0    0  501 -0.00000000000E+00  0.00000000000E+00  0.41153491914E+02  0.41153491914E+02  0.00000000000E+00 0.  1.
          1   -1    0    0  501    0  0.00000000000E+00 -0.00000000000E+00 -0.54296831479E+03  0.54296831479E+03  0.00000000000E+00 0. -1.
         25    2    1    2    0    0 -0.74203909994E+02  0.13904157215E+02 -0.13638937924E+03  0.19987293579E+03  0.12509029476E+03 0.  0.
         23    2    1    2    0    0  0.74203909994E+02 -0.13904157215E+02 -0.36542544364E+03  0.38424887092E+03  0.91716378578E+02 0.  0.
          5    1    3    3  502    0 -0.33853069198E+02  0.50121772475E+02 -0.89100788839E+01  0.61278742447E+02  0.41800000000E+01 0. -1.
         -5    1    3    3    0  502 -0.40350840796E+02 -0.36217615260E+02 -0.12747930036E+03  0.13859419334E+03  0.41800000000E+01 0. -1.
        -11    1    4    4    0    0  0.55712191044E+02 -0.49885179514E+02 -0.18927378731E+03  0.20351153758E+03  0.00000000000E+00 0.  1.
         11    1    4    4    0    0  0.18491718950E+02  0.35981022299E+02 -0.17615165633E+03  0.18073733334E+03  0.00000000000E+00 0. -1.
</event>
<event>
 8    1  0.6185113E-009  0.6878554E+02  0.7561462E-02  0.1364272E+00
         -1   -1    0    0    0  501 -0.00000000000E+00  0.00000000000E+00  0.22175402702E+02  0.22175402702E+02  0.00000000000E+00 0.  1.
          1   -1    0    0  501    0  0.00000000000E+00 -0.00000000000E+00 -0.59157390356E+03  0.59157390356E+03  0.00000000000E+00 0. -1.
         25    2    1    2    0    0 -0.35238424972E+02  0.80006281164E+01 -0.34468665338E+03  0.36845929627E+03  0.12509039668E+03 0.  0.
         23    2    1    2    0    0  0.35238424972E+02 -0.80006281164E+01 -0.22471184748E+03  0.24529001000E+03  0.91465938809E+02 0.  0.
          5    1    3    3  502    0 -0.32661690824E+02  0.93033590080E+01 -0.35516758115E+03  0.35681202563E+03  0.41800000000E+01 0. -1.
         -5    1    3    3    0  502 -0.25767341484E+01 -0.13027308916E+01  0.10480927761E+02  0.11647270641E+02  0.41800000000E+01 0. -1.
        -11    1    4    4    0    0  0.16573957321E+02  0.41866681069E+02 -0.98315132983E+02  0.10813593491E+03  0.00000000000E+00 0.  1.
         11    1    4    4    0    0  0.18664467651E+02 -0.49867309186E+02 -0.12639671450E+03  0.13715407509E+03  0.00000000000E+00 0. -1.
</event>
<event>
 8    1  0.6185113E-009  0.2236509E+03  0.7561462E-02  0.1131190E+00
          1   -1    0    0  501    0  0.00000000000E+00  0.00000000000E+00  0.13461663721E+03  0.13461663721E+03  0.00000000000E+00 0. -1.
         -1   -1    0    0    0  501 -0.00000000000E+00 -0.00000000000E+00 -0.39558391682E+03  0.39558391682E+03  0.00000000000E+00 0.  1.
         25    2    1    2    0    0 -0.14107030981E+03 -0.14213059809E+03 -0.17529013788E+03  0.29406564384E+03  0.12508409662E+03 0.  0.
         23    2    1    2    0    0  0.14107030981E+03  0.14213059809E+03 -0.85677141723E+02  0.23613491019E+03  0.91198596346E+02 0.  0.
          5    1    3    3  502    0 -0.53847031470E+02 -0.13092779775E+03 -0.14021417398E+03  0.19929645759E+03  0.41800000000E+01 0.  1.
         -5    1    3    3    0  502 -0.87223278340E+02 -0.11202800340E+02 -0.35075963901E+02  0.94769186255E+02  0.41800000000E+01 0.  1.
        -11    1    4    4    0    0  0.81466513968E+02  0.23366937895E+02 -0.16564016722E+02  0.86354926522E+02  0.00000000000E+00 0. -1.
         11    1    4    4    0    0  0.59603795842E+02  0.11876366019E+03 -0.69113125001E+02  0.14977998367E+03  0.00000000000E+00 0.  1.
</event>
<event>
 7    1  0.6185113E-009  0.3439904E+03  0.7561462E-02  0.1065109E+00
          2   -1    0    0  501    0  0.00000000000E+00  0.00000000000E+00  0.32986353663E+04  0.32986353663E+04  0.00000000000E+00 0. -1.
         -2   -1    0    0    0  501 -0.00000000000E+00 -0.00000000000E+00 -0.71922403102E+02  0.71922403102E+02  0.00000000000E+00 0.  1.
         25    2    1    2    0    0  0.31741985183E+03  0.87231826711E+02  0.27625076960E+04  0.27848631874E+04  0.12509775376E+03 0.  0.
          5    1    3    3  502    0  0.49648407428E+02  0.66968238498E+02  0.68604873233E+03  0.69110783880E+03  0.41800000000E+01 0.  1.
         -5    1    3    3    0  502  0.26777144441E+03  0.20263588213E+02  0.20764589637E+04  0.20937553486E+04  0.41800000000E+01 0.  1.
        -11    1    1    2    0    0 -0.31259428979E+02  0.11380307668E+02  0.13266555076E+03  0.13677284694E+03  0.00000000000E+00 0. -1.
         11    1    1    2    0    0 -0.28616042285E+03 -0.98612134378E+02  0.33153971643E+03  0.44892173508E+03  0.00000000000E+00 0.  1.
</event>
<event>
 8    1  0.6185113E-009  0.1266821E+03  0.7561462E-02  0.1232464E+00
         -3   -1    0    0    0  501 -0.00000000000E+00  0.00000000000E+00  0.10314668062E+03  0.10314668062E+03  0.00000000000E+00 0.  1.
          3   -1    0    0  501    0  0.00000000000E+00 -0.00000000000E+00 -0.30132731354E+03  0.30132731354E+03  0.00000000000E+00 0. -1.
         25    2    1    2    0    0  0.77380343490E+02  0.77864387695E+02 -0.20279572354E+03  0.26232497486E+03  0.12505081575E+03 0.  0.
         23    2    1    2    0    0 -0.77380343490E+02 -0.77864387695E+02  0.46150906216E+01  0.14214901929E+03  0.90191264508E+02 0.  0.
          5    1    3    3  502    0 -0.18417063138E+02  0.32198029438E+02 -0.12559266667E+03  0.13102248523E+03  0.41800000000E+01 0. -1.
         -5    1    3    3    0  502  0.95797406628E+02  0.45666358257E+02 -0.77203056869E+02  0.13130248963E+03  0.41800000000E+01 0. -1.
        -11    1    4    4    0    0 -0.88092742227E+01 -0.10472045747E+02 -0.35443335334E+02  0.37993381977E+02  0.00000000000E+00 0. -1.
         11    1    4    4    0    0 -0.68571069268E+02 -0.67392341948E+02  0.40058425956E+02  0.10415563731E+03  0.00000000000E+00 0.  1.
</event>
<event>
 8    1  0.6185113E-009  0.9207220E+02  0.7561462E-02  0.1297910E+00
         -4   -1    0    0    0  501 -0.00000000000E+00  0.00000000000E+00  0.44777095027E+02  0.44777095027E+02  0.00000000000E+00 0.  1.
          4   -1    0    0  501    0  0.00000000000E+00 -0.00000000000E+00 -0.31589918773E+03  0.31589918773E+03  0.00000000000E+00 0. -1.
         25    2    1    2    0    0  0.18938588112E+02 -0.36978246768E+02 -0.19949929681E+03  0.23910752941E+03  0.12508549213E+03 0.  0.
         23    2    1    2    0    0 -0.18938588112E+02  0.36978246768E+02 -0.71622795893E+02  0.12156875334E+03  0.89011662407E+02 0.  0.
          5    1    3    3  502    0  0.49092597970E+02 -0.45671638617E+02 -0.43747011250E+02  0.80170163669E+02  0.41800000000E+01 0. -1.
         -5    1    3    3    0  502 -0.30154009859E+02  0.86933918488E+01 -0.15575228556E+03  0.15893736574E+03  0.41800000000E+01 0. -1.
        -11    1    4    4    0    0 -0.38653446162E+02 -0.49516880800E+01 -0.63536071707E+02  0.74534827585E+02  0.00000000000E+00 0. -1.
         11    1    4    4    0    0  0.19714858050E+02  0.41929934848E+02 -0.80867241857E+01  0.47033925760E+02  0.00000000000E+00 0.  1.
</event>
<event>
 8    1  0.6185113E-009  0.1757330E+03  0.7561462E-02  0.1171998E+00
          4   -1    0    0  501    0  0.00000000000E+00  0.00000000000E+00  0.34852369675E+02  0.34852369675E+02  0.00000000000E+00 0. -1.
         -4   -1    0    0    0  501 -0.00000000000E+00 -0.00000000000E+00 -0.10013915851E+04  0.10013915851E+04  0.00000000000E+00 0.  1.
         25    2    1    2    0    0  0.36409656690E+02  0.14287897860E+03 -0.40769054002E+03  0.45122323385E+03  0.12510301642E+03 0.  0.
         23    2    1    2    0    0 -0.36409656690E+02 -0.14287897860E+03 -0.55884867540E+03  0.58502072092E+03  0.90539142270E+02 0.  0.
          5    1    3    3  502    0 -0.97392895870E+01 -0.13843195775E+02 -0.75581420553E+01  0.19002256241E+02  0.41800000000E+01 0.  1.
         -5    1    3    3    0  502  0.46148946277E+02  0.15672217438E+03 -0.40013239796E+03  0.43222097761E+03  0.41800000000E+01 0.  1.
        -11    1    4    4    0    0  0.17747109705E+02 -0.99899581133E+02 -0.37880606058E+03  0.39215930149E+03  0.00000000000E+00 0. -1.
         11    1    4    4    0    0 -0.54156766395E+02 -0.42979397469E+02 -0.18004261482E+03  0.19286141943E+03  0.00000000000E+00 0.  1.
</event>
<event>
 8    1  0.6185113E-009  0.2020520E+03  0.7561462E-02  0.1148019E+00
         -2   -1    0    0    0  501 -0.00000000000E+00  0.00000000000E+00  0.60510362899E+02  0.60510362899E+02  0.00000000000E+00 0.  1.
          2   -1    0    0  501    0  0.00000000000E+00 -0.00000000000E+00 -0.81304210175E+03  0.81304210175E+03  0.00000000000E+00 0. -1.
         25    2    1    2    0    0 -0.18647803256E+03  0.38584111965E+02 -0.32604483254E+03  0.39776356741E+03  0.12509129629E+03 0.  0.
         23    2    1    2    0    0  0.18647803256E+03 -0.38584111965E+02 -0.42648690630E+03  0.47578889723E+03  0.90670850655E+02 0.  0.
          5    1    3    3  502    0 -0.41608552130E+02 -0.87275154262E+01 -0.18568093762E+03  0.19053168800E+03  0.41800000000E+01 0.  1.
         -5    1    3    3    0  502 -0.14486948043E+03  0.47311627391E+02 -0.14036389492E+03  0.20723187941E+03  0.41800000000E+01 0.  1.
        -11    1    4    4    0    0  0.22634756091E+02 -0.38990805425E+02 -0.12120317042E+03  0.12931675688E+03  0.00000000000E+00 0. -1.
         11    1    4    4    0    0  0.16384327647E+03  0.40669345926E+00 -0.30528373589E+03  0.34647214035E+03  0.00000000000E+00 0.  1.
</event>
<event>
 8    1  0.6185113E-009  0.8200834E+02  0.7561462E-02  0.1323447E+00
         -2   -1    0    0    0  501 -0.00000000000E+00  0.00000000000E+00  0.97657593161E+02  0.97657593161E+02  0.00000000000E+00 0.  1.
          2   -1    0    0  501    0  0.00000000000E+00 -0.00000000000E+00 -0.14474096355E+03  0.14474096355E+03  0.00000000000E+00 0. -1.
         25    2    1    2    0    0  0.34001967921E+02 -0.32774509856E+02 -0.16009526125E+02  0.13466743731E+03  0.12509480975E+03 0.  0.
         23    2    1    2    0    0 -0.34001967921E+02  0.32774509856E+02 -0.31073844261E+02  0.10773111940E+03  0.91706640825E+02 0.  0.
          5    1    3    3  502    0  0.46199977314E+02 -0.36026707434E+02  0.43881857836E+02  0.73317469948E+02  0.41800000000E+01 0. -1.
         -5    1    3    3    0  502 -0.12198009394E+02  0.32521975779E+01 -0.59891383961E+02  0.61349967360E+02  0.41800000000E+01 0. -1.
        -11    1    4    4    0    0 -0.10192707919E+01  0.53185839474E+02 -0.41611765852E+02  0.67537482118E+02  0.00000000000E+00 0. -1.
         11    1    4    4    0    0 -0.32982697129E+02 -0.20411329617E+02  0.10537921591E+02  0.40193637284E+02  0.00000000000E+00 0.  1.
</event>
<event>
 8    1  0.6185113E-009  0.8525927E+02  0.7561462E-02  0.1314756E+00
         -2   -1    0    0    0  501 -0.00000000000E+00  0.00000000000E+00  0.55195879168E+02  0.55195879168E+02  0.00000000000E+00 0.  1.
          2   -1    0    0  501    0  0.00000000000E+00 -0.00000000000E+00 -0.23651574779E+03  0.23651574779E+03  0.00000000000E+00 0. -1.
         25    2    1    2    0    0  0.14122021436E+02  0.28708187025E+02 -0.83968459861E+02  0.15401992431E+03  0.12509133999E+03 0.  0.
         23    2    1    2    0    0 -0.14122021436E+02 -0.28708187025E+02 -0.97351408758E+02  0.13769170264E+03  0.91968019975E+02 0.  0.
          5    1    3    3  502    0  0.31270589547E+02 -0.13680018696E+02  0.20410402751E+02  0.39988118517E+02  0.41800000000E+01 0.  1.
         -5    1    3    3    0  502 -0.17148568110E+02  0.42388205721E+02 -0.10437886261E+03  0.11403180579E+03  0.41800000000E+01 0.  1.
        -11    1    4    4    0    0 -0.10627238970E+01  0.30026984953E+02 -0.10085942128E+02  0.31693460462E+02  0.00000000000E+00 0.  1.
         11    1    4    4    0    0 -0.13059297539E+02 -0.58735171978E+02 -0.87265466630E+02  0.10599824218E+03  0.00000000000E+00 0. -1.
</event>
<event>
 8    1  0.6185113E-009  0.1285797E+03  0.7561462E-02  0.1229579E+00
         -2   -1    0    0    0  501 -0.00000000000E+00  0.00000000000E+00  0.33315861417E+02  0.33315861417E+02  0.00000000000E+00 0.  1.
          2   -1    0    0  501    0  0.00000000000E+00 -0.00000000000E+00 -0.65646175474E+03  0.65646175474E+03  0.00000000000E+00 0. -1.
         25    2    1    2    0    0  0.93815058467E+02  0.35759448085E+02 -0.35431053449E+03  0.38892588597E+03  0.12508951437E+03 0.  0.
         23    2    1    2    0    0 -0.93815058467E+02 -0.35759448085E+02 -0.26883535883E+03  0.30085173018E+03  0.90328899440E+02 0.  0.
          5    1    3    3  502    0  0.26159179696E+02  0.65957114597E+02 -0.25641182843E+03  0.26608108127E+03  0.41800000000E+01 0.  1.
         -5    1    3    3    0  502  0.67655878771E+02 -0.30197666512E+02 -0.97898706062E+02  0.12284480471E+03  0.41800000000E+01 0.  1.
        -11    1    4    4    0    0 -0.23024867194E+02  0.12499865156E+02 -0.97272369591E+01  0.27946561095E+02  0.00000000000E+00 0.  1.
         11    1    4    4    0    0 -0.70790191274E+02 -0.48259313241E+02 -0.25910812187E+03  0.27290516909E+03  0.00000000000E+00 0. -1.
</event>
<event>
 8    1  0.6185113E-009  0.1941102E+03  0.7561462E-02  0.1154806E+00
         -2   -1    0    0    0  501 -0.00000000000E+00  0.00000000000E+00  0.49904228285E+03  0.49904228285E+03  0.00000000000E+00 0.  1.
          2   -1    0    0  501    0  0.00000000000E+00 -0.00000000000E+00 -0.79719441293E+02  0.79719441293E+02  0.00000000000E+00 0. -1.
         25    2    1    2    0    0  0.14465478200E+03  0.77271125197E+02  0.17259908124E+03  0.26896086309E+03  0.12511462857E+03 0.  0.
         23    2    1    2    0    0 -0.14465478200E+03 -0.77271125197E+02  0.24672376032E+03  0.30980086106E+03  0.90598713339E+02 0.  0.
          5    1    3    3  502    0 -0.15486512701E+02  0.32282704433E+02  0.52782795039E+02  0.63917923412E+02  0.41800000000E+01 0. -1.
         -5    1    3    3    0  502  0.16014129471E+03  0.44988420764E+02  0.11981628620E+03  0.20504293968E+03  0.41800000000E+01 0. -1.
        -11    1    4    4    0    0 -0.77149747441E+02 -0.88434217894E+02  0.17469695063E+03  0.21045597873E+03  0.00000000000E+00 0.  1.
         11    1    4    4    0    0 -0.67505034564E+02  0.11163092697E+02  0.72026809697E+02  0.99344882330E+02  0.00000000000E+00 0. -1.
</event>
<event>
 8    1  0.6185113E-009  0.1139857E+03  0.7561462E-02  0.1253362E+00
          2   -1    0    0  501    0  0.00000000000E+00  0.00000000000E+00  0.13237676914E+04  0.13237676914E+04  0.00000000000E+00 0. -1.
         -2   -1    0    0    0  501 -0.00000000000E+00 -0.00000000000E+00 -0.25022167125E+02  0.25022167125E+02  0.00000000000E+00 0.  1.
         25    2    1    2    0    0  0.70625794377E+02 -0.80193398585E+01  0.11569852384E+04  0.11658967533E+04  0.12509230537E+03 0.  0.
         23    2    1    2    0    0 -0.70625794377E+02  0.80193398585E+01  0.14176028588E+03  0.18289310522E+03  0.91113098077E+02 0.  0.
          5    1    3    3  502    0  0.54049610428E+02  0.36577038742E+02  0.99157855119E+03  0.99373272852E+03  0.41800000000E+01 0.  1.
         -5    1    3    3    0  502  0.16576183949E+02 -0.44596378601E+02  0.16540668721E+03  0.17216402480E+03  0.41800000000E+01 0.  1.
        -11    1    4    4    0    0 -0.37997788058E+02  0.49269448656E+02  0.87077027568E+02  0.10702205006E+03  0.00000000000E+00 0.  1.
         11    1    4    4    0    0 -0.32628006320E+02 -0.41250108797E+02  0.54683258315E+02  0.75871055166E+02  0.00000000000E+00 0. -1.
</event>
<event>
 8    1  0.6185113E-009  0.3220991E+03  0.7561462E-02  0.1074687E+00
          2   -1    0    0  501    0  0.00000000000E+00  0.00000000000E+00  0.30896527281E+04  0.30896527281E+04  0.00000000000E+00 0. -1.
         -2   -1    0    0    0  501 -0.00000000000E+00 -0.00000000000E+00 -0.37072365970E+02  0.37072365970E+02  0.00000000000E+00 0.  1.
         25    2    1    2    0    0  0.11253101226E+03 -0.28557015137E+03  0.19737411006E+04  0.20013780108E+04  0.12508585023E+03 0.  0.
         23    2    1    2    0    0 -0.11253101226E+03  0.28557015137E+03  0.10788392615E+04  0.11253470832E+04  0.91095364784E+02 0.  0.
          5    1    3    3  502    0  0.64447344539E+01  0.11444239842E+02  0.14310315540E+03  0.14376540165E+03  0.41800000000E+01 0.  1.
         -5    1    3    3    0  502  0.10608627781E+03 -0.29701439121E+03  0.18306379452E+04  0.18576126092E+04  0.41800000000E+01 0.  1.
        -11    1    4    4    0    0 -0.44173224513E+02  0.20324513323E+03  0.61115125612E+03  0.64557394294E+03  0.00000000000E+00 0.  1.
         11    1    4    4    0    0 -0.68357787746E+02  0.82325018134E+02  0.46768800541E+03  0.47977314031E+03  0.00000000000E+00 0. -1.
</event>
<event>
 8    1  0.6185113E-009  0.1317681E+03  0.7561462E-02  0.1224856E+00
          2   -1    0    0  501    0  0.00000000000E+00  0.00000000000E+00  0.34710586926E+03  0.34710586926E+03  0.00000000000E+00 0. -1.
         -2   -1    0    0    0  501 -0.00000000000E+00 -0.00000000000E+00 -0.83872112292E+02  0.83872112292E+02  0.00000000000E+00 0.  1.
         25    2    1    2    0    0  0.82379544289E+02 -0.99015836463E+02  0.10744699254E+03  0.20924284964E+03  0.12508872344E+03 0.  0.
         23    2    1    2    0    0 -0.82379544289E+02  0.99015836463E+02  0.15578676444E+03  0.22173513192E+03  0.91139604811E+02 0.  0.
          5    1    3    3  502    0  0.81745345609E+02 -0.80152298062E+02  0.15878391441E+02  0.11565590399E+03  0.41800000000E+01 0. -1.
         -5    1    3    3    0  502  0.63419868048E+00 -0.18863538401E+02  0.91568601094E+02  0.93586945646E+02  0.41800000000E+01 0. -1.
        -11    1    4    4    0    0 -0.39797070941E+02  0.59289783588E+02  0.14621154576E+03  0.16271724373E+03  0.00000000000E+00 0. -1.
         11    1    4    4    0    0 -0.42582473349E+02  0.39726052875E+02  0.95752186770E+01  0.59017888189E+02  0.00000000000E+00 0.  1.
</event>
<event>
 8    1  0.6185113E-009  0.1023508E+03  0.7561462E-02  0.1275429E+00
          1   -1    0    0  501    0  0.00000000000E+00  0.00000000000E+00  0.88847935386E+03  0.88847935386E+03  0.00000000000E+00 0. -1.
         -1   -1    0    0    0  501 -0.00000000000E+00 -0.00000000000E+00 -0.14753955502E+02  0.14753955502E+02  0.00000000000E+00 0.  1.
         25    2    1    2    0    0 -0.24238908531E+02 -0.27840803353E+02  0.58040535716E+03  0.59487902943E+03  0.12509215007E+03 0.  0.
         23    2    1    2    0    0  0.24238908531E+02  0.27840803353E+02  0.29332004120E+03  0.30835427994E+03  0.87653182314E+02 0.  0.
          5    1    3    3  502    0  0.18635003643E+02  0.31204852406E+02  0.67364126789E+02  0.76657707718E+02  0.41800000000E+01 0.  1.
         -5    1    3    3    0  502 -0.42873912174E+02 -0.59045655759E+02  0.51304123037E+03  0.51822132171E+03  0.41800000000E+01 0.  1.
        -11    1    4    4    0    0 -0.32736174804E+02  0.17503397383E+02  0.10839639889E+03  0.11457663528E+03  0.00000000000E+00 0.  1.
         11    1    4    4    0    0  0.56975083335E+02  0.10337405970E+02  0.18492364231E+03  0.19377764466E+03  0.00000000000E+00 0. -1.
</event>
<event>
 8    1  0.6185113E-009  0.1511733E+03  0.7561462E-02  0.1199039E+00
         -2   -1    0    0    0  501 -0.00000000000E+00  0.00000000000E+00  0.46666185803E+02  0.46666185803E+02  0.00000000000E+00 0.  1.
          2   -1    0    0  501    0  0.00000000000E+00 -0.00000000000E+00 -0.55259203737E+03  0.55259203737E+03  0.00000000000E+00 0. -1.
         25    2    1    2    0    0 -0.16777482524E+02 -0.11697882842E+03 -0.25715109301E+03  0.30941867915E+03  0.12509078365E+03 0.  0.
         23    2    1    2    0    0  0.16777482524E+02  0.11697882842E+03 -0.24877475856E+03  0.28983954402E+03  0.90291475598E+02 0.  0.
          5    1    3    3  502    0 -0.59203769732E+02 -0.77071344079E+02 -0.90619247109E+02  0.13294509685E+03  0.41800000000E+01 0. -1.
         -5    1    3    3    0  502  0.42426287208E+02 -0.39907484341E+02 -0.16653184590E+03  0.17647358230E+03  0.41800000000E+01 0. -1.
        -11    1    4    4    0    0  0.12531641339E+02  0.13121876088E+03 -0.23565963432E+03  0.27002012608E+03  0.00000000000E+00 0. -1.
         11    1    4    4    0    0  0.42458411849E+01 -0.14239932458E+02 -0.13115124237E+02  0.19819417941E+02  0.00000000000E+00 0.  1.
</event>
<event>
 8    1  0.6185113E-009  0.1166147E+03  0.7561462E-02  0.1248789E+00
          1   -1    0    0  501    0  0.00000000000E+00  0.00000000000E+00  0.64689704476E+02  0.64689704476E+02  0.00000000000E+00 0. -1.
         -1   -1    0    0    0  501 -0.00000000000E+00 -0.00000000000E+00 -0.26582314020E+03  0.26582314020E+03  0.00000000000E+00 0.  1.
         25    2    1    2    0    0 -0.36155223639E+02  0.25000021456E+02 -0.37908404919E+02  0.13790094727E+03  0.12508965915E+03 0.  0.
         23    2    1    2    0    0  0.36155223639E+02 -0.25000021456E+02 -0.16322503081E+03  0.19261189741E+03  0.92329470222E+02 0.  0.
          5    1    3    3  502    0 -0.13962718842E+02 -0.50803837174E+02 -0.85942015536E+01  0.53547363049E+02  0.41800000000E+01 0. -1.
         -5    1    3    3    0  502 -0.22192504796E+02  0.75803858630E+02 -0.29314203365E+02  0.84353584223E+02  0.41800000000E+01 0. -1.
        -11    1    4    4    0    0 -0.26134065548E+02  0.12078424572E+02 -0.35049965391E+02  0.45358326646E+02  0.00000000000E+00 0.  1.
         11    1    4    4    0    0  0.62289289187E+02 -0.37078446028E+02 -0.12817506542E+03  0.14725357076E+03  0.00000000000E+00 0. -1.
</event>
<event>
 8    1  0.6185113E-009  0.1067052E+03  0.7561462E-02  0.1266796E+00
         -1   -1    0    0    0  501 -0.00000000000E+00  0.00000000000E+00  0.25938927403E+03  0.25938927403E+03  0.00000000000E+00 0.  1.
          1   -1    0    0  501    0  0.00000000000E+00 -0.00000000000E+00 -0.92596624813E+02  0.92596624813E+02  0.00000000000E+00 0. -1.
         25    2    1    2    0    0 -0.64588949123E+02  0.19326668676E+02  0.15030443206E+03  0.20684417854E+03  0.12509132436E+03 0.  0.
         23    2    1    2    0    0  0.64588949123E+02 -0.19326668676E+02  0.16488217157E+02  0.14514172030E+03  0.12747158583E+03 0.  0.
          5    1    3    3  502    0  0.83382639132E+01  0.27343965034E+02 -0.99402765538E+01  0.30553241511E+02  0.41800000000E+01 0.  1.
         -5    1    3    3    0  502 -0.72927213036E+02 -0.80172963580E+01  0.16024470861E+03  0.17629093703E+03  0.41800000000E+01 0.  1.
        -11    1    4    4    0    0  0.83318017845E+02  0.10935391793E+01  0.53414375826E+02  0.98975671104E+02  0.00000000000E+00 0.  1.
         11    1    4    4    0    0 -0.18729068721E+02 -0.20420207856E+02 -0.36926158669E+02  0.46166049193E+02  0.00000000000E+00 0. -1.
</event>
<event>
 8    1  0.6185113E-009  0.7611306E+02  0.7561462E-02  0.1340458E+00
          1   -1    0    0  501    0  0.00000000000E+00  0.00000000000E+00  0.41737886576E+03  0.41737886576E+03  0.00000000000E+00 0. -1.
         -1   -1    0    0    0  501 -0.00000000000E+00 -0.00000000000E+00 -0.48819160972E+02  0.48819160972E+02  0.00000000000E+00 0.  1.
         25    2    1    2    0    0  0.21346042467E+01 -0.59615246009E+02  0.31985043943E+03  0.34858490172E+03  0.12509434846E+03 0.  0.
         23    2    1    2    0    0 -0.21346042467E+01  0.59615246009E+02  0.48709265367E+02  0.11761312501E+03  0.88891622500E+02 0.  0.
          5    1    3    3  502    0 -0.19694190161E+02 -0.30765209090E+02  0.12129394480E+02  0.38716325069E+02  0.41800000000E+01 0. -1.
         -5    1    3    3    0  502  0.21828794408E+02 -0.28850036919E+02  0.30772104495E+03  0.30986857666E+03  0.41800000000E+01 0. -1.
        -11    1    4    4    0    0  0.24710353345E+02  0.33121678945E+02  0.64599193949E+02  0.76685742074E+02  0.00000000000E+00 0. -1.
         11    1    4    4    0    0 -0.26844957592E+02  0.26493567064E+02 -0.15889928582E+02  0.40927382939E+02  0.00000000000E+00 0.  1.
</event>
<event>
 8    1  0.6185113E-009  0.1176250E+03  0.7561462E-02  0.1247067E+00
         -2   -1    0    0    0  501 -0.00000000000E+00  0.00000000000E+00  0.24571269352E+02  0.24571269352E+02  0.00000000000E+00 0.  1.
          2   -1    0    0  501    0  0.00000000000E+00 -0.00000000000E+00 -0.83854206962E+03  0.83854206962E+03  0.00000000000E+00 0. -1.
         25    2    1    2    0    0  0.15475516167E+02  0.84392440297E+02 -0.32152575285E+03  0.35551484334E+03  0.12510163272E+03 0.  0.
         23    2    1    2    0    0 -0.15475516167E+02 -0.84392440297E+02 -0.49244504741E+03  0.50759849563E+03  0.88275321944E+02 0.  0.
          5    1    3    3  502    0  0.93406227893E+01 -0.15813448454E+02 -0.19128411171E+00  0.18836702889E+02  0.41800000000E+01 0. -1.
         -5    1    3    3    0  502  0.61348933781E+01  0.10020588875E+03 -0.32133446874E+03  0.33667814045E+03  0.41800000000E+01 0. -1.
        -11    1    4    4    0    0 -0.47189722299E+02 -0.43463598854E+02 -0.35444815174E+03  0.36020750490E+03  0.00000000000E+00 0. -1.
         11    1    4    4    0    0  0.31714206132E+02 -0.40928841442E+02 -0.13799689568E+03  0.14739099073E+03  0.00000000000E+00 0.  1.
</event>
<event>
 8    1  0.6185113E-009  0.7875125E+02  0.7561462E-02  0.1332633E+00
         -2   -1    0    0    0  501 -0.00000000000E+00  0.00000000000E+00  0.52545801733E+03  0.52545801733E+03  0.00000000000E+00 0.  1.
          2   -1    0    0  501    0  0.00000000000E+00 -0.00000000000E+00 -0.63719097026E+02  0.63719097026E+02  0.00000000000E+00 0. -1.
         25    2    1    2    0    0  0.33922189379E+02 -0.42140476052E+02  0.46447852058E+03  0.48405928379E+03  0.12508620821E+03 0.  0.
         23    2    1    2    0    0 -0.33922189379E+02  0.42140476052E+02 -0.27396002795E+01  0.10511783057E+03  0.90087281229E+02 0.  0.
          5    1    3    3  502    0  0.81873062229E+01  0.16026448469E+02  0.36776629079E+03  0.36823008578E+03  0.41800000000E+01 0. -1.
         -5    1    3    3    0  502  0.25734883156E+02 -0.58166924521E+02  0.96712229796E+02  0.11582919801E+03  0.41800000000E+01 0. -1.
        -11    1    4    4    0    0 -0.24221909646E+01  0.43679309692E+02 -0.37903693366E+02  0.57882977421E+02  0.00000000000E+00 0. -1.
         11    1    4    4    0    0 -0.31499998415E+02 -0.15388336403E+01  0.35164093087E+02  0.47234853146E+02  0.00000000000E+00 0.  1.
</event>
<event>
 8    1  0.6185113E-009  0.9286279E+02  0.7561462E-02  0.1296063E+00
          1   -1    0    0  501    0  0.00000000000E+00  0.00000000000E+00  0.11663948726E+03  0.11663948726E+03  0.00000000000E+00 0. -1.
         -1   -1    0    0    0  501 -0.00000000000E+00 -0.00000000000E+00 -0.11114707486E+03  0.11114707486E+03  0.00000000000E+00 0.  1.
         25    2    1    2    0    0 -0.79724045888E+01  0.24393946768E+02 -0.26649020476E+02  0.13044540418E+03  0.12508880567E+03 0.  0.
         23    2    1    2    0    0  0.79724045888E+01 -0.24393946768E+02  0.32141432876E+02  0.97341157942E+02  0.88224743969E+02 0.  0.
          5    1    3    3  502    0  0.54043413317E+02 -0.65000482692E+01  0.36384512222E+01  0.54714274899E+02  0.41800000000E+01 0. -1.
         -5    1    3    3    0  502 -0.62015817906E+02  0.30893995037E+02 -0.30287471698E+02  0.75731129278E+02  0.41800000000E+01 0. -1.
        -11    1    4    4    0    0  0.98555192062E+01 -0.42444152200E+02 -0.15588189823E+02  0.46277737377E+02  0.00000000000E+00 0.  1.
         11    1    4    4    0    0 -0.18831146174E+01  0.18050205432E+02  0.47729622699E+02  0.51063420565E+02  0.00000000000E+00 0. -1.
</event>
<event>
 8    1  0.6185113E-009  0.7217679E+02  0.7561462E-02  0.1352843E+00
         -3   -1    0    0    0  501 -0.00000000000E+00  0.00000000000E+00  0.38463866764E+02  0.38463866764E+02  0.00000000000E+00 0.  1.
          3   -1    0    0  501    0  0.00000000000E+00 -0.00000000000E+00 -0.32769938948E+03  0.32769938948E+03  0.00000000000E+00 0. -1.
         25    2    1    2    0    0 -0.39528930136E+01 -0.98207060664E+01 -0.21563134007E+03  0.24951338009E+03  0.12509188780E+03 0.  0.
         23    2    1    2    0    0  0.39528930136E+01  0.98207060664E+01 -0.73604182642E+02  0.11664987615E+03  0.89875170502E+02 0.  0.
          5    1    3    3  502    0 -0.16093675523E+02  0.23043305750E+02 -0.21216578006E+03  0.21406025077E+03  0.41800000000E+01 0. -1.
         -5    1    3    3    0  502  0.12140782509E+02 -0.32864011817E+02 -0.34655600148E+01  0.35453129324E+02  0.41800000000E+01 0. -1.
        -11    1    4    4    0    0 -0.20290324555E+02 -0.28694891372E+02 -0.67668929977E+01  0.35789452388E+02  0.00000000000E+00 0.  1.
         11    1    4    4    0    0  0.24243217568E+02  0.38515597438E+02 -0.66837289645E+02  0.80860423763E+02  0.00000000000E+00 0. -1.
</event>
<event>
 8    1  0.6185113E-009  0.1159251E+03  0.7561462E-02  0.1249975E+00
          1   -1    0    0  501    0  0.00000000000E+00  0.00000000000E+00  0.11608365675E+03  0.11608365675E+03  0.00000000000E+00 0. -1.
         -1   -1    0    0    0  501 -0.00000000000E+00 -0.00000000000E+00 -0.14563462659E+03  0.14563462659E+03  0.00000000000E+00 0.  1.
         25    2    1    2    0    0 -0.25384140742E+02  0.69137397942E+02 -0.19371296770E+02  0.14644843290E+03  0.12509021530E+03 0.  0.
         23    2    1    2    0    0  0.25384140742E+02 -0.69137397942E+02 -0.10179673069E+02  0.11526985045E+03  0.88086198026E+02 0.  0.
          5    1    3    3  502    0 -0.28737398813E+02 -0.22579973875E+02 -0.37799855573E+02  0.52744618608E+02  0.41800000000E+01 0. -1.
         -5    1    3    3    0  502  0.33532580711E+01  0.91717371817E+02  0.18428558803E+02  0.93703814289E+02  0.41800000000E+01 0. -1.
        -11    1    4    4    0    0  0.50215604929E+02 -0.36021490889E+02  0.18968591852E+02  0.64644893542E+02  0.00000000000E+00 0. -1.
         11    1    4    4    0    0 -0.24831464187E+02 -0.33115907054E+02 -0.29148264921E+02  0.50624956904E+02  0.00000000000E+00 0.  1.
</event>
<event>
 8    1  0.6185113E-009  0.9768337E+02  0.7561462E-02  0.1285244E+00
         -2   -1    0    0    0  501 -0.00000000000E+00  0.00000000000E+00  0.44465039084E+03  0.44465039084E+03  0.00000000000E+00 0.  1.
          2   -1    0    0  501    0  0.00000000000E+00 -0.00000000000E+00 -0.39919758425E+02  0.39919758425E+02  0.00000000000E+00 0. -1.
         25    2    1    2    0    0 -0.33534541958E+02 -0.63347643008E+02  0.27291888247E+03  0.30865885407E+03  0.12509229557E+03 0.  0.
         23    2    1    2    0    0  0.33534541958E+02  0.63347643008E+02  0.13181174994E+03  0.17591129519E+03  0.91831132919E+02 0.  0.
          5    1    3    3  502    0 -0.37928605248E+02 -0.42232329584E+02  0.29235156027E+02  0.63986838538E+02  0.41800000000E+01 0. -1.
         -5    1    3    3    0  502  0.43940632896E+01 -0.21115313424E+02  0.24368372644E+03  0.24467201553E+03  0.41800000000E+01 0. -1.
        -11    1    4    4    0    0  0.45541259548E+02 -0.61484369385E+01  0.53249628287E+02  0.70337276822E+02  0.00000000000E+00 0. -1.
         11    1    4    4    0    0 -0.12006717589E+02  0.69496079947E+02  0.78562121656E+02  0.10557401837E+03  0.00000000000E+00 0.  1.
</event>
<event>
 8    1  0.6185113E-009  0.1190339E+03  0.7561462E-02  0.1244699E+00
          1   -1    0    0  501    0  0.00000000000E+00  0.00000000000E+00  0.14020752607E+04  0.14020752607E+04  0.00000000000E+00 0. -1.
         -1   -1    0    0    0  501 -0.00000000000E+00 -0.00000000000E+00 -0.22150151278E+02  0.22150151278E+02  0.00000000000E+00 0.  1.
         25    2    1    2    0    0  0.17944483647E+02 -0.96344668670E+02  0.11244566596E+04  0.11356299509E+04  0.12509319098E+03 0.  0.
         23    2    1    2    0    0 -0.17944483647E+02  0.96344668670E+02  0.25546844980E+03  0.28859546104E+03  0.91754627204E+02 0.  0.
          5    1    3    3  502    0 -0.23318796161E+02 -0.55169898916E+02  0.94481700559E+03  0.94672283719E+03  0.41800000000E+01 0. -1.
         -5    1    3    3    0  502  0.41263279808E+02 -0.41174769754E+02  0.17963965399E+03  0.18890711371E+03  0.41800000000E+01 0. -1.
        -11    1    4    4    0    0  0.26446535823E+02  0.36287713037E+02  0.38548108106E+02  0.59179168742E+02  0.00000000000E+00 0. -1.
         11    1    4    4    0    0 -0.44391019470E+02  0.60056955633E+02  0.21692034170E+03  0.22941629230E+03  0.00000000000E+00 0.  1.
</event>
<event>
 8    1  0.6185113E-009  0.2144351E+03  0.7561462E-02  0.1138101E+00
         -2   -1    0    0    0  501 -0.00000000000E+00  0.00000000000E+00  0.23960726481E+02  0.23960726481E+02  0.00000000000E+00 0.  1.
          2   -1    0    0  501    0  0.00000000000E+00 -0.00000000000E+00 -0.21142291378E+04  0.21142291378E+04  0.00000000000E+00 0. -1.
         25    2    1    2    0    0  0.11803455759E+03  0.14667358106E+03 -0.13546492530E+04  0.13733782096E+04  0.12509121467E+03 0.  0.
         23    2    1    2    0    0 -0.11803455759E+03 -0.14667358106E+03 -0.73561915831E+03  0.76481165460E+03  0.91411294537E+02 0.  0.
          5    1    3    3  502    0 -0.25734817310E+02  0.20100829941E+02 -0.26176629441E+03  0.26382833335E+03  0.41800000000E+01 0.  1.
         -5    1    3    3    0  502  0.14376937490E+03  0.12657275112E+03 -0.10928829586E+04  0.11095498763E+04  0.41800000000E+01 0.  1.
        -11    1    4    4    0    0  0.12111088775E+02 -0.13874807560E+02 -0.30871652697E+02  0.35947846895E+02  0.00000000000E+00 0.  1.
         11    1    4    4    0    0 -0.13014564636E+03 -0.13279877350E+03 -0.70474750561E+03  0.72886380770E+03  0.00000000000E+00 0. -1.
</event>
<event>
 8    1  0.6185113E-009  0.1454248E+03  0.7561462E-02  0.1206210E+00
         -2   -1    0    0    0  501 -0.00000000000E+00  0.00000000000E+00  0.23535500119E+03  0.23535500119E+03  0.00000000000E+00 0. -1.
          2   -1    0    0  501    0  0.00000000000E+00 -0.00000000000E+00 -0.26340594254E+03  0.26340594254E+03  0.00000000000E+00 0.  1.
         25    2    1    2    0    0 -0.81203341696E+02  0.67406454659E+02 -0.21198058837E+03  0.26780623866E+03  0.12508716476E+03 0.  0.
         23    2    1    2    0    0  0.81203341696E+02 -0.67406454659E+02  0.18392964702E+03  0.23095470507E+03  0.91500535024E+02 0.  0.
          5    1    3    3  502    0 -0.10864700513E+03  0.29459391308E+02 -0.12052070840E+03  0.16496890924E+03  0.41800000000E+01 0. -1.
         -5    1    3    3    0  502  0.27443663434E+02  0.37947063351E+02 -0.91459879963E+02  0.10283732942E+03  0.41800000000E+01 0. -1.
        -11    1    4    4    0    0  0.72386681464E+02 -0.99635749813E+01  0.14063736786E+03  0.15848650957E+03  0.00000000000E+00 0. -1.
         11    1    4    4    0    0  0.88166602322E+01 -0.57442879678E+02  0.43292279160E+02  0.72468195494E+02  0.00000000000E+00 0.  1.
</event>
<event>
 8    1  0.6185113E-009  0.1009346E+03  0.7561462E-02  0.1278343E+00
         -4   -1    0    0    0  501 -0.00000000000E+00  0.00000000000E+00  0.12476813694E+03  0.12476813694E+03  0.00000000000E+00 0.  1.
          4   -1    0    0  501    0  0.00000000000E+00 -0.00000000000E+00 -0.17795574743E+03  0.17795574743E+03  0.00000000000E+00 0. -1.
         25    2    1    2    0    0 -0.50154087738E+02 -0.12230606159E+02 -0.11858362037E+03  0.17992601451E+03  0.12508507278E+03 0.  0.
         23    2    1    2    0    0  0.50154087738E+02  0.12230606159E+02  0.65396009877E+02  0.12279786986E+03  0.90208971230E+02 0.  0.
          5    1    3    3  502    0 -0.78043523874E+02  0.14835116271E+02 -0.33545048288E+02  0.86334320859E+02  0.41800000000E+01 0.  1.
         -5    1    3    3    0  502  0.27889436135E+02 -0.27065722431E+02 -0.85038572082E+02  0.93591693651E+02  0.41800000000E+01 0.  1.
        -11    1    4    4    0    0  0.57420496848E+02 -0.11371120944E+02  0.64523443719E+01  0.58890140072E+02  0.00000000000E+00 0. -1.
         11    1    4    4    0    0 -0.72664091093E+01  0.23601727103E+02  0.58943665505E+02  0.63907729788E+02  0.00000000000E+00 0.  1.
</event>
<event>
 8    1  0.6185113E-009  0.1283034E+03  0.7561462E-02  0.1229995E+00
         -2   -1    0    0    0  501 -0.00000000000E+00  0.00000000000E+00  0.25695770854E+03  0.25695770854E+03  0.00000000000E+00 0.  1.
          2   -1    0    0  501    0  0.00000000000E+00 -0.00000000000E+00 -0.92015075471E+02  0.92015075471E+02  0.00000000000E+00 0. -1.
         25    2    1    2    0    0 -0.82385315930E+02  0.53640326959E+02  0.14162866327E+03  0.21300367437E+03  0.12508901661E+03 0.  0.
         23    2    1    2    0    0  0.82385315930E+02 -0.53640326959E+02  0.23313969797E+02  0.13596910964E+03  0.90991387681E+02 0.  0.
          5    1    3    3  502    0 -0.43215263158E+02 -0.32327677325E+02  0.90630063508E+02  0.10556475976E+03  0.41800000000E+01 0.  1.
         -5    1    3    3    0  502 -0.39170052772E+02  0.85968004284E+02  0.50998599764E+02  0.10743891461E+03  0.41800000000E+01 0.  1.
        -11    1    4    4    0    0  0.38483498436E+02  0.14647436810E+00  0.48677392026E+02  0.62052313422E+02  0.00000000000E+00 0.  1.
         11    1    4    4    0    0  0.43901817494E+02 -0.53786801327E+02 -0.25363422229E+02  0.73916796221E+02  0.00000000000E+00 0. -1.
</event>
<event>
 8    1  0.6185113E-009  0.1140108E+03  0.7561462E-02  0.1253318E+00
         -1   -1    0    0    0  501 -0.00000000000E+00  0.00000000000E+00  0.90601094558E+02  0.90601094558E+02  0.00000000000E+00 0. -1.
          1   -1    0    0  501    0  0.00000000000E+00 -0.00000000000E+00 -0.19350628913E+03  0.19350628913E+03  0.00000000000E+00 0.  1.
         25    2    1    2    0    0 -0.65024949785E+02  0.44150848945E+02 -0.80299202744E+02  0.16814637432E+03  0.12509076576E+03 0.  0.
         23    2    1    2    0    0  0.65024949785E+02 -0.44150848945E+02 -0.22605991831E+02  0.11596100937E+03  0.82209386758E+02 0.  0.
          5    1    3    3  502    0 -0.70549988440E+02 -0.16044120936E+02 -0.66516379537E+01  0.72776585335E+02  0.41800000000E+01 0.  1.
         -5    1    3    3    0  502  0.55250386556E+01  0.60194969882E+02 -0.73647564790E+02  0.95369788983E+02  0.41800000000E+01 0.  1.
        -11    1    4    4    0    0  0.60433487341E+02 -0.10921837960E+02  0.17325463757E+02  0.63809596700E+02  0.00000000000E+00 0.  1.
         11    1    4    4    0    0  0.45914624438E+01 -0.33229010986E+02 -0.39931455588E+02  0.52151412674E+02  0.00000000000E+00 0. -1.
</event>
<event>
 8    1  0.6185113E-009  0.1168348E+03  0.7561462E-02  0.1248412E+00
         -1   -1    0    0    0  501 -0.00000000000E+00  0.00000000000E+00  0.41686030881E+02  0.41686030881E+02  0.00000000000E+00 0.  1.
          1   -1    0    0  501    0  0.00000000000E+00 -0.00000000000E+00 -0.46072794293E+03  0.46072794293E+03  0.00000000000E+00 0. -1.
         25    2    1    2    0    0  0.34206557580E+02  0.70126501388E+02 -0.16474302710E+03  0.22107344928E+03  0.12508153428E+03 0.  0.
         23    2    1    2    0    0 -0.34206557580E+02 -0.70126501388E+02 -0.25429888495E+03  0.28134052454E+03  0.91633798798E+02 0.  0.
          5    1    3    3  502    0 -0.24129686589E+02 -0.42462659276E+00  0.77995226032E+01  0.25704611172E+02  0.41800000000E+01 0.  1.
         -5    1    3    3    0  502  0.58336244169E+02  0.70551127981E+02 -0.17254254971E+03  0.19536883810E+03  0.41800000000E+01 0.  1.
        -11    1    4    4    0    0 -0.57643630606E+02 -0.18009377536E+02 -0.16074003453E+03  0.17171046715E+03  0.00000000000E+00 0. -1.
         11    1    4    4    0    0  0.23437073026E+02 -0.52117123852E+02 -0.93558850413E+02  0.10963005738E+03  0.00000000000E+00 0.  1.
</event>
<event>
 8    1  0.6185113E-009  0.1720365E+03  0.7561462E-02  0.1175741E+00
          1   -1    0    0  501    0  0.00000000000E+00  0.00000000000E+00  0.46783024682E+03  0.46783024682E+03  0.00000000000E+00 0. -1.
         -1   -1    0    0    0  501 -0.00000000000E+00 -0.00000000000E+00 -0.68024589206E+02  0.68024589206E+02  0.00000000000E+00 0.  1.
         25    2    1    2    0    0 -0.12888748937E+03  0.33511519748E+02  0.27777606188E+03  0.33247849571E+03  0.12508957864E+03 0.  0.
         23    2    1    2    0    0  0.12888748937E+03 -0.33511519748E+02  0.12202959573E+03  0.20337634031E+03  0.93465002508E+02 0.  0.
          5    1    3    3  502    0  0.25015923733E+02  0.72880811965E+01  0.35693019461E+02  0.44388924362E+02  0.41800000000E+01 0.  1.
         -5    1    3    3    0  502 -0.15390341310E+03  0.26223438551E+02  0.24208304242E+03  0.28808957135E+03  0.41800000000E+01 0.  1.
        -11    1    4    4    0    0  0.71196628856E+02  0.28608581978E+02  0.45748565243E+02  0.89332760760E+02  0.00000000000E+00 0. -1.
         11    1    4    4    0    0  0.57690860510E+02 -0.62120101726E+02  0.76281030487E+02  0.11404357955E+03  0.00000000000E+00 0.  1.
</event>
<event>
 8    1  0.6185113E-009  0.1126956E+03  0.7561462E-02  0.1255658E+00
          2   -1    0    0  501    0  0.00000000000E+00  0.00000000000E+00  0.40792188734E+03  0.40792188734E+03  0.00000000000E+00 0. -1.
         -2   -1    0    0    0  501 -0.00000000000E+00 -0.00000000000E+00 -0.49217817879E+02  0.49217817879E+02  0.00000000000E+00 0.  1.
         25    2    1    2    0    0  0.21467061703E+02  0.79216272474E+02  0.13498942096E+03  0.20151012068E+03  0.12509249539E+03 0.  0.
         23    2    1    2    0    0 -0.21467061703E+02 -0.79216272474E+02  0.22371464850E+03  0.25562958454E+03  0.92532091594E+02 0.  0.
          5    1    3    3  502    0  0.38191636404E+02 -0.44315562913E+01 -0.34691294639E+01  0.38829718537E+02  0.41800000000E+01 0.  1.
         -5    1    3    3    0  502 -0.16724574701E+02  0.83647828765E+02  0.13845855043E+03  0.16268040215E+03  0.41800000000E+01 0.  1.
        -11    1    4    4    0    0  0.20782096554E+02 -0.23175655663E+02  0.13357546922E+02  0.33873745178E+02  0.00000000000E+00 0.  1.
         11    1    4    4    0    0 -0.42249158257E+02 -0.56040616811E+02  0.21035710158E+03  0.22175583936E+03  0.00000000000E+00 0. -1.
</event>
<event>
 8    1  0.6185113E-009  0.1454155E+03  0.7561462E-02  0.1206222E+00
          2   -1    0    0  501    0  0.00000000000E+00  0.00000000000E+00  0.10788382790E+03  0.10788382790E+03  0.00000000000E+00 0. -1.
         -2   -1    0    0    0  501 -0.00000000000E+00 -0.00000000000E+00 -0.22483599325E+03  0.22483599325E+03  0.00000000000E+00 0.  1.
         25    2    1    2    0    0  0.89781027063E+02 -0.65233542405E+02 -0.61934639431E+02  0.17833359737E+03  0.12510365507E+03 0.  0.
         23    2    1    2    0    0 -0.89781027063E+02  0.65233542405E+02 -0.55017525923E+02  0.15438622379E+03  0.92152753952E+02 0.  0.
          5    1    3    3  502    0  0.11852673286E+03 -0.69963239717E+02 -0.48605959350E+02  0.14602552173E+03  0.41800000000E+01 0.  1.
         -5    1    3    3    0  502 -0.28745705794E+02  0.47296973126E+01 -0.13328680081E+02  0.32308075631E+02  0.41800000000E+01 0.  1.
        -11    1    4    4    0    0 -0.19493937264E+02  0.47304857820E+02  0.15256628695E+02  0.53390335104E+02  0.00000000000E+00 0. -1.
         11    1    4    4    0    0 -0.70287089799E+02  0.17928684585E+02 -0.70274154618E+02  0.10099588868E+03  0.00000000000E+00 0.  1.
</event>
<event>
 8    1  0.6185113E-009  0.1715867E+03  0.7561462E-02  0.1176203E+00
         -1   -1    0    0    0  501 -0.00000000000E+00  0.00000000000E+00  0.34126062764E+03  0.34126062764E+03  0.00000000000E+00 0.  1.
          1   -1    0    0  501    0  0.00000000000E+00 -0.00000000000E+00 -0.11249600550E+03  0.11249600550E+03  0.00000000000E+00 0. -1.
         25    2    1    2    0    0  0.14828938159E+03 -0.27661297783E+02  0.49129593094E+02  0.20202903040E+03  0.12508846517E+03 0.  0.
         23    2    1    2    0    0 -0.14828938159E+03  0.27661297783E+02  0.17963502904E+03  0.25172760274E+03  0.91340868364E+02 0.  0.
          5    1    3    3  502    0  0.15470470394E+03 -0.44073512640E+02  0.69052415751E+02  0.17510490701E+03  0.41800000000E+01 0. -1.
         -5    1    3    3    0  502 -0.64153223562E+01  0.16412214858E+02 -0.19922822658E+02  0.26924123386E+02  0.41800000000E+01 0. -1.
        -11    1    4    4    0    0 -0.62310448917E+02  0.44457010553E+02  0.38667056058E+02  0.85756393673E+02  0.00000000000E+00 0.  1.
         11    1    4    4    0    0 -0.85978932672E+02 -0.16795712771E+02  0.14096797298E+03  0.16597120906E+03  0.00000000000E+00 0. -1.
</event>
<event>
 8    1  0.6185113E-009  0.1213447E+03  0.7561462E-02  0.1240895E+00
          1   -1    0    0  501    0  0.00000000000E+00  0.00000000000E+00  0.13024212490E+03  0.13024212490E+03  0.00000000000E+00 0.  1.
         -1   -1    0    0    0  501 -0.00000000000E+00 -0.00000000000E+00 -0.13084565960E+03  0.13084565960E+03  0.00000000000E+00 0. -1.
         25    2    1    2    0    0  0.40314715652E+02 -0.59154115623E+02 -0.16021766257E+02  0.14501748600E+03  0.12509551774E+03 0.  0.
         23    2    1    2    0    0 -0.40314715652E+02  0.59154115623E+02  0.15418231549E+02  0.11607029850E+03  0.90056130474E+02 0.  0.
          5    1    3    3  502    0  0.24135819807E+02  0.28995252957E+02 -0.36860852170E+02  0.52909898077E+02  0.41800000000E+01 0.  1.
         -5    1    3    3    0  502  0.16178895844E+02 -0.88149368579E+02  0.20839085913E+02  0.92107587925E+02  0.41800000000E+01 0.  1.
        -11    1    4    4    0    0  0.45102553351E+01 -0.21916430162E+02  0.40240946636E+01  0.22734679502E+02  0.00000000000E+00 0.  1.
         11    1    4    4    0    0 -0.44824970987E+02  0.81070545784E+02  0.11394136886E+02  0.93335618995E+02  0.00000000000E+00 0. -1.
</event>
<event>
 8    1  0.6185113E-009  0.9439847E+02  0.7561462E-02  0.1292537E+00
         -1   -1    0    0    0  501 -0.00000000000E+00  0.00000000000E+00  0.94839659197E+02  0.94839659197E+02  0.00000000000E+00 0.  1.
          1   -1    0    0  501    0  0.00000000000E+00 -0.00000000000E+00 -0.16632385724E+03  0.16632385724E+03  0.00000000000E+00 0. -1.
         25    2    1    2    0    0 -0.99071988958E+01  0.59656433161E+02 -0.41964435144E+02  0.14513997654E+03  0.12509019293E+03 0.  0.
         23    2    1    2    0    0  0.99071988958E+01 -0.59656433161E+02 -0.29519762894E+02  0.11602353989E+03  0.94514563953E+02 0.  0.
          5    1    3    3  502    0  0.80046799806E+01  0.62376489104E+02 -0.80568273635E+02  0.10229183942E+03  0.41800000000E+01 0. -1.
         -5    1    3    3    0  502 -0.17911878876E+02 -0.27200559439E+01  0.38603838491E+02  0.42848137129E+02  0.41800000000E+01 0. -1.
        -11    1    4    4    0    0 -0.39526150961E+02 -0.24256668720E+02 -0.29976697086E+02  0.55220512089E+02  0.00000000000E+00 0. -1.
         11    1    4    4    0    0  0.49433349857E+02 -0.35399764441E+02  0.45693419176E+00  0.60803027798E+02  0.00000000000E+00 0.  1.
</event>
<event>
 8    1  0.6185113E-009  0.9553317E+02  0.7561462E-02  0.1289980E+00
         -2   -1    0    0    0  501 -0.00000000000E+00  0.00000000000E+00  0.55467308349E+03  0.55467308349E+03  0.00000000000E+00 0.  1.
          2   -1    0    0  501    0  0.00000000000E+00 -0.00000000000E+00 -0.34286396689E+02  0.34286396689E+02  0.00000000000E+00 0. -1.
         25    2    1    2    0    0 -0.23379041713E+02 -0.48038864507E+02  0.42950611513E+03  0.45053125920E+03  0.12509436633E+03 0.  0.
         23    2    1    2    0    0  0.23379041713E+02  0.48038864507E+02  0.90880571675E+02  0.13842822098E+03  0.89715004109E+02 0.  0.
          5    1    3    3  502    0 -0.27431207265E+01 -0.85362351045E+02  0.34908839112E+03  0.35940844857E+03  0.41800000000E+01 0. -1.
         -5    1    3    3    0  502 -0.20635920986E+02  0.37323486538E+02  0.80417724002E+02  0.91122810624E+02  0.41800000000E+01 0. -1.
        -11    1    4    4    0    0 -0.82477550002E+01  0.65271691716E+01 -0.16195734803E+02  0.19311427336E+02  0.00000000000E+00 0. -1.
         11    1    4    4    0    0  0.31626796713E+02  0.41511695335E+02  0.10707630648E+03  0.11911679365E+03  0.00000000000E+00 0.  1.
</event>
<event>
 8    1  0.6185113E-009  0.3370024E+03  0.7561462E-02  0.1068080E+00
         -1   -1    0    0    0  501 -0.00000000000E+00  0.00000000000E+00  0.25984973131E+03  0.25984973131E+03  0.00000000000E+00 0.  1.
          1   -1    0    0  501    0  0.00000000000E+00 -0.00000000000E+00 -0.48167948684E+03  0.48167948684E+03  0.00000000000E+00 0. -1.
         25    2    1    2    0    0  0.11039184012E+03  0.30470423994E+03 -0.18109199528E+02  0.34785618348E+03  0.12507977086E+03 0.  0.
         23    2    1    2    0    0 -0.11039184012E+03 -0.30470423994E+03 -0.20372055600E+03  0.39367303467E+03  0.91898645718E+02 0.  0.
          5    1    3    3  502    0 -0.26280284806E+02  0.77412686617E+02 -0.10150231910E+02  0.82485617089E+02  0.41800000000E+01 0. -1.
         -5    1    3    3    0  502  0.13667212493E+03  0.22729155332E+03 -0.79589676182E+01  0.26537056640E+03  0.41800000000E+01 0. -1.
        -11    1    4    4    0    0 -0.47287125469E+02 -0.19189098457E+03 -0.75382442312E+02  0.21152005768E+03  0.00000000000E+00 0.  1.
         11    1    4    4    0    0 -0.63104714650E+02 -0.11281325537E+03 -0.12833811369E+03  0.18215297699E+03  0.00000000000E+00 0. -1.
</event>
<event>
 8    1  0.6185113E-009  0.7484069E+02  0.7561462E-02  0.1344365E+00
          1   -1    0    0  501    0  0.00000000000E+00  0.00000000000E+00  0.37712934628E+02  0.37712934628E+02  0.00000000000E+00 0. -1.
         -1   -1    0    0    0  501 -0.00000000000E+00 -0.00000000000E+00 -0.32171541712E+03  0.32171541712E+03  0.00000000000E+00 0.  1.
         25    2    1    2    0    0  0.73408295334E+01 -0.18148600173E+02 -0.17404383167E+03  0.21522851807E+03  0.12509516450E+03 0.  0.
         23    2    1    2    0    0 -0.73408295334E+01  0.18148600173E+02 -0.10995865082E+03  0.14419983368E+03  0.91210896695E+02 0.  0.
          5    1    3    3  502    0 -0.19591229675E+02  0.13529514909E+02  0.10249866035E+02  0.26256355565E+02  0.41800000000E+01 0. -1.
         -5    1    3    3    0  502  0.26932059208E+02 -0.31678115082E+02 -0.18429369770E+03  0.18897216250E+03  0.41800000000E+01 0. -1.
        -11    1    4    4    0    0 -0.41349985088E+02  0.25961506841E+02 -0.30895439537E+02  0.57778450035E+02  0.00000000000E+00 0. -1.
         11    1    4    4    0    0  0.34009155555E+02 -0.78129066686E+01 -0.79063211286E+02  0.86421383644E+02  0.00000000000E+00 0.  1.
</event>
<event>
 8    1  0.6185113E-009  0.9798058E+02  0.7561462E-02  0.1284601E+00
         -2   -1    0    0    0  501 -0.00000000000E+00  0.00000000000E+00  0.19781945894E+02  0.19781945894E+02  0.00000000000E+00 0. -1.
          2   -1    0    0  501    0  0.00000000000E+00 -0.00000000000E+00 -0.81523828895E+03  0.81523828895E+03  0.00000000000E+00 0.  1.
         25    2    1    2    0    0  0.38257921018E+02  0.37015277625E+02 -0.57623249679E+03  0.59205265131E+03  0.12509457332E+03 0.  0.
         23    2    1    2    0    0 -0.38257921018E+02 -0.37015277625E+02 -0.21922384627E+03  0.24296758353E+03  0.90223902468E+02 0.  0.
          5    1    3    3  502    0 -0.37896797098E+02  0.36715407785E+02 -0.33185772860E+03  0.33605239596E+03  0.41800000000E+01 0. -1.
         -5    1    3    3    0  502  0.76154718116E+02  0.29986983950E+00 -0.24437476818E+03  0.25600025535E+03  0.41800000000E+01 0. -1.
        -11    1    4    4    0    0 -0.79427105281E+01  0.87805237898E+01  0.44509571779E+01  0.12648923605E+02  0.00000000000E+00 0. -1.
         11    1    4    4    0    0 -0.30315210490E+02 -0.45795801414E+02 -0.22367480344E+03  0.23031865993E+03  0.00000000000E+00 0.  1.
</event>
<event>
 8    1  0.6185113E-009  0.1448750E+03  0.7561462E-02  0.1206916E+00
         -2   -1    0    0    0  501 -0.00000000000E+00  0.00000000000E+00  0.35891892703E+02  0.35891892703E+02  0.00000000000E+00 0.  1.
          2   -1    0    0  501    0  0.00000000000E+00 -0.00000000000E+00 -0.71227559135E+03  0.71227559135E+03  0.00000000000E+00 0. -1.
         25    2    1    2    0    0  0.33658739866E+02 -0.10921033395E+03 -0.30494931291E+03  0.34885804929E+03  0.12509215522E+03 0.  0.
         23    2    1    2    0    0 -0.33658739866E+02  0.10921033395E+03 -0.37143438573E+03  0.39930943476E+03  0.91786240660E+02 0.  0.
          5    1    3    3  502    0  0.64744453931E+02 -0.51730801550E+02 -0.24988654050E+03  0.26330339092E+03  0.41800000000E+01 0.  1.
         -5    1    3    3    0  502 -0.31085714065E+02 -0.57479532400E+02 -0.55062772409E+02  0.85554658373E+02  0.41800000000E+01 0.  1.
        -11    1    4    4    0    0  0.68474343794E+01  0.99371650730E+02 -0.20765817380E+03  0.23031180924E+03  0.00000000000E+00 0. -1.
         11    1    4    4    0    0 -0.40506174245E+02  0.98386832203E+01 -0.16377621192E+03  0.16899762552E+03  0.00000000000E+00 0.  1.
</event>
<event>
 8    1  0.6185113E-009  0.1321175E+03  0.7561462E-02  0.1224347E+00
          1   -1    0    0  501    0  0.00000000000E+00  0.00000000000E+00  0.12927577575E+02  0.12927577575E+02  0.00000000000E+00 0. -1.
         -1   -1    0    0    0  501 -0.00000000000E+00 -0.00000000000E+00 -0.15889863525E+04  0.15889863525E+04  0.00000000000E+00 0.  1.
         25    2    1    2    0    0  0.65960056603E+02  0.47182120659E+02 -0.11329256811E+04  0.11426916111E+04  0.12508652053E+03 0.  0.
         23    2    1    2    0    0 -0.65960056603E+02 -0.47182120659E+02 -0.44313309380E+03  0.45922231894E+03  0.89114071944E+02 0.  0.
          5    1    3    3  502    0  0.31951024001E+02 -0.39935744560E+02 -0.28188378888E+03  0.28651644710E+03  0.41800000000E+01 0.  1.
         -5    1    3    3    0  502  0.34009032602E+02  0.87117865219E+02 -0.85104189220E+03  0.85617516398E+03  0.41800000000E+01 0.  1.
        -11    1    4    4    0    0 -0.74673286029E+02 -0.34912872050E+01 -0.30766355949E+03  0.31661515215E+03  0.00000000000E+00 0.  1.
         11    1    4    4    0    0  0.87132294256E+01 -0.43690833454E+02 -0.13546953431E+03  0.14260716680E+03  0.00000000000E+00 0. -1.
</event>
<event>
 8    1  0.6185113E-009  0.1268728E+03  0.7561462E-02  0.1232171E+00
          1   -1    0    0  501    0  0.00000000000E+00  0.00000000000E+00  0.49244477388E+03  0.49244477388E+03  0.00000000000E+00 0. -1.
         -1   -1    0    0    0  501 -0.00000000000E+00 -0.00000000000E+00 -0.82141665165E+02  0.82141665165E+02  0.00000000000E+00 0.  1.
         25    2    1    2    0    0 -0.70882611287E+02  0.19570429111E+02 -0.29157730253E+01  0.14513217556E+03  0.12508996911E+03 0.  0.
         23    2    1    2    0    0  0.70882611287E+02 -0.19570429111E+02  0.41321888174E+03  0.42945426349E+03  0.90960287616E+02 0.  0.
          5    1    3    3  502    0 -0.29521416391E+02  0.71903677713E+02  0.39785156919E+01  0.77941990490E+02  0.41800000000E+01 0.  1.
         -5    1    3    3    0  502 -0.41361194896E+02 -0.52333248602E+02 -0.68942887172E+01  0.67190185067E+02  0.41800000000E+01 0.  1.
        -11    1    4    4    0    0  0.71973677695E+02  0.15795795492E+02  0.34298415853E+03  0.35081027699E+03  0.00000000000E+00 0. -1.
         11    1    4    4    0    0 -0.10910664076E+01 -0.35366224604E+02  0.70234723209E+02  0.78643986501E+02  0.00000000000E+00 0.  1.
</event>
<event>
 8    1  0.6185113E-009  0.1217293E+03  0.7561462E-02  0.1240271E+00
          3   -1    0    0  501    0  0.00000000000E+00  0.00000000000E+00  0.86366345146E+02  0.86366345146E+02  0.00000000000E+00 0. -1.
         -3   -1    0    0    0  501 -0.00000000000E+00 -0.00000000000E+00 -0.31197552134E+03  0.31197552134E+03  0.00000000000E+00 0.  1.
         25    2    1    2    0    0  0.58855149653E+02 -0.54968245534E+02 -0.56935062642E+01  0.14887199445E+03  0.12508004661E+03 0.  0.
         23    2    1    2    0    0 -0.58855149653E+02  0.54968245534E+02 -0.21991566993E+03  0.24946987203E+03  0.85946951751E+02 0.  0.
          5    1    3    3  502    0 -0.31315262642E+02  0.14517427653E+02 -0.34006128081E+01  0.34934767030E+02  0.41800000000E+01 0.  1.
         -5    1    3    3    0  502  0.90170412295E+02 -0.69485673187E+02 -0.22928934561E+01  0.11393722742E+03  0.41800000000E+01 0.  1.
        -11    1    4    4    0    0 -0.57883334773E+02  0.22202561044E+02 -0.20364753947E+03  0.21287497385E+03  0.00000000000E+00 0.  1.
         11    1    4    4    0    0 -0.97181488039E+00  0.32765684490E+02 -0.16268130460E+02  0.36594898182E+02  0.00000000000E+00 0. -1.
</event>
<event>
 8    1  0.6185113E-009  0.8727272E+02  0.7561462E-02  0.1309594E+00
         -1   -1    0    0    0  501 -0.00000000000E+00  0.00000000000E+00  0.26310074625E+03  0.26310074625E+03  0.00000000000E+00 0.  1.
          1   -1    0    0  501    0  0.00000000000E+00 -0.00000000000E+00 -0.49142738496E+02  0.49142738496E+02  0.00000000000E+00 0. -1.
         25    2    1    2    0    0  0.29772923063E+01 -0.14894963160E+02  0.82871491824E+02  0.15081990716E+03  0.12509290964E+03 0.  0.
         23    2    1    2    0    0 -0.29772923063E+01  0.14894963160E+02  0.13108651593E+03  0.16142357758E+03  0.92968664313E+02 0.  0.
          5    1    3    3  502    0 -0.56632606359E+02  0.11374870590E+02  0.54910365735E+02  0.79807646558E+02  0.41800000000E+01 0. -1.
         -5    1    3    3    0  502  0.59609898665E+02 -0.26269833750E+02  0.27961126089E+02  0.71012260605E+02  0.41800000000E+01 0. -1.
        -11    1    4    4    0    0 -0.25576796145E+02  0.12959953255E+02  0.28940791794E+00  0.28674320329E+02  0.00000000000E+00 0. -1.
         11    1    4    4    0    0  0.22599503839E+02  0.19350099055E+01  0.13079710801E+03  0.13274925726E+03  0.00000000000E+00 0.  1.
</event>
<event>
 8    1  0.6185113E-009  0.5242969E+02  0.7561462E-02  0.1432660E+00
         -3   -1    0    0    0  501 -0.00000000000E+00  0.00000000000E+00  0.26177396400E+03  0.26177396400E+03  0.00000000000E+00 0.  1.
          3   -1    0    0  501    0  0.00000000000E+00 -0.00000000000E+00 -0.47352796543E+02  0.47352796543E+02  0.00000000000E+00 0. -1.
         25    2    1    2    0    0  0.12969315665E+02 -0.42745411205E+01  0.16540496121E+03  0.20783120559E+03  0.12509410048E+03 0.  0.
         23    2    1    2    0    0 -0.12969315665E+02  0.42745411205E+01  0.49016206252E+02  0.10129555495E+03  0.87588390368E+02 0.  0.
          5    1    3    3  502    0  0.58629007413E+01  0.23285183402E+02  0.17562122638E+03  0.17730443008E+03  0.41800000000E+01 0. -1.
         -5    1    3    3    0  502  0.71064149233E+01 -0.27559724523E+02 -0.10216265175E+02  0.30526775509E+02  0.41800000000E+01 0. -1.
        -11    1    4    4    0    0 -0.31163631196E+02  0.98620150246E+01 -0.13932558567E+02  0.35532343546E+02  0.00000000000E+00 0. -1.
         11    1    4    4    0    0  0.18194315531E+02 -0.55874739042E+01  0.62948764819E+02  0.65763211407E+02  0.00000000000E+00 0.  1.
</event>
<event>
 8    1  0.6185113E-009  0.9616258E+02  0.7561462E-02  0.1288579E+00
          1   -1    0    0  501    0  0.00000000000E+00  0.00000000000E+00  0.13464747648E+03  0.13464747648E+03  0.00000000000E+00 0. -1.
         -1   -1    0    0    0  501 -0.00000000000E+00 -0.00000000000E+00 -0.10728741371E+03  0.10728741371E+03  0.00000000000E+00 0.  1.
         25    2    1    2    0    0  0.32127007821E+02 -0.18343261180E+02 -0.18282700899E+02  0.13171963009E+03  0.12508870427E+03 0.  0.
         23    2    1    2    0    0 -0.32127007821E+02  0.18343261180E+02  0.45642763667E+02  0.11021526010E+03  0.93249781882E+02 0.  0.
          5    1    3    3  502    0  0.54504771285E+02 -0.57783695005E+02  0.66162194481E+01  0.79818370449E+02  0.41800000000E+01 0.  1.
         -5    1    3    3    0  502 -0.22377763464E+02  0.39440433825E+02 -0.24898920348E+02  0.51901259642E+02  0.41800000000E+01 0.  1.
        -11    1    4    4    0    0 -0.41129141630E+01  0.34606488201E+02  0.64079624684E+02  0.72943288849E+02  0.00000000000E+00 0. -1.
         11    1    4    4    0    0 -0.28014093658E+02 -0.16263227021E+02 -0.18436861017E+02  0.37271971249E+02  0.00000000000E+00 0.  1.
</event>
<event>
 8    1  0.6185113E-009  0.7804656E+02  0.7561462E-02  0.1334688E+00
         -2   -1    0    0    0  501 -0.00000000000E+00  0.00000000000E+00  0.22056673143E+03  0.22056673143E+03  0.00000000000E+00 0.  1.
          2   -1    0    0  501    0  0.00000000000E+00 -0.00000000000E+00 -0.61620974663E+02  0.61620974663E+02  0.00000000000E+00 0. -1.
         25    2    1    2    0    0  0.24947418974E+02  0.37722822814E+02  0.10006251900E+03  0.16645018082E+03  0.12509104650E+03 0.  0.
         23    2    1    2    0    0 -0.24947418974E+02 -0.37722822814E+02  0.58883237766E+02  0.11573752526E+03  0.88783748457E+02 0.  0.
          5    1    3    3  502    0 -0.28321386424E+02 -0.17878416093E+02 -0.70363340966E+01  0.34477834741E+02  0.41800000000E+01 0.  1.
         -5    1    3    3    0  502  0.53268805397E+02  0.55601238906E+02  0.10709885309E+03  0.13197234608E+03  0.41800000000E+01 0.  1.
        -11    1    4    4    0    0 -0.11989296823E+02 -0.18427214189E+02 -0.22286914515E+02  0.31305143661E+02  0.00000000000E+00 0. -1.
         11    1    4    4    0    0 -0.12958122151E+02 -0.19295608625E+02  0.81170152281E+02  0.84432381603E+02  0.00000000000E+00 0.  1.
</event>
<event>
 8    1  0.6185113E-009  0.1342124E+03  0.7561462E-02  0.1221336E+00
         -1   -1    0    0    0  501 -0.00000000000E+00  0.00000000000E+00  0.22660068542E+02  0.22660068542E+02  0.00000000000E+00 0.  1.
          1   -1    0    0  501    0  0.00000000000E+00 -0.00000000000E+00 -0.14169963336E+04  0.14169963336E+04  0.00000000000E+00 0. -1.
         25    2    1    2    0    0 -0.75321858074E+02  0.38874893318E+02 -0.11981520366E+04  0.12076430863E+04  0.12509548947E+03 0.  0.
         23    2    1    2    0    0  0.75321858074E+02 -0.38874893318E+02 -0.19618422842E+03  0.23201331578E+03  0.90317703622E+02 0.  0.
          5    1    3    3  502    0 -0.10843523661E+03  0.18565345170E+02 -0.96227226978E+03  0.96854956825E+03  0.41800000000E+01 0. -1.
         -5    1    3    3    0  502  0.33113378537E+02  0.20309548148E+02 -0.23587976684E+03  0.23909351808E+03  0.41800000000E+01 0. -1.
        -11    1    4    4    0    0  0.14825152483E+02  0.26391694663E+02 -0.25737669267E+02  0.39733289728E+02  0.00000000000E+00 0.  1.
         11    1    4    4    0    0  0.60496705590E+02 -0.65266587981E+02 -0.17044655915E+03  0.19228002606E+03  0.00000000000E+00 0. -1.
</event>
<event>
 8    1  0.6185113E-009  0.1024951E+03  0.7561462E-02  0.1275135E+00
         -1   -1    0    0    0  501 -0.00000000000E+00  0.00000000000E+00  0.17102631997E+03  0.17102631997E+03  0.00000000000E+00 0.  1.
          1   -1    0    0  501    0  0.00000000000E+00 -0.00000000000E+00 -0.13894194646E+03  0.13894194646E+03  0.00000000000E+00 0. -1.
         25    2    1    2    0    0 -0.44596231124E+02  0.82136831727E+02 -0.40444811724E+02  0.16129960879E+03  0.12508596261E+03 0.  0.
         23    2    1    2    0    0  0.44596231124E+02 -0.82136831727E+02  0.72529185242E+02  0.14866865765E+03  0.90036681957E+02 0.  0.
          5    1    3    3  502    0 -0.38149560119E+02  0.68515561792E+02 -0.84017674826E+02  0.11500527478E+03  0.41800000000E+01 0. -1.
         -5    1    3    3    0  502 -0.64466710050E+01  0.13621269935E+02  0.43572863102E+02  0.46294334001E+02  0.41800000000E+01 0. -1.
        -11    1    4    4    0    0  0.47214635056E+02 -0.24628987935E+02  0.73896339665E+02  0.91085003299E+02  0.00000000000E+00 0.  1.
         11    1    4    4    0    0 -0.26184039317E+01 -0.57507843792E+02 -0.13671544223E+01  0.57583654347E+02  0.00000000000E+00 0. -1.
</event>
<event>
 8    1  0.6185113E-009  0.1428477E+03  0.7561462E-02  0.1209548E+00
          3   -1    0    0  501    0  0.00000000000E+00  0.00000000000E+00  0.91875144868E+02  0.91875144868E+02  0.00000000000E+00 0.  1.
         -3   -1    0    0    0  501 -0.00000000000E+00 -0.00000000000E+00 -0.28350908108E+03  0.28350908108E+03  0.00000000000E+00 0. -1.
         25    2    1    2    0    0 -0.70432228808E+02  0.95513226294E+02 -0.11248580862E+03  0.20587309906E+03  0.12508877057E+03 0.  0.
         23    2    1    2    0    0  0.70432228808E+02 -0.95513226294E+02 -0.79148127596E+02  0.16951112689E+03  0.91575765279E+02 0.  0.
          5    1    3    3  502    0  0.21205244868E+02 -0.26625113604E+00  0.11358651213E+02  0.24417711952E+02  0.41800000000E+01 0. -1.
         -5    1    3    3    0  502 -0.91637473676E+02  0.95779477430E+02 -0.12384445983E+03  0.18145538711E+03  0.41800000000E+01 0. -1.
        -11    1    4    4    0    0  0.15674692306E+01 -0.47459055686E+02 -0.70627782316E+02  0.85106419037E+02  0.00000000000E+00 0. -1.
         11    1    4    4    0    0  0.68864759577E+02 -0.48054170608E+02 -0.85203452796E+01  0.84404707855E+02  0.00000000000E+00 0.  1.
</event>
<event>
 8    1  0.6185113E-009  0.1121857E+03  0.7561462E-02  0.1256575E+00
         -1   -1    0    0    0  501 -0.00000000000E+00  0.00000000000E+00  0.40170195485E+03  0.40170195485E+03  0.00000000000E+00 0.  1.
          1   -1    0    0  501    0  0.00000000000E+00 -0.00000000000E+00 -0.68095451876E+02  0.68095451876E+02  0.00000000000E+00 0. -1.
         25    2    1    2    0    0  0.36918984945E+02  0.57035671416E+01  0.34695367334E+03  0.37070165845E+03  0.12508927214E+03 0.  0.
         23    2    1    2    0    0 -0.36918984945E+02 -0.57035671416E+01 -0.13347170372E+02  0.99095748273E+02  0.90809020704E+02 0.  0.
          5    1    3    3  502    0  0.39922771848E+02 -0.53494949556E+02  0.22987579165E+03  0.23940737108E+03  0.41800000000E+01 0. -1.
         -5    1    3    3    0  502 -0.30037869028E+01  0.59198516697E+02  0.11707788169E+03  0.13129428737E+03  0.41800000000E+01 0. -1.
        -11    1    4    4    0    0  0.11611240380E+02  0.33644260408E+02 -0.24566875888E+01  0.35676217225E+02  0.00000000000E+00 0. -1.
         11    1    4    4    0    0 -0.48530225325E+02 -0.39347827550E+02 -0.10890482783E+02  0.63419531048E+02  0.00000000000E+00 0.  1.
</event>
<event>
 8    1  0.6185113E-009  0.1120917E+03  0.7561462E-02  0.1256745E+00
         -2   -1    0    0    0  501 -0.00000000000E+00  0.00000000000E+00  0.37915128253E+02  0.37915128253E+02  0.00000000000E+00 0. -1.
          2   -1    0    0  501    0  0.00000000000E+00 -0.00000000000E+00 -0.39528444374E+03  0.39528444374E+03  0.00000000000E+00 0.  1.
         25    2    1    2    0    0  0.14975300742E+02  0.55275876399E+02 -0.19446125550E+03  0.23820595460E+03  0.12508882753E+03 0.  0.
         23    2    1    2    0    0 -0.14975300742E+02 -0.55275876399E+02 -0.16290805998E+03  0.19499361739E+03  0.90574790482E+02 0.  0.
          5    1    3    3  502    0  0.79005709090E+01 -0.32456067237E+02 -0.11405045561E+03  0.11891507114E+03  0.41800000000E+01 0. -1.
         -5    1    3    3    0  502  0.70747298335E+01  0.87731943636E+02 -0.80410799895E+02  0.11929088346E+03  0.41800000000E+01 0. -1.
        -11    1    4    4    0    0 -0.20785187230E+02  0.18844117729E+02 -0.73739715322E+02  0.78896580388E+02  0.00000000000E+00 0.  1.
         11    1    4    4    0    0  0.58098864876E+01 -0.74119994129E+02 -0.89168344659E+02  0.11609703700E+03  0.00000000000E+00 0. -1.
</event>
<event>
 8    1  0.6185113E-009  0.1885378E+03  0.7561462E-02  0.1159787E+00
          2   -1    0    0  501    0  0.00000000000E+00  0.00000000000E+00  0.89223735608E+02  0.89223735608E+02  0.00000000000E+00 0. -1.
         -2   -1    0    0    0  501 -0.00000000000E+00 -0.00000000000E+00 -0.55132906569E+03  0.55132906569E+03  0.00000000000E+00 0.  1.
         25    2    1    2    0    0 -0.95698858528E+02  0.14005531034E+03 -0.37667166585E+03  0.43163491947E+03  0.12511354193E+03 0.  0.
         23    2    1    2    0    0  0.95698858528E+02 -0.14005531034E+03 -0.85433664228E+02  0.20891788183E+03  0.87028781939E+02 0.  0.
          5    1    3    3  502    0 -0.83672018808E+02  0.52720696446E+02 -0.29582152988E+03  0.31194282890E+03  0.41800000000E+01 0.  1.
         -5    1    3    3    0  502 -0.12026839720E+02  0.87334613892E+02 -0.80850135975E+02  0.11969209057E+03  0.41800000000E+01 0.  1.
        -11    1    4    4    0    0  0.14284280727E+02  0.11137806688E+02 -0.14172590784E+02  0.22998994396E+02  0.00000000000E+00 0.  1.
         11    1    4    4    0    0  0.81414577801E+02 -0.15119311703E+03 -0.71261073444E+02  0.18591888743E+03  0.00000000000E+00 0. -1.
</event>
<event>
 8    1  0.6185113E-009  0.7379047E+02  0.7561462E-02  0.1347658E+00
         -2   -1    0    0    0  501 -0.00000000000E+00  0.00000000000E+00  0.27099252399E+02  0.27099252399E+02  0.00000000000E+00 0.  1.
          2   -1    0    0  501    0  0.00000000000E+00 -0.00000000000E+00 -0.51045164569E+03  0.51045164569E+03  0.00000000000E+00 0. -1.
         25    2    1    2    0    0  0.17118300250E+02  0.38182499044E+02 -0.30743284328E+03  0.33453326114E+03  0.12508641113E+03 0.  0.
         23    2    1    2    0    0 -0.17118300250E+02 -0.38182499044E+02 -0.17591955001E+03  0.20301763694E+03  0.92290483788E+02 0.  0.
          5    1    3    3  502    0 -0.23854942317E+01  0.31544578063E+02 -0.61239945203E+01  0.32491948184E+02  0.41800000000E+01 0.  1.
         -5    1    3    3    0  502  0.19503794482E+02  0.66379209803E+01 -0.30130884876E+03  0.30204131296E+03  0.41800000000E+01 0.  1.
        -11    1    4    4    0    0 -0.27669790313E+02  0.20872155273E+02 -0.32316913103E+02  0.47388258401E+02  0.00000000000E+00 0.  1.
         11    1    4    4    0    0  0.10551490063E+02 -0.59054654317E+02 -0.14360263691E+03  0.15562937854E+03  0.00000000000E+00 0. -1.
</event>
<event>
 8    1  0.6185113E-009  0.1233428E+03  0.7561462E-02  0.1237682E+00
          2   -1    0    0  501    0  0.00000000000E+00  0.00000000000E+00  0.12253121527E+04  0.12253121527E+04  0.00000000000E+00 0.  1.
         -2   -1    0    0    0  501 -0.00000000000E+00 -0.00000000000E+00 -0.13473072199E+02  0.13473072199E+02  0.00000000000E+00 0. -1.
         25    2    1    2    0    0  0.10005817716E+02 -0.62648287237E+02  0.77074930147E+03  0.78340736580E+03  0.12509073027E+03 0.  0.
         23    2    1    2    0    0 -0.10005817716E+02  0.62648287237E+02  0.44108977900E+03  0.45537785906E+03  0.93722340474E+02 0.  0.
          5    1    3    3  502    0 -0.14589881484E+02  0.32173568533E+02  0.11523981586E+03  0.12060551693E+03  0.41800000000E+01 0. -1.
         -5    1    3    3    0  502  0.24595699200E+02 -0.94821855770E+02  0.65550948561E+03  0.66280184888E+03  0.41800000000E+01 0. -1.
        -11    1    4    4    0    0  0.38897543045E+02  0.48465880017E+02  0.25251901881E+03  0.26005348535E+03  0.00000000000E+00 0. -1.
         11    1    4    4    0    0 -0.48903360761E+02  0.14182407220E+02  0.18857076019E+03  0.19532437372E+03  0.00000000000E+00 0.  1.
</event>
<event>
 8    1  0.6185113E-009  0.8715250E+02  0.7561462E-02  0.1309898E+00
          2   -1    0    0  501    0  0.00000000000E+00  0.00000000000E+00  0.54122031414E+02  0.54122031414E+02  0.00000000000E+00 0. -1.
         -2   -1    0    0    0  501 -0.00000000000E+00 -0.00000000000E+00 -0.24185673867E+03  0.24185673867E+03  0.00000000000E+00 0.  1.
         25    2    1    2    0    0  0.19737744126E+02  0.22934870207E+02 -0.79043369342E+02  0.15103611053E+03  0.12509382732E+03 0.  0.
         23    2    1    2    0    0 -0.19737744126E+02 -0.22934870207E+02 -0.10869133791E+03  0.14494265955E+03  0.90988904846E+02 0.  0.
          5    1    3    3  502    0 -0.18569113892E+02  0.36246273171E+02  0.18791609425E+02  0.45046656860E+02  0.41800000000E+01 0.  1.
         -5    1    3    3    0  502  0.38306858017E+02 -0.13311402964E+02 -0.97834978766E+02  0.10598945367E+03  0.41800000000E+01 0.  1.
        -11    1    4    4    0    0  0.20777823837E+02  0.23235071072E+02 -0.19922219297E+02  0.36992990050E+02  0.00000000000E+00 0.  1.
         11    1    4    4    0    0 -0.40515567963E+02 -0.46169941279E+02 -0.88769118615E+02  0.10794966950E+03  0.00000000000E+00 0. -1.
</event>
<event>
 8    1  0.6185113E-009  0.9320952E+02  0.7561462E-02  0.1295260E+00
          1   -1    0    0  501    0  0.00000000000E+00  0.00000000000E+00  0.33280395329E+03  0.33280395329E+03  0.00000000000E+00 0. -1.
         -1   -1    0    0    0  501 -0.00000000000E+00 -0.00000000000E+00 -0.46350474229E+02  0.46350474229E+02  0.00000000000E+00 0.  1.
         25    2    1    2    0    0  0.49618909382E+02  0.26550541865E+02  0.12101007496E+03  0.18291442253E+03  0.12508908940E+03 0.  0.
         23    2    1    2    0    0 -0.49618909382E+02 -0.26550541865E+02  0.16544340411E+03  0.19624000499E+03  0.89284109195E+02 0.  0.
          5    1    3    3  502    0  0.64521895895E+02  0.12015620519E+02  0.60857683389E+01  0.66045129741E+02  0.41800000000E+01 0.  1.
         -5    1    3    3    0  502 -0.14902986512E+02  0.14534921346E+02  0.11492430662E+03  0.11686929279E+03  0.41800000000E+01 0.  1.
        -11    1    4    4    0    0  0.16260224569E+02 -0.29273858717E+02  0.27436503696E+02  0.43291054992E+02  0.00000000000E+00 0.  1.
         11    1    4    4    0    0 -0.65879133952E+02  0.27233168515E+01  0.13800690041E+03  0.15294895000E+03  0.00000000000E+00 0. -1.
</event>
<event>
 8    1  0.6185113E-009  0.2116520E+03  0.7561462E-02  0.1140264E+00
         -1   -1    0    0    0  501 -0.00000000000E+00  0.00000000000E+00  0.90578464440E+02  0.90578464440E+02  0.00000000000E+00 0.  1.
          1   -1    0    0  501    0  0.00000000000E+00 -0.00000000000E+00 -0.63018919637E+03  0.63018919637E+03  0.00000000000E+00 0. -1.
         25    2    1    2    0    0  0.17950250626E+03 -0.10911665842E+03 -0.32900520701E+03  0.40990225484E+03  0.12509131618E+03 0.  0.
         23    2    1    2    0    0 -0.17950250626E+03  0.10911665842E+03 -0.21060552492E+03  0.31086540597E+03  0.90305141648E+02 0.  0.
          5    1    3    3  502    0  0.13629952712E+03 -0.99022547952E+02 -0.32380808650E+03  0.36503722465E+03  0.41800000000E+01 0. -1.
         -5    1    3    3    0  502  0.43202979139E+02 -0.10094110466E+02 -0.51971205135E+01  0.44865030193E+02  0.41800000000E+01 0. -1.
        -11    1    4    4    0    0 -0.98567637675E+02  0.64542778598E+02 -0.55297521713E+02  0.13015054888E+03  0.00000000000E+00 0.  1.
         11    1    4    4    0    0 -0.80934868580E+02  0.44573879819E+02 -0.15530800321E+03  0.18071485709E+03  0.00000000000E+00 0. -1.
</event>
<event>
 8    1  0.6185113E-009  0.9065098E+02  0.7561462E-02  0.1301283E+00
         -2   -1    0    0    0  501 -0.00000000000E+00  0.00000000000E+00  0.80694434282E+02  0.80694434282E+02  0.00000000000E+00 0. -1.
          2   -1    0    0  501    0  0.00000000000E+00 -0.00000000000E+00 -0.18586395273E+03  0.18586395273E+03  0.00000000000E+00 0.  1.
         25    2    1    2    0    0 -0.55184492102E+02  0.51822941207E+01 -0.46443486224E+02  0.14448807609E+03  0.12509045679E+03 0.  0.
         23    2    1    2    0    0  0.55184492102E+02 -0.51822941207E+01 -0.58726032223E+02  0.12207031092E+03  0.91543594022E+02 0.  0.
          5    1    3    3  502    0 -0.46259870346E+02 -0.30306243242E+02 -0.78190429630E+02  0.95862712613E+02  0.41800000000E+01 0.  1.
         -5    1    3    3    0  502 -0.89246217562E+01  0.35488537362E+02  0.31746943406E+02  0.48625363477E+02  0.41800000000E+01 0.  1.
        -11    1    4    4    0    0  0.66358896109E+02  0.13045626685E+02 -0.93606730448E+01  0.68273813928E+02  0.00000000000E+00 0. -1.
         11    1    4    4    0    0 -0.11174404007E+02 -0.18227920806E+02 -0.49365359178E+02  0.53796496992E+02  0.00000000000E+00 0.  1.
</event>
<event>
 8    1  0.6185113E-009  0.1914989E+03  0.7561462E-02  0.1157116E+00
         -2   -1    0    0    0  501 -0.00000000000E+00  0.00000000000E+00  0.35954056225E+02  0.35954056225E+02  0.00000000000E+00 0.  1.
          2   -1    0    0  501    0  0.00000000000E+00 -0.00000000000E+00 -0.14284805133E+04  0.14284805133E+04  0.00000000000E+00 0. -1.
         25    2    1    2    0    0  0.94740745872E+02  0.13116321715E+03 -0.10945454494E+04  0.11134885399E+04  0.12508952458E+03 0.  0.
         23    2    1    2    0    0 -0.94740745872E+02 -0.13116321715E+03 -0.29798100772E+03  0.35094602970E+03  0.90503239384E+02 0.  0.
          5    1    3    3  502    0  0.73241566694E+02  0.15430636270E+03 -0.96994296353E+03  0.98487644178E+03  0.41800000000E+01 0.  1.
         -5    1    3    3    0  502  0.21499179179E+02 -0.23143145554E+02 -0.12460248586E+03  0.12861209808E+03  0.41800000000E+01 0.  1.
        -11    1    4    4    0    0 -0.95816108024E+02 -0.68929826090E+02 -0.23162980197E+03  0.25997002258E+03  0.00000000000E+00 0.  1.
         11    1    4    4    0    0  0.10753621514E+01 -0.62233391055E+02 -0.66351205747E+02  0.90976007112E+02  0.00000000000E+00 0. -1.
</event>
<event>
 8    1  0.6185113E-009  0.9001643E+02  0.7561462E-02  0.1302812E+00
          1   -1    0    0  501    0  0.00000000000E+00  0.00000000000E+00  0.16529137809E+03  0.16529137809E+03  0.00000000000E+00 0. -1.
         -1   -1    0    0    0  501 -0.00000000000E+00 -0.00000000000E+00 -0.12650623674E+03  0.12650623674E+03  0.00000000000E+00 0.  1.
         25    2    1    2    0    0  0.17288946353E+02  0.32311354563E+02 -0.67395042174E+02  0.14673836020E+03  0.12508846207E+03 0.  0.
         23    2    1    2    0    0 -0.17288946353E+02 -0.32311354563E+02  0.10618018352E+03  0.14505925464E+03  0.91787933215E+02 0.  0.
          5    1    3    3  502    0  0.13153487376E+02  0.55625732931E+02  0.16358894847E+02  0.59601361016E+02  0.41800000000E+01 0. -1.
         -5    1    3    3    0  502  0.41354589772E+01 -0.23314378368E+02 -0.83753937021E+02  0.87136999181E+02  0.41800000000E+01 0. -1.
        -11    1    4    4    0    0  0.33716697319E+02 -0.33673705207E+02  0.47198767114E+02  0.67070542845E+02  0.00000000000E+00 0.  1.
         11    1    4    4    0    0 -0.51005643672E+02  0.13623506431E+01  0.58981416411E+02  0.77988711796E+02  0.00000000000E+00 0. -1.
</event>
<event>
 8    1  0.6185113E-009  0.8093983E+02  0.7561462E-02  0.1326405E+00
          2   -1    0    0  501    0  0.00000000000E+00  0.00000000000E+00  0.31458708486E+03  0.31458708486E+03  0.00000000000E+00 0. -1.
         -2   -1    0    0    0  501 -0.00000000000E+00 -0.00000000000E+00 -0.40129024396E+02  0.40129024396E+02  0.00000000000E+00 0.  1.
         25    2    1    2    0    0 -0.89342217234E+00 -0.25611511807E+02  0.13171512578E+03  0.18345004632E+03  0.12509315487E+03 0.  0.
         23    2    1    2    0    0  0.89342217234E+00  0.25611511807E+02  0.14274293468E+03  0.17126606293E+03  0.91103079914E+02 0.  0.
          5    1    3    3  502    0  0.26274416650E+02 -0.53293574783E+02  0.13158474057E+03  0.14443879823E+03  0.41800000000E+01 0. -1.
         -5    1    3    3    0  502 -0.27167838823E+02  0.27682062976E+02  0.13038520178E+00  0.39011248086E+02  0.41800000000E+01 0. -1.
        -11    1    4    4    0    0  0.15063349037E+02 -0.14410895175E+02 -0.15039229959E+01  0.20900721718E+02  0.00000000000E+00 0.  1.
         11    1    4    4    0    0 -0.14169926864E+02  0.40022406982E+02  0.14424685768E+03  0.15036534121E+03  0.00000000000E+00 0. -1.
</event>
<event>
 8    1  0.6185113E-009  0.8427558E+02  0.7561462E-02  0.1317338E+00
          2   -1    0    0  501    0  0.00000000000E+00  0.00000000000E+00  0.11981667657E+04  0.11981667657E+04  0.00000000000E+00 0. -1.
         -2   -1    0    0    0  501 -0.00000000000E+00 -0.00000000000E+00 -0.19147984662E+02  0.19147984662E+02  0.00000000000E+00 0.  1.
         25    2    1    2    0    0 -0.44802352017E+02 -0.17930750268E+02  0.10075675153E+04  0.10164490358E+04  0.12509029536E+03 0.  0.
         23    2    1    2    0    0  0.44802352017E+02  0.17930750268E+02  0.17145126578E+03  0.20086571457E+03  0.92858689432E+02 0.  0.
          5    1    3    3  502    0 -0.11112764669E+02  0.13353961243E+02  0.16546188126E+02  0.24353040077E+02  0.41800000000E+01 0.  1.
         -5    1    3    3    0  502 -0.33689587348E+02 -0.31284711512E+02  0.99102132715E+03  0.99209599573E+03  0.41800000000E+01 0.  1.
        -11    1    4    4    0    0 -0.28742234483E+02 -0.31281780850E+00  0.42745724628E+02  0.51511269369E+02  0.00000000000E+00 0.  1.
         11    1    4    4    0    0  0.73544586500E+02  0.18243568077E+02  0.12870554115E+03  0.14935444520E+03  0.00000000000E+00 0. -1.
</event>
<event>
 8    1  0.6185113E-009  0.2828025E+03  0.7561462E-02  0.1094168E+00
          2   -1    0    0  501    0  0.00000000000E+00  0.00000000000E+00  0.42053058341E+03  0.42053058341E+03  0.00000000000E+00 0. -1.
         -2   -1    0    0    0  501 -0.00000000000E+00 -0.00000000000E+00 -0.20911359781E+03  0.20911359781E+03  0.00000000000E+00 0.  1.
         25    2    1    2    0    0  0.26879717355E+03  0.96982953200E+00  0.42753156701E+02  0.29954613447E+03  0.12508874126E+03 0.  0.
         23    2    1    2    0    0 -0.26879717355E+03 -0.96982953200E+00  0.16866382890E+03  0.33009804674E+03  0.90908592586E+02 0.  0.
          5    1    3    3  502    0  0.27379662317E+03 -0.76681208430E+01  0.20378968025E+02  0.27469285698E+03  0.41800000000E+01 0.  1.
         -5    1    3    3    0  502 -0.49994496194E+01  0.86379503750E+01  0.22374188676E+02  0.24853277492E+02  0.41800000000E+01 0.  1.
        -11    1    4    4    0    0 -0.18627426969E+03 -0.38469434582E+02  0.91552188700E+02  0.21109193306E+03  0.00000000000E+00 0.  1.
         11    1    4    4    0    0 -0.82522903862E+02  0.37499605050E+02  0.77111640198E+02  0.11900611369E+03  0.00000000000E+00 0. -1.
</event>
<event>
 8    1  0.6185113E-009  0.1465820E+03  0.7561462E-02  0.1204737E+00
          1   -1    0    0  501    0  0.00000000000E+00  0.00000000000E+00  0.37723851020E+03  0.37723851020E+03  0.00000000000E+00 0. -1.
         -1   -1    0    0    0  501 -0.00000000000E+00 -0.00000000000E+00 -0.74500723934E+02  0.74500723934E+02  0.00000000000E+00 0.  1.
         25    2    1    2    0    0  0.12240076997E+03 -0.59704342007E+01  0.17892184012E+03  0.25035286617E+03  0.12508372458E+03 0.  0.
         23    2    1    2    0    0 -0.12240076997E+03  0.59704342007E+01  0.12381594615E+03  0.20138636796E+03  0.10103705314E+03 0.  0.
          5    1    3    3  502    0  0.12047555632E+03 -0.40272349380E+02  0.17387951993E+03  0.21537822928E+03  0.41800000000E+01 0.  1.
         -5    1    3    3    0  502  0.19252136447E+01  0.34301915180E+02  0.50423201857E+01  0.34974636888E+02  0.41800000000E+01 0.  1.
        -11    1    4    4    0    0 -0.20649373877E+02  0.19995616037E+02 -0.11962618755E+02  0.31133993474E+02  0.00000000000E+00 0.  1.
         11    1    4    4    0    0 -0.10175139609E+03 -0.14025181836E+02  0.13577856490E+03  0.17025237449E+03  0.00000000000E+00 0. -1.
</event>
<event>
 8    1  0.6185113E-009  0.1384034E+03  0.7561462E-02  0.1215494E+00
          1   -1    0    0  501    0  0.00000000000E+00  0.00000000000E+00  0.38907282003E+03  0.38907282003E+03  0.00000000000E+00 0. -1.
         -1   -1    0    0    0  501 -0.00000000000E+00 -0.00000000000E+00 -0.11512997601E+03  0.11512997601E+03  0.00000000000E+00 0.  1.
         25    2    1    2    0    0  0.70896914780E+02 -0.56304866323E+02 -0.44894377407E+02  0.16080769249E+03  0.12508796242E+03 0.  0.
         23    2    1    2    0    0 -0.70896914780E+02  0.56304866323E+02  0.31883722142E+03  0.34339510355E+03  0.89813211036E+02 0.  0.
          5    1    3    3  502    0  0.10769518782E+02 -0.83680139249E+02 -0.42509271526E+02  0.94566689723E+02  0.41800000000E+01 0.  1.
         -5    1    3    3    0  502  0.60127395998E+02  0.27375272926E+02 -0.23851058812E+01  0.66241002765E+02  0.41800000000E+01 0.  1.
        -11    1    4    4    0    0 -0.75910628362E+02  0.66211541408E+01  0.16713676157E+03  0.18368712597E+03  0.00000000000E+00 0.  1.
         11    1    4    4    0    0  0.50137135816E+01  0.49683712182E+02  0.15170045986E+03  0.15970797757E+03  0.00000000000E+00 0. -1.
</event>
<event>
 8    1  0.6185113E-009  0.2003999E+03  0.7561462E-02  0.1149402E+00
          2   -1    0    0  501    0  0.00000000000E+00  0.00000000000E+00  0.30171229286E+03  0.30171229286E+03  0.00000000000E+00 0. -1.
         -2   -1    0    0    0  501 -0.00000000000E+00 -0.00000000000E+00 -0.17096146578E+03  0.17096146578E+03  0.00000000000E+00 0.  1.
         25    2    1    2    0    0  0.14700587127E+03 -0.11750066646E+03  0.13045763087E+03  0.26092940234E+03  0.12509127367E+03 0.  0.
         23    2    1    2    0    0 -0.14700587127E+03  0.11750066646E+03  0.29319620129E+00  0.21174435630E+03  0.97048717934E+02 0.  0.
          5    1    3    3  502    0  0.67787736786E+02 -0.72760188947E+02 -0.27419035472E+01  0.99570140048E+02  0.41800000000E+01 0.  1.
         -5    1    3    3    0  502  0.79218134484E+02 -0.44740477516E+02  0.13319953442E+03  0.16135926229E+03  0.41800000000E+01 0.  1.
        -11    1    4    4    0    0 -0.15541531692E+03  0.86071789788E+02  0.95633292924E+01  0.17791495440E+03  0.00000000000E+00 0. -1.
         11    1    4    4    0    0  0.84094456536E+01  0.31428876675E+02 -0.92701330911E+01  0.33829401898E+02  0.00000000000E+00 0.  1.
</event>
<event>
 8    1  0.6185113E-009  0.1562825E+03  0.7561462E-02  0.1192959E+00
         -2   -1    0    0    0  501 -0.00000000000E+00  0.00000000000E+00  0.47253222616E+02  0.47253222616E+02  0.00000000000E+00 0.  1.
          2   -1    0    0  501    0  0.00000000000E+00 -0.00000000000E+00 -0.61265922623E+03  0.61265922623E+03  0.00000000000E+00 0. -1.
         25    2    1    2    0    0 -0.90319417767E+02  0.74439539396E+02 -0.18673982932E+03  0.25341232143E+03  0.12508876267E+03 0.  0.
         23    2    1    2    0    0  0.90319417767E+02 -0.74439539396E+02 -0.37866617429E+03  0.40650012741E+03  0.90307473571E+02 0.  0.
          5    1    3    3  502    0 -0.80256340654E+02  0.10522092336E+03 -0.17332953870E+03  0.21811264134E+03  0.41800000000E+01 0. -1.
         -5    1    3    3    0  502 -0.10063077113E+02 -0.30781383963E+02 -0.13410290618E+02  0.35299680086E+02  0.41800000000E+01 0. -1.
        -11    1    4    4    0    0  0.13979447316E+02  0.21042478683E+02 -0.55287851772E+02  0.60786161336E+02  0.00000000000E+00 0.  1.
         11    1    4    4    0    0  0.76339970452E+02 -0.95482018080E+02 -0.32337832252E+03  0.34571396608E+03  0.00000000000E+00 0. -1.
</event>
<event>
 8    1  0.6185113E-009  0.1236342E+03  0.7561462E-02  0.1237219E+00
          1   -1    0    0  501    0  0.00000000000E+00  0.00000000000E+00  0.43859580629E+03  0.43859580629E+03  0.00000000000E+00 0. -1.
         -1   -1    0    0    0  501 -0.00000000000E+00 -0.00000000000E+00 -0.62531849775E+02  0.62531849775E+02  0.00000000000E+00 0.  1.
         25    2    1    2    0    0 -0.43325187703E+02  0.64630759025E+02  0.53274515424E+02  0.15665943580E+03  0.12509915239E+03 0.  0.
         23    2    1    2    0    0  0.43325187703E+02 -0.64630759025E+02  0.32278944109E+03  0.34446822026E+03  0.91712183450E+02 0.  0.
          5    1    3    3  502    0  0.23032457695E+02  0.69097087787E+02  0.27042018579E+01  0.73004703655E+02  0.41800000000E+01 0. -1.
         -5    1    3    3    0  502 -0.66357645398E+02 -0.44663287615E+01  0.50570313567E+02  0.83654732141E+02  0.41800000000E+01 0. -1.
        -11    1    4    4    0    0  0.63862092813E+02 -0.57504141522E+02  0.30341131786E+03  0.31534666796E+03  0.00000000000E+00 0. -1.
         11    1    4    4    0    0 -0.20536905110E+02 -0.71266175033E+01  0.19378123226E+02  0.29121552299E+02  0.00000000000E+00 0.  1.
</event>
<event>
 8    1  0.6185113E-009  0.1817621E+03  0.7561462E-02  0.1166109E+00
         -2   -1    0    0    0  501 -0.00000000000E+00  0.00000000000E+00  0.32793524199E+02  0.32793524199E+02  0.00000000000E+00 0.  1.
          2   -1    0    0  501    0  0.00000000000E+00 -0.00000000000E+00 -0.12183261726E+04  0.12183261726E+04  0.00000000000E+00 0. -1.
         25    2    1    2    0    0 -0.16119856217E+03 -0.26649807131E+02 -0.50531546027E+03  0.54560632361E+03  0.12508939725E+03 0.  0.
         23    2    1    2    0    0  0.16119856217E+03  0.26649807131E+02 -0.68021718808E+03  0.70551337314E+03  0.91424876579E+02 0.  0.
          5    1    3    3  502    0  0.11226803367E+02 -0.12883707392E+01 -0.14326625992E+03  0.14377202317E+03  0.41800000000E+01 0.  1.
         -5    1    3    3    0  502 -0.17242536554E+03 -0.25361436392E+02 -0.36204920035E+03  0.40183430044E+03  0.41800000000E+01 0.  1.
        -11    1    4    4    0    0  0.99733767584E+01 -0.17031888148E+02 -0.26095378172E+02  0.32718835856E+02  0.00000000000E+00 0.  1.
         11    1    4    4    0    0  0.15122518541E+03  0.43681695279E+02 -0.65412180991E+03  0.67279453729E+03  0.00000000000E+00 0. -1.
</event>
<event>
 8    1  0.6185113E-009  0.1237446E+03  0.7561462E-02  0.1237044E+00
         -2   -1    0    0    0  501 -0.00000000000E+00  0.00000000000E+00  0.74565355148E+02  0.74565355148E+02  0.00000000000E+00 0.  1.
          2   -1    0    0  501    0  0.00000000000E+00 -0.00000000000E+00 -0.30616382306E+03  0.30616382306E+03  0.00000000000E+00 0. -1.
         25    2    1    2    0    0 -0.93876668725E+02  0.42289466665E+02 -0.10752479027E+03  0.19444699365E+03  0.12508726911E+03 0.  0.
         23    2    1    2    0    0  0.93876668725E+02 -0.42289466665E+02 -0.12407367765E+03  0.18628218456E+03  0.93303520187E+02 0.  0.
          5    1    3    3  502    0 -0.18402684132E+02  0.25343598100E+02  0.25437129386E+02  0.40564475830E+02  0.41800000000E+01 0.  1.
         -5    1    3    3    0  502 -0.75473984592E+02  0.16945868564E+02 -0.13296191965E+03  0.15388251782E+03  0.41800000000E+01 0.  1.
        -11    1    4    4    0    0 -0.59191592619E+01  0.19951467748E+02 -0.24773966999E+02  0.32355014334E+02  0.00000000000E+00 0.  1.
         11    1    4    4    0    0  0.99795827987E+02 -0.62240934413E+02 -0.99299710647E+02  0.15392717023E+03  0.00000000000E+00 0. -1.
</event>
<event>
 8    1  0.6185113E-009  0.1367115E+03  0.7561462E-02  0.1217824E+00
          2   -1    0    0  501    0  0.00000000000E+00  0.00000000000E+00  0.31413480922E+03  0.31413480922E+03  0.00000000000E+00 0. -1.
         -2   -1    0    0    0  501 -0.00000000000E+00 -0.00000000000E+00 -0.69659729237E+02  0.69659729237E+02  0.00000000000E+00 0.  1.
         25    2    1    2    0    0 -0.76695019800E+00  0.96553459427E+02  0.98497281584E+02  0.18620433343E+03  0.12508869081E+03 0.  0.
         23    2    1    2    0    0  0.76695019800E+00 -0.96553459427E+02  0.14597779840E+03  0.19759020503E+03  0.91701759835E+02 0.  0.
          5    1    3    3  502    0  0.64887771485E+01 -0.30098993154E+02  0.18254734685E+02  0.36038331762E+02  0.41800000000E+01 0.  1.
         -5    1    3    3    0  502 -0.72557273465E+01  0.12665245258E+03  0.80242546899E+02  0.15016600167E+03  0.41800000000E+01 0.  1.
        -11    1    4    4    0    0  0.31878944567E+02 -0.53989801325E+02  0.28596698399E+02  0.68912530887E+02  0.00000000000E+00 0.  1.
         11    1    4    4    0    0 -0.31111994369E+02 -0.42563658102E+02  0.11738110000E+03  0.12867767414E+03  0.00000000000E+00 0. -1.
</event>
<event>
 8    1  0.6185113E-009  0.1034332E+03  0.7561462E-02  0.1273238E+00
         -2   -1    0    0    0  501 -0.00000000000E+00  0.00000000000E+00  0.27503236885E+02  0.27503236885E+02  0.00000000000E+00 0.  1.
          2   -1    0    0  501    0  0.00000000000E+00 -0.00000000000E+00 -0.44330769116E+03  0.44330769116E+03  0.00000000000E+00 0. -1.
         25    2    1    2    0    0  0.18647931751E+02  0.21496876136E+02 -0.26178717629E+03  0.29152835535E+03  0.12508555178E+03 0.  0.
         23    2    1    2    0    0 -0.18647931751E+02 -0.21496876136E+02 -0.15401727798E+03  0.17928257269E+03  0.87241377288E+02 0.  0.
          5    1    3    3  502    0  0.59567166157E+02  0.38012050382E+02 -0.92167526103E+02  0.11621311684E+03  0.41800000000E+01 0. -1.
         -5    1    3    3    0  502 -0.40919234406E+02 -0.16515174246E+02 -0.16961965019E+03  0.17531523851E+03  0.41800000000E+01 0. -1.
        -11    1    4    4    0    0 -0.10385096079E+02 -0.55653800223E+02 -0.96245329440E+02  0.11166180698E+03  0.00000000000E+00 0.  1.
         11    1    4    4    0    0 -0.82628356718E+01  0.34156924086E+02 -0.57771948545E+02  0.67620765709E+02  0.00000000000E+00 0. -1.
</event>
<event>
 8    1  0.6185113E-009  0.6991590E+02  0.7561462E-02  0.1360379E+00
          1   -1    0    0  501    0  0.00000000000E+00  0.00000000000E+00  0.11203984008E+04  0.11203984008E+04  0.00000000000E+00 0. -1.
         -1   -1    0    0    0  501 -0.00000000000E+00 -0.00000000000E+00 -0.18351804371E+02  0.18351804371E+02  0.00000000000E+00 0.  1.
         25    2    1    2    0    0  0.58432789362E+01 -0.41955885009E+02  0.92866927132E+03  0.93801355510E+03  0.12509346049E+03 0.  0.
         23    2    1    2    0    0 -0.58432789362E+01  0.41955885009E+02  0.17337732506E+03  0.20073665002E+03  0.91875272095E+02 0.  0.
          5    1    3    3  502    0 -0.14572681497E+02 -0.38863346647E+02  0.90639441075E+03  0.90735385766E+03  0.41800000000E+01 0. -1.
         -5    1    3    3    0  502  0.20415960433E+02 -0.30925383623E+01  0.22274860566E+02  0.30659697441E+02  0.41800000000E+01 0. -1.
        -11    1    4    4    0    0  0.22822201125E+02  0.42652556852E+02  0.16334629017E+03  0.17035875083E+03  0.00000000000E+00 0. -1.
         11    1    4    4    0    0 -0.28665480061E+02 -0.69667184258E+00  0.10031034888E+02  0.30377899198E+02  0.00000000000E+00 0.  1.
</event>
<event>
 8    1  0.6185113E-009  0.1303435E+03  0.7561462E-02  0.1226947E+00
          3   -1    0    0  501    0  0.00000000000E+00  0.00000000000E+00  0.21359955381E+03  0.21359955381E+03  0.00000000000E+00 0. -1.
         -3   -1    0    0    0  501 -0.00000000000E+00 -0.00000000000E+00 -0.79962684354E+02  0.79962684354E+02  0.00000000000E+00 0.  1.
         25    2    1    2    0    0 -0.51795634845E+02  0.51311740086E+02  0.78301189520E+02  0.16460691807E+03  0.12509467909E+03 0.  0.
         23    2    1    2    0    0  0.51795634845E+02 -0.51311740086E+02  0.55335679934E+02  0.12895532009E+03  0.90839169118E+02 0.  0.
          5    1    3    3  502    0 -0.43389779091E+02  0.92350655108E+02  0.61957732794E+02  0.11944684793E+03  0.41800000000E+01 0.  1.
         -5    1    3    3    0  502 -0.84058557542E+01 -0.41038915023E+02  0.16343456726E+02  0.45160070139E+02  0.41800000000E+01 0.  1.
        -11    1    4    4    0    0 -0.25705168251E+02 -0.21207358649E+02  0.16697056515E+02  0.37273307231E+02  0.00000000000E+00 0.  1.
         11    1    4    4    0    0  0.77500803095E+02 -0.30104381437E+02  0.38638623419E+02  0.91682012859E+02  0.00000000000E+00 0. -1.
</event>
<event>
 8    1  0.6185113E-009  0.7314852E+02  0.7561462E-02  0.1349702E+00
          2   -1    0    0  501    0  0.00000000000E+00  0.00000000000E+00  0.10106740471E+04  0.10106740471E+04  0.00000000000E+00 0. -1.
         -2   -1    0    0    0  501 -0.00000000000E+00 -0.00000000000E+00 -0.19706819174E+02  0.19706819174E+02  0.00000000000E+00 0.  1.
         25    2    1    2    0    0  0.67119598957E+02  0.64263240721E+01  0.75741216026E+03  0.77062774034E+03  0.12509034922E+03 0.  0.
         23    2    1    2    0    0 -0.67119598957E+02 -0.64263240721E+01  0.23355506766E+03  0.25975312593E+03  0.91528020813E+02 0.  0.
          5    1    3    3  502    0  0.48685323187E+02  0.11477007906E+02  0.74657708066E+03  0.74826251554E+03  0.41800000000E+01 0. -1.
         -5    1    3    3    0  502  0.18434275770E+02 -0.50506838338E+01  0.10835079607E+02  0.22365224802E+02  0.41800000000E+01 0. -1.
        -11    1    4    4    0    0 -0.30973068671E+02  0.15109313428E+02  0.15695711515E+02  0.37867897950E+02  0.00000000000E+00 0.  1.
         11    1    4    4    0    0 -0.36146530286E+02 -0.21535637500E+02  0.21785935615E+03  0.22188522798E+03  0.00000000000E+00 0. -1.
</event>
<event>
 8    1  0.6185113E-009  0.1150932E+03  0.7561462E-02  0.1251418E+00
         -2   -1    0    0    0  501 -0.00000000000E+00  0.00000000000E+00  0.15014237434E+02  0.15014237434E+02  0.00000000000E+00 0.  1.
          2   -1    0    0  501    0  0.00000000000E+00 -0.00000000000E+00 -0.91161383662E+03  0.91161383662E+03  0.00000000000E+00 0. -1.
         25    2    1    2    0    0  0.36132777375E+02 -0.28832603061E+02 -0.51574214928E+03  0.53270428678E+03  0.12508795308E+03 0.  0.
         23    2    1    2    0    0 -0.36132777375E+02  0.28832603061E+02 -0.38085744991E+03  0.39392378728E+03  0.89368095167E+02 0.  0.
          5    1    3    3  502    0 -0.44875143915E+02 -0.17989667333E+02 -0.24923012368E+03  0.25391048348E+03  0.41800000000E+01 0. -1.
         -5    1    3    3    0  502  0.81007921289E+02 -0.10842935728E+02 -0.26651202560E+03  0.27879380330E+03  0.41800000000E+01 0. -1.
        -11    1    4    4    0    0  0.71166264461E+01 -0.27724759160E+02 -0.13285623609E+03  0.13590470231E+03  0.00000000000E+00 0.  1.
         11    1    4    4    0    0 -0.43249403821E+02  0.56557362220E+02 -0.24800121382E+03  0.25801908497E+03  0.00000000000E+00 0. -1.
</event>
<event>
 8    1  0.6185113E-009  0.7632006E+02  0.7561462E-02  0.1339831E+00
          2   -1    0    0  501    0  0.00000000000E+00  0.00000000000E+00  0.29853638891E+03  0.29853638891E+03  0.00000000000E+00 0. -1.
         -2   -1    0    0    0  501 -0.00000000000E+00 -0.00000000000E+00 -0.41997510225E+02  0.41997510225E+02  0.00000000000E+00 0.  1.
         25    2    1    2    0    0 -0.18420748766E+02  0.49287616093E+01  0.14106250671E+03  0.18949909237E+03  0.12509060131E+03 0.  0.
         23    2    1    2    0    0  0.18420748766E+02 -0.49287616093E+01  0.11547637197E+03  0.15103480676E+03  0.95462577445E+02 0.  0.
          5    1    3    3  502    0 -0.40620035539E+02 -0.35857343799E+02  0.13096789638E+03  0.14179491766E+03  0.41800000000E+01 0.  1.
         -5    1    3    3    0  502  0.22199286772E+02  0.40786105408E+02  0.10094610327E+02  0.47704174715E+02  0.41800000000E+01 0.  1.
        -11    1    4    4    0    0 -0.16503149096E+02 -0.11028680942E+01 -0.10937789261E+02  0.19829409523E+02  0.00000000000E+00 0.  1.
         11    1    4    4    0    0  0.34923897862E+02 -0.38258935151E+01  0.12641416124E+03  0.13120539724E+03  0.00000000000E+00 0. -1.
</event>
<event>
 8    1  0.6185113E-009  0.1414643E+03  0.7561462E-02  0.1211372E+00
         -2   -1    0    0    0  501 -0.00000000000E+00  0.00000000000E+00  0.35396337751E+03  0.35396337751E+03  0.00000000000E+00 0. -1.
          2   -1    0    0  501    0  0.00000000000E+00 -0.00000000000E+00 -0.78694818225E+02  0.78694818225E+02  0.00000000000E+00 0.  1.
         25    2    1    2    0    0  0.63199860878E+02  0.10442971476E+03  0.10646733485E+03  0.20465266953E+03  0.12509050330E+03 0.  0.
         23    2    1    2    0    0 -0.63199860878E+02 -0.10442971476E+03  0.16880122443E+03  0.22800552620E+03  0.92697782435E+02 0.  0.
          5    1    3    3  502    0  0.78974275997E+02  0.46401057390E+02  0.11835713007E+02  0.92452965872E+02  0.41800000000E+01 0.  1.
         -5    1    3    3    0  502 -0.15774415119E+02  0.58028657372E+02  0.94631621843E+02  0.11219970366E+03  0.41800000000E+01 0.  1.
        -11    1    4    4    0    0  0.66226376390E+01 -0.21765628447E+02 -0.49804407145E+01  0.23289626461E+02  0.00000000000E+00 0.  1.
         11    1    4    4    0    0 -0.69822498517E+02 -0.82664086316E+02  0.17378166515E+03  0.20471589974E+03  0.00000000000E+00 0. -1.
</event>
<event>
 8    1  0.6185113E-009  0.3111287E+03  0.7561462E-02  0.1079806E+00
         -2   -1    0    0    0  501 -0.00000000000E+00  0.00000000000E+00  0.76872998048E+02  0.76872998048E+02  0.00000000000E+00 0.  1.
          2   -1    0    0  501    0  0.00000000000E+00 -0.00000000000E+00 -0.14505472688E+04  0.14505472688E+04  0.00000000000E+00 0. -1.
         25    2    1    2    0    0  0.23851958429E+03  0.18269314364E+03 -0.91730307592E+03  0.97332390768E+03  0.12508444885E+03 0.  0.
         23    2    1    2    0    0 -0.23851958429E+03 -0.18269314364E+03 -0.45637119483E+03  0.55409635916E+03  0.92085454579E+02 0.  0.
          5    1    3    3  502    0  0.18298072127E+03  0.17691049012E+03 -0.84099718865E+03  0.87867685163E+03  0.41800000000E+01 0.  1.
         -5    1    3    3    0  502  0.55538863018E+02  0.57826535217E+01 -0.76305887273E+02  0.94647056053E+02  0.41800000000E+01 0.  1.
        -11    1    4    4    0    0 -0.19916560822E+03 -0.10625672571E+03 -0.36029467299E+03  0.42517018080E+03  0.00000000000E+00 0.  1.
         11    1    4    4    0    0 -0.39353976070E+02 -0.76436417931E+02 -0.96076521835E+02  0.12892617836E+03  0.00000000000E+00 0. -1.
</event>
<event>
 8    1  0.6185113E-009  0.1027068E+03  0.7561462E-02  0.1274705E+00
          1   -1    0    0  501    0  0.00000000000E+00  0.00000000000E+00  0.70586788775E+03  0.70586788775E+03  0.00000000000E+00 0. -1.
         -1   -1    0    0    0  501 -0.00000000000E+00 -0.00000000000E+00 -0.20845560202E+02  0.20845560202E+02  0.00000000000E+00 0.  1.
         25    2    1    2    0    0 -0.46470044027E+02  0.25238603277E+02  0.37783651258E+03  0.40150303083E+03  0.12509117249E+03 0.  0.
         23    2    1    2    0    0  0.46470044027E+02 -0.25238603277E+02  0.30718581496E+03  0.32521041712E+03  0.92748252834E+02 0.  0.
          5    1    3    3  502    0 -0.68993081773E+02  0.60708163798E+01  0.97997616175E+02  0.12007458232E+03  0.41800000000E+01 0. -1.
         -5    1    3    3    0  502  0.22523037746E+02  0.19167786897E+02  0.27983889641E+03  0.28142844850E+03  0.41800000000E+01 0. -1.
        -11    1    4    4    0    0 -0.28402371278E+01 -0.50620061298E+02  0.16406462266E+03  0.17171970755E+03  0.00000000000E+00 0.  1.
         11    1    4    4    0    0  0.49310281155E+02  0.25381458021E+02  0.14312119231E+03  0.15349070958E+03  0.00000000000E+00 0. -1.
</event>
<event>
 8    1  0.6185113E-009  0.1370977E+03  0.7561462E-02  0.1217288E+00
          1   -1    0    0  501    0  0.00000000000E+00  0.00000000000E+00  0.47468319363E+03  0.47468319363E+03  0.00000000000E+00 0. -1.
         -1   -1    0    0    0  501 -0.00000000000E+00 -0.00000000000E+00 -0.59338028943E+02  0.59338028943E+02  0.00000000000E+00 0.  1.
         25    2    1    2    0    0 -0.83087143708E+02 -0.84382988770E+02  0.15064064008E+03  0.22883217351E+03  0.12509036312E+03 0.  0.
         23    2    1    2    0    0  0.83087143708E+02  0.84382988770E+02  0.26470452460E+03  0.30518904906E+03  0.95120492431E+02 0.  0.
          5    1    3    3  502    0 -0.76102061436E+02 -0.60279625718E+02  0.24585119925E+02  0.10023501161E+03  0.41800000000E+01 0.  1.
         -5    1    3    3    0  502 -0.69850822716E+01 -0.24103363052E+02  0.12605552016E+03  0.12859716189E+03  0.41800000000E+01 0.  1.
        -11    1    4    4    0    0  0.86038870152E+02  0.21573147140E+02  0.16445328573E+03  0.18685012989E+03  0.00000000000E+00 0.  1.
         11    1    4    4    0    0 -0.29517264437E+01  0.62809841630E+02  0.10025123888E+03  0.11833891917E+03  0.00000000000E+00 0. -1.
</event>
<event>
 8    1  0.6185113E-009  0.1104130E+03  0.7561462E-02  0.1259807E+00
          2   -1    0    0  501    0  0.00000000000E+00  0.00000000000E+00  0.82800349733E+03  0.82800349733E+03  0.00000000000E+00 0. -1.
         -2   -1    0    0    0  501 -0.00000000000E+00 -0.00000000000E+00 -0.16411701116E+02  0.16411701116E+02  0.00000000000E+00 0.  1.
         25    2    1    2    0    0  0.24631099149E+02 -0.81555624572E+01  0.56328575868E+03  0.57759086564E+03  0.12508860017E+03 0.  0.
         23    2    1    2    0    0 -0.24631099149E+02  0.81555624572E+01  0.24830603753E+03  0.26682433281E+03  0.94160140493E+02 0.  0.
          5    1    3    3  502    0  0.34964362025E+02  0.51674756010E+02  0.21041141955E+03  0.21950677643E+03  0.41800000000E+01 0. -1.
         -5    1    3    3    0  502 -0.10333262876E+02 -0.59830318467E+02  0.35287433913E+03  0.35808408921E+03  0.41800000000E+01 0. -1.
        -11    1    4    4    0    0  0.90533543083E+01  0.45935000866E+02  0.12858763675E+03  0.13684578128E+03  0.00000000000E+00 0. -1.
         11    1    4    4    0    0 -0.33684453457E+02 -0.37779438408E+02  0.11971840078E+03  0.12997855153E+03  0.00000000000E+00 0.  1.
</event>
<event>
 8    1  0.6185113E-009  0.1124770E+03  0.7561462E-02  0.1256050E+00
         -1   -1    0    0    0  501 -0.00000000000E+00  0.00000000000E+00  0.39260216053E+02  0.39260216053E+02  0.00000000000E+00 0.  1.
          1   -1    0    0  501    0  0.00000000000E+00 -0.00000000000E+00 -0.44448392970E+03  0.44448392970E+03  0.00000000000E+00 0. -1.
         25    2    1    2    0    0  0.39080843426E+02 -0.59092518412E+02 -0.18417307267E+03  0.23363683367E+03  0.12508881364E+03 0.  0.
         23    2    1    2    0    0 -0.39080843426E+02  0.59092518412E+02 -0.22105064098E+03  0.25010731208E+03  0.93118438681E+02 0.  0.
          5    1    3    3  502    0  0.68315536335E+02  0.33217358368E+01 -0.57865666236E+02  0.89688093762E+02  0.41800000000E+01 0.  1.
         -5    1    3    3    0  502 -0.29234692909E+02 -0.62414254249E+02 -0.12630740643E+03  0.14394873991E+03  0.41800000000E+01 0.  1.
        -11    1    4    4    0    0 -0.26231042685E+02 -0.68372384978E+00 -0.65253782316E+01  0.27039150129E+02  0.00000000000E+00 0.  1.
         11    1    4    4    0    0 -0.12849800741E+02  0.59776242262E+02 -0.21452526275E+03  0.22306816195E+03  0.00000000000E+00 0. -1.
</event>
<event>
 8    1  0.6185113E-009  0.1396258E+03  0.7561462E-02  0.1213833E+00
         -1   -1    0    0    0  501 -0.00000000000E+00  0.00000000000E+00  0.19383981739E+03  0.19383981739E+03  0.00000000000E+00 0.  1.
          1   -1    0    0  501    0  0.00000000000E+00 -0.00000000000E+00 -0.17765014700E+03  0.17765014700E+03  0.00000000000E+00 0. -1.
         25    2    1    2    0    0  0.97599428418E+02  0.23556176544E+02 -0.10389464081E+03  0.19110436418E+03  0.12508493010E+03 0.  0.
         23    2    1    2    0    0 -0.97599428418E+02 -0.23556176544E+02  0.12008431120E+03  0.18038560021E+03  0.89655903788E+02 0.  0.
          5    1    3    3  502    0  0.34511931484E+02 -0.50929489799E+02 -0.50889304769E+02  0.79950485213E+02  0.41800000000E+01 0. -1.
         -5    1    3    3    0  502  0.63087496934E+02  0.74485666343E+02 -0.53005336041E+02  0.11115387896E+03  0.41800000000E+01 0. -1.
        -11    1    4    4    0    0 -0.50766298200E+02 -0.45495545453E+02  0.10728054539E+03  0.12710695145E+03  0.00000000000E+00 0. -1.
         11    1    4    4    0    0 -0.46833130217E+02  0.21939368908E+02  0.12803765817E+02  0.53278648755E+02  0.00000000000E+00 0.  1.
</event>
<event>
 8    1  0.6185113E-009  0.1942297E+03  0.7561462E-02  0.1154701E+00
          1   -1    0    0  501    0  0.00000000000E+00  0.00000000000E+00  0.23006063414E+03  0.23006063414E+03  0.00000000000E+00 0. -1.
         -1   -1    0    0    0  501 -0.00000000000E+00 -0.00000000000E+00 -0.19530677580E+03  0.19530677580E+03  0.00000000000E+00 0.  1.
         25    2    1    2    0    0  0.15774662047E+03 -0.65361908318E+02 -0.43870485171E+02  0.21616850811E+03  0.12509208249E+03 0.  0.
         23    2    1    2    0    0 -0.15774662047E+03  0.65361908318E+02  0.78624343505E+02  0.20919890183E+03  0.91794432318E+02 0.  0.
          5    1    3    3  502    0  0.89995047354E+02  0.22320555635E+02 -0.49400192428E+02  0.10514355503E+03  0.41800000000E+01 0. -1.
         -5    1    3    3    0  502  0.67751573117E+02 -0.87682463954E+02  0.55297072569E+01  0.11102495308E+03  0.41800000000E+01 0. -1.
        -11    1    4    4    0    0 -0.59976055423E+02  0.62962606747E+02  0.55860058827E+01  0.87135644453E+02  0.00000000000E+00 0.  1.
         11    1    4    4    0    0 -0.97770565047E+02  0.23993015709E+01  0.73038337623E+02  0.12206325737E+03  0.00000000000E+00 0. -1.
</event>
<event>
 8    1  0.6185113E-009  0.1136204E+03  0.7561462E-02  0.1254009E+00
          2   -1    0    0  501    0  0.00000000000E+00  0.00000000000E+00  0.15264085221E+03  0.15264085221E+03  0.00000000000E+00 0. -1.
         -2   -1    0    0    0  501 -0.00000000000E+00 -0.00000000000E+00 -0.10410731825E+03  0.10410731825E+03  0.00000000000E+00 0.  1.
         25    2    1    2    0    0  0.31666875250E+02 -0.52150748906E+02  0.92720292138E+01  0.13948493567E+03  0.12509030799E+03 0.  0.
         23    2    1    2    0    0 -0.31666875250E+02  0.52150748906E+02  0.39261504751E+02  0.11726323479E+03  0.92123335141E+02 0.  0.
          5    1    3    3  502    0 -0.37349186495E+02 -0.12441248087E+02  0.37862909381E+02  0.54779728848E+02  0.41800000000E+01 0. -1.
         -5    1    3    3    0  502  0.69016061745E+02 -0.39709500819E+02 -0.28590880167E+02  0.84705206822E+02  0.41800000000E+01 0. -1.
        -11    1    4    4    0    0  0.30431519443E+02  0.27795149045E+02  0.29592407550E+01  0.41320754978E+02  0.00000000000E+00 0.  1.
         11    1    4    4    0    0 -0.62098394693E+02  0.24355599861E+02  0.36302263996E+02  0.75942479808E+02  0.00000000000E+00 0. -1.
</event>
<event>
 8    1  0.6185113E-009  0.1170239E+03  0.7561462E-02  0.1248089E+00
         -4   -1    0    0    0  501 -0.00000000000E+00  0.00000000000E+00  0.23936399844E+03  0.23936399844E+03  0.00000000000E+00 0.  1.
          4   -1    0    0  501    0  0.00000000000E+00 -0.00000000000E+00 -0.69502856107E+02  0.69502856107E+02  0.00000000000E+00 0. -1.
         25    2    1    2    0    0 -0.40919878501E+02 -0.45154765641E+02  0.13158702245E+03  0.19149494469E+03  0.12506710218E+03 0.  0.
         23    2    1    2    0    0  0.40919878501E+02  0.45154765641E+02  0.38274119890E+02  0.11737190986E+03  0.92724687410E+02 0.  0.
          5    1    3    3  502    0 -0.73673198076E+02 -0.54505106212E+02  0.12729863215E+03  0.15691067798E+03  0.41800000000E+01 0.  1.
         -5    1    3    3    0  502  0.32753319575E+02  0.93503405707E+01  0.42883902947E+01  0.34584266701E+02  0.41800000000E+01 0.  1.
        -11    1    4    4    0    0 -0.15590578067E+02 -0.17620507094E+02 -0.23530824945E+01  0.23644986613E+02  0.00000000000E+00 0.  1.
         11    1    4    4    0    0  0.56510456568E+02  0.62775272735E+02  0.40627202385E+02  0.93726923251E+02  0.00000000000E+00 0. -1.
</event>
<event>
 8    1  0.6185113E-009  0.1124825E+03  0.7561462E-02  0.1256040E+00
         -2   -1    0    0    0  501 -0.00000000000E+00  0.00000000000E+00  0.26111802728E+03  0.26111802728E+03  0.00000000000E+00 0.  1.
          2   -1    0    0  501    0  0.00000000000E+00 -0.00000000000E+00 -0.53831909041E+02  0.53831909041E+02  0.00000000000E+00 0. -1.
         25    2    1    2    0    0  0.14999419937E+02  0.44754579126E+02  0.11037678513E+03  0.17337415778E+03  0.12509040306E+03 0.  0.
         23    2    1    2    0    0 -0.14999419937E+02 -0.44754579126E+02  0.96909333110E+02  0.14157577854E+03  0.91784134113E+02 0.  0.
          5    1    3    3  502    0 -0.37903400261E+02  0.65791788001E+02  0.55065126924E+02  0.93887526982E+02  0.41800000000E+01 0.  1.
         -5    1    3    3    0  502  0.52902820197E+02 -0.21037208875E+02  0.55311658207E+02  0.79486630798E+02  0.41800000000E+01 0.  1.
        -11    1    4    4    0    0 -0.80665181992E+01  0.22666451944E+02  0.59455883487E+02  0.64139214532E+02  0.00000000000E+00 0.  1.
         11    1    4    4    0    0 -0.69329017373E+01 -0.67421031070E+02  0.37453449623E+02  0.77436564010E+02  0.00000000000E+00 0. -1.
</event>
<event>
 8    1  0.6185113E-009  0.1073977E+03  0.7561462E-02  0.1265466E+00
         -2   -1    0    0    0  501 -0.00000000000E+00  0.00000000000E+00  0.21954494666E+03  0.21954494666E+03  0.00000000000E+00 0.  1.
          2   -1    0    0  501    0  0.00000000000E+00 -0.00000000000E+00 -0.61071395375E+02  0.61071395375E+02  0.00000000000E+00 0. -1.
         25    2    1    2    0    0 -0.29678842551E+02 -0.27469454776E+02  0.77616902220E+02  0.15266577668E+03  0.12508817377E+03 0.  0.
         23    2    1    2    0    0  0.29678842551E+02  0.27469454776E+02  0.80856649063E+02  0.12795056536E+03  0.90543607375E+02 0.  0.
          5    1    3    3  502    0 -0.12485527878E+02  0.42980789676E+02 -0.18660242451E+01  0.44991011703E+02  0.41800000000E+01 0. -1.
         -5    1    3    3    0  502 -0.17193314673E+02 -0.70450244452E+02  0.79482926466E+02  0.10767476497E+03  0.41800000000E+01 0. -1.
        -11    1    4    4    0    0 -0.16138761734E+02 -0.23602703234E+02  0.36013691095E+02  0.45984053503E+02  0.00000000000E+00 0.  1.
         11    1    4    4    0    0  0.45817604284E+02  0.51072158010E+02  0.44842957968E+02  0.81966511854E+02  0.00000000000E+00 0. -1.
</event>
<event>
 8    1  0.6185113E-009  0.1132342E+03  0.7561462E-02  0.1254695E+00
         -2   -1    0    0    0  501 -0.00000000000E+00  0.00000000000E+00  0.19491236086E+03  0.19491236086E+03  0.00000000000E+00 0.  1.
          2   -1    0    0  501    0  0.00000000000E+00 -0.00000000000E+00 -0.71151968717E+02  0.71151968717E+02  0.00000000000E+00 0. -1.
         25    2    1    2    0    0 -0.30483748440E+02 -0.10454695141E+02  0.95635611675E+02  0.16072600813E+03  0.12509244541E+03 0.  0.
         23    2    1    2    0    0  0.30483748440E+02  0.10454695141E+02  0.28124780465E+02  0.10533832144E+03  0.96263176340E+02 0.  0.
          5    1    3    3  502    0 -0.26561078566E+02 -0.65512873019E+02  0.36297954236E+02  0.79576637951E+02  0.41800000000E+01 0. -1.
         -5    1    3    3    0  502 -0.39226698737E+01  0.55058177879E+02  0.59337657439E+02  0.81149370180E+02  0.41800000000E+01 0. -1.
        -11    1    4    4    0    0 -0.29592596345E+02  0.24709498095E+02  0.18806334904E+02  0.42894746613E+02  0.00000000000E+00 0.  1.
         11    1    4    4    0    0  0.60076344785E+02 -0.14254802954E+02  0.93184455615E+01  0.62443574831E+02  0.00000000000E+00 0. -1.
</event>
<event>
 8    1  0.6185113E-009  0.1183268E+03  0.7561462E-02  0.1245883E+00
         -2   -1    0    0    0  501 -0.00000000000E+00  0.00000000000E+00  0.56516216724E+03  0.56516216724E+03  0.00000000000E+00 0.  1.
          2   -1    0    0  501    0  0.00000000000E+00 -0.00000000000E+00 -0.28983881645E+02  0.28983881645E+02  0.00000000000E+00 0. -1.
         25    2    1    2    0    0 -0.50356073046E+01 -0.48231932062E+02  0.18742659517E+03  0.23049130597E+03  0.12508331997E+03 0.  0.
         23    2    1    2    0    0  0.50356073046E+01  0.48231932062E+02  0.34875169042E+03  0.36365474292E+03  0.90913991577E+02 0.  0.
          5    1    3    3  502    0  0.52654405230E+02  0.80509248006E+01  0.76574660963E+02  0.93372666674E+02  0.41800000000E+01 0. -1.
         -5    1    3    3    0  502 -0.57690012534E+02 -0.56282856862E+02  0.11085193421E+03  0.13711863929E+03  0.41800000000E+01 0. -1.
        -11    1    4    4    0    0  0.45890902566E+02  0.39923677917E+02  0.18865322705E+03  0.19821683852E+03  0.00000000000E+00 0.  1.
         11    1    4    4    0    0 -0.40855295261E+02  0.83082541444E+01  0.16009846337E+03  0.16543790439E+03  0.00000000000E+00 0. -1.
</event>
<event>
 8    1  0.6185113E-009  0.1128091E+03  0.7561462E-02  0.1255455E+00
          1   -1    0    0  501    0  0.00000000000E+00  0.00000000000E+00  0.22689841448E+03  0.22689841448E+03  0.00000000000E+00 0. -1.
         -1   -1    0    0    0  501 -0.00000000000E+00 -0.00000000000E+00 -0.91633584609E+02  0.91633584609E+02  0.00000000000E+00 0.  1.
         25    2    1    2    0    0  0.21251493208E+02 -0.32997790989E+02 -0.20960881158E+02  0.13276513034E+03  0.12508693426E+03 0.  0.
         23    2    1    2    0    0 -0.21251493208E+02  0.32997790989E+02  0.15622571103E+03  0.18576686875E+03  0.92533110635E+02 0.  0.
          5    1    3    3  502    0 -0.48626834451E+02 -0.21920021685E+01 -0.27397406136E+02  0.56013071378E+02  0.41800000000E+01 0.  1.
         -5    1    3    3    0  502  0.69878327659E+02 -0.30805788820E+02  0.64365249778E+01  0.76752058963E+02  0.41800000000E+01 0.  1.
        -11    1    4    4    0    0 -0.27045143558E+01  0.64052441810E+02  0.10583179263E+03  0.12373519318E+03  0.00000000000E+00 0.  1.
         11    1    4    4    0    0 -0.18546978853E+02 -0.31054650821E+02  0.50393918398E+02  0.62031675567E+02  0.00000000000E+00 0. -1.
</event>
<event>
 8    1  0.6185113E-009  0.1263675E+03  0.7561462E-02  0.1232948E+00
         -1   -1    0    0    0  501 -0.00000000000E+00  0.00000000000E+00  0.15413037387E+03  0.15413037387E+03  0.00000000000E+00 0.  1.
          1   -1    0    0  501    0  0.00000000000E+00 -0.00000000000E+00 -0.11397252349E+03  0.11397252349E+03  0.00000000000E+00 0. -1.
         25    2    1    2    0    0 -0.21364947625E+02  0.72072595049E+02  0.11261951974E+01  0.14594623185E+03  0.12509242316E+03 0.  0.
         23    2    1    2    0    0  0.21364947625E+02 -0.72072595049E+02  0.39031655176E+02  0.12215666551E+03  0.88021934076E+02 0.  0.
          5    1    3    3  502    0 -0.67571226206E+02  0.57365577592E+02  0.24353456567E+02  0.92017625215E+02  0.41800000000E+01 0.  1.
         -5    1    3    3    0  502  0.46206278582E+02  0.14707017457E+02 -0.23227261369E+02  0.53928606635E+02  0.41800000000E+01 0.  1.
        -11    1    4    4    0    0 -0.24593060017E+02 -0.64136707340E+02  0.18087872110E+02  0.71031731971E+02  0.00000000000E+00 0.  1.
         11    1    4    4    0    0  0.45958007642E+02 -0.79358877095E+01  0.20943783066E+02  0.51124933538E+02  0.00000000000E+00 0. -1.
</event>
<event>
 8    1  0.6185113E-009  0.1100007E+03  0.7561462E-02  0.1260569E+00
         -1   -1    0    0    0  501 -0.00000000000E+00  0.00000000000E+00  0.52927229904E+03  0.52927229904E+03  0.00000000000E+00 0.  1.
          1   -1    0    0  501    0  0.00000000000E+00 -0.00000000000E+00 -0.43106998823E+02  0.43106998823E+02  0.00000000000E+00 0. -1.
         25    2    1    2    0    0 -0.63908349360E+02  0.50578538086E+02  0.13585601050E+03  0.20186414969E+03  0.12509921546E+03 0.  0.
         23    2    1    2    0    0  0.63908349360E+02 -0.50578538086E+02  0.35030928972E+03  0.37051514818E+03  0.89007926217E+02 0.  0.
          5    1    3    3  502    0 -0.85246077943E+02  0.29722651706E+02  0.14457563971E+03  0.17049902588E+03  0.41800000000E+01 0. -1.
         -5    1    3    3    0  502  0.21337728583E+02  0.20855886380E+02 -0.87196292140E+01  0.31365123807E+02  0.41800000000E+01 0. -1.
        -11    1    4    4    0    0  0.49113122374E+02 -0.24817520745E+01  0.27862791210E+03  0.28293421724E+03  0.00000000000E+00 0.  1.
         11    1    4    4    0    0  0.14795226985E+02 -0.48096786012E+02  0.71681377622E+02  0.87580930938E+02  0.00000000000E+00 0. -1.
</event>
<event>
 8    1  0.6185113E-009  0.1089018E+03  0.7561462E-02  0.1262617E+00
          2   -1    0    0  501    0  0.00000000000E+00  0.00000000000E+00  0.33707148566E+02  0.33707148566E+02  0.00000000000E+00 0.  1.
         -2   -1    0    0    0  501 -0.00000000000E+00 -0.00000000000E+00 -0.37224940273E+03  0.37224940273E+03  0.00000000000E+00 0. -1.
         25    2    1    2    0    0  0.27782029156E+02 -0.64307862899E+01 -0.19151472201E+03  0.23051723183E+03  0.12508840580E+03 0.  0.
         23    2    1    2    0    0 -0.27782029156E+02  0.64307862899E+01 -0.14702753215E+03  0.17543931947E+03  0.91371020839E+02 0.  0.
          5    1    3    3  502    0  0.58159332461E+01 -0.62243011946E+02 -0.13099955033E+03  0.14521147407E+03  0.41800000000E+01 0.  1.
         -5    1    3    3    0  502  0.21966095910E+02  0.55812225656E+02 -0.60515171685E+02  0.85305757756E+02  0.41800000000E+01 0.  1.
        -11    1    4    4    0    0 -0.21424064025E+02 -0.41484457056E+02 -0.82789903008E+02  0.95047981234E+02  0.00000000000E+00 0. -1.
         11    1    4    4    0    0 -0.63579651307E+01  0.47915243345E+02 -0.64237629146E+02  0.80391338238E+02  0.00000000000E+00 0.  1.
</event>
<event>
 8    1  0.6185113E-009  0.1869157E+03  0.7561462E-02  0.1161273E+00
          2   -1    0    0  501    0  0.00000000000E+00  0.00000000000E+00  0.82872564537E+03  0.82872564537E+03  0.00000000000E+00 0. -1.
         -2   -1    0    0    0  501 -0.00000000000E+00 -0.00000000000E+00 -0.65747817671E+02  0.65747817671E+02  0.00000000000E+00 0.  1.
         25    2    1    2    0    0 -0.12855262329E+03  0.10123146919E+03  0.63856791027E+03  0.67095993340E+03  0.12507865082E+03 0.  0.
         23    2    1    2    0    0  0.12855262329E+03 -0.10123146919E+03  0.12440991743E+03  0.22351352964E+03  0.87788855043E+02 0.  0.
          5    1    3    3  502    0 -0.14845936479E+03  0.10232260122E+03  0.60831924187E+03  0.63449182039E+03  0.41800000000E+01 0.  1.
         -5    1    3    3    0  502  0.19906741500E+02 -0.10911320389E+01  0.30248668400E+02  0.36468113007E+02  0.41800000000E+01 0.  1.
        -11    1    4    4    0    0  0.51659085812E+02 -0.80284502143E+01  0.78378653060E+02  0.94214279253E+02  0.00000000000E+00 0. -1.
         11    1    4    4    0    0  0.76893537480E+02 -0.93203018972E+02  0.46031264368E+02  0.12929925039E+03  0.00000000000E+00 0.  1.
</event>
<event>
 8    1  0.6185113E-009  0.1683780E+03  0.7561462E-02  0.1179550E+00
          2   -1    0    0  501    0  0.00000000000E+00  0.00000000000E+00  0.73391404176E+02  0.73391404176E+02  0.00000000000E+00 0. -1.
         -2   -1    0    0    0  501 -0.00000000000E+00 -0.00000000000E+00 -0.45945324853E+03  0.45945324853E+03  0.00000000000E+00 0.  1.
         25    2    1    2    0    0  0.95212018181E+01 -0.13925927516E+03 -0.27158177600E+03  0.32998264290E+03  0.12509230417E+03 0.  0.
         23    2    1    2    0    0 -0.95212018181E+01  0.13925927516E+03 -0.11448006836E+03  0.20286200980E+03  0.92539234756E+02 0.  0.
          5    1    3    3  502    0  0.48786586353E+02 -0.87254070483E+01 -0.90816844649E+02  0.10354436444E+03  0.41800000000E+01 0. -1.
         -5    1    3    3    0  502 -0.39265384535E+02 -0.13053386811E+03 -0.18076493135E+03  0.22643827846E+03  0.41800000000E+01 0. -1.
        -11    1    4    4    0    0 -0.30625491404E+02  0.47711984843E+02 -0.88992230597E+02  0.10551763515E+03  0.00000000000E+00 0. -1.
         11    1    4    4    0    0  0.21104289586E+02  0.91547290314E+02 -0.25487837762E+02  0.97344374653E+02  0.00000000000E+00 0.  1.
</event>
<event>
 8    1  0.6185113E-009  0.2261759E+03  0.7561462E-02  0.1129361E+00
         -1   -1    0    0    0  501 -0.00000000000E+00  0.00000000000E+00  0.16733770894E+04  0.16733770894E+04  0.00000000000E+00 0. -1.
          1   -1    0    0  501    0  0.00000000000E+00 -0.00000000000E+00 -0.56227543538E+02  0.56227543538E+02  0.00000000000E+00 0.  1.
         25    2    1    2    0    0  0.12369733015E+03 -0.18036210065E+03  0.13456074919E+04  0.13689922394E+04  0.12509481376E+03 0.  0.
         23    2    1    2    0    0 -0.12369733015E+03  0.18036210065E+03  0.27154205397E+03  0.36061239355E+03  0.92058103773E+02 0.  0.
          5    1    3    3  502    0  0.22085331750E+02 -0.19490360551E+02  0.41455424820E+02  0.51026078430E+02  0.41800000000E+01 0.  1.
         -5    1    3    3    0  502  0.10161199840E+03 -0.16087174010E+03  0.13041520671E+04  0.13179661609E+04  0.41800000000E+01 0.  1.
        -11    1    4    4    0    0 -0.76718558808E+02  0.44875297740E+02  0.14110187559E+03  0.16676111330E+03  0.00000000000E+00 0. -1.
         11    1    4    4    0    0 -0.46978771341E+02  0.13548680291E+03  0.13044017837E+03  0.19385128025E+03  0.00000000000E+00 0.  1.
</event>
<event>
 8    1  0.6185113E-009  0.8481657E+02  0.7561462E-02  0.1315913E+00
         -2   -1    0    0    0  501 -0.00000000000E+00  0.00000000000E+00  0.47843340346E+02  0.47843340346E+02  0.00000000000E+00 0.  1.
          2   -1    0    0  501    0  0.00000000000E+00 -0.00000000000E+00 -0.29594539772E+03  0.29594539772E+03  0.00000000000E+00 0. -1.
         25    2    1    2    0    0  0.47419686398E+02  0.23075964435E+01 -0.11726026858E+03  0.17790965602E+03  0.12509166023E+03 0.  0.
         23    2    1    2    0    0 -0.47419686398E+02 -0.23075964435E+01 -0.13084178880E+03  0.16587908205E+03  0.90234940599E+02 0.  0.
          5    1    3    3  502    0 -0.16016873793E+02  0.22718277062E+02  0.13428349314E+02  0.31152099834E+02  0.41800000000E+01 0. -1.
         -5    1    3    3    0  502  0.63436560191E+02 -0.20410680618E+02 -0.13068861789E+03  0.14675755619E+03  0.41800000000E+01 0. -1.
        -11    1    4    4    0    0  0.38547416805E+01 -0.20110367943E+02  0.36940706457E+01  0.20807020213E+02  0.00000000000E+00 0.  1.
         11    1    4    4    0    0 -0.51274428079E+02  0.17802771499E+02 -0.13453585945E+03  0.14507206183E+03  0.00000000000E+00 0. -1.
</event>
<event>
 8    1  0.6185113E-009  0.9666108E+02  0.7561462E-02  0.1287478E+00
          2   -1    0    0  501    0  0.00000000000E+00  0.00000000000E+00  0.24154824233E+03  0.24154824233E+03  0.00000000000E+00 0.  1.
         -2   -1    0    0    0  501 -0.00000000000E+00 -0.00000000000E+00 -0.52939859685E+02  0.52939859685E+02  0.00000000000E+00 0. -1.
         25    2    1    2    0    0 -0.61665052182E+01 -0.25627220808E+02  0.85007638166E+02  0.15352037866E+03  0.12508967937E+03 0.  0.
         23    2    1    2    0    0  0.61665052182E+01  0.25627220808E+02  0.10360074448E+03  0.14096772335E+03  0.91891264749E+02 0.  0.
          5    1    3    3  502    0  0.25503345035E+02 -0.59136974068E+02  0.99025855007E+01  0.65292694152E+02  0.41800000000E+01 0. -1.
         -5    1    3    3    0  502 -0.31669850253E+02  0.33509753260E+02  0.75105052665E+02  0.88227684513E+02  0.41800000000E+01 0. -1.
        -11    1    4    4    0    0  0.40106476042E+02  0.24533002875E+00  0.86350710080E+02  0.95210475992E+02  0.00000000000E+00 0.  1.
         11    1    4    4    0    0 -0.33939970823E+02  0.25381890779E+02  0.17250034398E+02  0.45757247358E+02  0.00000000000E+00 0. -1.
</event>
<event>
 8    1  0.6185113E-009  0.6537776E+02  0.7561462E-02  0.1376556E+00
          2   -1    0    0  501    0  0.00000000000E+00  0.00000000000E+00  0.30950227288E+03  0.30950227288E+03  0.00000000000E+00 0. -1.
         -2   -1    0    0    0  501 -0.00000000000E+00 -0.00000000000E+00 -0.40374625799E+02  0.40374625799E+02  0.00000000000E+00 0.  1.
         25    2    1    2    0    0  0.15706697977E+02 -0.25386565719E+02  0.16691165479E+03  0.21070900032E+03  0.12509038425E+03 0.  0.
         23    2    1    2    0    0 -0.15706697977E+02  0.25386565719E+02  0.10221599230E+03  0.13916789836E+03  0.89601432873E+02 0.  0.
          5    1    3    3  502    0 -0.52758275700E+01 -0.27739575950E+02  0.18212698367E+03  0.18435028888E+03  0.41800000000E+01 0. -1.
         -5    1    3    3    0  502  0.20982525547E+02  0.23530102310E+01 -0.15215328884E+02  0.26358711435E+02  0.41800000000E+01 0. -1.
        -11    1    4    4    0    0  0.23213749655E+02 -0.12505277785E+02  0.72728691738E+02  0.77360989830E+02  0.00000000000E+00 0. -1.
         11    1    4    4    0    0 -0.38920447633E+02  0.37891843503E+02  0.29487300557E+02  0.61806908531E+02  0.00000000000E+00 0.  1.
</event>
<event>
 8    1  0.6185113E-009  0.2326455E+03  0.7561462E-02  0.1124791E+00
          2   -1    0    0  501    0  0.00000000000E+00  0.00000000000E+00  0.68093222884E+03  0.68093222884E+03  0.00000000000E+00 0. -1.
         -2   -1    0    0    0  501 -0.00000000000E+00 -0.00000000000E+00 -0.11420559815E+03  0.11420559815E+03  0.00000000000E+00 0.  1.
         25    2    1    2    0    0  0.21631819997E+03 -0.37727949576E+02  0.47745721939E+03  0.54021259178E+03  0.12508911287E+03 0.  0.
         23    2    1    2    0    0 -0.21631819997E+03  0.37727949576E+02  0.89269411295E+02  0.25492523521E+03  0.93813037128E+02 0.  0.
          5    1    3    3  502    0  0.19997384004E+03  0.28539767470E+01  0.43643013598E+03  0.48009001018E+03  0.41800000000E+01 0.  1.
         -5    1    3    3    0  502  0.16344359932E+02 -0.40581926323E+02  0.41027083408E+02  0.60122581603E+02  0.41800000000E+01 0.  1.
        -11    1    4    4    0    0 -0.13766729477E+03  0.10473811024E+02  0.75414006939E+01  0.13827095678E+03  0.00000000000E+00 0.  1.
         11    1    4    4    0    0 -0.78650905203E+02  0.27254138552E+02  0.81728010601E+02  0.11665427842E+03  0.00000000000E+00 0. -1.
</event>
<event>
 8    1  0.6185113E-009  0.1271525E+03  0.7561462E-02  0.1231743E+00
         -1   -1    0    0    0  501 -0.00000000000E+00  0.00000000000E+00  0.54937947599E+02  0.54937947599E+02  0.00000000000E+00 0.  1.
          1   -1    0    0  501    0  0.00000000000E+00 -0.00000000000E+00 -0.36652088293E+03  0.36652088293E+03  0.00000000000E+00 0. -1.
         25    2    1    2    0    0 -0.48740137830E+02  0.55504870456E+02 -0.94207874282E+02  0.17314406609E+03  0.12508937751E+03 0.  0.
         23    2    1    2    0    0  0.48740137830E+02 -0.55504870456E+02 -0.21737506105E+03  0.24831476444E+03  0.94614551699E+02 0.  0.
          5    1    3    3  502    0  0.27644949007E+01  0.79527560759E+02 -0.25043007229E+02  0.83527839452E+02  0.41800000000E+01 0. -1.
         -5    1    3    3    0  502 -0.51504632730E+02 -0.24022690303E+02 -0.69164867053E+02  0.89616226636E+02  0.41800000000E+01 0. -1.
        -11    1    4    4    0    0  0.11918058985E+02 -0.75020049764E+02 -0.16278656638E+03  0.17963717374E+03  0.00000000000E+00 0.  1.
         11    1    4    4    0    0  0.36822078845E+02  0.19515179308E+02 -0.54588494671E+02  0.68677590700E+02  0.00000000000E+00 0. -1.
</event>
<event>
 8    1  0.6185113E-009  0.9589443E+02  0.7561462E-02  0.1289174E+00
          2   -1    0    0  501    0  0.00000000000E+00  0.00000000000E+00  0.53087845462E+02  0.53087845462E+02  0.00000000000E+00 0. -1.
         -2   -1    0    0    0  501 -0.00000000000E+00 -0.00000000000E+00 -0.23921309600E+03  0.23921309600E+03  0.00000000000E+00 0.  1.
         25    2    1    2    0    0 -0.32215869387E+02 -0.27512248497E+02 -0.10515052550E+03  0.16881608837E+03  0.12508977825E+03 0.  0.
         23    2    1    2    0    0  0.32215869387E+02  0.27512248497E+02 -0.80974725036E+02  0.12348485309E+03  0.83047075746E+02 0.  0.
          5    1    3    3  502    0 -0.14412444836E+02  0.44100335168E+02 -0.88418590064E+01  0.47415282334E+02  0.41800000000E+01 0.  1.
         -5    1    3    3    0  502 -0.17803424551E+02 -0.71612583665E+02 -0.96308666492E+02  0.12140080604E+03  0.41800000000E+01 0.  1.
        -11    1    4    4    0    0 -0.83011740447E+01  0.29582012898E+02 -0.76779276913E+02  0.82698623573E+02  0.00000000000E+00 0.  1.
         11    1    4    4    0    0  0.40517043432E+02 -0.20697644010E+01 -0.41954481234E+01  0.40786229516E+02  0.00000000000E+00 0. -1.
</event>
<event>
 8    1  0.6185113E-009  0.8092515E+02  0.7561462E-02  0.1326446E+00
         -4   -1    0    0    0  501 -0.00000000000E+00  0.00000000000E+00  0.42536971350E+03  0.42536971350E+03  0.00000000000E+00 0.  1.
          4   -1    0    0  501    0  0.00000000000E+00 -0.00000000000E+00 -0.32825244009E+02  0.32825244009E+02  0.00000000000E+00 0. -1.
         25    2    1    2    0    0 -0.28111053437E+02 -0.23393037861E+02  0.16370838742E+03  0.20924799248E+03  0.12508725234E+03 0.  0.
         23    2    1    2    0    0  0.28111053437E+02  0.23393037861E+02  0.22883608207E+03  0.24894696503E+03  0.90945991643E+02 0.  0.
          5    1    3    3  502    0  0.23312133648E+02  0.25496629023E+02  0.47499690158E+01  0.35122190598E+02  0.41800000000E+01 0.  1.
         -5    1    3    3    0  502 -0.51423187085E+02 -0.48889666885E+02  0.15895841841E+03  0.17412580188E+03  0.41800000000E+01 0.  1.
        -11    1    4    4    0    0 -0.11335741841E+02  0.40339229538E+01 -0.34693232254E+01  0.12522291368E+02  0.00000000000E+00 0. -1.
         11    1    4    4    0    0  0.39446795278E+02  0.19359114908E+02  0.23230540529E+03  0.23642467366E+03  0.00000000000E+00 0.  1.
</event>
<event>
 8    1  0.6185113E-009  0.1530703E+03  0.7561462E-02  0.1196750E+00
          3   -1    0    0  501    0  0.00000000000E+00  0.00000000000E+00  0.27576699861E+03  0.27576699861E+03  0.00000000000E+00 0. -1.
         -3   -1    0    0    0  501 -0.00000000000E+00 -0.00000000000E+00 -0.11153645816E+03  0.11153645816E+03  0.00000000000E+00 0.  1.
         25    2    1    2    0    0  0.11127050346E+03 -0.75001277755E+02  0.54655524181E+02  0.19141962629E+03  0.12509168797E+03 0.  0.
         23    2    1    2    0    0 -0.11127050346E+03  0.75001277755E+02  0.10957501627E+03  0.19588383048E+03  0.91419222530E+02 0.  0.
          5    1    3    3  502    0  0.44198379586E+02 -0.61004402517E+02 -0.31071505706E+02  0.81596230007E+02  0.41800000000E+01 0.  1.
         -5    1    3    3    0  502  0.67072123877E+02 -0.13996875239E+02  0.85727029887E+02  0.10982339628E+03  0.41800000000E+01 0.  1.
        -11    1    4    4    0    0  0.16058902925E+02  0.11573181143E+02  0.17595550754E+02  0.26484529281E+02  0.00000000000E+00 0.  1.
         11    1    4    4    0    0 -0.12732940639E+03  0.63428096612E+02  0.91979465520E+02  0.16939930120E+03  0.00000000000E+00 0. -1.
</event>
<event>
 8    1  0.6185113E-009  0.1043385E+03  0.7561462E-02  0.1271428E+00
          2   -1    0    0  501    0  0.00000000000E+00  0.00000000000E+00  0.11843190692E+04  0.11843190692E+04  0.00000000000E+00 0. -1.
         -2   -1    0    0    0  501 -0.00000000000E+00 -0.00000000000E+00 -0.12676505855E+02  0.12676505855E+02  0.00000000000E+00 0.  1.
         25    2    1    2    0    0  0.10582466835E+02 -0.31416242517E+02  0.91359730432E+03  0.92271512036E+03  0.12507673633E+03 0.  0.
         23    2    1    2    0    0 -0.10582466835E+02  0.31416242517E+02  0.25804525902E+03  0.27428045469E+03  0.86852997801E+02 0.  0.
          5    1    3    3  502    0  0.49931391255E+02 -0.55714536909E+02  0.39510051848E+03  0.40214319037E+03  0.41800000000E+01 0. -1.
         -5    1    3    3    0  502 -0.39348924420E+02  0.24298294391E+02  0.51849678584E+03  0.52057192999E+03  0.41800000000E+01 0. -1.
        -11    1    4    4    0    0 -0.32564480714E+02  0.49223792820E+02  0.21352863007E+03  0.22153533136E+03  0.00000000000E+00 0.  1.
         11    1    4    4    0    0  0.21982013880E+02 -0.17807550303E+02  0.44516628949E+02  0.52745123329E+02  0.00000000000E+00 0. -1.
</event>
<event>
 8    1  0.6185113E-009  0.1324362E+03  0.7561462E-02  0.1223885E+00
         -2   -1    0    0    0  501 -0.00000000000E+00  0.00000000000E+00  0.21671527863E+03  0.21671527863E+03  0.00000000000E+00 0.  1.
          2   -1    0    0  501    0  0.00000000000E+00 -0.00000000000E+00 -0.11300331947E+03  0.11300331947E+03  0.00000000000E+00 0. -1.
         25    2    1    2    0    0 -0.10760270135E+03  0.10978835980E+02  0.23726789521E+02  0.16706502935E+03  0.12509551277E+03 0.  0.
         23    2    1    2    0    0  0.10760270135E+03 -0.10978835980E+02  0.79985169642E+02  0.16265356875E+03  0.91431285052E+02 0.  0.
          5    1    3    3  502    0 -0.56470096905E+02  0.47880077695E+02 -0.33903847074E+02  0.81537211940E+02  0.41800000000E+01 0.  1.
         -5    1    3    3    0  502 -0.51132604444E+02 -0.36901241715E+02  0.57630636595E+02  0.85527817414E+02  0.41800000000E+01 0.  1.
        -11    1    4    4    0    0  0.90662860155E+02 -0.35797125660E+02  0.88250726033E+02  0.13148908343E+03  0.00000000000E+00 0.  1.
         11    1    4    4    0    0  0.16939841195E+02  0.24818289680E+02 -0.82655563909E+01  0.31164485313E+02  0.00000000000E+00 0. -1.
</event>
<event>
 8    1  0.6185113E-009  0.8390610E+02  0.7561462E-02  0.1318318E+00
         -1   -1    0    0    0  501 -0.00000000000E+00  0.00000000000E+00  0.37001495965E+03  0.37001495965E+03  0.00000000000E+00 0.  1.
          1   -1    0    0  501    0  0.00000000000E+00 -0.00000000000E+00 -0.36382577390E+02  0.36382577390E+02  0.00000000000E+00 0. -1.
         25    2    1    2    0    0  0.20549766620E+02 -0.11756994057E+02  0.24910354401E+03  0.27975319306E+03  0.12509497820E+03 0.  0.
         23    2    1    2    0    0 -0.20549766620E+02  0.11756994057E+02  0.84528838252E+02  0.12664434398E+03  0.91286064375E+02 0.  0.
          5    1    3    3  502    0 -0.40886152305E+02 -0.26651617073E+02  0.17755035133E+03  0.18418356550E+03  0.41800000000E+01 0. -1.
         -5    1    3    3    0  502  0.61435918925E+02  0.14894623015E+02  0.71553192674E+02  0.95569627554E+02  0.41800000000E+01 0. -1.
        -11    1    4    4    0    0  0.16452203257E+02  0.79637788847E+01 -0.12889866219E+02  0.22366166798E+02  0.00000000000E+00 0. -1.
         11    1    4    4    0    0 -0.37001969877E+02  0.37932151727E+01  0.97418704470E+02  0.10427817718E+03  0.00000000000E+00 0.  1.
</event>
<event>
 8    1  0.6185113E-009  0.1459412E+03  0.7561462E-02  0.1205551E+00
         -1   -1    0    0    0  501 -0.00000000000E+00  0.00000000000E+00  0.99594146450E+03  0.99594146450E+03  0.00000000000E+00 0.  1.
          1   -1    0    0  501    0  0.00000000000E+00 -0.00000000000E+00 -0.24858863352E+02  0.24858863352E+02  0.00000000000E+00 0. -1.
         25    2    1    2    0    0 -0.10347389634E+03 -0.19095441555E+02  0.65558464992E+03  0.67565553547E+03  0.12509071223E+03 0.  0.
         23    2    1    2    0    0  0.10347389634E+03  0.19095441555E+02  0.31549795123E+03  0.34514479239E+03  0.92273979915E+02 0.  0.
          5    1    3    3  502    0 -0.93813492998E+02 -0.61028507495E+02  0.55476704518E+03  0.56595882978E+03  0.41800000000E+01 0. -1.
         -5    1    3    3    0  502 -0.96604033390E+01  0.41933065941E+02  0.10081760474E+03  0.10969670568E+03  0.41800000000E+01 0. -1.
        -11    1    4    4    0    0  0.17033805090E+02 -0.31992566649E+02  0.54036154209E+02  0.65065972661E+02  0.00000000000E+00 0.  1.
         11    1    4    4    0    0  0.86440091247E+02  0.51088008204E+02  0.26146179702E+03  0.28007881973E+03  0.00000000000E+00 0. -1.
</event>
<event>
 8    1  0.6185113E-009  0.1268942E+03  0.7561462E-02  0.1232138E+00
         -2   -1    0    0    0  501 -0.00000000000E+00  0.00000000000E+00  0.11268496733E+03  0.11268496733E+03  0.00000000000E+00 0.  1.
          2   -1    0    0  501    0  0.00000000000E+00 -0.00000000000E+00 -0.22301215272E+03  0.22301215272E+03  0.00000000000E+00 0. -1.
         25    2    1    2    0    0 -0.10551668289E+03 -0.24302748408E+02 -0.10035710611E+03  0.19348627513E+03  0.12506396750E+03 0.  0.
         23    2    1    2    0    0  0.10551668289E+03  0.24302748408E+02 -0.99700792714E+01  0.14221084492E+03  0.91652212107E+02 0.  0.
          5    1    3    3  502    0 -0.19820522327E+02  0.56896085292E+01 -0.10041643132E+03  0.10259706053E+03  0.41800000000E+01 0.  1.
         -5    1    3    3    0  502 -0.85696160566E+02 -0.29992356937E+02  0.59325207833E-01  0.90889214596E+02  0.41800000000E+01 0.  1.
        -11    1    4    4    0    0  0.10657307786E+03  0.48887677498E+02 -0.79415483088E+01  0.11751976057E+03  0.00000000000E+00 0.  1.
         11    1    4    4    0    0 -0.10563949626E+01 -0.24584929090E+02 -0.20285309625E+01  0.24691084353E+02  0.00000000000E+00 0. -1.
</event>
<event>
 8    1  0.6185113E-009  0.4367495E+03  0.7561462E-02  0.1031749E+00
         -3   -1    0    0    0  501 -0.00000000000E+00  0.00000000000E+00  0.55567665683E+02  0.55567665683E+02  0.00000000000E+00 0.  1.
          3   -1    0    0  501    0  0.00000000000E+00 -0.00000000000E+00 -0.35557007086E+04  0.35557007086E+04  0.00000000000E+00 0. -1.
         25    2    1    2    0    0 -0.92615631813E+02 -0.41494704443E+03 -0.14692617031E+04  0.15346452920E+04  0.12509002804E+03 0.  0.
         23    2    1    2    0    0  0.92615631813E+02  0.41494704443E+03 -0.20308713398E+04  0.20766230823E+04  0.84654131874E+02 0.  0.
          5    1    3    3  502    0 -0.64285719512E+01  0.82540007230E+01 -0.36490075480E+02  0.38189698530E+02  0.41800000000E+01 0.  1.
         -5    1    3    3    0  502 -0.86187059862E+02 -0.42320104516E+03 -0.14327716276E+04  0.14964555934E+04  0.41800000000E+01 0.  1.
        -11    1    4    4    0    0  0.28724398907E+02  0.36129022731E+02 -0.15089853389E+03  0.15779976206E+03  0.00000000000E+00 0. -1.
         11    1    4    4    0    0  0.63891232906E+02  0.37881802170E+03 -0.18799728059E+04  0.19188233202E+04  0.00000000000E+00 0.  1.
</event>
<event>
 8    1  0.6185113E-009  0.1349351E+03  0.7561462E-02  0.1220311E+00
          1   -1    0    0  501    0  0.00000000000E+00  0.00000000000E+00  0.37463973602E+03  0.37463973602E+03  0.00000000000E+00 0. -1.
         -1   -1    0    0    0  501 -0.00000000000E+00 -0.00000000000E+00 -0.55918641950E+02  0.55918641950E+02  0.00000000000E+00 0.  1.
         25    2    1    2    0    0  0.64049564765E+02  0.48535899472E+02  0.12292099628E+03  0.19291582010E+03  0.12509541172E+03 0.  0.
         23    2    1    2    0    0 -0.64049564765E+02 -0.48535899472E+02  0.19580009779E+03  0.23764255787E+03  0.10806584443E+03 0.  0.
          5    1    3    3  502    0 -0.85783542459E+01  0.66237953088E+02  0.87311031837E+02  0.11000792368E+03  0.41800000000E+01 0.  1.
         -5    1    3    3    0  502  0.72627919011E+02 -0.17702053616E+02  0.35609964443E+02  0.82907896425E+02  0.41800000000E+01 0.  1.
        -11    1    4    4    0    0  0.25216902790E+02  0.23497248461E+01  0.14323051780E+02  0.29095759235E+02  0.00000000000E+00 0. -1.
         11    1    4    4    0    0 -0.89266467555E+02 -0.50885624318E+02  0.18147704601E+03  0.20854679863E+03  0.00000000000E+00 0.  1.
</event>
<event>
 8    1  0.6185113E-009  0.1235202E+03  0.7561462E-02  0.1237400E+00
          1   -1    0    0  501    0  0.00000000000E+00  0.00000000000E+00  0.47926120766E+02  0.47926120766E+02  0.00000000000E+00 0. -1.
         -1   -1    0    0    0  501 -0.00000000000E+00 -0.00000000000E+00 -0.36177261756E+03  0.36177261756E+03  0.00000000000E+00 0.  1.
         25    2    1    2    0    0  0.18994773617E+01  0.68862900315E+02 -0.21859240838E+03  0.26110544703E+03  0.12509079268E+03 0.  0.
         23    2    1    2    0    0 -0.18994773617E+01 -0.68862900315E+02 -0.95254088417E+02  0.14859329130E+03  0.90889591288E+02 0.  0.
          5    1    3    3  502    0  0.55602918088E+02  0.52807534748E+02 -0.76938633331E+02  0.10870761668E+03  0.41800000000E+01 0.  1.
         -5    1    3    3    0  502 -0.53703440726E+02  0.16055365566E+02 -0.14165377505E+03  0.15239783034E+03  0.41800000000E+01 0.  1.
        -11    1    4    4    0    0  0.50944435762E+00  0.22567575131E+02 -0.19685805134E+02  0.29951392365E+02  0.00000000000E+00 0. -1.
         11    1    4    4    0    0 -0.24089217193E+01 -0.91430475445E+02 -0.75568283283E+02  0.11864189893E+03  0.00000000000E+00 0.  1.
</event>
<event>
 8    1  0.6185113E-009  0.1145088E+03  0.7561462E-02  0.1252441E+00
          4   -1    0    0  501    0  0.00000000000E+00  0.00000000000E+00  0.15014594161E+03  0.15014594161E+03  0.00000000000E+00 0. -1.
         -4   -1    0    0    0  501 -0.00000000000E+00 -0.00000000000E+00 -0.15717693812E+03  0.15717693812E+03  0.00000000000E+00 0.  1.
         25    2    1    2    0    0  0.33380464613E+01  0.10801434269E+03 -0.58229254813E+01  0.16540753867E+03  0.12508999404E+03 0.  0.
         23    2    1    2    0    0 -0.33380464613E+01 -0.10801434269E+03 -0.12080710259E+01  0.14191534106E+03  0.91979692395E+02 0.  0.
          5    1    3    3  502    0  0.21372393830E+02  0.50594130129E+02  0.56332723248E+02  0.78787012446E+02  0.41800000000E+01 0. -1.
         -5    1    3    3    0  502 -0.18034347369E+02  0.57420212557E+02 -0.62155648730E+02  0.86620526229E+02  0.41800000000E+01 0. -1.
        -11    1    4    4    0    0 -0.12514515477E+02 -0.10169723837E+03  0.31632978888E+02  0.10723612611E+03  0.00000000000E+00 0. -1.
         11    1    4    4    0    0  0.91764690157E+01 -0.63171043203E+01 -0.32841049914E+02  0.34679214957E+02  0.00000000000E+00 0.  1.
</event>
<event>
 8    1  0.6185113E-009  0.1249170E+03  0.7561462E-02  0.1235199E+00
         -3   -1    0    0    0  501 -0.00000000000E+00  0.00000000000E+00  0.42419420915E+03  0.42419420915E+03  0.00000000000E+00 0.  1.
          3   -1    0    0  501    0  0.00000000000E+00 -0.00000000000E+00 -0.60237891136E+02  0.60237891136E+02  0.00000000000E+00 0. -1.
         25    2    1    2    0    0 -0.34551615301E+02 -0.81161565719E+02  0.78109209531E+02  0.17184060575E+03  0.12508849388E+03 0.  0.
         23    2    1    2    0    0  0.34551615301E+02  0.81161565719E+02  0.28584710849E+03  0.31259149454E+03  0.90685495854E+02 0.  0.
          5    1    3    3  502    0 -0.27208191051E+01 -0.10643907007E+03  0.76081020363E+02  0.13092926546E+03  0.41800000000E+01 0.  1.
         -5    1    3    3    0  502 -0.31830796196E+02  0.25277504355E+02  0.20281891678E+01  0.40911340288E+02  0.41800000000E+01 0.  1.
        -11    1    4    4    0    0  0.12656544625E+02  0.79453716298E+02  0.27777725669E+03  0.28919420030E+03  0.00000000000E+00 0.  1.
         11    1    4    4    0    0  0.21895070676E+02  0.17078494207E+01  0.80698517990E+01  0.23397294237E+02  0.00000000000E+00 0. -1.
</event>
<event>
 8    1  0.6185113E-009  0.1631582E+03  0.7561462E-02  0.1185177E+00
         -2   -1    0    0    0  501 -0.00000000000E+00  0.00000000000E+00  0.55697707879E+03  0.55697707879E+03  0.00000000000E+00 0.  1.
          2   -1    0    0  501    0  0.00000000000E+00 -0.00000000000E+00 -0.75308051909E+02  0.75308051909E+02  0.00000000000E+00 0. -1.
         25    2    1    2    0    0 -0.19852675275E+02  0.12895709734E+03  0.43109502821E+03  0.46745596895E+03  0.12509235745E+03 0.  0.
         23    2    1    2    0    0  0.19852675275E+02 -0.12895709734E+03  0.50573998676E+02  0.16482916175E+03  0.87102592098E+02 0.  0.
          5    1    3    3  502    0  0.47142277078E+02  0.34822223067E+02  0.91710645929E+02  0.10891876094E+03  0.41800000000E+01 0.  1.
         -5    1    3    3    0  502 -0.66994952353E+02  0.94134874278E+02  0.33938438228E+03  0.35853720802E+03  0.41800000000E+01 0.  1.
        -11    1    4    4    0    0  0.33736982311E+02 -0.14625405790E+02 -0.47189324534E+01  0.37072291452E+02  0.00000000000E+00 0. -1.
         11    1    4    4    0    0 -0.13884307036E+02 -0.11433169156E+03  0.55292931129E+02  0.12775687030E+03  0.00000000000E+00 0.  1.
</event>
<event>
 8    1  0.6185113E-009  0.9132123E+02  0.7561462E-02  0.1299683E+00
         -2   -1    0    0    0  501 -0.00000000000E+00  0.00000000000E+00  0.15462612093E+03  0.15462612093E+03  0.00000000000E+00 0.  1.
          2   -1    0    0  501    0  0.00000000000E+00 -0.00000000000E+00 -0.98877191582E+02  0.98877191582E+02  0.00000000000E+00 0. -1.
         25    2    1    2    0    0 -0.50347918116E+02  0.13821968204E+02  0.74242515508E+01  0.13575447593E+03  0.12509275983E+03 0.  0.
         23    2    1    2    0    0  0.50347918116E+02 -0.13821968204E+02  0.48324677796E+02  0.11774883658E+03  0.93827258128E+02 0.  0.
          5    1    3    3  502    0 -0.32553983720E+02  0.35836621813E+02  0.59204517259E+02  0.76594207241E+02  0.41800000000E+01 0.  1.
         -5    1    3    3    0  502 -0.17793934397E+02 -0.22014653609E+02 -0.51780265708E+02  0.59160268691E+02  0.41800000000E+01 0.  1.
        -11    1    4    4    0    0  0.31335405602E+02 -0.53179195517E+02  0.39131642619E+02  0.73083650252E+02  0.00000000000E+00 0.  1.
         11    1    4    4    0    0  0.19012512514E+02  0.39357227313E+02  0.91930351777E+01  0.44665186327E+02  0.00000000000E+00 0. -1.
</event>
<event>
 8    1  0.6185113E-009  0.1176517E+03  0.7561462E-02  0.1247022E+00
         -2   -1    0    0    0  501 -0.00000000000E+00  0.00000000000E+00  0.19897543274E+03  0.19897543274E+03  0.00000000000E+00 0. -1.
          2   -1    0    0  501    0  0.00000000000E+00 -0.00000000000E+00 -0.95494800203E+02  0.95494800203E+02  0.00000000000E+00 0.  1.
         25    2    1    2    0    0  0.65845061601E+02 -0.50487173500E+02  0.81477598248E+02  0.17079412168E+03  0.12508999224E+03 0.  0.
         23    2    1    2    0    0 -0.65845061601E+02  0.50487173500E+02  0.22003034285E+02  0.12367611126E+03  0.89034376241E+02 0.  0.
          5    1    3    3  502    0  0.11683897275E+02  0.33401550010E+02  0.58098605363E+02  0.68154950984E+02  0.41800000000E+01 0. -1.
         -5    1    3    3    0  502  0.54161164327E+02 -0.83888723510E+02  0.23378992885E+02  0.10263917070E+03  0.41800000000E+01 0. -1.
        -11    1    4    4    0    0  0.41413071245E+00  0.30526900903E+02 -0.25468453324E+02  0.39758084684E+02  0.00000000000E+00 0.  1.
         11    1    4    4    0    0 -0.66259192314E+02  0.19960272597E+02  0.47471487609E+02  0.83918026574E+02  0.00000000000E+00 0. -1.
</event>
<event>
 8    1  0.6185113E-009  0.1009510E+03  0.7561462E-02  0.1278309E+00
          1   -1    0    0  501    0  0.00000000000E+00  0.00000000000E+00  0.60499509093E+02  0.60499509093E+02  0.00000000000E+00 0. -1.
         -1   -1    0    0    0  501 -0.00000000000E+00 -0.00000000000E+00 -0.35827712651E+03  0.35827712651E+03  0.00000000000E+00 0.  1.
         25    2    1    2    0    0 -0.51828719069E+02  0.11781928657E+02 -0.27968689597E+03  0.31096108563E+03  0.12508799715E+03 0.  0.
         23    2    1    2    0    0  0.51828719069E+02 -0.11781928657E+02 -0.18090721441E+02  0.10781554998E+03  0.92042863119E+02 0.  0.
          5    1    3    3  502    0  0.98696847768E+01  0.54710801571E+02 -0.79605290751E+02  0.97186198617E+02  0.41800000000E+01 0.  1.
         -5    1    3    3    0  502 -0.61698403846E+02 -0.42928872915E+02 -0.20008160522E+03  0.21377488701E+03  0.41800000000E+01 0.  1.
        -11    1    4    4    0    0  0.46564946709E+02  0.10702466083E+02 -0.49521979884E+02  0.68813251151E+02  0.00000000000E+00 0.  1.
         11    1    4    4    0    0  0.52637723595E+01 -0.22484394740E+02  0.31431258443E+02  0.39002298824E+02  0.00000000000E+00 0. -1.
</event>
<event>
 8    1  0.6185113E-009  0.7456092E+02  0.7561462E-02  0.1345236E+00
         -3   -1    0    0    0  501 -0.00000000000E+00  0.00000000000E+00  0.75616809125E+02  0.75616809125E+02  0.00000000000E+00 0.  1.
          3   -1    0    0  501    0  0.00000000000E+00 -0.00000000000E+00 -0.20786466229E+03  0.20786466229E+03  0.00000000000E+00 0. -1.
         25    2    1    2    0    0 -0.24897360677E+02  0.10686183885E+02 -0.13791610551E+03  0.18815581191E+03  0.12509070430E+03 0.  0.
         23    2    1    2    0    0  0.24897360677E+02 -0.10686183885E+02  0.56682523462E+01  0.95325659504E+02  0.91218305074E+02 0.  0.
          5    1    3    3  502    0 -0.19666744029E+01  0.30864036184E+02 -0.15134486078E+03  0.15452894817E+03  0.41800000000E+01 0. -1.
         -5    1    3    3    0  502 -0.22930686274E+02 -0.20177852298E+02  0.13428755276E+02  0.33626863734E+02  0.41800000000E+01 0. -1.
        -11    1    4    4    0    0  0.24211081695E+02 -0.45884288095E+02  0.22202653082E+02  0.56431393520E+02  0.00000000000E+00 0.  1.
         11    1    4    4    0    0  0.68627898205E+00  0.35198104209E+02 -0.16534400736E+02  0.38894265984E+02  0.00000000000E+00 0. -1.
</event>
<event>
 8    1  0.6185113E-009  0.9322871E+02  0.7561462E-02  0.1295216E+00
          2   -1    0    0  501    0  0.00000000000E+00  0.00000000000E+00  0.69472150126E+02  0.69472150126E+02  0.00000000000E+00 0. -1.
         -2   -1    0    0    0  501 -0.00000000000E+00 -0.00000000000E+00 -0.21785960784E+03  0.21785960784E+03  0.00000000000E+00 0.  1.
         25    2    1    2    0    0 -0.28467281179E+02 -0.36193880546E+02 -0.12659147595E+03  0.18382902963E+03  0.12508927718E+03 0.  0.
         23    2    1    2    0    0  0.28467281179E+02  0.36193880546E+02 -0.21795981761E+02  0.10350272833E+03  0.90096430917E+02 0.  0.
          5    1    3    3  502    0  0.35794134150E+02  0.20156264251E+02 -0.69893159348E+02  0.81178945249E+02  0.41800000000E+01 0. -1.
         -5    1    3    3    0  502 -0.64261415330E+02 -0.56350144797E+02 -0.56698316602E+02  0.10265008439E+03  0.41800000000E+01 0. -1.
        -11    1    4    4    0    0  0.35178957868E+02  0.16628615528E+02  0.29083782476E+02  0.48579175932E+02  0.00000000000E+00 0. -1.
         11    1    4    4    0    0 -0.67116766891E+01  0.19565265018E+02 -0.50879764237E+02  0.54923552398E+02  0.00000000000E+00 0.  1.
</event>
<event>
 8    1  0.6185113E-009  0.1618151E+03  0.7561462E-02  0.1186663E+00
          1   -1    0    0  501    0  0.00000000000E+00  0.00000000000E+00  0.14877913504E+04  0.14877913504E+04  0.00000000000E+00 0. -1.
         -1   -1    0    0    0  501 -0.00000000000E+00 -0.00000000000E+00 -0.23601637730E+02  0.23601637730E+02  0.00000000000E+00 0.  1.
         25    2    1    2    0    0  0.75766373316E+02 -0.13096216180E+03  0.84691133509E+03  0.86936513608E+03  0.12508117040E+03 0.  0.
         23    2    1    2    0    0 -0.75766373316E+02  0.13096216180E+03  0.61727837754E+03  0.64202785201E+03  0.90969974298E+02 0.  0.
          5    1    3    3  502    0  0.26312576364E+01 -0.28521185230E+02  0.26183498506E+02  0.39031135234E+02  0.41800000000E+01 0. -1.
         -5    1    3    3    0  502  0.73135115679E+02 -0.10244097657E+03  0.82072783658E+03  0.83033400085E+03  0.41800000000E+01 0. -1.
        -11    1    4    4    0    0  0.58080660686E+01  0.61011455211E+02  0.14042755704E+03  0.15321889594E+03  0.00000000000E+00 0.  1.
         11    1    4    4    0    0 -0.81574439384E+02  0.69950706588E+02  0.47685082051E+03  0.48880895607E+03  0.00000000000E+00 0. -1.
</event>
<event>
 8    1  0.6185113E-009  0.1058760E+03  0.7561462E-02  0.1268403E+00
          1   -1    0    0  501    0  0.00000000000E+00  0.00000000000E+00  0.10583780312E+04  0.10583780312E+04  0.00000000000E+00 0. -1.
         -1   -1    0    0    0  501 -0.00000000000E+00 -0.00000000000E+00 -0.18597463054E+02  0.18597463054E+02  0.00000000000E+00 0.  1.
         25    2    1    2    0    0 -0.27062849652E+02  0.28074098986E+02  0.89357531960E+03  0.90313050716E+03  0.12508920135E+03 0.  0.
         23    2    1    2    0    0  0.27062849652E+02 -0.28074098986E+02  0.14620524857E+03  0.17384498712E+03  0.85589438442E+02 0.  0.
          5    1    3    3  502    0  0.38473195732E+02 -0.23180840430E+02  0.40495859402E+03  0.40746346268E+03  0.41800000000E+01 0. -1.
         -5    1    3    3    0  502 -0.65536045384E+02  0.51254939416E+02  0.48861672558E+03  0.49566704447E+03  0.41800000000E+01 0. -1.
        -11    1    4    4    0    0 -0.20747368740E+02  0.92179171662E+01  0.10107343256E+02  0.24851191001E+02  0.00000000000E+00 0. -1.
         11    1    4    4    0    0  0.47810218392E+02 -0.37292016152E+02  0.13609790532E+03  0.14899379612E+03  0.00000000000E+00 0.  1.
</event>
<event>
 8    1  0.6185113E-009  0.1324883E+03  0.7561462E-02  0.1223810E+00
          2   -1    0    0  501    0  0.00000000000E+00  0.00000000000E+00  0.14579429330E+03  0.14579429330E+03  0.00000000000E+00 0. -1.
         -2   -1    0    0    0  501 -0.00000000000E+00 -0.00000000000E+00 -0.17754413069E+03  0.17754413069E+03  0.00000000000E+00 0.  1.
         25    2    1    2    0    0 -0.21673681617E+02 -0.11552458023E+03 -0.10730941927E+02  0.17198354060E+03  0.12508999964E+03 0.  0.
         23    2    1    2    0    0  0.21673681617E+02  0.11552458023E+03 -0.21018895466E+02  0.15135488339E+03  0.93009836296E+02 0.  0.
          5    1    3    3  502    0  0.26122409593E+02 -0.38418346060E+02 -0.54025865824E+02  0.71376580017E+02  0.41800000000E+01 0.  1.
         -5    1    3    3    0  502 -0.47796091210E+02 -0.77106234166E+02  0.43294923897E+02  0.10060696058E+03  0.41800000000E+01 0.  1.
        -11    1    4    4    0    0  0.37031084439E+02  0.66167642570E+02  0.27306887709E+02  0.80592333719E+02  0.00000000000E+00 0. -1.
         11    1    4    4    0    0 -0.15357402822E+02  0.49356937656E+02 -0.48325783175E+02  0.70762549669E+02  0.00000000000E+00 0.  1.
</event>
<event>
 8    1  0.6185113E-009  0.1103494E+03  0.7561462E-02  0.1259924E+00
          2   -1    0    0  501    0  0.00000000000E+00  0.00000000000E+00  0.48115278652E+03  0.48115278652E+03  0.00000000000E+00 0. -1.
         -2   -1    0    0    0  501 -0.00000000000E+00 -0.00000000000E+00 -0.40413260641E+02  0.40413260641E+02  0.00000000000E+00 0.  1.
         25    2    1    2    0    0  0.47466912648E+01  0.19535142450E+02  0.39162268149E+03  0.41159839772E+03  0.12506303800E+03 0.  0.
         23    2    1    2    0    0 -0.47466912648E+01 -0.19535142450E+02  0.49116844383E+02  0.10996764944E+03  0.96313377332E+02 0.  0.
          5    1    3    3  502    0  0.33178593513E+02  0.64866597642E+02  0.22238434746E+03  0.23405291058E+03  0.41800000000E+01 0. -1.
         -5    1    3    3    0  502 -0.28431902248E+02 -0.45331455192E+02  0.16923833404E+03  0.17754548714E+03  0.41800000000E+01 0. -1.
        -11    1    4    4    0    0  0.47346147416E+01 -0.56086291484E+02  0.44844089636E+02  0.71965832480E+02  0.00000000000E+00 0.  1.
         11    1    4    4    0    0 -0.94813060064E+01  0.36551149034E+02  0.42727547469E+01  0.38001816962E+02  0.00000000000E+00 0. -1.
</event>
<event>
 8    1  0.6185113E-009  0.9611713E+02  0.7561462E-02  0.1288680E+00
          1   -1    0    0  501    0  0.00000000000E+00  0.00000000000E+00  0.13124117602E+04  0.13124117602E+04  0.00000000000E+00 0. -1.
         -1   -1    0    0    0  501 -0.00000000000E+00 -0.00000000000E+00 -0.15159900526E+02  0.15159900526E+02  0.00000000000E+00 0.  1.
         25    2    1    2    0    0  0.11791224084E+02 -0.78883775404E+02  0.91384903917E+03  0.92581261551E+03  0.12508896694E+03 0.  0.
         23    2    1    2    0    0 -0.11791224084E+02  0.78883775404E+02  0.38340282046E+03  0.40175904518E+03  0.89726944985E+02 0.  0.
          5    1    3    3  502    0  0.24303603271E+01 -0.56057094606E+02  0.88819618136E+03  0.88997653536E+03  0.41800000000E+01 0.  1.
         -5    1    3    3    0  502  0.93608637572E+01 -0.22826680799E+02  0.25652857815E+02  0.35836080152E+02  0.41800000000E+01 0.  1.
        -11    1    4    4    0    0 -0.43483291264E+02  0.59846248526E+02  0.17330156326E+03  0.18842983285E+03  0.00000000000E+00 0.  1.
         11    1    4    4    0    0  0.31692067179E+02  0.19037526878E+02  0.21010125721E+03  0.21332921233E+03  0.00000000000E+00 0. -1.
</event>
<event>
 8    1  0.6185113E-009  0.1179404E+03  0.7561462E-02  0.1246534E+00
          1   -1    0    0  501    0  0.00000000000E+00  0.00000000000E+00  0.31293769514E+03  0.31293769514E+03  0.00000000000E+00 0. -1.
         -1   -1    0    0    0  501 -0.00000000000E+00 -0.00000000000E+00 -0.58062758688E+02  0.58062758688E+02  0.00000000000E+00 0.  1.
         25    2    1    2    0    0  0.19709540453E+02  0.59651652436E+02  0.21471714433E+03  0.25632702788E+03  0.12511317887E+03 0.  0.
         23    2    1    2    0    0 -0.19709540453E+02 -0.59651652436E+02  0.40157792123E+02  0.11467342596E+03  0.87123824118E+02 0.  0.
          5    1    3    3  502    0  0.64168501566E+01  0.95684829585E+02  0.11756650703E+03  0.15177654152E+03  0.41800000000E+01 0. -1.
         -5    1    3    3    0  502  0.13292690297E+02 -0.36033177149E+02  0.97150637300E+02  0.10455048636E+03  0.41800000000E+01 0. -1.
        -11    1    4    4    0    0  0.29203774605E+02 -0.37581467350E+02 -0.91161025673E-01  0.47594489699E+02  0.00000000000E+00 0.  1.
         11    1    4    4    0    0 -0.48913315058E+02 -0.22070185086E+02  0.40248953149E+02  0.67078936257E+02  0.00000000000E+00 0. -1.
</event>
<event>
 8    1  0.6185113E-009  0.1480014E+03  0.7561462E-02  0.1202951E+00
         -2   -1    0    0    0  501 -0.00000000000E+00  0.00000000000E+00  0.13237832527E+03  0.13237832527E+03  0.00000000000E+00 0. -1.
          2   -1    0    0  501    0  0.00000000000E+00 -0.00000000000E+00 -0.24671608908E+03  0.24671608908E+03  0.00000000000E+00 0.  1.
         25    2    1    2    0    0 -0.59880838186E+02 -0.12051004238E+03 -0.11417841874E+03  0.21631465229E+03  0.12508769881E+03 0.  0.
         23    2    1    2    0    0  0.59880838186E+02  0.12051004238E+03 -0.15934506677E+00  0.16277976206E+03  0.91590613326E+02 0.  0.
          5    1    3    3  502    0 -0.29407883039E+02 -0.17795175277E+02 -0.10281941237E+03  0.10849329845E+03  0.41800000000E+01 0.  1.
         -5    1    3    3    0  502 -0.30472955146E+02 -0.10271486710E+03 -0.11359006371E+02  0.10782135384E+03  0.41800000000E+01 0.  1.
        -11    1    4    4    0    0  0.14402308267E+02 -0.89383300253E+01  0.17594202343E+02  0.24431049571E+02  0.00000000000E+00 0.  1.
         11    1    4    4    0    0  0.45478529919E+02  0.12944837240E+03 -0.17753547410E+02  0.13834871249E+03  0.00000000000E+00 0. -1.
</event>
<event>
 8    1  0.6185113E-009  0.1384045E+03  0.7561462E-02  0.1215492E+00
          2   -1    0    0  501    0  0.00000000000E+00  0.00000000000E+00  0.12387211745E+04  0.12387211745E+04  0.00000000000E+00 0. -1.
         -2   -1    0    0    0  501 -0.00000000000E+00 -0.00000000000E+00 -0.23830586563E+02  0.23830586563E+02  0.00000000000E+00 0.  1.
         25    2    1    2    0    0 -0.11084990443E+03  0.10705895799E+02  0.91471092073E+03  0.92991708056E+03  0.12508953077E+03 0.  0.
         23    2    1    2    0    0  0.11084990443E+03 -0.10705895799E+02  0.30017966717E+03  0.33263468046E+03  0.90198007431E+02 0.  0.
          5    1    3    3  502    0 -0.91581021477E+02  0.56129953644E+02  0.45399074260E+03  0.46654337629E+03  0.41800000000E+01 0. -1.
         -5    1    3    3    0  502 -0.19268882953E+02 -0.45424057845E+02  0.46072017812E+03  0.46337370427E+03  0.41800000000E+01 0. -1.
        -11    1    4    4    0    0  0.65304714760E+01 -0.13974310835E+02  0.64634191471E+00  0.15438464265E+02  0.00000000000E+00 0.  1.
         11    1    4    4    0    0  0.10431943295E+03  0.32684150358E+01  0.29953332525E+03  0.31719621619E+03  0.00000000000E+00 0. -1.
</event>
<event>
 8    1  0.6185113E-009  0.1416678E+03  0.7561462E-02  0.1211102E+00
          2   -1    0    0  501    0  0.00000000000E+00  0.00000000000E+00  0.80125765658E+02  0.80125765658E+02  0.00000000000E+00 0. -1.
         -2   -1    0    0    0  501 -0.00000000000E+00 -0.00000000000E+00 -0.32367283849E+03  0.32367283849E+03  0.00000000000E+00 0.  1.
         25    2    1    2    0    0 -0.55108651384E+02  0.99080229539E+02 -0.17280783745E+03  0.24158467018E+03  0.12508696510E+03 0.  0.
         23    2    1    2    0    0  0.55108651384E+02 -0.99080229539E+02 -0.70739235387E+02  0.16221393397E+03  0.91953605744E+02 0.  0.
          5    1    3    3  502    0  0.40170230728E+02  0.36365983648E+02 -0.48787766242E+02  0.73033216678E+02  0.41800000000E+01 0.  1.
         -5    1    3    3    0  502 -0.95278882113E+02  0.62714245891E+02 -0.12402007121E+03  0.16855145350E+03  0.41800000000E+01 0.  1.
        -11    1    4    4    0    0  0.29519735296E+02 -0.70795912712E+02 -0.91008333977E+02  0.11902097665E+03  0.00000000000E+00 0.  1.
         11    1    4    4    0    0  0.25588916089E+02 -0.28284316827E+02  0.20269098591E+02  0.43192957327E+02  0.00000000000E+00 0. -1.
</event>
<event>
 8    1  0.6185113E-009  0.9338684E+02  0.7561462E-02  0.1294851E+00
          2   -1    0    0  501    0  0.00000000000E+00  0.00000000000E+00  0.20078206168E+02  0.20078206168E+02  0.00000000000E+00 0. -1.
         -2   -1    0    0    0  501 -0.00000000000E+00 -0.00000000000E+00 -0.68784545435E+03  0.68784545435E+03  0.00000000000E+00 0.  1.
         25    2    1    2    0    0  0.32197432742E+02 -0.26379262610E+02 -0.45511495186E+03  0.47382512498E+03  0.12509232384E+03 0.  0.
         23    2    1    2    0    0 -0.32197432742E+02  0.26379262610E+02 -0.21265229632E+03  0.23409853554E+03  0.88592240294E+02 0.  0.
          5    1    3    3  502    0 -0.38346223550E+01 -0.63861016051E+02 -0.35695999123E+03  0.36267180954E+03  0.41800000000E+01 0. -1.
         -5    1    3    3    0  502  0.36032055098E+02  0.37481753440E+02 -0.98154960632E+02  0.11115331543E+03  0.41800000000E+01 0. -1.
        -11    1    4    4    0    0  0.90438663087E+00  0.36014322268E+02 -0.18872647174E+03  0.19213414704E+03  0.00000000000E+00 0.  1.
         11    1    4    4    0    0 -0.33101819373E+02 -0.96350596574E+01 -0.23925824587E+02  0.41964388505E+02  0.00000000000E+00 0. -1.
</event>
<event>
 7    1  0.6185113E-009  0.9965433E+02  0.7561462E-02  0.1281025E+00
         -3   -1    0    0    0  501 -0.00000000000E+00  0.00000000000E+00  0.30554338994E+03  0.30554338994E+03  0.00000000000E+00 0.  1.
          3   -1    0    0  501    0  0.00000000000E+00 -0.00000000000E+00 -0.89526501023E+02  0.89526501023E+02  0.00000000000E+00 0. -1.
         25    2    1    2    0    0  0.86127093909E+02  0.21053191645E+02 -0.51924059447E+01  0.15340255450E+03  0.12507705411E+03 0.  0.
          5    1    3    3  502    0  0.90603547031E+02  0.25745787936E+02 -0.50833560167E+02  0.10711382530E+03  0.41800000000E+01 0.  1.
         -5    1    3    3    0  502 -0.44764531222E+01 -0.46925962912E+01  0.45641154222E+02  0.46288729203E+02  0.41800000000E+01 0.  1.
        -11    1    1    2    0    0 -0.32827563826E+01 -0.13758739510E+02  0.31638218782E+02  0.34656259031E+02  0.00000000000E+00 0.  1.
         11    1    1    2    0    0 -0.82844337527E+02 -0.72944521350E+01  0.18957107608E+03  0.20701107743E+03  0.00000000000E+00 0. -1.
</event>
<event>
 8    1  0.6185113E-009  0.1494211E+03  0.7561462E-02  0.1201186E+00
         -2   -1    0    0    0  501 -0.00000000000E+00  0.00000000000E+00  0.96398320690E+03  0.96398320690E+03  0.00000000000E+00 0.  1.
          2   -1    0    0  501    0  0.00000000000E+00 -0.00000000000E+00 -0.25722676650E+02  0.25722676650E+02  0.00000000000E+00 0. -1.
         25    2    1    2    0    0 -0.90777350150E+02 -0.59774494262E+02  0.39818939376E+03  0.43129617653E+03  0.12509229040E+03 0.  0.
         23    2    1    2    0    0  0.90777350150E+02  0.59774494262E+02  0.54007113648E+03  0.55840970702E+03  0.91274591027E+02 0.  0.
          5    1    3    3  502    0  0.24123173275E+02 -0.40497567368E+02  0.87909034600E+02  0.99837123435E+02  0.41800000000E+01 0. -1.
         -5    1    3    3    0  502 -0.11490052343E+03 -0.19276926895E+02  0.31028035916E+03  0.33145905309E+03  0.41800000000E+01 0. -1.
        -11    1    4    4    0    0  0.99714623524E+02  0.30417638595E+02  0.47712789905E+03  0.48838434755E+03  0.00000000000E+00 0.  1.
         11    1    4    4    0    0 -0.89372733734E+01  0.29356855668E+02  0.62943237437E+02  0.70025359472E+02  0.00000000000E+00 0. -1.
</event>
<event>
 8    1  0.6185113E-009  0.8462629E+02  0.7561462E-02  0.1316413E+00
         -1   -1    0    0    0  501 -0.00000000000E+00  0.00000000000E+00  0.12324573276E+03  0.12324573276E+03  0.00000000000E+00 0.  1.
          1   -1    0    0  501    0  0.00000000000E+00 -0.00000000000E+00 -0.11413069357E+03  0.11413069357E+03  0.00000000000E+00 0. -1.
         25    2    1    2    0    0 -0.33141056351E+02  0.31288501610E+02  0.23753184532E+01  0.13316720083E+03  0.12510220338E+03 0.  0.
         23    2    1    2    0    0  0.33141056351E+02 -0.31288501610E+02  0.67397207379E+01  0.10420922550E+03  0.93471059128E+02 0.  0.
          5    1    3    3  502    0 -0.52724190029E+02 -0.23233904963E+02 -0.31631417364E+02  0.65861016683E+02  0.41800000000E+01 0.  1.
         -5    1    3    3    0  502  0.19583133678E+02  0.54522406573E+02  0.34006735817E+02  0.67306184145E+02  0.41800000000E+01 0.  1.
        -11    1    4    4    0    0  0.22093606188E+02 -0.35303605515E+02  0.46690119393E+02  0.62565479665E+02  0.00000000000E+00 0.  1.
         11    1    4    4    0    0  0.11047450162E+02  0.40151039049E+01 -0.39950398655E+02  0.41643745835E+02  0.00000000000E+00 0. -1.
</event>
<event>
 8    1  0.6185113E-009  0.1625233E+03  0.7561462E-02  0.1185877E+00
          1   -1    0    0  501    0  0.00000000000E+00  0.00000000000E+00  0.12850449468E+03  0.12850449468E+03  0.00000000000E+00 0. -1.
         -1   -1    0    0    0  501 -0.00000000000E+00 -0.00000000000E+00 -0.21952209462E+03  0.21952209462E+03  0.00000000000E+00 0.  1.
         25    2    1    2    0    0 -0.11312619124E+03  0.59055922590E+02 -0.66188840131E+01  0.17881862906E+03  0.12508858996E+03 0.  0.
         23    2    1    2    0    0  0.11312619124E+03 -0.59055922590E+02 -0.84398715934E+02  0.16920796024E+03  0.72270695441E+02 0.  0.
          5    1    3    3  502    0 -0.42527469374E+01 -0.34411407463E+02  0.22240334441E+01  0.34994993139E+02  0.41800000000E+01 0.  1.
         -5    1    3    3    0  502 -0.10887344430E+03  0.93467330053E+02 -0.88429174572E+01  0.14382363592E+03  0.41800000000E+01 0.  1.
        -11    1    4    4    0    0  0.74483910984E+02  0.17737632645E+01 -0.40005916635E+02  0.84566379829E+02  0.00000000000E+00 0.  1.
         11    1    4    4    0    0  0.38642280252E+02 -0.60829685855E+02 -0.44392799299E+02  0.84641580407E+02  0.00000000000E+00 0. -1.
</event>
<event>
 8    1  0.6185113E-009  0.1293791E+03  0.7561462E-02  0.1228380E+00
          1   -1    0    0  501    0  0.00000000000E+00  0.00000000000E+00  0.48157404150E+03  0.48157404150E+03  0.00000000000E+00 0. -1.
         -1   -1    0    0    0  501 -0.00000000000E+00 -0.00000000000E+00 -0.45137201060E+02  0.45137201060E+02  0.00000000000E+00 0.  1.
         25    2    1    2    0    0  0.73329822603E+02 -0.61040161565E+02  0.28569771449E+03  0.32614944411E+03  0.12508841522E+03 0.  0.
         23    2    1    2    0    0 -0.73329822603E+02  0.61040161565E+02  0.15073912595E+03  0.20056179845E+03  0.91649259124E+02 0.  0.
          5    1    3    3  502    0 -0.19819840300E+02 -0.47404020653E+02  0.16593013593E+03  0.17375341624E+03  0.41800000000E+01 0. -1.
         -5    1    3    3    0  502  0.93149662903E+02 -0.13636140912E+02  0.11976757856E+03  0.15239602788E+03  0.41800000000E+01 0. -1.
        -11    1    4    4    0    0 -0.84186600438E+02  0.54781544483E+02  0.79136885795E+02  0.12787121647E+03  0.00000000000E+00 0.  1.
         11    1    4    4    0    0  0.10856777834E+02  0.62586170818E+01  0.71602240154E+02  0.72690581974E+02  0.00000000000E+00 0. -1.
</event>
<event>
 8    1  0.6185113E-009  0.1091764E+03  0.7561462E-02  0.1262103E+00
         -2   -1    0    0    0  501 -0.00000000000E+00  0.00000000000E+00  0.62480336918E+02  0.62480336918E+02  0.00000000000E+00 0.  1.
          2   -1    0    0  501    0  0.00000000000E+00 -0.00000000000E+00 -0.25237681480E+03  0.25237681480E+03  0.00000000000E+00 0. -1.
         25    2    1    2    0    0  0.37821514073E+02  0.48379262492E+02 -0.88785880277E+02  0.16523233931E+03  0.12509106063E+03 0.  0.
         23    2    1    2    0    0 -0.37821514073E+02 -0.48379262492E+02 -0.10111059761E+03  0.14962481242E+03  0.91614472521E+02 0.  0.
          5    1    3    3  502    0 -0.48280814100E+01 -0.37582724216E+02 -0.46916809776E+02  0.60451889707E+02  0.41800000000E+01 0.  1.
         -5    1    3    3    0  502  0.42649595483E+02  0.85961986708E+02 -0.41869070501E+02  0.10478044960E+03  0.41800000000E+01 0.  1.
        -11    1    4    4    0    0 -0.37176897188E+02 -0.14074350592E+01  0.10103740007E+01  0.37217246185E+02  0.00000000000E+00 0.  1.
         11    1    4    4    0    0 -0.64461688491E+00 -0.46971827433E+02 -0.10212097161E+03  0.11240756623E+03  0.00000000000E+00 0. -1.
</event>
<event>
 8    1  0.6185113E-009  0.1966459E+03  0.7561462E-02  0.1152600E+00
          1   -1    0    0  501    0  0.00000000000E+00  0.00000000000E+00  0.27365036624E+03  0.27365036624E+03  0.00000000000E+00 0. -1.
         -1   -1    0    0    0  501 -0.00000000000E+00 -0.00000000000E+00 -0.21148495231E+03  0.21148495231E+03  0.00000000000E+00 0.  1.
         25    2    1    2    0    0  0.15650356012E+03 -0.83902329345E+02 -0.89077435751E+02  0.23476260743E+03  0.12508288087E+03 0.  0.
         23    2    1    2    0    0 -0.15650356012E+03  0.83902329345E+02  0.15124284968E+03  0.25037271113E+03  0.90989723036E+02 0.  0.
          5    1    3    3  502    0  0.19264544235E+01  0.19731069037E+02 -0.35806474742E+02  0.41141248710E+02  0.41800000000E+01 0. -1.
         -5    1    3    3    0  502  0.15457710569E+03 -0.10363339838E+03 -0.53270961009E+02  0.19362135872E+03  0.41800000000E+01 0. -1.
        -11    1    4    4    0    0 -0.43896784518E+02 -0.39291520347E+01  0.78686228755E+02  0.90188073061E+02  0.00000000000E+00 0.  1.
         11    1    4    4    0    0 -0.11260677560E+03  0.87831481380E+02  0.72556620930E+02  0.16018463807E+03  0.00000000000E+00 0. -1.
</event>
<event>
 8    1  0.6185113E-009  0.1900579E+03  0.7561462E-02  0.1158409E+00
          1   -1    0    0  501    0  0.00000000000E+00  0.00000000000E+00  0.35912427135E+03  0.35912427135E+03  0.00000000000E+00 0. -1.
         -1   -1    0    0    0  501 -0.00000000000E+00 -0.00000000000E+00 -0.12268383132E+03  0.12268383132E+03  0.00000000000E+00 0.  1.
         25    2    1    2    0    0  0.17165058227E+03 -0.26610544455E+02  0.17284546142E+03  0.27512917429E+03  0.12509382694E+03 0.  0.
         23    2    1    2    0    0 -0.17165058227E+03  0.26610544455E+02  0.63594978611E+02  0.20667892838E+03  0.92194439435E+02 0.  0.
          5    1    3    3  502    0  0.86693769091E+02  0.19890250855E+02  0.15170998672E+03  0.17591140994E+03  0.41800000000E+01 0. -1.
         -5    1    3    3    0  502  0.84956813181E+02 -0.46500795311E+02  0.21135474705E+02  0.99217764344E+02  0.41800000000E+01 0. -1.
        -11    1    4    4    0    0 -0.87731952073E+02  0.57289094523E+02  0.17818365889E+02  0.10628466460E+03  0.00000000000E+00 0.  1.
         11    1    4    4    0    0 -0.83918630198E+02 -0.30678550067E+02  0.45776612722E+02  0.10039426378E+03  0.00000000000E+00 0. -1.
</event>
<event>
 8    1  0.6185113E-009  0.1502663E+03  0.7561462E-02  0.1200146E+00
         -2   -1    0    0    0  501 -0.00000000000E+00  0.00000000000E+00  0.37697840911E+02  0.37697840911E+02  0.00000000000E+00 0.  1.
          2   -1    0    0  501    0  0.00000000000E+00 -0.00000000000E+00 -0.80739156115E+03  0.80739156115E+03  0.00000000000E+00 0. -1.
         25    2    1    2    0    0  0.53886651455E+02 -0.94450554776E+02 -0.20741418427E+03  0.26550666575E+03  0.12509383367E+03 0.  0.
         23    2    1    2    0    0 -0.53886651455E+02  0.94450554776E+02 -0.56227953598E+03  0.57958273631E+03  0.89068474506E+02 0.  0.
          5    1    3    3  502    0  0.90339419231E+02 -0.88780344744E+02 -0.17595903285E+03  0.21684606042E+03  0.41800000000E+01 0. -1.
         -5    1    3    3    0  502 -0.36452767776E+02 -0.56702100313E+01 -0.31455151415E+02  0.48660605328E+02  0.41800000000E+01 0. -1.
        -11    1    4    4    0    0 -0.10686831295E+01  0.82519102064E+02 -0.27003542783E+03  0.28236443929E+03  0.00000000000E+00 0.  1.
         11    1    4    4    0    0 -0.52817968326E+02  0.11931452712E+02 -0.29224410814E+03  0.29721829702E+03  0.00000000000E+00 0. -1.
</event>
<event>
 8    1  0.6185113E-009  0.1058924E+03  0.7561462E-02  0.1268371E+00
         -1   -1    0    0    0  501 -0.00000000000E+00  0.00000000000E+00  0.29142864435E+03  0.29142864435E+03  0.00000000000E+00 0.  1.
          1   -1    0    0  501    0  0.00000000000E+00 -0.00000000000E+00 -0.62346418829E+02  0.62346418829E+02  0.00000000000E+00 0. -1.
         25    2    1    2    0    0 -0.19069625900E+02  0.61559541316E+02  0.18813954431E+03  0.23492947936E+03  0.12506855872E+03 0.  0.
         23    2    1    2    0    0  0.19069625900E+02 -0.61559541316E+02  0.40942681219E+02  0.11884558383E+03  0.91075473596E+02 0.  0.
          5    1    3    3  502    0 -0.46004335803E+02 -0.63886640912E+01  0.18505313070E+02  0.50171036997E+02  0.41800000000E+01 0.  1.
         -5    1    3    3    0  502  0.26934709903E+02  0.67948205407E+02  0.16963423124E+03  0.18475844236E+03  0.41800000000E+01 0.  1.
        -11    1    4    4    0    0  0.28602887837E+02  0.10368000779E+01  0.47219948148E+02  0.55217059412E+02  0.00000000000E+00 0.  1.
         11    1    4    4    0    0 -0.95332619378E+01 -0.62596341394E+02 -0.62772669292E+01  0.63628524414E+02  0.00000000000E+00 0. -1.
</event>
<event>
 8    1  0.6185113E-009  0.1027991E+03  0.7561462E-02  0.1274518E+00
         -2   -1    0    0    0  501 -0.00000000000E+00  0.00000000000E+00  0.16633048505E+03  0.16633048505E+03  0.00000000000E+00 0.  1.
          2   -1    0    0  501    0  0.00000000000E+00 -0.00000000000E+00 -0.81535479096E+02  0.81535479096E+02  0.00000000000E+00 0. -1.
         25    2    1    2    0    0  0.15044917142E+02  0.12348317661E+02  0.13161621511E+02  0.12727725809E+03  0.12508973445E+03 0.  0.
         23    2    1    2    0    0 -0.15044917142E+02 -0.12348317661E+02  0.71633384442E+02  0.12058870605E+03  0.95034013805E+02 0.  0.
          5    1    3    3  502    0  0.44168682098E+02  0.53772650461E+02  0.26771286966E+02  0.74676265451E+02  0.41800000000E+01 0. -1.
         -5    1    3    3    0  502 -0.29123764956E+02 -0.41424332800E+02 -0.13609665455E+02  0.52600992642E+02  0.41800000000E+01 0. -1.
        -11    1    4    4    0    0 -0.48303931626E+02 -0.17588493986E+02  0.70041578331E+02  0.86881802619E+02  0.00000000000E+00 0.  1.
         11    1    4    4    0    0  0.33259014484E+02  0.52401763246E+01  0.15918061106E+01  0.33706903433E+02  0.00000000000E+00 0. -1.
</event>
<event>
 8    1  0.6185113E-009  0.2298895E+03  0.7561462E-02  0.1126718E+00
         -2   -1    0    0    0  501 -0.00000000000E+00  0.00000000000E+00  0.27597146650E+03  0.27597146650E+03  0.00000000000E+00 0. -1.
          2   -1    0    0  501    0  0.00000000000E+00 -0.00000000000E+00 -0.30079831515E+03  0.30079831515E+03  0.00000000000E+00 0.  1.
         25    2    1    2    0    0  0.13632366385E+03  0.16088476443E+03  0.15051105604E+03  0.28769561287E+03  0.12508852435E+03 0.  0.
         23    2    1    2    0    0 -0.13632366385E+03 -0.16088476443E+03 -0.17533790469E+03  0.28907416878E+03  0.91391714524E+02 0.  0.
          5    1    3    3  502    0 -0.24045315897E+02  0.17699759158E+02  0.19179110351E+02  0.35731909614E+02  0.41800000000E+01 0.  1.
         -5    1    3    3    0  502  0.16036897975E+03  0.14318500527E+03  0.13133194569E+03  0.25196370326E+03  0.41800000000E+01 0.  1.
        -11    1    4    4    0    0 -0.13564554138E+03 -0.14446060547E+03 -0.12072538842E+03  0.23204137312E+03  0.00000000000E+00 0. -1.
         11    1    4    4    0    0 -0.67812247063E+00 -0.16424158959E+02 -0.54612516273E+02  0.57032795664E+02  0.00000000000E+00 0.  1.
</event>
<event>
 8    1  0.6185113E-009  0.9623121E+02  0.7561462E-02  0.1288427E+00
         -2   -1    0    0    0  501 -0.00000000000E+00  0.00000000000E+00  0.63861432628E+03  0.63861432628E+03  0.00000000000E+00 0.  1.
          2   -1    0    0  501    0  0.00000000000E+00 -0.00000000000E+00 -0.27587856651E+02  0.27587856651E+02  0.00000000000E+00 0. -1.
         25    2    1    2    0    0  0.73567893576E+02 -0.24837684509E+02  0.40015493269E+03  0.42637876979E+03  0.12508293103E+03 0.  0.
         23    2    1    2    0    0 -0.73567893576E+02  0.24837684509E+02  0.21087153694E+03  0.23982341314E+03  0.83781375392E+02 0.  0.
          5    1    3    3  502    0  0.47740674089E+02 -0.14130325709E+02  0.37115714245E+02  0.62240555195E+02  0.41800000000E+01 0. -1.
         -5    1    3    3    0  502  0.25827219487E+02 -0.10707358800E+02  0.36303921845E+03  0.36413821460E+03  0.41800000000E+01 0. -1.
        -11    1    4    4    0    0 -0.47997036736E+02  0.56107368619E+02  0.13618775833E+03  0.15491564759E+03  0.00000000000E+00 0. -1.
         11    1    4    4    0    0 -0.25570856839E+02 -0.31269684110E+02  0.74683778614E+02  0.84907765557E+02  0.00000000000E+00 0.  1.
</event>
<event>
 8    1  0.6185113E-009  0.1038933E+03  0.7561462E-02  0.1272316E+00
          1   -1    0    0  501    0  0.00000000000E+00  0.00000000000E+00  0.12903823877E+03  0.12903823877E+03  0.00000000000E+00 0. -1.
         -1   -1    0    0    0  501 -0.00000000000E+00 -0.00000000000E+00 -0.15046555393E+03  0.15046555393E+03  0.00000000000E+00 0.  1.
         25    2    1    2    0    0 -0.87935113692E+02 -0.58674286744E+00 -0.13329311495E+02  0.15349461988E+03  0.12509995724E+03 0.  0.
         23    2    1    2    0    0  0.87935113692E+02  0.58674286744E+00 -0.80980036665E+01  0.12600917282E+03  0.89887738231E+02 0.  0.
          5    1    3    3  502    0 -0.25430125347E+02  0.28721453926E+02 -0.59083244696E+02  0.70568515604E+02  0.41800000000E+01 0. -1.
         -5    1    3    3    0  502 -0.62504988345E+02 -0.29308196793E+02  0.45753933201E+02  0.82926104278E+02  0.41800000000E+01 0. -1.
        -11    1    4    4    0    0  0.37770122945E+02 -0.23400362395E+02 -0.41787442887E+02  0.60994668050E+02  0.00000000000E+00 0.  1.
         11    1    4    4    0    0  0.50164990747E+02  0.23987105263E+02  0.33689439221E+02  0.65014504770E+02  0.00000000000E+00 0. -1.
</event>
<event>
 8    1  0.6185113E-009  0.1720227E+03  0.7561462E-02  0.1175755E+00
          2   -1    0    0  501    0  0.00000000000E+00  0.00000000000E+00  0.70202342838E+03  0.70202342838E+03  0.00000000000E+00 0. -1.
         -2   -1    0    0    0  501 -0.00000000000E+00 -0.00000000000E+00 -0.48099859076E+02  0.48099859076E+02  0.00000000000E+00 0.  1.
         25    2    1    2    0    0  0.89870289951E+02 -0.11555459730E+03  0.30175263583E+03  0.35795527414E+03  0.12509113111E+03 0.  0.
         23    2    1    2    0    0 -0.89870289951E+02  0.11555459730E+03  0.35217093347E+03  0.39216801331E+03  0.91333730405E+02 0.  0.
          5    1    3    3  502    0  0.58056071182E+02  0.12093843587E+02  0.74191824438E+02  0.95071907876E+02  0.41800000000E+01 0.  1.
         -5    1    3    3    0  502  0.31814218769E+02 -0.12764844089E+03  0.22756081139E+03  0.26288336627E+03  0.41800000000E+01 0.  1.
        -11    1    4    4    0    0 -0.11673440361E+02 -0.19454739101E+01 -0.96206445655E+00  0.11873485024E+02  0.00000000000E+00 0.  1.
         11    1    4    4    0    0 -0.78196849590E+02  0.11750007121E+03  0.35313299792E+03  0.38029452829E+03  0.00000000000E+00 0. -1.
</event>
<event>
 8    1  0.6185113E-009  0.1224716E+03  0.7561462E-02  0.1239074E+00
          1   -1    0    0  501    0  0.00000000000E+00  0.00000000000E+00  0.10925975340E+04  0.10925975340E+04  0.00000000000E+00 0. -1.
         -1   -1    0    0    0  501 -0.00000000000E+00 -0.00000000000E+00 -0.15499868499E+02  0.15499868499E+02  0.00000000000E+00 0.  1.
         25    2    1    2    0    0  0.68477420805E+02 -0.29284765118E+02  0.69503717412E+03  0.71011959931E+03  0.12508563979E+03 0.  0.
         23    2    1    2    0    0 -0.68477420805E+02  0.29284765118E+02  0.38206049139E+03  0.39797780320E+03  0.82881591032E+02 0.  0.
          5    1    3    3  502    0  0.43578427428E+02 -0.71856646389E+02  0.56022520841E+03  0.56650879384E+03  0.41800000000E+01 0. -1.
         -5    1    3    3    0  502  0.24898993377E+02  0.42571881271E+02  0.13481196571E+03  0.14361080546E+03  0.41800000000E+01 0. -1.
        -11    1    4    4    0    0  0.16802405874E+02 -0.75375416750E+01  0.70419490619E+02  0.72787636565E+02  0.00000000000E+00 0.  1.
         11    1    4    4    0    0 -0.85279826679E+02  0.36822306793E+02  0.31164100077E+03  0.32519016664E+03  0.00000000000E+00 0. -1.
</event>
<event>
 8    1  0.6185113E-009  0.2195380E+03  0.7561462E-02  0.1134228E+00
          1   -1    0    0  501    0  0.00000000000E+00  0.00000000000E+00  0.57209596931E+03  0.57209596931E+03  0.00000000000E+00 0. -1.
         -1   -1    0    0    0  501 -0.00000000000E+00 -0.00000000000E+00 -0.95144394970E+02  0.95144394970E+02  0.00000000000E+00 0.  1.
         25    2    1    2    0    0  0.20342670847E+03 -0.28785697960E+02  0.23234270106E+03  0.33442740868E+03  0.12509004283E+03 0.  0.
         23    2    1    2    0    0 -0.20342670847E+03  0.28785697960E+02  0.24460887327E+03  0.33281295560E+03  0.93380514051E+02 0.  0.
          5    1    3    3  502    0  0.54512755886E+02 -0.33912463949E+02  0.15208543889E+03  0.16513373032E+03  0.41800000000E+01 0. -1.
         -5    1    3    3    0  502  0.14891395258E+03  0.51267659889E+01  0.80257262171E+02  0.16929367836E+03  0.41800000000E+01 0. -1.
        -11    1    4    4    0    0 -0.92594965668E+02 -0.33591091279E+02  0.10666294880E+03  0.14518668578E+03  0.00000000000E+00 0. -1.
         11    1    4    4    0    0 -0.11083174280E+03  0.62376789238E+02  0.13794592447E+03  0.18762626982E+03  0.00000000000E+00 0.  1.
</event>
<event>
 7    1  0.6185113E-009  0.1622563E+03  0.7561462E-02  0.1186173E+00
         -2   -1    0    0    0  501 -0.00000000000E+00  0.00000000000E+00  0.12693783198E+03  0.12693783198E+03  0.00000000000E+00 0.  1.
          2   -1    0    0  501    0  0.00000000000E+00 -0.00000000000E+00 -0.33459212833E+03  0.33459212833E+03  0.00000000000E+00 0. -1.
         25    2    1    2    0    0 -0.12196041490E+03 -0.10714223223E+02 -0.20576136679E+03  0.27013813691E+03  0.12509090920E+03 0.  0.
          5    1    3    3  502    0 -0.54178710022E+02 -0.66789001431E+02 -0.11512097276E+03  0.14375817925E+03  0.41800000000E+01 0.  1.
         -5    1    3    3    0  502 -0.67781704883E+02  0.56074778207E+02 -0.90640394032E+02  0.12637995766E+03  0.41800000000E+01 0.  1.
        -11    1    1    2    0    0  0.74517400017E+02 -0.36875917224E+02 -0.60018581435E+02  0.10254221713E+03  0.00000000000E+00 0. -1.
         11    1    1    2    0    0  0.47443014888E+02  0.47590140448E+02  0.58125651876E+02  0.88849606276E+02  0.00000000000E+00 0.  1.
</event>
<event>
 8    1  0.6185113E-009  0.7493670E+02  0.7561462E-02  0.1344067E+00
          4   -1    0    0  501    0  0.00000000000E+00  0.00000000000E+00  0.13215784880E+02  0.13215784880E+02  0.00000000000E+00 0. -1.
         -4   -1    0    0    0  501 -0.00000000000E+00 -0.00000000000E+00 -0.10473127674E+04  0.10473127674E+04  0.00000000000E+00 0.  1.
         25    2    1    2    0    0 -0.68011510285E+01 -0.28110130846E+02 -0.72588043308E+03  0.73714710252E+03  0.12508801906E+03 0.  0.
         23    2    1    2    0    0  0.68011510285E+01  0.28110130846E+02 -0.30821654947E+03  0.32338144979E+03  0.93496981722E+02 0.  0.
          5    1    3    3  502    0  0.18887926558E+02 -0.23371796175E+02 -0.69819669740E+03  0.69885556110E+03  0.41800000000E+01 0. -1.
         -5    1    3    3    0  502 -0.25689077586E+02 -0.47383346704E+01 -0.27683735681E+02  0.38291541415E+02  0.41800000000E+01 0. -1.
        -11    1    4    4    0    0  0.43826263297E+02 -0.40824911937E+01 -0.19643974826E+03  0.20131066237E+03  0.00000000000E+00 0.  1.
         11    1    4    4    0    0 -0.37025112268E+02  0.32192622039E+02 -0.11177680121E+03  0.12207078742E+03  0.00000000000E+00 0. -1.
</event>
<event>
 8    1  0.6185113E-009  0.1059244E+03  0.7561462E-02  0.1268309E+00
          1   -1    0    0  501    0  0.00000000000E+00  0.00000000000E+00  0.49809113616E+03  0.49809113616E+03  0.00000000000E+00 0. -1.
         -1   -1    0    0    0  501 -0.00000000000E+00 -0.00000000000E+00 -0.24739107929E+02  0.24739107929E+02  0.00000000000E+00 0.  1.
         25    2    1    2    0    0  0.10607871222E+02 -0.31714357411E+01  0.24088008489E+03  0.27163196642E+03  0.12505248877E+03 0.  0.
         23    2    1    2    0    0 -0.10607871222E+02  0.31714357411E+01  0.23247194333E+03  0.25119827766E+03  0.94523993398E+02 0.  0.
          5    1    3    3  502    0  0.38864642478E+02 -0.51256812329E+02  0.16670563527E+03  0.17873433491E+03  0.41800000000E+01 0. -1.
         -5    1    3    3    0  502 -0.28256771256E+02  0.48085376588E+02  0.74174449624E+02  0.92897631512E+02  0.41800000000E+01 0. -1.
        -11    1    4    4    0    0 -0.33914051693E+02  0.37119968383E+02  0.16149388386E+03  0.16913997009E+03  0.00000000000E+00 0. -1.
         11    1    4    4    0    0  0.23306180471E+02 -0.33948532642E+02  0.70978059468E+02  0.82058307578E+02  0.00000000000E+00 0.  1.
</event>
<event>
 8    1  0.6185113E-009  0.1057331E+03  0.7561462E-02  0.1268682E+00
         -1   -1    0    0    0  501 -0.00000000000E+00  0.00000000000E+00  0.16759409492E+02  0.16759409492E+02  0.00000000000E+00 0.  1.
          1   -1    0    0  501    0  0.00000000000E+00 -0.00000000000E+00 -0.96992803618E+03  0.96992803618E+03  0.00000000000E+00 0. -1.
         25    2    1    2    0    0 -0.51559928349E+02  0.24801651691E+02 -0.67088952211E+03  0.68484356169E+03  0.12507759583E+03 0.  0.
         23    2    1    2    0    0  0.51559928349E+02 -0.24801651691E+02 -0.28227910457E+03  0.30184388397E+03  0.90303318191E+02 0.  0.
          5    1    3    3  502    0 -0.49985303377E+02  0.62939350634E+02 -0.58811483903E+03  0.59359618320E+03  0.41800000000E+01 0.  1.
         -5    1    3    3    0  502 -0.15746249717E+01 -0.38137698943E+02 -0.82774683077E+02  0.91247378499E+02  0.41800000000E+01 0.  1.
        -11    1    4    4    0    0  0.31687572507E+01 -0.41328772331E+02 -0.54926347227E+02  0.68811423940E+02  0.00000000000E+00 0.  1.
         11    1    4    4    0    0  0.48391171098E+02  0.16527120640E+02 -0.22735275735E+03  0.23303246003E+03  0.00000000000E+00 0. -1.
</event>
<event>
 8    1  0.6185113E-009  0.1082718E+03  0.7561462E-02  0.1263804E+00
          1   -1    0    0  501    0  0.00000000000E+00  0.00000000000E+00  0.73420573087E+03  0.73420573087E+03  0.00000000000E+00 0. -1.
         -1   -1    0    0    0  501 -0.00000000000E+00 -0.00000000000E+00 -0.22057085479E+02  0.22057085479E+02  0.00000000000E+00 0.  1.
         25    2    1    2    0    0  0.56980561789E+02  0.32839268467E+02  0.36694207173E+03  0.39321604629E+03  0.12508866088E+03 0.  0.
         23    2    1    2    0    0 -0.56980561789E+02 -0.32839268467E+02  0.34520657366E+03  0.36304677005E+03  0.91160170992E+02 0.  0.
          5    1    3    3  502    0  0.54595644025E+02 -0.20425994818E+02  0.30853788069E+03  0.31402388736E+03  0.41800000000E+01 0.  1.
         -5    1    3    3    0  502  0.23849177643E+01  0.53265263285E+02  0.58404191040E+02  0.79192158934E+02  0.41800000000E+01 0.  1.
        -11    1    4    4    0    0  0.18584934262E+02  0.61666698745E+01  0.25085431025E+02  0.31823049014E+02  0.00000000000E+00 0.  1.
         11    1    4    4    0    0 -0.75565496051E+02 -0.39005938341E+02  0.32012114263E+03  0.33122372104E+03  0.00000000000E+00 0. -1.
</event>
<event>
 8    1  0.6185113E-009  0.1676657E+03  0.7561462E-02  0.1180304E+00
         -1   -1    0    0    0  501 -0.00000000000E+00  0.00000000000E+00  0.20221499823E+03  0.20221499823E+03  0.00000000000E+00 0.  1.
          1   -1    0    0  501    0  0.00000000000E+00 -0.00000000000E+00 -0.20403698005E+03  0.20403698005E+03  0.00000000000E+00 0. -1.
         25    2    1    2    0    0 -0.12651336942E+03 -0.35492396515E+02 -0.11141700496E+03  0.21290004735E+03  0.12508932135E+03 0.  0.
         23    2    1    2    0    0  0.12651336942E+03  0.35492396515E+02  0.10959502314E+03  0.19335193093E+03  0.90047527705E+02 0.  0.
          5    1    3    3  502    0  0.23281328791E+02 -0.44987963133E+01 -0.81802033263E+00  0.24091512941E+02  0.41800000000E+01 0.  1.
         -5    1    3    3    0  502 -0.14979469821E+03 -0.30993600201E+02 -0.11059898463E+03  0.18880853441E+03  0.41800000000E+01 0.  1.
        -11    1    4    4    0    0  0.11606915797E+03 -0.52318344273E+01  0.70266602551E+02  0.13578224095E+03  0.00000000000E+00 0. -1.
         11    1    4    4    0    0  0.10444211449E+02  0.40724230942E+02  0.39328420589E+02  0.57569689982E+02  0.00000000000E+00 0.  1.
</event>
<event>
 8    1  0.6185113E-009  0.2307498E+03  0.7561462E-02  0.1126113E+00
         -2   -1    0    0    0  501 -0.00000000000E+00  0.00000000000E+00  0.18798083078E+03  0.18798083078E+03  0.00000000000E+00 0.  1.
          2   -1    0    0  501    0  0.00000000000E+00 -0.00000000000E+00 -0.32180925901E+03  0.32180925901E+03  0.00000000000E+00 0. -1.
         25    2    1    2    0    0 -0.76980490165E+02  0.19889379191E+03 -0.12610118639E+03  0.27754956528E+03  0.12509003020E+03 0.  0.
         23    2    1    2    0    0  0.76980490165E+02 -0.19889379191E+03 -0.77272418415E+01  0.23224052451E+03  0.91603573249E+02 0.  0.
          5    1    3    3  502    0  0.66508680121E+01 -0.13562523237E+02  0.18544078049E+01  0.15782500125E+02  0.41800000000E+01 0.  1.
         -5    1    3    3    0  502 -0.83631358177E+02  0.21245631515E+03 -0.12795559419E+03  0.26176706516E+03  0.41800000000E+01 0.  1.
        -11    1    4    4    0    0  0.11804244233E+02 -0.88363294828E+02 -0.43268198588E+02  0.99093637857E+02  0.00000000000E+00 0. -1.
         11    1    4    4    0    0  0.65176245932E+02 -0.11053049708E+03  0.35540956746E+02  0.13314688665E+03  0.00000000000E+00 0.  1.
</event>
<event>
 8    1  0.6185113E-009  0.1604411E+03  0.7561462E-02  0.1188200E+00
         -2   -1    0    0    0  501 -0.00000000000E+00  0.00000000000E+00  0.46450110920E+03  0.46450110920E+03  0.00000000000E+00 0.  1.
          2   -1    0    0  501    0  0.00000000000E+00 -0.00000000000E+00 -0.79316710361E+02  0.79316710361E+02  0.00000000000E+00 0. -1.
         25    2    1    2    0    0  0.14599672408E+03  0.19399745330E+02  0.12261315981E+03  0.22885030699E+03  0.12508829877E+03 0.  0.
         23    2    1    2    0    0 -0.14599672408E+03 -0.19399745330E+02  0.26257123904E+03  0.31496751258E+03  0.92571512072E+02 0.  0.
          5    1    3    3  502    0  0.79460146373E+02  0.12384728006E+02 -0.91187214349E+01  0.81042703744E+02  0.41800000000E+01 0. -1.
         -5    1    3    3    0  502  0.66536577710E+02  0.70150173237E+01  0.13173188124E+03  0.14780760324E+03  0.41800000000E+01 0. -1.
        -11    1    4    4    0    0  0.92679794108E+01 -0.15434243614E+02  0.36309641846E+02  0.40527785645E+02  0.00000000000E+00 0. -1.
         11    1    4    4    0    0 -0.15526470349E+03 -0.39655017162E+01  0.22626159719E+03  0.27443972693E+03  0.00000000000E+00 0.  1.
</event>
<event>
 8    1  0.6185113E-009  0.1012435E+03  0.7561462E-02  0.1277703E+00
          2   -1    0    0  501    0  0.00000000000E+00  0.00000000000E+00  0.97712400867E+02  0.97712400867E+02  0.00000000000E+00 0. -1.
         -2   -1    0    0    0  501 -0.00000000000E+00 -0.00000000000E+00 -0.17184819415E+03  0.17184819415E+03  0.00000000000E+00 0.  1.
         25    2    1    2    0    0 -0.69519053380E+02  0.10455169704E+01 -0.47529574190E+02  0.15080079441E+03  0.12509127581E+03 0.  0.
         23    2    1    2    0    0  0.69519053380E+02 -0.10455169704E+01 -0.26606219095E+02  0.11875980060E+03  0.92531116153E+02 0.  0.
          5    1    3    3  502    0  0.95142215829E+01 -0.38378928364E+01  0.34784835308E+02  0.36506259753E+02  0.41800000000E+01 0. -1.
         -5    1    3    3    0  502 -0.79033274962E+02  0.48834098068E+01 -0.82314409498E+02  0.11429453466E+03  0.41800000000E+01 0. -1.
        -11    1    4    4    0    0 -0.18472887546E+02 -0.13994225016E+02  0.61544827908E+01  0.23978397914E+02  0.00000000000E+00 0. -1.
         11    1    4    4    0    0  0.87991940926E+02  0.12948708046E+02 -0.32760701886E+02  0.94781402690E+02  0.00000000000E+00 0.  1.
</event>
<event>
 8    1  0.6185113E-009  0.1260480E+03  0.7561462E-02  0.1233440E+00
          2   -1    0    0  501    0  0.00000000000E+00  0.00000000000E+00  0.83768376895E+02  0.83768376895E+02  0.00000000000E+00 0. -1.
         -2   -1    0    0    0  501 -0.00000000000E+00 -0.00000000000E+00 -0.36307862912E+03  0.36307862912E+03  0.00000000000E+00 0.  1.
         25    2    1    2    0    0 -0.67902058223E+02  0.69456637363E+01  0.30046256634E+01  0.14253214344E+03  0.12508977730E+03 0.  0.
         23    2    1    2    0    0  0.67902058223E+02 -0.69456637363E+01 -0.28231487789E+03  0.30431486257E+03  0.90812518673E+02 0.  0.
          5    1    3    3  502    0 -0.53236009132E+02 -0.53885219078E+02 -0.14901761822E+02  0.77312511334E+02  0.41800000000E+01 0. -1.
         -5    1    3    3    0  502 -0.14666049091E+02  0.60830882814E+02  0.17906387486E+02  0.65219632111E+02  0.41800000000E+01 0. -1.
        -11    1    4    4    0    0  0.58650704291E+02 -0.45273220478E+02 -0.18976703891E+03  0.20371818442E+03  0.00000000000E+00 0. -1.
         11    1    4    4    0    0  0.92513539324E+01  0.38327556741E+02 -0.92547838981E+02  0.10059667815E+03  0.00000000000E+00 0.  1.
</event>
<event>
 8    1  0.6185113E-009  0.1089707E+03  0.7561462E-02  0.1262488E+00
         -2   -1    0    0    0  501 -0.00000000000E+00  0.00000000000E+00  0.11430451462E+03  0.11430451462E+03  0.00000000000E+00 0. -1.
          2   -1    0    0  501    0  0.00000000000E+00 -0.00000000000E+00 -0.18770934561E+03  0.18770934561E+03  0.00000000000E+00 0.  1.
         25    2    1    2    0    0  0.56743806638E+02 -0.79779029393E+02 -0.49263906090E+02  0.16631163696E+03  0.12509226603E+03 0.  0.
         23    2    1    2    0    0 -0.56743806638E+02  0.79779029393E+02 -0.24140924901E+02  0.13570222327E+03  0.90817157091E+02 0.  0.
          5    1    3    3  502    0  0.62526448221E+02 -0.68758670863E+02 -0.86375138899E+02  0.12694663669E+03  0.41800000000E+01 0. -1.
         -5    1    3    3    0  502 -0.57826415829E+01 -0.11020358531E+02  0.37111232809E+02  0.39365000272E+02  0.41800000000E+01 0. -1.
        -11    1    4    4    0    0  0.74244020198E+01  0.29048612999E+02 -0.42361286809E+02  0.51898191516E+02  0.00000000000E+00 0.  1.
         11    1    4    4    0    0 -0.64168208658E+02  0.50730416394E+02  0.18220361907E+02  0.83804031752E+02  0.00000000000E+00 0. -1.
</event>
<event>
 8    1  0.6185113E-009  0.1049249E+03  0.7561462E-02  0.1270268E+00
         -3   -1    0    0    0  501 -0.00000000000E+00  0.00000000000E+00  0.33099729045E+03  0.33099729045E+03  0.00000000000E+00 0.  1.
          3   -1    0    0  501    0  0.00000000000E+00 -0.00000000000E+00 -0.55633055852E+02  0.55633055852E+02  0.00000000000E+00 0. -1.
         25    2    1    2    0    0 -0.71815248891E+02 -0.34617066560E+02  0.15739575247E+03  0.21627574916E+03  0.12508399381E+03 0.  0.
         23    2    1    2    0    0  0.71815248891E+02  0.34617066560E+02  0.11796848213E+03  0.17035459714E+03  0.93532639878E+02 0.  0.
          5    1    3    3  502    0 -0.40971176122E+01 -0.29208779139E+02 -0.13215608558E+02  0.32589321273E+02  0.41800000000E+01 0.  1.
         -5    1    3    3    0  502 -0.67718131278E+02 -0.54082874208E+01  0.17061136103E+03  0.18368642788E+03  0.41800000000E+01 0.  1.
        -11    1    4    4    0    0  0.66975707849E+02 -0.94738285265E+01  0.10360441869E+03  0.12373105689E+03  0.00000000000E+00 0.  1.
         11    1    4    4    0    0  0.48395410417E+01  0.44090895086E+02  0.14364063440E+02  0.46623540251E+02  0.00000000000E+00 0. -1.
</event>
<event>
 8    1  0.6185113E-009  0.1395618E+03  0.7561462E-02  0.1213920E+00
          1   -1    0    0  501    0  0.00000000000E+00  0.00000000000E+00  0.89553425979E+03  0.89553425979E+03  0.00000000000E+00 0. -1.
         -1   -1    0    0    0  501 -0.00000000000E+00 -0.00000000000E+00 -0.36114312859E+02  0.36114312859E+02  0.00000000000E+00 0.  1.
         25    2    1    2    0    0  0.74762767280E+02 -0.86537471567E+02  0.67500890981E+03  0.69596177055E+03  0.12509017704E+03 0.  0.
         23    2    1    2    0    0 -0.74762767280E+02  0.86537471567E+02  0.18441103712E+03  0.23568680209E+03  0.91992568795E+02 0.  0.
          5    1    3    3  502    0 -0.22701171586E+02 -0.96202260554E+01  0.29725233124E+03  0.29830238478E+03  0.41800000000E+01 0.  1.
         -5    1    3    3    0  502  0.97463938865E+02 -0.76917245512E+02  0.37775657858E+03  0.39765938577E+03  0.41800000000E+01 0.  1.
        -11    1    4    4    0    0 -0.77699482784E+02  0.48196543837E+02  0.70490367220E+02  0.11545132452E+03  0.00000000000E+00 0.  1.
         11    1    4    4    0    0  0.29367155043E+01  0.38340927731E+02  0.11392066990E+03  0.12023547757E+03  0.00000000000E+00 0. -1.
</event>
<event>
 8    1  0.6185113E-009  0.7680727E+02  0.7561462E-02  0.1338364E+00
         -1   -1    0    0    0  501 -0.00000000000E+00  0.00000000000E+00  0.13719956007E+03  0.13719956007E+03  0.00000000000E+00 0.  1.
          1   -1    0    0  501    0  0.00000000000E+00 -0.00000000000E+00 -0.10379869610E+03  0.10379869610E+03  0.00000000000E+00 0. -1.
         25    2    1    2    0    0  0.19641299008E+02  0.44154844061E+02  0.31393732674E+02  0.13776452213E+03  0.12513219500E+03 0.  0.
         23    2    1    2    0    0 -0.19641299008E+02 -0.44154844061E+02  0.20071313020E+01  0.10323373404E+03  0.91201668777E+02 0.  0.
          5    1    3    3  502    0  0.16410362513E+02  0.61013104408E+00  0.74417676114E+02  0.76322573174E+02  0.41800000000E+01 0.  1.
         -5    1    3    3    0  502  0.32309364949E+01  0.43544713017E+02 -0.43023943440E+02  0.61441948956E+02  0.41800000000E+01 0.  1.
        -11    1    4    4    0    0  0.19689693188E+02 -0.49349656565E+02 -0.21275383826E+02  0.57233858667E+02  0.00000000000E+00 0. -1.
         11    1    4    4    0    0 -0.39330992196E+02  0.51948125040E+01  0.23282515128E+02  0.45999875377E+02  0.00000000000E+00 0.  1.
</event>
<event>
 8    1  0.6185113E-009  0.8421653E+02  0.7561462E-02  0.1317494E+00
         -2   -1    0    0    0  501 -0.00000000000E+00  0.00000000000E+00  0.21110242747E+02  0.21110242747E+02  0.00000000000E+00 0.  1.
          2   -1    0    0  501    0  0.00000000000E+00 -0.00000000000E+00 -0.63683751433E+03  0.63683751433E+03  0.00000000000E+00 0. -1.
         25    2    1    2    0    0 -0.26751646294E+02  0.96759299029E+01 -0.44068503400E+03  0.45897637444E+03  0.12508692539E+03 0.  0.
         23    2    1    2    0    0  0.26751646294E+02 -0.96759299029E+01 -0.17504223759E+03  0.19897138264E+03  0.90225007461E+02 0.  0.
          5    1    3    3  502    0  0.35099611687E+02  0.13013712565E+02 -0.46073522622E+02  0.59511186697E+02  0.41800000000E+01 0. -1.
         -5    1    3    3    0  502 -0.61851257981E+02 -0.33377826620E+01 -0.39461151138E+03  0.39946518774E+03  0.41800000000E+01 0. -1.
        -11    1    4    4    0    0  0.24643181806E+02  0.24319769591E+02 -0.15631117701E+03  0.16009972411E+03  0.00000000000E+00 0. -1.
         11    1    4    4    0    0  0.21084644876E+01 -0.33995699494E+02 -0.18731060582E+02  0.38871658532E+02  0.00000000000E+00 0.  1.
</event>
<event>
 8    1  0.6185113E-009  0.7113493E+02  0.7561462E-02  0.1356276E+00
         -2   -1    0    0    0  501 -0.00000000000E+00  0.00000000000E+00  0.67224809354E+02  0.67224809354E+02  0.00000000000E+00 0.  1.
          2   -1    0    0  501    0  0.00000000000E+00 -0.00000000000E+00 -0.19107959442E+03  0.19107959442E+03  0.00000000000E+00 0. -1.
         25    2    1    2    0    0 -0.22767769301E+02  0.15887365896E+02 -0.90584669690E+02  0.15691785242E+03  0.12508737072E+03 0.  0.
         23    2    1    2    0    0  0.22767769301E+02 -0.15887365896E+02 -0.33270115373E+02  0.10138655135E+03  0.91659983104E+02 0.  0.
          5    1    3    3  502    0  0.13862599692E+02  0.22226751325E+02  0.24374669324E+02  0.36024950372E+02  0.41800000000E+01 0. -1.
         -5    1    3    3    0  502 -0.36630368993E+02 -0.63393854281E+01 -0.11495933901E+03  0.12089290205E+03  0.41800000000E+01 0. -1.
        -11    1    4    4    0    0  0.42591858341E+02 -0.31603136511E+02 -0.48491304320E+02  0.71862585738E+02  0.00000000000E+00 0. -1.
         11    1    4    4    0    0 -0.19824089040E+02  0.15715770615E+02  0.15221188947E+02  0.29523965608E+02  0.00000000000E+00 0.  1.
</event>
<event>
 8    1  0.6185113E-009  0.9765667E+02  0.7561462E-02  0.1285302E+00
         -4   -1    0    0    0  501 -0.00000000000E+00  0.00000000000E+00  0.13029682181E+03  0.13029682181E+03  0.00000000000E+00 0.  1.
          4   -1    0    0  501    0  0.00000000000E+00 -0.00000000000E+00 -0.14616290236E+03  0.14616290236E+03  0.00000000000E+00 0. -1.
         25    2    1    2    0    0 -0.25323486693E+02 -0.56017944079E+02  0.49853707969E+02  0.14802848748E+03  0.12509097438E+03 0.  0.
         23    2    1    2    0    0  0.25323486693E+02  0.56017944079E+02 -0.65719788527E+02  0.12843123669E+03  0.91630796763E+02 0.  0.
          5    1    3    3  502    0  0.34854588041E+00 -0.65570423088E+02  0.82332378892E+02  0.10533610436E+03  0.41800000000E+01 0.  1.
         -5    1    3    3    0  502 -0.25672032573E+02  0.95524790086E+01 -0.32478670923E+02  0.42692383121E+02  0.41800000000E+01 0.  1.
        -11    1    4    4    0    0  0.48362543377E+02  0.85169934479E+01 -0.56467077633E+02  0.74833185390E+02  0.00000000000E+00 0.  1.
         11    1    4    4    0    0 -0.23039056684E+02  0.47500950632E+02 -0.92527108947E+01  0.53598051296E+02  0.00000000000E+00 0. -1.
</event>
<event>
 8    1  0.6185113E-009  0.1556095E+03  0.7561462E-02  0.1193745E+00
          2   -1    0    0  501    0  0.00000000000E+00  0.00000000000E+00  0.90092554567E+02  0.90092554567E+02  0.00000000000E+00 0. -1.
         -2   -1    0    0    0  501 -0.00000000000E+00 -0.00000000000E+00 -0.29021556700E+03  0.29021556700E+03  0.00000000000E+00 0.  1.
         25    2    1    2    0    0  0.62539773381E+02 -0.98858651774E+02 -0.95598668333E+02  0.19613855349E+03  0.12508785110E+03 0.  0.
         23    2    1    2    0    0 -0.62539773381E+02  0.98858651774E+02 -0.10452434410E+03  0.18416956808E+03  0.96482304140E+02 0.  0.
          5    1    3    3  502    0  0.74623281668E+02 -0.71404405058E+01 -0.23174014849E+02  0.78575615949E+02  0.41800000000E+01 0. -1.
         -5    1    3    3    0  502 -0.12083508288E+02 -0.91718211268E+02 -0.72424653484E+02  0.11756293754E+03  0.41800000000E+01 0. -1.
        -11    1    4    4    0    0  0.19004781067E+02  0.59491440366E+01 -0.40094479537E+02  0.44767636832E+02  0.00000000000E+00 0.  1.
         11    1    4    4    0    0 -0.81544554448E+02  0.92909507737E+02 -0.64429864567E+02  0.13940193125E+03  0.00000000000E+00 0. -1.
</event>
<event>
 8    1  0.6185113E-009  0.1064959E+03  0.7561462E-02  0.1267200E+00
         -2   -1    0    0    0  501 -0.00000000000E+00  0.00000000000E+00  0.45407305377E+02  0.45407305377E+02  0.00000000000E+00 0.  1.
          2   -1    0    0  501    0  0.00000000000E+00 -0.00000000000E+00 -0.32307195226E+03  0.32307195226E+03  0.00000000000E+00 0. -1.
         25    2    1    2    0    0 -0.14010187330E+02 -0.30884459007E+02 -0.89826699202E+02  0.15769030744E+03  0.12508901635E+03 0.  0.
         23    2    1    2    0    0  0.14010187330E+02  0.30884459007E+02 -0.18783794768E+03  0.21078895020E+03  0.89435741069E+02 0.  0.
          5    1    3    3  502    0  0.21376328700E+02  0.41275592189E+02 -0.18670461582E+02  0.50266096675E+02  0.41800000000E+01 0. -1.
         -5    1    3    3    0  502 -0.35386516030E+02 -0.72160051196E+02 -0.71156237620E+02  0.10742421076E+03  0.41800000000E+01 0. -1.
        -11    1    4    4    0    0  0.36239541381E+01  0.57323297101E+02 -0.16379551179E+03  0.17357437344E+03  0.00000000000E+00 0. -1.
         11    1    4    4    0    0  0.10386233191E+02 -0.26438838093E+02 -0.24042435891E+02  0.37214576757E+02  0.00000000000E+00 0.  1.
</event>
<event>
 8    1  0.6185113E-009  0.6566817E+02  0.7561462E-02  0.1375476E+00
         -3   -1    0    0    0  501 -0.00000000000E+00  0.00000000000E+00  0.14496462586E+03  0.14496462586E+03  0.00000000000E+00 0.  1.
          3   -1    0    0  501    0  0.00000000000E+00 -0.00000000000E+00 -0.92228595983E+02  0.92228595983E+02  0.00000000000E+00 0. -1.
         25    2    1    2    0    0 -0.46701665827E+01  0.35676026447E+01 -0.11343017432E+02  0.12574169922E+03  0.12509105737E+03 0.  0.
         23    2    1    2    0    0  0.46701665827E+01 -0.35676026447E+01  0.64079047310E+02  0.11145152262E+03  0.90998787611E+02 0.  0.
          5    1    3    3  502    0  0.17723616518E+02  0.33860103799E+01  0.53710571034E+02  0.56814518299E+02  0.41800000000E+01 0. -1.
         -5    1    3    3    0  502 -0.22393783101E+02  0.18159226476E+00 -0.65053588466E+02  0.68927180920E+02  0.41800000000E+01 0. -1.
        -11    1    4    4    0    0 -0.39972706798E+02 -0.16964145929E+02  0.39771175668E+02  0.58884174019E+02  0.00000000000E+00 0.  1.
         11    1    4    4    0    0  0.44642873381E+02  0.13396543284E+02  0.24307871642E+02  0.52567348606E+02  0.00000000000E+00 0. -1.
</event>
<event>
 8    1  0.6185113E-009  0.9500484E+02  0.7561462E-02  0.1291165E+00
          2   -1    0    0  501    0  0.00000000000E+00  0.00000000000E+00  0.12854647598E+03  0.12854647598E+03  0.00000000000E+00 0. -1.
         -2   -1    0    0    0  501 -0.00000000000E+00 -0.00000000000E+00 -0.93215938179E+02  0.93215938179E+02  0.00000000000E+00 0.  1.
         25    2    1    2    0    0 -0.78582564269E+01  0.89558416132E+01  0.22145023015E+02  0.12759291050E+03  0.12509032525E+03 0.  0.
         23    2    1    2    0    0  0.78582564269E+01 -0.89558416132E+01  0.13185514783E+02  0.94169503657E+02  0.92477447660E+02 0.  0.
          5    1    3    3  502    0  0.80259498934E+01 -0.44001399361E+02  0.48580877922E+02  0.66167311545E+02  0.41800000000E+01 0.  1.
         -5    1    3    3    0  502 -0.15884206320E+02  0.52957240974E+02 -0.26435854907E+02  0.61425598953E+02  0.41800000000E+01 0.  1.
        -11    1    4    4    0    0 -0.38329362881E+02 -0.18370206267E+02 -0.66638859569E+01  0.43023387979E+02  0.00000000000E+00 0. -1.
         11    1    4    4    0    0  0.46187619308E+02  0.94143646536E+01  0.19849400740E+02  0.51146115678E+02  0.00000000000E+00 0.  1.
</event>
<event>
 8    1  0.6185113E-009  0.7171774E+02  0.7561462E-02  0.1354347E+00
         -1   -1    0    0    0  501 -0.00000000000E+00  0.00000000000E+00  0.60239153999E+02  0.60239153999E+02  0.00000000000E+00 0.  1.
          1   -1    0    0  501    0  0.00000000000E+00 -0.00000000000E+00 -0.23564767852E+03  0.23564767852E+03  0.00000000000E+00 0. -1.
         25    2    1    2    0    0 -0.43688798721E+01 -0.49024390343E+02 -0.10293041849E+03  0.16930151735E+03  0.12508339125E+03 0.  0.
         23    2    1    2    0    0  0.43688798721E+01  0.49024390343E+02 -0.72478106030E+02  0.12658531517E+03  0.91368967395E+02 0.  0.
          5    1    3    3  502    0  0.75736677696E+01  0.86449852735E+01 -0.10924159556E+03  0.10992404111E+03  0.41800000000E+01 0.  1.
         -5    1    3    3    0  502 -0.11942547642E+02 -0.57669375617E+02  0.63111770700E+01  0.59377476237E+02  0.41800000000E+01 0.  1.
        -11    1    4    4    0    0  0.25978469366E+02  0.42104672167E+02  0.12038319472E+01  0.49488720940E+02  0.00000000000E+00 0.  1.
         11    1    4    4    0    0 -0.21609589494E+02  0.69197181764E+01 -0.73681937977E+02  0.77096594229E+02  0.00000000000E+00 0. -1.
</event>
<event>
 8    1  0.6185113E-009  0.1139883E+03  0.7561462E-02  0.1253357E+00
         -2   -1    0    0    0  501 -0.00000000000E+00  0.00000000000E+00  0.55657892302E+02  0.55657892302E+02  0.00000000000E+00 0.  1.
          2   -1    0    0  501    0  0.00000000000E+00 -0.00000000000E+00 -0.34507026490E+03  0.34507026490E+03  0.00000000000E+00 0. -1.
         25    2    1    2    0    0 -0.58045838818E+02 -0.20396529970E+02 -0.74107012253E+02  0.15787567979E+03  0.12509014017E+03 0.  0.
         23    2    1    2    0    0  0.58045838818E+02  0.20396529970E+02 -0.21530536035E+03  0.24285247741E+03  0.93997817796E+02 0.  0.
          5    1    3    3  502    0 -0.87751320115E+02  0.14223031506E+02 -0.29034790500E+02  0.93611325525E+02  0.41800000000E+01 0. -1.
         -5    1    3    3    0  502  0.29705481297E+02 -0.34619561476E+02 -0.45072221753E+02  0.64264354269E+02  0.41800000000E+01 0. -1.
        -11    1    4    4    0    0  0.37945429478E+02 -0.23681421321E+02 -0.17250363929E+03  0.17820822344E+03  0.00000000000E+00 0. -1.
         11    1    4    4    0    0  0.20100409340E+02  0.44077951290E+02 -0.42801721060E+02  0.64644253969E+02  0.00000000000E+00 0.  1.
</event>
<event>
 8    1  0.6185113E-009  0.1066534E+03  0.7561462E-02  0.1266896E+00
          2   -1    0    0  501    0  0.00000000000E+00  0.00000000000E+00  0.22735494691E+03  0.22735494691E+03  0.00000000000E+00 0. -1.
         -2   -1    0    0    0  501 -0.00000000000E+00 -0.00000000000E+00 -0.53640421354E+02  0.53640421354E+02  0.00000000000E+00 0.  1.
         25    2    1    2    0    0 -0.11836592279E+02  0.16445239350E+02  0.99562048465E+02  0.16114973800E+03  0.12508431456E+03 0.  0.
         23    2    1    2    0    0  0.11836592279E+02 -0.16445239350E+02  0.74152477095E+02  0.11984563027E+03  0.91944735688E+02 0.  0.
          5    1    3    3  502    0 -0.18266841672E+02  0.66559111378E+02  0.30743043512E+02  0.75672980227E+02  0.41800000000E+01 0.  1.
         -5    1    3    3    0  502  0.64302493930E+01 -0.50113872028E+02  0.68819004953E+02  0.85476757774E+02  0.41800000000E+01 0.  1.
        -11    1    4    4    0    0  0.16107581462E+02  0.36735027718E+02  0.39059832368E+02  0.55987382030E+02  0.00000000000E+00 0.  1.
         11    1    4    4    0    0 -0.42709891824E+01 -0.53180267067E+02  0.35092644727E+02  0.63858248237E+02  0.00000000000E+00 0. -1.
</event>
<event>
 8    1  0.6185113E-009  0.1166331E+03  0.7561462E-02  0.1248757E+00
          2   -1    0    0  501    0  0.00000000000E+00  0.00000000000E+00  0.28365963167E+03  0.28365963167E+03  0.00000000000E+00 0.  1.
         -2   -1    0    0    0  501 -0.00000000000E+00 -0.00000000000E+00 -0.75735568349E+02  0.75735568349E+02  0.00000000000E+00 0. -1.
         25    2    1    2    0    0 -0.76877407384E+02  0.37628039666E+02  0.54697729808E+02  0.16113662160E+03  0.12508862474E+03 0.  0.
         23    2    1    2    0    0  0.76877407384E+02 -0.37628039666E+02  0.15322633351E+03  0.19825857841E+03  0.92207101128E+02 0.  0.
          5    1    3    3  502    0 -0.49957734535E+02 -0.34859664350E+02  0.57187055107E+02  0.83658849563E+02  0.41800000000E+01 0. -1.
         -5    1    3    3    0  502 -0.26919672849E+02  0.72487704016E+02 -0.24893252984E+01  0.77477772040E+02  0.41800000000E+01 0. -1.
        -11    1    4    4    0    0  0.73556795243E+02 -0.19170869174E+02  0.16093410568E+03  0.17798289447E+03  0.00000000000E+00 0.  1.
         11    1    4    4    0    0  0.33206121408E+01 -0.18457170492E+02 -0.77077721736E+01  0.20275683945E+02  0.00000000000E+00 0. -1.
</event>
<event>
 7    1  0.6185113E-009  0.9679877E+02  0.7561462E-02  0.1287175E+00
          2   -1    0    0  501    0  0.00000000000E+00  0.00000000000E+00  0.16697509644E+03  0.16697509644E+03  0.00000000000E+00 0.  1.
         -2   -1    0    0    0  501 -0.00000000000E+00 -0.00000000000E+00 -0.11086712586E+03  0.11086712586E+03  0.00000000000E+00 0. -1.
         23    2    1    2    0    0 -0.18389745850E+02 -0.50019295671E+02 -0.38062064028E+02  0.11268339598E+03  0.91699042091E+02 0.  0.
          5    1    1    2  502    0 -0.50141779478E+02  0.43834864355E+02  0.45199013042E+02  0.80598489825E+02  0.41800000000E+01 0.  1.
         -5    1    1    2    0  502  0.68531525328E+02  0.61844313163E+01  0.48971021565E+02  0.84560336492E+02  0.41800000000E+01 0.  1.
        -11    1    3    3    0    0 -0.21906107898E+02 -0.27607948362E+02  0.26601737438E+02  0.44155733611E+02  0.00000000000E+00 0.  1.
         11    1    3    3    0    0  0.35163620482E+01 -0.22411347309E+02 -0.64663801466E+02  0.68527662373E+02  0.00000000000E+00 0. -1.
</event>
<event>
 8    1  0.6185113E-009  0.1278896E+03  0.7561462E-02  0.1230621E+00
         -2   -1    0    0    0  501 -0.00000000000E+00  0.00000000000E+00  0.85567999232E+02  0.85567999232E+02  0.00000000000E+00 0. -1.
          2   -1    0    0  501    0  0.00000000000E+00 -0.00000000000E+00 -0.30597699456E+03  0.30597699456E+03  0.00000000000E+00 0.  1.
         25    2    1    2    0    0 -0.91648437459E+02  0.41973233415E+02 -0.19440622240E+03  0.25219609306E+03  0.12509157300E+03 0.  0.
         23    2    1    2    0    0  0.91648437459E+02 -0.41973233415E+02 -0.26002772933E+02  0.13934890074E+03  0.92632518719E+02 0.  0.
          5    1    3    3  502    0 -0.45996389256E+02  0.69471694145E+02 -0.47799238450E+02  0.96146886108E+02  0.41800000000E+01 0.  1.
         -5    1    3    3    0  502 -0.45652048203E+02 -0.27498460729E+02 -0.14660698395E+03  0.15604920695E+03  0.41800000000E+01 0.  1.
        -11    1    4    4    0    0  0.42374731940E+01  0.14316611681E+02 -0.31892922017E+02  0.35214769968E+02  0.00000000000E+00 0.  1.
         11    1    4    4    0    0  0.87410964265E+02 -0.56289845096E+02  0.58901490839E+01  0.10413413077E+03  0.00000000000E+00 0. -1.
</event>
<event>
 8    1  0.6185113E-009  0.1154922E+03  0.7561462E-02  0.1250724E+00
         -1   -1    0    0    0  501 -0.00000000000E+00  0.00000000000E+00  0.53459416217E+02  0.53459416217E+02  0.00000000000E+00 0.  1.
          1   -1    0    0  501    0  0.00000000000E+00 -0.00000000000E+00 -0.46132860806E+03  0.46132860806E+03  0.00000000000E+00 0. -1.
         25    2    1    2    0    0  0.94641076657E+02 -0.26514631412E+02 -0.12714278804E+03  0.20364886067E+03  0.12509041063E+03 0.  0.
         23    2    1    2    0    0 -0.94641076657E+02  0.26514631412E+02 -0.28072640381E+03  0.31113916361E+03  0.91325277270E+02 0.  0.
          5    1    3    3  502    0  0.60899166567E+02 -0.53588999407E+02 -0.13974054363E+02  0.82421089178E+02  0.41800000000E+01 0.  1.
         -5    1    3    3    0  502  0.33741910090E+02  0.27074367995E+02 -0.11316873367E+03  0.12122777149E+03  0.41800000000E+01 0.  1.
        -11    1    4    4    0    0 -0.69469621479E+02 -0.36181495946E+00 -0.75350842124E+02  0.10248857803E+03  0.00000000000E+00 0.  1.
         11    1    4    4    0    0 -0.25171455178E+02  0.26876446371E+02 -0.20537556168E+03  0.20865058558E+03  0.00000000000E+00 0. -1.
</event>
<event>
 8    1  0.6185113E-009  0.2915335E+03  0.7561462E-02  0.1089551E+00
         -2   -1    0    0    0  501 -0.00000000000E+00  0.00000000000E+00  0.26723954503E+03  0.26723954503E+03  0.00000000000E+00 0.  1.
          2   -1    0    0  501    0  0.00000000000E+00 -0.00000000000E+00 -0.33425673345E+03  0.33425673345E+03  0.00000000000E+00 0. -1.
         25    2    1    2    0    0  0.21473253477E+03  0.17075413198E+03 -0.79827983668E+02  0.31190805892E+03  0.12508834946E+03 0.  0.
         23    2    1    2    0    0 -0.21473253477E+03 -0.17075413198E+03  0.12810795239E+02  0.28958821956E+03  0.91816040844E+02 0.  0.
          5    1    3    3  502    0  0.33774878517E+02 -0.13107354820E+02 -0.34003009289E+02  0.49862031747E+02  0.41800000000E+01 0.  1.
         -5    1    3    3    0  502  0.18095765625E+03  0.18386148680E+03 -0.45824974379E+02  0.26204602718E+03  0.41800000000E+01 0.  1.
        -11    1    4    4    0    0 -0.12788073911E+03 -0.44611880681E+02 -0.41417015491E+01  0.13550223993E+03  0.00000000000E+00 0. -1.
         11    1    4    4    0    0 -0.86851795654E+02 -0.12614225130E+03  0.16952496788E+02  0.15408597963E+03  0.00000000000E+00 0.  1.
</event>
<event>
 8    1  0.6185113E-009  0.5815066E+02  0.7561462E-02  0.1405761E+00
          3   -1    0    0  501    0  0.00000000000E+00  0.00000000000E+00  0.12553247922E+03  0.12553247922E+03  0.00000000000E+00 0. -1.
         -3   -1    0    0    0  501 -0.00000000000E+00 -0.00000000000E+00 -0.99350585608E+02  0.99350585608E+02  0.00000000000E+00 0.  1.
         25    2    1    2    0    0 -0.17534842814E+02 -0.49694014987E+01 -0.82605798042E+01  0.12668439337E+03  0.12509409531E+03 0.  0.
         23    2    1    2    0    0  0.17534842814E+02  0.49694014987E+01  0.34442473420E+02  0.98198671458E+02  0.90136171635E+02 0.  0.
          5    1    3    3  502    0 -0.87562894644E+01 -0.10195334051E+02 -0.66211854580E+02  0.67691207173E+02  0.41800000000E+01 0.  1.
         -5    1    3    3    0  502 -0.87785533500E+01  0.52259325518E+01  0.57951274776E+02  0.58993186201E+02  0.41800000000E+01 0.  1.
        -11    1    4    4    0    0 -0.12257080415E+02  0.41947911690E+02  0.22860958902E+02  0.49320246931E+02  0.00000000000E+00 0. -1.
         11    1    4    4    0    0  0.29791923230E+02 -0.36978510191E+02  0.11581514518E+02  0.48878424527E+02  0.00000000000E+00 0.  1.
</event>
<event>
 8    1  0.6185113E-009  0.7285364E+02  0.7561462E-02  0.1350649E+00
          1   -1    0    0  501    0  0.00000000000E+00  0.00000000000E+00  0.37479616182E+03  0.37479616182E+03  0.00000000000E+00 0. -1.
         -1   -1    0    0    0  501 -0.00000000000E+00 -0.00000000000E+00 -0.35610923047E+02  0.35610923047E+02  0.00000000000E+00 0.  1.
         25    2    1    2    0    0  0.10862402651E+02  0.11138939395E+02  0.12731741818E+03  0.17916224868E+03  0.12508924262E+03 0.  0.
         23    2    1    2    0    0 -0.10862402651E+02 -0.11138939395E+02  0.21186782059E+03  0.23124483618E+03  0.91346226494E+02 0.  0.
          5    1    3    3  502    0 -0.24887839304E+02  0.16141787075E+02 -0.14129250331E+02  0.33122046285E+02  0.41800000000E+01 0. -1.
         -5    1    3    3    0  502  0.35750241955E+02 -0.50028476807E+01  0.14144666851E+03  0.14604020240E+03  0.41800000000E+01 0. -1.
        -11    1    4    4    0    0 -0.36732560306E+02  0.17609564730E+02  0.16752195192E+03  0.17240354443E+03  0.00000000000E+00 0. -1.
         11    1    4    4    0    0  0.25870157655E+02 -0.28748504124E+02  0.44345868673E+02  0.58841291750E+02  0.00000000000E+00 0.  1.
</event>
<event>
 8    1  0.6185113E-009  0.1247629E+03  0.7561462E-02  0.1235440E+00
         -1   -1    0    0    0  501 -0.00000000000E+00  0.00000000000E+00  0.10710472536E+03  0.10710472536E+03  0.00000000000E+00 0.  1.
          1   -1    0    0  501    0  0.00000000000E+00 -0.00000000000E+00 -0.19401646775E+03  0.19401646775E+03  0.00000000000E+00 0. -1.
         25    2    1    2    0    0 -0.37281491433E+02  0.84247736321E+02 -0.68516715217E+02  0.16979373190E+03  0.12509108862E+03 0.  0.
         23    2    1    2    0    0  0.37281491433E+02 -0.84247736321E+02 -0.18395027175E+02  0.13132746120E+03  0.91765649143E+02 0.  0.
          5    1    3    3  502    0 -0.69552752916E+02  0.56630966943E+02 -0.85380284857E+02  0.12390285427E+03  0.41800000000E+01 0. -1.
         -5    1    3    3    0  502  0.32271261484E+02  0.27616769378E+02  0.16863569640E+02  0.45890877630E+02  0.41800000000E+01 0. -1.
        -11    1    4    4    0    0  0.75858577436E+01 -0.86911106085E+02  0.12800460624E+02  0.88175605418E+02  0.00000000000E+00 0.  1.
         11    1    4    4    0    0  0.29695633689E+02  0.26633697637E+01 -0.31195487799E+02  0.43151855786E+02  0.00000000000E+00 0. -1.
</event>
<event>
 8    1  0.6185113E-009  0.1029505E+03  0.7561462E-02  0.1274211E+00
         -4   -1    0    0    0  501 -0.00000000000E+00  0.00000000000E+00  0.31882474913E+03  0.31882474913E+03  0.00000000000E+00 0.  1.
          4   -1    0    0  501    0  0.00000000000E+00 -0.00000000000E+00 -0.40572856916E+02  0.40572856916E+02  0.00000000000E+00 0. -1.
         25    2    1    2    0    0 -0.53057045247E+01 -0.74084322258E+01  0.10457213705E+03  0.16329310473E+03  0.12508505441E+03 0.  0.
         23    2    1    2    0    0  0.53057045247E+01  0.74084322258E+01  0.17367975517E+03  0.19610450132E+03  0.90605092094E+02 0.  0.
          5    1    3    3  502    0  0.54019239484E+02 -0.12171528714E+02  0.18434446819E+02  0.58510901336E+02  0.41800000000E+01 0.  1.
         -5    1    3    3    0  502 -0.59324944009E+02  0.47630964883E+01  0.86137690231E+02  0.10478220339E+03  0.41800000000E+01 0.  1.
        -11    1    4    4    0    0  0.53818055128E+01  0.48910351930E+02  0.85543635389E+02  0.98685864804E+02  0.00000000000E+00 0.  1.
         11    1    4    4    0    0 -0.76100988103E-01 -0.41501919704E+02  0.88136119776E+02  0.97418636511E+02  0.00000000000E+00 0. -1.
</event>
<event>
 8    1  0.6185113E-009  0.1949441E+03  0.7561462E-02  0.1154076E+00
          2   -1    0    0  501    0  0.00000000000E+00  0.00000000000E+00  0.59741864748E+02  0.59741864748E+02  0.00000000000E+00 0. -1.
         -2   -1    0    0    0  501 -0.00000000000E+00 -0.00000000000E+00 -0.87998553548E+03  0.87998553548E+03  0.00000000000E+00 0.  1.
         25    2    1    2    0    0 -0.11448588821E+03  0.14174115220E+03 -0.25073930242E+03  0.33423884922E+03  0.12509131753E+03 0.  0.
         23    2    1    2    0    0  0.11448588821E+03 -0.14174115220E+03 -0.56950436832E+03  0.60548855102E+03  0.95307854126E+02 0.  0.
          5    1    3    3  502    0 -0.61790613437E+01  0.79170422764E+02 -0.16309907060E+03  0.18145224129E+03  0.41800000000E+01 0. -1.
         -5    1    3    3    0  502 -0.10830682686E+03  0.62570729431E+02 -0.87640231823E+02  0.15278660792E+03  0.41800000000E+01 0. -1.
        -11    1    4    4    0    0  0.70366547745E+02 -0.11106456954E+03 -0.50346069122E+03  0.52034551718E+03  0.00000000000E+00 0.  1.
         11    1    4    4    0    0  0.44119340463E+02 -0.30676582652E+02 -0.66043677096E+02  0.85143033834E+02  0.00000000000E+00 0. -1.
</event>
<event>
 8    1  0.6185113E-009  0.7510508E+02  0.7561462E-02  0.1343546E+00
         -1   -1    0    0    0  501 -0.00000000000E+00  0.00000000000E+00  0.58511159106E+02  0.58511159106E+02  0.00000000000E+00 0.  1.
          1   -1    0    0  501    0  0.00000000000E+00 -0.00000000000E+00 -0.27417960104E+03  0.27417960104E+03  0.00000000000E+00 0. -1.
         25    2    1    2    0    0 -0.10039021296E+02 -0.47394254148E+02 -0.61035323019E+02  0.14737660676E+03  0.12509019262E+03 0.  0.
         23    2    1    2    0    0  0.10039021296E+02  0.47394254148E+02 -0.15463311891E+03  0.18531415338E+03  0.89905153945E+02 0.  0.
          5    1    3    3  502    0 -0.41660141893E+02 -0.10425815084E+02  0.23960716214E+02  0.49354365200E+02  0.41800000000E+01 0. -1.
         -5    1    3    3    0  502  0.31621120598E+02 -0.36968439064E+02 -0.84996039233E+02  0.98022241558E+02  0.41800000000E+01 0. -1.
        -11    1    4    4    0    0 -0.56854633167E+01  0.40783923255E+02 -0.16169253980E+03  0.16685361943E+03  0.00000000000E+00 0. -1.
         11    1    4    4    0    0  0.15724484612E+02  0.66103308929E+01  0.70594208862E+01  0.18460533960E+02  0.00000000000E+00 0.  1.
</event>
<event>
 8    1  0.6185113E-009  0.8227256E+02  0.7561462E-02  0.1322723E+00
          3   -1    0    0  501    0  0.00000000000E+00  0.00000000000E+00  0.16712889080E+03  0.16712889080E+03  0.00000000000E+00 0. -1.
         -3   -1    0    0    0  501 -0.00000000000E+00 -0.00000000000E+00 -0.92783490570E+02  0.92783490570E+02  0.00000000000E+00 0.  1.
         25    2    1    2    0    0  0.99463806096E+01  0.58191873965E+02  0.60268245906E+02  0.15088083380E+03  0.12509012696E+03 0.  0.
         23    2    1    2    0    0 -0.99463806096E+01 -0.58191873965E+02  0.14077154320E+02  0.10903154756E+03  0.90578625555E+02 0.  0.
          5    1    3    3  502    0  0.11862623035E+02 -0.11387396355E+02  0.77266887188E+02  0.79107767486E+02  0.41800000000E+01 0. -1.
         -5    1    3    3    0  502 -0.19162424258E+01  0.69579270319E+02 -0.16998641281E+02  0.71773066317E+02  0.41800000000E+01 0. -1.
        -11    1    4    4    0    0 -0.26334198395E+02 -0.55239850330E+02  0.43598185929E+02  0.75138092110E+02  0.00000000000E+00 0.  1.
         11    1    4    4    0    0  0.16387817785E+02 -0.29520236348E+01 -0.29521031609E+02  0.33893455453E+02  0.00000000000E+00 0. -1.
</event>
<event>
 8    1  0.6185113E-009  0.1041227E+03  0.7561462E-02  0.1271858E+00
          2   -1    0    0  501    0  0.00000000000E+00  0.00000000000E+00  0.63464492424E+03  0.63464492424E+03  0.00000000000E+00 0. -1.
         -2   -1    0    0    0  501 -0.00000000000E+00 -0.00000000000E+00 -0.27691364521E+02  0.27691364521E+02  0.00000000000E+00 0.  1.
         25    2    1    2    0    0 -0.70201433823E+01 -0.76005199061E+02  0.31277039553E+03  0.34539446759E+03  0.12508375284E+03 0.  0.
         23    2    1    2    0    0  0.70201433823E+01  0.76005199061E+02  0.29418316419E+03  0.31694182117E+03  0.89901675269E+02 0.  0.
          5    1    3    3  502    0 -0.43788812362E+02 -0.66707186851E+02  0.94228464143E+02  0.12354669045E+03  0.41800000000E+01 0. -1.
         -5    1    3    3    0  502  0.36768668980E+02 -0.92980122091E+01  0.21854193138E+03  0.22184777714E+03  0.41800000000E+01 0. -1.
        -11    1    4    4    0    0 -0.20675485723E+02  0.36286162034E+02  0.24269338924E+03  0.24626051743E+03  0.00000000000E+00 0.  1.
         11    1    4    4    0    0  0.27695629106E+02  0.39719037027E+02  0.51489774957E+02  0.70681303745E+02  0.00000000000E+00 0. -1.
</event>
<event>
 8    1  0.6185113E-009  0.8450633E+02  0.7561462E-02  0.1316729E+00
          1   -1    0    0  501    0  0.00000000000E+00  0.00000000000E+00  0.13825592169E+03  0.13825592169E+03  0.00000000000E+00 0. -1.
         -1   -1    0    0    0  501 -0.00000000000E+00 -0.00000000000E+00 -0.99194028280E+02  0.99194028280E+02  0.00000000000E+00 0.  1.
         25    2    1    2    0    0 -0.32171852104E+02 -0.18332733541E+02 -0.32229898402E+01  0.13049098865E+03  0.12508554380E+03 0.  0.
         23    2    1    2    0    0  0.32171852104E+02  0.18332733541E+02  0.42284883251E+02  0.10695896132E+03  0.91000499276E+02 0.  0.
          5    1    3    3  502    0 -0.64227264347E+02 -0.90496076336E+01 -0.43354890176E+02  0.78129096923E+02  0.41800000000E+01 0. -1.
         -5    1    3    3    0  502  0.32055412243E+02 -0.92831259079E+01  0.40131900336E+02  0.52361891728E+02  0.41800000000E+01 0. -1.
        -11    1    4    4    0    0  0.35030843466E+02  0.37317943232E+02 -0.92059542820E+01  0.52005177389E+02  0.00000000000E+00 0.  1.
         11    1    4    4    0    0 -0.28589913628E+01 -0.18985209691E+02  0.51490837533E+02  0.54953783932E+02  0.00000000000E+00 0. -1.
</event>
<event>
 8    1  0.6185113E-009  0.1128846E+03  0.7561462E-02  0.1255319E+00
         -1   -1    0    0    0  501 -0.00000000000E+00  0.00000000000E+00  0.99339731971E+01  0.99339731971E+01  0.00000000000E+00 0.  1.
          1   -1    0    0  501    0  0.00000000000E+00 -0.00000000000E+00 -0.15994473238E+04  0.15994473238E+04  0.00000000000E+00 0. -1.
         25    2    1    2    0    0  0.68462482546E+01 -0.32557243383E+02 -0.12294552622E+04  0.12362498675E+04  0.12508656140E+03 0.  0.
         23    2    1    2    0    0 -0.68462482546E+01  0.32557243383E+02 -0.36005808838E+03  0.37313142951E+03  0.92078181282E+02 0.  0.
          5    1    3    3  502    0 -0.38360916710E+02  0.32091603025E+02 -0.44081208988E+03  0.44366000710E+03  0.41800000000E+01 0.  1.
         -5    1    3    3    0  502  0.45207164965E+02 -0.64648846408E+02 -0.78864317234E+03  0.79258986038E+03  0.41800000000E+01 0.  1.
        -11    1    4    4    0    0 -0.31738369937E+02 -0.20633476879E+02 -0.11232300485E+03  0.11853067921E+03  0.00000000000E+00 0.  1.
         11    1    4    4    0    0  0.24892121683E+02  0.53190720262E+02 -0.24773508353E+03  0.25460075030E+03  0.00000000000E+00 0. -1.
</event>
<event>
 8    1  0.6185113E-009  0.1249803E+03  0.7561462E-02  0.1235100E+00
         -3   -1    0    0    0  501 -0.00000000000E+00  0.00000000000E+00  0.16069827587E+03  0.16069827587E+03  0.00000000000E+00 0.  1.
          3   -1    0    0  501    0  0.00000000000E+00 -0.00000000000E+00 -0.14673207240E+03  0.14673207240E+03  0.00000000000E+00 0. -1.
         25    2    1    2    0    0  0.47543548056E+02  0.77484781275E+02 -0.47170254533E+02  0.16166756906E+03  0.12508832752E+03 0.  0.
         23    2    1    2    0    0 -0.47543548056E+02 -0.77484781275E+02  0.61136458003E+02  0.14576277921E+03  0.96150096275E+02 0.  0.
          5    1    3    3  502    0  0.17901484660E+01  0.75095885248E+02  0.22189039523E+02  0.78437379403E+02  0.41800000000E+01 0. -1.
         -5    1    3    3    0  502  0.45753399590E+02  0.23888960269E+01 -0.69359294056E+02  0.83230189656E+02  0.41800000000E+01 0. -1.
        -11    1    4    4    0    0  0.19969749391E+02 -0.53447518862E+02  0.44068935173E+02  0.72093683569E+02  0.00000000000E+00 0.  1.
         11    1    4    4    0    0 -0.67513297447E+02 -0.24037262413E+02  0.17067522830E+02  0.73669095637E+02  0.00000000000E+00 0. -1.
</event>
<event>
 8    1  0.6185113E-009  0.7243142E+02  0.7561462E-02  0.1352015E+00
          1   -1    0    0  501    0  0.00000000000E+00  0.00000000000E+00  0.41423628677E+03  0.41423628677E+03  0.00000000000E+00 0. -1.
         -1   -1    0    0    0  501 -0.00000000000E+00 -0.00000000000E+00 -0.31214090132E+02  0.31214090132E+02  0.00000000000E+00 0.  1.
         25    2    1    2    0    0  0.99490541450E+00  0.79365866467E+01  0.15411037604E+03  0.19865055276E+03  0.12509218546E+03 0.  0.
         23    2    1    2    0    0 -0.99490541450E+00 -0.79365866467E+01  0.22891182060E+03  0.24679982415E+03  0.91899686309E+02 0.  0.
          5    1    3    3  502    0  0.23083431491E+02 -0.20305981779E+02  0.15920084163E+03  0.16219604829E+03  0.41800000000E+01 0. -1.
         -5    1    3    3    0  502 -0.22088526077E+02  0.28242568426E+02 -0.50904655970E+01  0.36454504461E+02  0.41800000000E+01 0. -1.
        -11    1    4    4    0    0 -0.10153045487E+02  0.33653876137E+02  0.17289767503E+03  0.17643489944E+03  0.00000000000E+00 0. -1.
         11    1    4    4    0    0  0.91581400723E+01 -0.41590462784E+02  0.56014145571E+02  0.70364924701E+02  0.00000000000E+00 0.  1.
</event>
<event>
 8    1  0.6185113E-009  0.1366608E+03  0.7561462E-02  0.1217894E+00
         -2   -1    0    0    0  501 -0.00000000000E+00  0.00000000000E+00  0.35228212081E+02  0.35228212081E+02  0.00000000000E+00 0. -1.
          2   -1    0    0  501    0  0.00000000000E+00 -0.00000000000E+00 -0.65525617979E+03  0.65525617979E+03  0.00000000000E+00 0.  1.
         25    2    1    2    0    0 -0.93160240100E+02  0.47879319927E+02 -0.34790088365E+03  0.38425918751E+03  0.12509531857E+03 0.  0.
         23    2    1    2    0    0  0.93160240100E+02 -0.47879319927E+02 -0.27212708406E+03  0.30622520436E+03  0.93538581861E+02 0.  0.
          5    1    3    3  502    0  0.12363389382E+02  0.40090468981E+02 -0.18660825002E+03  0.19131181478E+03  0.41800000000E+01 0.  1.
         -5    1    3    3    0  502 -0.10552362948E+03  0.77888509455E+01 -0.16129263363E+03  0.19294737273E+03  0.41800000000E+01 0.  1.
        -11    1    4    4    0    0  0.33382714316E+02  0.16650128698E+02 -0.15682677142E+03  0.16120257019E+03  0.00000000000E+00 0.  1.
         11    1    4    4    0    0  0.59777525784E+02 -0.64529448625E+02 -0.11530031264E+03  0.14502263417E+03  0.00000000000E+00 0. -1.
</event>
<event>
 8    1  0.6185113E-009  0.8398332E+02  0.7561462E-02  0.1318113E+00
          2   -1    0    0  501    0  0.00000000000E+00  0.00000000000E+00  0.20759967275E+03  0.20759967275E+03  0.00000000000E+00 0. -1.
         -2   -1    0    0    0  501 -0.00000000000E+00 -0.00000000000E+00 -0.81363396157E+02  0.81363396157E+02  0.00000000000E+00 0.  1.
         25    2    1    2    0    0 -0.57327008508E+02  0.37320243731E+02  0.50546180673E+02  0.15126577441E+03  0.12508889491E+03 0.  0.
         23    2    1    2    0    0  0.57327008508E+02 -0.37320243731E+02  0.75690095916E+02  0.13769729449E+03  0.92479012721E+02 0.  0.
          5    1    3    3  502    0 -0.40047954036E+02  0.43590289694E+02 -0.31429315374E+02  0.67150772467E+02  0.41800000000E+01 0. -1.
         -5    1    3    3    0  502 -0.17279054473E+02 -0.62700459627E+01  0.81975496046E+02  0.84115001943E+02  0.41800000000E+01 0. -1.
        -11    1    4    4    0    0  0.16272808170E+02 -0.45138579608E+02  0.82417369707E+02  0.95367282042E+02  0.00000000000E+00 0. -1.
         11    1    4    4    0    0  0.41054200338E+02  0.78183358764E+01 -0.67272737910E+01  0.42330012449E+02  0.00000000000E+00 0.  1.
</event>
<event>
 8    1  0.6185113E-009  0.1016911E+03  0.7561462E-02  0.1276779E+00
          2   -1    0    0  501    0  0.00000000000E+00  0.00000000000E+00  0.64461432616E+03  0.64461432616E+03  0.00000000000E+00 0. -1.
         -2   -1    0    0    0  501 -0.00000000000E+00 -0.00000000000E+00 -0.18280187707E+02  0.18280187707E+02  0.00000000000E+00 0.  1.
         25    2    1    2    0    0  0.17189595551E+02 -0.14832814390E+02  0.38848676348E+03  0.40875998934E+03  0.12508904392E+03 0.  0.
         23    2    1    2    0    0 -0.17189595551E+02  0.14832814390E+02  0.23784737498E+03  0.25413452453E+03  0.86588037264E+02 0.  0.
          5    1    3    3  502    0 -0.38894453806E+02  0.34605832034E+02  0.15573434573E+03  0.16425894492E+03  0.41800000000E+01 0. -1.
         -5    1    3    3    0  502  0.56084049357E+02 -0.49438646423E+02  0.23275241775E+03  0.24450104442E+03  0.41800000000E+01 0. -1.
        -11    1    4    4    0    0 -0.75957506607E+01  0.44474132884E+02  0.69033433062E+02  0.82469744781E+02  0.00000000000E+00 0.  1.
         11    1    4    4    0    0 -0.95938448899E+01 -0.29641318494E+02  0.16881394192E+03  0.17166477975E+03  0.00000000000E+00 0. -1.
</event>
<event>
 8    1  0.6185113E-009  0.9761059E+02  0.7561462E-02  0.1285402E+00
          2   -1    0    0  501    0  0.00000000000E+00  0.00000000000E+00  0.59295489440E+03  0.59295489440E+03  0.00000000000E+00 0. -1.
         -2   -1    0    0    0  501 -0.00000000000E+00 -0.00000000000E+00 -0.29175990388E+02  0.29175990388E+02  0.00000000000E+00 0.  1.
         25    2    1    2    0    0 -0.17255396853E+02 -0.56391323500E+02  0.42064621100E+03  0.44279543220E+03  0.12508728898E+03 0.  0.
         23    2    1    2    0    0  0.17255396853E+02  0.56391323500E+02  0.14313269301E+03  0.17933545258E+03  0.90534560573E+02 0.  0.
          5    1    3    3  502    0  0.19739303760E+02  0.30151685488E+02  0.60623783163E+02  0.70650405063E+02  0.41800000000E+01 0. -1.
         -5    1    3    3    0  502 -0.36994700613E+02 -0.86543008988E+02  0.36002242784E+03  0.37214502714E+03  0.41800000000E+01 0. -1.
        -11    1    4    4    0    0  0.24304210322E+02  0.38858155492E+02  0.15178347677E+03  0.15855243520E+03  0.00000000000E+00 0. -1.
         11    1    4    4    0    0 -0.70488134692E+01  0.17533168008E+02 -0.86507837627E+01  0.20783017380E+02  0.00000000000E+00 0.  1.
</event>
<event>
 8    1  0.6185113E-009  0.1034149E+03  0.7561462E-02  0.1273274E+00
          1   -1    0    0  501    0  0.00000000000E+00  0.00000000000E+00  0.44014267145E+02  0.44014267145E+02  0.00000000000E+00 0. -1.
         -1   -1    0    0    0  501 -0.00000000000E+00 -0.00000000000E+00 -0.31042819378E+03  0.31042819378E+03  0.00000000000E+00 0.  1.
         25    2    1    2    0    0 -0.31019765567E+01  0.37390504408E+02 -0.18785186420E+03  0.22877144457E+03  0.12506150043E+03 0.  0.
         23    2    1    2    0    0  0.31019765567E+01 -0.37390504408E+02 -0.78562062431E+02  0.12567101635E+03  0.90628552996E+02 0.  0.
          5    1    3    3  502    0 -0.55926524050E+02  0.30948369165E+02 -0.51002562496E+02  0.81879859718E+02  0.41800000000E+01 0. -1.
         -5    1    3    3    0  502  0.52824547493E+02  0.64421352423E+01 -0.13684930170E+03  0.14689158485E+03  0.41800000000E+01 0. -1.
        -11    1    4    4    0    0  0.30290146699E+02 -0.50749834667E+02 -0.74516342757E+02  0.95109011369E+02  0.00000000000E+00 0.  1.
         11    1    4    4    0    0 -0.27188170142E+02  0.13359330260E+02 -0.40457196745E+01  0.30562004979E+02  0.00000000000E+00 0. -1.
</event>
<event>
 8    1  0.6185113E-009  0.1730122E+03  0.7561462E-02  0.1174743E+00
          1   -1    0    0  501    0  0.00000000000E+00  0.00000000000E+00  0.56198279787E+03  0.56198279787E+03  0.00000000000E+00 0. -1.
         -1   -1    0    0    0  501 -0.00000000000E+00 -0.00000000000E+00 -0.71538141269E+02  0.71538141269E+02  0.00000000000E+00 0.  1.
         25    2    1    2    0    0  0.14818506189E+03 -0.64937164944E+02  0.33718503497E+03  0.39435628180E+03  0.12508989259E+03 0.  0.
         23    2    1    2    0    0 -0.14818506189E+03  0.64937164944E+02  0.15325962163E+03  0.23916465734E+03  0.86807682482E+02 0.  0.
          5    1    3    3  502    0  0.14049865894E+03 -0.25419426872E+02  0.31990614555E+03  0.35034759138E+03  0.41800000000E+01 0. -1.
         -5    1    3    3    0  502  0.76864029558E+01 -0.39517738072E+02  0.17278889419E+02  0.44008690418E+02  0.41800000000E+01 0. -1.
        -11    1    4    4    0    0 -0.35248049551E+02  0.76309936811E+01  0.91322921637E+02  0.98186216334E+02  0.00000000000E+00 0. -1.
         11    1    4    4    0    0 -0.11293701234E+03  0.57306171263E+02  0.61936699992E+02  0.14097844100E+03  0.00000000000E+00 0.  1.
</event>
<event>
 8    1  0.6185113E-009  0.1115041E+03  0.7561462E-02  0.1257810E+00
          2   -1    0    0  501    0  0.00000000000E+00  0.00000000000E+00  0.17301793856E+03  0.17301793856E+03  0.00000000000E+00 0. -1.
         -2   -1    0    0    0  501 -0.00000000000E+00 -0.00000000000E+00 -0.11764351582E+03  0.11764351582E+03  0.00000000000E+00 0.  1.
         25    2    1    2    0    0 -0.35424402156E+01  0.69987921366E+02 -0.31201015665E+02  0.14673758961E+03  0.12509020268E+03 0.  0.
         23    2    1    2    0    0  0.35424402156E+01 -0.69987921366E+02  0.86575438406E+02  0.14392386476E+03  0.91147760767E+02 0.  0.
          5    1    3    3  502    0  0.15160604011E+01  0.90737509781E+02 -0.61301189918E+02  0.10959426265E+03  0.41800000000E+01 0. -1.
         -5    1    3    3    0  502 -0.50585006167E+01 -0.20749588415E+02  0.30100174253E+02  0.37143326964E+02  0.41800000000E+01 0. -1.
        -11    1    4    4    0    0  0.10452164811E+02  0.18710610541E+02  0.35134655105E+02  0.41155542585E+02  0.00000000000E+00 0. -1.
         11    1    4    4    0    0 -0.69097245951E+01 -0.88698531907E+02  0.51440783300E+02  0.10276832218E+03  0.00000000000E+00 0.  1.
</event>
<event>
 8    1  0.6185113E-009  0.1042546E+03  0.7561462E-02  0.1271595E+00
         -1   -1    0    0    0  501 -0.00000000000E+00  0.00000000000E+00  0.19903902710E+02  0.19903902710E+02  0.00000000000E+00 0.  1.
          1   -1    0    0  501    0  0.00000000000E+00 -0.00000000000E+00 -0.93909186300E+03  0.93909186300E+03  0.00000000000E+00 0. -1.
         25    2    1    2    0    0 -0.22682009424E+02 -0.57870094692E+02 -0.70805792351E+03  0.72170020738E+03  0.12506696157E+03 0.  0.
         23    2    1    2    0    0  0.22682009424E+02  0.57870094692E+02 -0.21113003678E+03  0.23729555833E+03  0.88712277399E+02 0.  0.
          5    1    3    3  502    0  0.38003051026E+02 -0.58940047057E+02 -0.50059920824E+03  0.50550489684E+03  0.41800000000E+01 0.  1.
         -5    1    3    3    0  502 -0.60685060450E+02  0.10699523641E+01 -0.20745871527E+03  0.21619531054E+03  0.41800000000E+01 0.  1.
        -11    1    4    4    0    0  0.33416396316E+02  0.22081184028E+02 -0.24477955816E+02  0.46940436212E+02  0.00000000000E+00 0.  1.
         11    1    4    4    0    0 -0.10734386892E+02  0.35788910664E+02 -0.18665208096E+03  0.19035512212E+03  0.00000000000E+00 0. -1.
</event>
<event>
 8    1  0.6185113E-009  0.1171447E+03  0.7561462E-02  0.1247883E+00
          1   -1    0    0  501    0  0.00000000000E+00  0.00000000000E+00  0.10620734409E+04  0.10620734409E+04  0.00000000000E+00 0. -1.
         -1   -1    0    0    0  501 -0.00000000000E+00 -0.00000000000E+00 -0.18053182331E+02  0.18053182331E+02  0.00000000000E+00 0.  1.
         25    2    1    2    0    0 -0.80169608504E+02  0.62057392700E+01  0.67615810366E+03  0.69231746057E+03  0.12509199712E+03 0.  0.
         23    2    1    2    0    0  0.80169608504E+02 -0.62057392700E+01  0.36786215489E+03  0.38780916264E+03  0.92777714446E+02 0.  0.
          5    1    3    3  502    0 -0.30183089022E+02 -0.35318105486E+02  0.79941954696E+02  0.92555799163E+02  0.41800000000E+01 0.  1.
         -5    1    3    3    0  502 -0.49986519482E+02  0.41523844756E+02  0.59621614896E+03  0.59976166141E+03  0.41800000000E+01 0.  1.
        -11    1    4    4    0    0  0.67022385664E+02 -0.45554500875E+02  0.23139499297E+03  0.24517515270E+03  0.00000000000E+00 0.  1.
         11    1    4    4    0    0  0.13147222840E+02  0.39348761605E+02  0.13646716193E+03  0.14263400994E+03  0.00000000000E+00 0. -1.
</event>
<event>
 8    1  0.6185113E-009  0.1073284E+03  0.7561462E-02  0.1265599E+00
         -2   -1    0    0    0  501 -0.00000000000E+00  0.00000000000E+00  0.48676971605E+03  0.48676971605E+03  0.00000000000E+00 0.  1.
          2   -1    0    0  501    0  0.00000000000E+00 -0.00000000000E+00 -0.38100692102E+02  0.38100692102E+02  0.00000000000E+00 0. -1.
         25    2    1    2    0    0  0.28395376483E+02  0.43176740977E+02  0.37699887274E+03  0.40055764150E+03  0.12509094993E+03 0.  0.
         23    2    1    2    0    0 -0.28395376483E+02 -0.43176740977E+02  0.71670151215E+02  0.12431276665E+03  0.87444410973E+02 0.  0.
          5    1    3    3  502    0 -0.39365400971E+02  0.53489067055E+02  0.17670038165E+03  0.18881528636E+03  0.41800000000E+01 0. -1.
         -5    1    3    3    0  502  0.67760777454E+02 -0.10312326078E+02  0.20029849108E+03  0.21174235514E+03  0.41800000000E+01 0. -1.
        -11    1    4    4    0    0  0.12657271050E+02 -0.35487790144E+02 -0.39918918560E+01  0.37888322216E+02  0.00000000000E+00 0. -1.
         11    1    4    4    0    0 -0.41052647532E+02 -0.76889508327E+01  0.75662043071E+02  0.86424444436E+02  0.00000000000E+00 0.  1.
</event>
<event>
 8    1  0.6185113E-009  0.6888404E+02  0.7561462E-02  0.1363930E+00
         -2   -1    0    0    0  501 -0.00000000000E+00  0.00000000000E+00  0.26189232447E+02  0.26189232447E+02  0.00000000000E+00 0.  1.
          2   -1    0    0  501    0  0.00000000000E+00 -0.00000000000E+00 -0.50808930025E+03  0.50808930025E+03  0.00000000000E+00 0. -1.
         25    2    1    2    0    0  0.25619720103E+01  0.37067258370E+02 -0.28535221335E+03  0.31377384294E+03  0.12509034137E+03 0.  0.
         23    2    1    2    0    0 -0.25619720103E+01 -0.37067258370E+02 -0.19654785445E+03  0.22050468976E+03  0.92793931764E+02 0.  0.
          5    1    3    3  502    0  0.32350334094E+02  0.30987479601E+02 -0.24708732855E+02  0.51329931690E+02  0.41800000000E+01 0. -1.
         -5    1    3    3    0  502 -0.29788362083E+02  0.60797787690E+01 -0.26064348050E+03  0.26244391125E+03  0.41800000000E+01 0. -1.
        -11    1    4    4    0    0  0.23424874506E+02 -0.21496245885E+02 -0.18558303172E+03  0.18828668300E+03  0.00000000000E+00 0. -1.
         11    1    4    4    0    0 -0.25986846516E+02 -0.15571012485E+02 -0.10964822725E+02  0.32218006752E+02  0.00000000000E+00 0.  1.
</event>
<event>
 8    1  0.6185113E-009  0.8325848E+02  0.7561462E-02  0.1320051E+00
         -2   -1    0    0    0  501 -0.00000000000E+00  0.00000000000E+00  0.27002720196E+03  0.27002720196E+03  0.00000000000E+00 0.  1.
          2   -1    0    0  501    0  0.00000000000E+00 -0.00000000000E+00 -0.56380916318E+02  0.56380916318E+02  0.00000000000E+00 0. -1.
         25    2    1    2    0    0  0.42997915998E+02 -0.37622116183E+02  0.99713987037E+02  0.16986795204E+03  0.12509195623E+03 0.  0.
         23    2    1    2    0    0 -0.42997915998E+02  0.37622116183E+02  0.11393229861E+03  0.15654016624E+03  0.90884600307E+02 0.  0.
          5    1    3    3  502    0  0.24175705508E+01  0.21338005982E+00  0.11264244056E+03  0.11274609525E+03  0.41800000000E+01 0. -1.
         -5    1    3    3    0  502  0.40580345447E+02 -0.37835496243E+02 -0.12928453527E+02  0.57121856791E+02  0.41800000000E+01 0. -1.
        -11    1    4    4    0    0 -0.34836241101E+01  0.60356047989E+02  0.76820301080E+02  0.97756569211E+02  0.00000000000E+00 0.  1.
         11    1    4    4    0    0 -0.39514291888E+02 -0.22733931806E+02  0.37111997526E+02  0.58783597025E+02  0.00000000000E+00 0. -1.
</event>
<event>
 8    1  0.6185113E-009  0.2068394E+03  0.7561462E-02  0.1144094E+00
          2   -1    0    0  501    0  0.00000000000E+00  0.00000000000E+00  0.17931698421E+03  0.17931698421E+03  0.00000000000E+00 0. -1.
         -2   -1    0    0    0  501 -0.00000000000E+00 -0.00000000000E+00 -0.27092198808E+03  0.27092198808E+03  0.00000000000E+00 0.  1.
         25    2    1    2    0    0 -0.18394315570E+03 -0.43096074439E+02 -0.74204705935E+02  0.23842329808E+03  0.12508786721E+03 0.  0.
         23    2    1    2    0    0  0.18394315570E+03  0.43096074439E+02 -0.17400297933E+02  0.21181567421E+03  0.94184676624E+02 0.  0.
          5    1    3    3  502    0 -0.13190408729E+03  0.22904920893E+02 -0.76479743955E+02  0.15423990171E+03  0.41800000000E+01 0. -1.
         -5    1    3    3    0  502 -0.52039068408E+02 -0.66000995332E+02  0.22750380201E+01  0.84183396365E+02  0.41800000000E+01 0. -1.
        -11    1    4    4    0    0  0.79128704764E+02 -0.69504778465E+01 -0.46544496467E+02  0.92065472417E+02  0.00000000000E+00 0.  1.
         11    1    4    4    0    0  0.10481445094E+03  0.50046552285E+02  0.29144198534E+02  0.11975020179E+03  0.00000000000E+00 0. -1.
</event>
<event>
 8    1  0.6185113E-009  0.1647025E+03  0.7561462E-02  0.1183488E+00
          1   -1    0    0  501    0  0.00000000000E+00  0.00000000000E+00  0.49224184768E+03  0.49224184768E+03  0.00000000000E+00 0. -1.
         -1   -1    0    0    0  501 -0.00000000000E+00 -0.00000000000E+00 -0.68932380745E+02  0.68932380745E+02  0.00000000000E+00 0.  1.
         25    2    1    2    0    0 -0.85329962221E+02  0.11254545044E+03  0.28706460629E+03  0.34351291991E+03  0.12508939641E+03 0.  0.
         23    2    1    2    0    0  0.85329962221E+02 -0.11254545044E+03  0.13624486064E+03  0.21766130851E+03  0.94159982500E+02 0.  0.
          5    1    3    3  502    0 -0.32968430151E+02 -0.18652076511E+02  0.24422080372E+02  0.45262873910E+02  0.41800000000E+01 0. -1.
         -5    1    3    3    0  502 -0.52361532070E+02  0.13119752695E+03  0.26264252592E+03  0.29825004600E+03  0.41800000000E+01 0. -1.
        -11    1    4    4    0    0  0.18294644222E+02 -0.65680805201E+02  0.11410817926E+03  0.13292606499E+03  0.00000000000E+00 0. -1.
         11    1    4    4    0    0  0.67035317999E+02 -0.46864645240E+02  0.22136681384E+02  0.84735243526E+02  0.00000000000E+00 0.  1.
</event>
<event>
 8    1  0.6185113E-009  0.1135733E+03  0.7561462E-02  0.1254092E+00
         -1   -1    0    0    0  501 -0.00000000000E+00  0.00000000000E+00  0.29140528525E+02  0.29140528525E+02  0.00000000000E+00 0.  1.
          1   -1    0    0  501    0  0.00000000000E+00 -0.00000000000E+00 -0.10373817048E+04  0.10373817048E+04  0.00000000000E+00 0. -1.
         25    2    1    2    0    0 -0.15470731507E+02 -0.10043367547E+03 -0.80731057109E+03  0.82324092815E+03  0.12509596668E+03 0.  0.
         23    2    1    2    0    0  0.15470731507E+02  0.10043367547E+03 -0.20093060514E+03  0.24328130513E+03  0.92121759883E+02 0.  0.
          5    1    3    3  502    0  0.22648233063E+02 -0.77484789535E+02 -0.72576195336E+03  0.73024976577E+03  0.41800000000E+01 0. -1.
         -5    1    3    3    0  502 -0.38118964570E+02 -0.22948885933E+02 -0.81548617737E+02  0.92991162377E+02  0.41800000000E+01 0. -1.
        -11    1    4    4    0    0  0.22737132179E+01  0.12918937364E+02  0.86953836098E+01  0.15737801960E+02  0.00000000000E+00 0.  1.
         11    1    4    4    0    0  0.13197018289E+02  0.87514738105E+02 -0.20962598875E+03  0.22754350317E+03  0.00000000000E+00 0. -1.
</event>
<event>
 8    1  0.6185113E-009  0.9312792E+02  0.7561462E-02  0.1295449E+00
         -1   -1    0    0    0  501 -0.00000000000E+00  0.00000000000E+00  0.83671943287E+02  0.83671943287E+02  0.00000000000E+00 0.  1.
          1   -1    0    0  501    0  0.00000000000E+00 -0.00000000000E+00 -0.16039380451E+03  0.16039380451E+03  0.00000000000E+00 0. -1.
         25    2    1    2    0    0  0.38134598668E+02  0.66688927531E+01 -0.66288941378E+02  0.14676577738E+03  0.12508896000E+03 0.  0.
         23    2    1    2    0    0 -0.38134598668E+02 -0.66688927531E+01 -0.10432919846E+02  0.97299970422E+02  0.88655043181E+02 0.  0.
          5    1    3    3  502    0  0.37599661887E+02 -0.56136871306E+02 -0.29373348947E+02  0.73792607505E+02  0.41800000000E+01 0. -1.
         -5    1    3    3    0  502  0.53493678079E+00  0.62805764059E+02 -0.36915592431E+02  0.72973169871E+02  0.41800000000E+01 0. -1.
        -11    1    4    4    0    0 -0.19995499741E+02 -0.23509490038E+02 -0.45133317546E+02  0.54676617347E+02  0.00000000000E+00 0. -1.
         11    1    4    4    0    0 -0.18139098927E+02  0.16840597285E+02  0.34700397700E+02  0.42623353075E+02  0.00000000000E+00 0.  1.
</event>
<event>
 8    1  0.6185113E-009  0.2344551E+03  0.7561462E-02  0.1123543E+00
          1   -1    0    0  501    0  0.00000000000E+00  0.00000000000E+00  0.29376721752E+03  0.29376721752E+03  0.00000000000E+00 0. -1.
         -1   -1    0    0    0  501 -0.00000000000E+00 -0.00000000000E+00 -0.19417825625E+03  0.19417825625E+03  0.00000000000E+00 0.  1.
         25    2    1    2    0    0  0.20024745917E+03 -0.70157236066E+02  0.54862697075E+02  0.25234777088E+03  0.12509356203E+03 0.  0.
         23    2    1    2    0    0 -0.20024745917E+03  0.70157236066E+02  0.44726264197E+02  0.23559770290E+03  0.92112736489E+02 0.  0.
          5    1    3    3  502    0  0.11260553443E+03  0.24430778354E+02  0.41910893048E+02  0.12268196555E+03  0.41800000000E+01 0.  1.
         -5    1    3    3    0  502  0.87641924745E+02 -0.94588014420E+02  0.12951804026E+02  0.12966580533E+03  0.41800000000E+01 0.  1.
        -11    1    4    4    0    0 -0.50403301015E+02 -0.14551183075E+02  0.35255042865E+02  0.63207180996E+02  0.00000000000E+00 0. -1.
         11    1    4    4    0    0 -0.14984415816E+03  0.84708419142E+02  0.94712213319E+01  0.17239052190E+03  0.00000000000E+00 0.  1.
</event>
<event>
 8    1  0.6185113E-009  0.1098889E+03  0.7561462E-02  0.1260776E+00
          4   -1    0    0  501    0  0.00000000000E+00  0.00000000000E+00  0.11496069573E+03  0.11496069573E+03  0.00000000000E+00 0. -1.
         -4   -1    0    0    0  501 -0.00000000000E+00 -0.00000000000E+00 -0.17065028656E+03  0.17065028656E+03  0.00000000000E+00 0.  1.
         25    2    1    2    0    0 -0.56636813710E+02  0.67927666990E+02 -0.24522158902E+02  0.15514759839E+03  0.12509014509E+03 0.  0.
         23    2    1    2    0    0  0.56636813710E+02 -0.67927666990E+02 -0.31167431930E+02  0.13046338390E+03  0.90704956398E+02 0.  0.
          5    1    3    3  502    0  0.87805215882E+00  0.47776250624E+02 -0.65796364395E+02  0.81424658838E+02  0.41800000000E+01 0.  1.
         -5    1    3    3    0  502 -0.57514865869E+02  0.20151416366E+02  0.41274205492E+02  0.73722939554E+02  0.41800000000E+01 0.  1.
        -11    1    4    4    0    0  0.36876631253E+02 -0.79633600505E+02  0.46880878738E+01  0.87882731125E+02  0.00000000000E+00 0. -1.
         11    1    4    4    0    0  0.19760182457E+02  0.11705933515E+02 -0.35855519804E+02  0.42580652773E+02  0.00000000000E+00 0.  1.
</event>
<event>
 8    1  0.6185113E-009  0.2143809E+03  0.7561462E-02  0.1138143E+00
          1   -1    0    0  501    0  0.00000000000E+00  0.00000000000E+00  0.12839080309E+04  0.12839080309E+04  0.00000000000E+00 0. -1.
         -1   -1    0    0    0  501 -0.00000000000E+00 -0.00000000000E+00 -0.40908878598E+02  0.40908878598E+02  0.00000000000E+00 0.  1.
         25    2    1    2    0    0  0.91352498646E+02  0.17053142010E+03  0.80467978286E+03  0.83700868510E+03  0.12509093392E+03 0.  0.
         23    2    1    2    0    0 -0.91352498646E+02 -0.17053142010E+03  0.43831936948E+03  0.48780822443E+03  0.91688330274E+02 0.  0.
          5    1    3    3  502    0 -0.20267579827E+02  0.50246912859E+01  0.28618914163E+02  0.35672636045E+02  0.41800000000E+01 0.  1.
         -5    1    3    3    0  502  0.11162007847E+03  0.16550672882E+03  0.77606086869E+03  0.80133604906E+03  0.41800000000E+01 0.  1.
        -11    1    4    4    0    0 -0.31426123404E+02 -0.13394490560E+03  0.34181529014E+03  0.36846510221E+03  0.00000000000E+00 0. -1.
         11    1    4    4    0    0 -0.59926375242E+02 -0.36586514500E+02  0.96504079333E+02  0.11934312222E+03  0.00000000000E+00 0.  1.
</event>
<event>
 8    1  0.6185113E-009  0.1144151E+03  0.7561462E-02  0.1252606E+00
         -1   -1    0    0    0  501 -0.00000000000E+00  0.00000000000E+00  0.60865932675E+02  0.60865932675E+02  0.00000000000E+00 0.  1.
          1   -1    0    0  501    0  0.00000000000E+00 -0.00000000000E+00 -0.47215400406E+03  0.47215400406E+03  0.00000000000E+00 0. -1.
         25    2    1    2    0    0 -0.59324491088E+02  0.72834448999E+02 -0.35096032716E+03  0.38424668347E+03  0.12509240712E+03 0.  0.
         23    2    1    2    0    0  0.59324491088E+02 -0.72834448999E+02 -0.60327744225E+02  0.14877325326E+03  0.98335100337E+02 0.  0.
          5    1    3    3  502    0 -0.36116897878E+01  0.76426991770E+02 -0.94082392900E+02  0.12133877545E+03  0.41800000000E+01 0. -1.
         -5    1    3    3    0  502 -0.55712801301E+02 -0.35925427711E+01 -0.25687793426E+03  0.26290790802E+03  0.41800000000E+01 0. -1.
        -11    1    4    4    0    0  0.32482922303E+02 -0.23626877716E+02  0.24536993342E+02  0.47068393155E+02  0.00000000000E+00 0.  1.
         11    1    4    4    0    0  0.26841568786E+02 -0.49207571283E+02 -0.84864737567E+02  0.10170486010E+03  0.00000000000E+00 0. -1.
</event>
<event>
 8    1  0.6185113E-009  0.1438730E+03  0.7561462E-02  0.1208211E+00
          3   -1    0    0  501    0  0.00000000000E+00  0.00000000000E+00  0.53569662851E+02  0.53569662851E+02  0.00000000000E+00 0. -1.
         -3   -1    0    0    0  501 -0.00000000000E+00 -0.00000000000E+00 -0.51056274315E+03  0.51056274315E+03  0.00000000000E+00 0.  1.
         25    2    1    2    0    0  0.12250134753E+03 -0.24206057515E+02 -0.26711683518E+03  0.32030085427E+03  0.12509484497E+03 0.  0.
         23    2    1    2    0    0 -0.12250134753E+03  0.24206057515E+02 -0.18987624512E+03  0.24383155174E+03  0.88364720310E+02 0.  0.
          5    1    3    3  502    0  0.78350730185E+02  0.31956662983E+02 -0.67745940560E+02  0.10847603464E+03  0.41800000000E+01 0.  1.
         -5    1    3    3    0  502  0.44150617343E+02 -0.56162720498E+02 -0.19937089462E+03  0.21182481962E+03  0.41800000000E+01 0.  1.
        -11    1    4    4    0    0 -0.46196184468E+02 -0.10909736532E+02 -0.14920796021E+02  0.49756808223E+02  0.00000000000E+00 0. -1.
         11    1    4    4    0    0 -0.76305163060E+02  0.35115794047E+02 -0.17495544910E+03  0.19407474351E+03  0.00000000000E+00 0.  1.
</event>
<event>
 8    1  0.6185113E-009  0.2459216E+03  0.7561462E-02  0.1115910E+00
          2   -1    0    0  501    0  0.00000000000E+00  0.00000000000E+00  0.44410439396E+03  0.44410439396E+03  0.00000000000E+00 0.  1.
         -2   -1    0    0    0  501 -0.00000000000E+00 -0.00000000000E+00 -0.19143740190E+03  0.19143740190E+03  0.00000000000E+00 0. -1.
         25    2    1    2    0    0  0.39988830332E+02  0.23445722404E+03 -0.11515576317E+02  0.26897784048E+03  0.12508866341E+03 0.  0.
         23    2    1    2    0    0 -0.39988830332E+02 -0.23445722404E+03  0.26418256838E+03  0.36656395537E+03  0.89484118633E+02 0.  0.
          5    1    3    3  502    0  0.40252888385E+02  0.18906094489E+03  0.42841977649E+02  0.19803343999E+03  0.41800000000E+01 0. -1.
         -5    1    3    3    0  502 -0.26405805294E+00  0.45396279158E+02 -0.54357553966E+02  0.70944400493E+02  0.41800000000E+01 0. -1.
        -11    1    4    4    0    0  0.26961487992E+02 -0.52325887513E+02  0.77278616498E+02  0.97143733234E+02  0.00000000000E+00 0.  1.
         11    1    4    4    0    0 -0.66950318324E+02 -0.18213133653E+03  0.18690395188E+03  0.26942022214E+03  0.00000000000E+00 0. -1.
</event>
<event>
 8    1  0.6185113E-009  0.1032957E+03  0.7561462E-02  0.1273514E+00
          1   -1    0    0  501    0  0.00000000000E+00  0.00000000000E+00  0.17779364805E+03  0.17779364805E+03  0.00000000000E+00 0. -1.
         -1   -1    0    0    0  501 -0.00000000000E+00 -0.00000000000E+00 -0.76304743055E+02  0.76304743055E+02  0.00000000000E+00 0.  1.
         25    2    1    2    0    0  0.20267241031E+01  0.28469393370E+02  0.92437167900E+02  0.15813481613E+03  0.12508947235E+03 0.  0.
         23    2    1    2    0    0 -0.20267241031E+01 -0.28469393370E+02  0.90517370914E+01  0.95963574972E+02  0.91172692225E+02 0.  0.
          5    1    3    3  502    0 -0.27216742008E+02 -0.42899531605E+02  0.33916456293E+02  0.61228418768E+02  0.41800000000E+01 0. -1.
         -5    1    3    3    0  502  0.29243466111E+02  0.71368924975E+02  0.58520711607E+02  0.96906397360E+02  0.41800000000E+01 0. -1.
        -11    1    4    4    0    0 -0.28107292400E+02  0.11728921258E+02  0.30823130101E+02  0.43331891594E+02  0.00000000000E+00 0. -1.
         11    1    4    4    0    0  0.26080568297E+02 -0.40198314628E+02 -0.21771393009E+02  0.52631683378E+02  0.00000000000E+00 0.  1.
</event>
<event>
 8    1  0.6185113E-009  0.2191794E+03  0.7561462E-02  0.1134496E+00
         -2   -1    0    0    0  501 -0.00000000000E+00  0.00000000000E+00  0.33849499312E+03  0.33849499312E+03  0.00000000000E+00 0.  1.
          2   -1    0    0  501    0  0.00000000000E+00 -0.00000000000E+00 -0.15617673358E+03  0.15617673358E+03  0.00000000000E+00 0. -1.
         25    2    1    2    0    0 -0.16262985276E+03 -0.10951084080E+03  0.15094897917E+03  0.27726463040E+03  0.12509591399E+03 0.  0.
         23    2    1    2    0    0  0.16262985276E+03  0.10951084080E+03  0.31369280368E+02  0.21740709630E+03  0.88547843049E+02 0.  0.
          5    1    3    3  502    0 -0.23933510436E+02  0.25675720068E+02  0.73083548655E+01  0.36096259829E+02  0.41800000000E+01 0. -1.
         -5    1    3    3    0  502 -0.13869634233E+03 -0.13518656087E+03  0.14364062431E+03  0.24116837058E+03  0.41800000000E+01 0. -1.
        -11    1    4    4    0    0  0.15513424099E+03  0.71992715033E+02  0.44907832563E+02  0.17682278465E+03  0.00000000000E+00 0. -1.
         11    1    4    4    0    0  0.74956117768E+01  0.37518125768E+02 -0.13538552195E+02  0.40584311656E+02  0.00000000000E+00 0.  1.
</event>
<event>
 8    1  0.6185113E-009  0.1108618E+03  0.7561462E-02  0.1258982E+00
         -1   -1    0    0    0  501 -0.00000000000E+00  0.00000000000E+00  0.10541496730E+03  0.10541496730E+03  0.00000000000E+00 0.  1.
          1   -1    0    0  501    0  0.00000000000E+00 -0.00000000000E+00 -0.16945763090E+03  0.16945763090E+03  0.00000000000E+00 0. -1.
         25    2    1    2    0    0 -0.45224741358E+02  0.49743895781E+02 -0.78862092634E+02  0.16243976122E+03  0.12509082289E+03 0.  0.
         23    2    1    2    0    0  0.45224741358E+02 -0.49743895781E+02  0.14819429035E+02  0.11243283699E+03  0.88892041032E+02 0.  0.
          5    1    3    3  502    0  0.16163328824E+02 -0.33710303571E+02 -0.28354841810E+02  0.47107400900E+02  0.41800000000E+01 0. -1.
         -5    1    3    3    0  502 -0.61388070182E+02  0.83454199351E+02 -0.50507250825E+02  0.11533236032E+03  0.41800000000E+01 0. -1.
        -11    1    4    4    0    0  0.51623606547E+02 -0.30093253210E+02  0.45733428813E+02  0.75247240166E+02  0.00000000000E+00 0.  1.
         11    1    4    4    0    0 -0.63988651883E+01 -0.19650642570E+02 -0.30913999777E+02  0.37185596827E+02  0.00000000000E+00 0. -1.
</event>
<event>
 8    1  0.6185113E-009  0.1206305E+03  0.7561462E-02  0.1242060E+00
         -1   -1    0    0    0  501 -0.00000000000E+00  0.00000000000E+00  0.24294341484E+03  0.24294341484E+03  0.00000000000E+00 0.  1.
          1   -1    0    0  501    0  0.00000000000E+00 -0.00000000000E+00 -0.62256299542E+02  0.62256299542E+02  0.00000000000E+00 0. -1.
         25    2    1    2    0    0 -0.27211601078E+02 -0.48436567411E+02  0.12387741623E+03  0.18460826168E+03  0.12509206104E+03 0.  0.
         23    2    1    2    0    0  0.27211601078E+02  0.48436567411E+02  0.56809699074E+02  0.12059145270E+03  0.90710441845E+02 0.  0.
          5    1    3    3  502    0  0.84328628470E+01 -0.84624423729E+02  0.67902350034E+02  0.10890641766E+03  0.41800000000E+01 0. -1.
         -5    1    3    3    0  502 -0.35644463925E+02  0.36187856318E+02  0.55975066192E+02  0.75701844024E+02  0.41800000000E+01 0. -1.
        -11    1    4    4    0    0 -0.22498695213E+02  0.50615461376E+02  0.20786808773E+02  0.59162552646E+02  0.00000000000E+00 0. -1.
         11    1    4    4    0    0  0.49710296291E+02 -0.21788939651E+01  0.36022890301E+02  0.61428900054E+02  0.00000000000E+00 0.  1.
</event>
<event>
 8    1  0.6185113E-009  0.1157291E+03  0.7561462E-02  0.1250314E+00
         -2   -1    0    0    0  501 -0.00000000000E+00  0.00000000000E+00  0.16581566347E+02  0.16581566347E+02  0.00000000000E+00 0. -1.
          2   -1    0    0  501    0  0.00000000000E+00 -0.00000000000E+00 -0.11196085280E+04  0.11196085280E+04  0.00000000000E+00 0.  1.
         25    2    1    2    0    0  0.71610481078E+02  0.50917489964E+02 -0.66471443806E+03  0.68206578974E+03  0.12509118905E+03 0.  0.
         23    2    1    2    0    0 -0.71610481078E+02 -0.50917489964E+02 -0.43831252358E+03  0.45412430460E+03  0.79939751790E+02 0.  0.
          5    1    3    3  502    0  0.34476836713E+02  0.79872148948E+02 -0.25145746304E+03  0.26611377373E+03  0.41800000000E+01 0. -1.
         -5    1    3    3    0  502  0.37133644364E+02 -0.28954658984E+02 -0.41325697502E+03  0.41595201601E+03  0.41800000000E+01 0. -1.
        -11    1    4    4    0    0 -0.64253908451E+02 -0.23043782078E+02 -0.40202732494E+03  0.40778125342E+03  0.00000000000E+00 0.  1.
         11    1    4    4    0    0 -0.73565726263E+01 -0.27873707886E+02 -0.36285198642E+02  0.46343051179E+02  0.00000000000E+00 0. -1.
</event>
<event>
 8    1  0.6185113E-009  0.9284826E+02  0.7561462E-02  0.1296097E+00
          1   -1    0    0  501    0  0.00000000000E+00  0.00000000000E+00  0.91436741122E+02  0.91436741122E+02  0.00000000000E+00 0. -1.
         -1   -1    0    0    0  501 -0.00000000000E+00 -0.00000000000E+00 -0.13493710212E+03  0.13493710212E+03  0.00000000000E+00 0.  1.
         25    2    1    2    0    0  0.19847200663E+02  0.14080693957E+02 -0.19677375760E+02  0.12894554788E+03  0.12509027894E+03 0.  0.
         23    2    1    2    0    0 -0.19847200663E+02 -0.14080693957E+02 -0.23822985235E+02  0.97428295362E+02  0.91282861453E+02 0.  0.
          5    1    3    3  502    0 -0.48242582906E+02 -0.18044733866E+01  0.15084857188E+02  0.50750647740E+02  0.41800000000E+01 0.  1.
         -5    1    3    3    0  502  0.68089783569E+02  0.15885167344E+02 -0.34762232948E+02  0.78194900137E+02  0.41800000000E+01 0.  1.
        -11    1    4    4    0    0  0.22702455961E+02 -0.11755367476E+01  0.23360150680E+02  0.32595705747E+02  0.00000000000E+00 0. -1.
         11    1    4    4    0    0 -0.42549656624E+02 -0.12905157209E+02 -0.47183135915E+02  0.64832589615E+02  0.00000000000E+00 0.  1.
</event>
<event>
 8    1  0.6185113E-009  0.1123198E+03  0.7561462E-02  0.1256333E+00
         -2   -1    0    0    0  501 -0.00000000000E+00  0.00000000000E+00  0.48189993644E+02  0.48189993644E+02  0.00000000000E+00 0.  1.
          2   -1    0    0  501    0  0.00000000000E+00 -0.00000000000E+00 -0.44624754764E+03  0.44624754764E+03  0.00000000000E+00 0. -1.
         25    2    1    2    0    0  0.45529595053E+02  0.56362346131E+02 -0.10433124620E+03  0.17827404612E+03  0.12508784312E+03 0.  0.
         23    2    1    2    0    0 -0.45529595053E+02 -0.56362346131E+02 -0.29372630780E+03  0.31616349517E+03  0.91839826327E+02 0.  0.
          5    1    3    3  502    0  0.63482599742E+02  0.66648416263E+01 -0.31456106517E+01  0.64045513897E+02  0.41800000000E+01 0.  1.
         -5    1    3    3    0  502 -0.17953004689E+02  0.49697504505E+02 -0.10118563555E+03  0.11422853222E+03  0.41800000000E+01 0.  1.
        -11    1    4    4    0    0 -0.23707144402E+02 -0.75192994533E+02 -0.14878006063E+03  0.16837910073E+03  0.00000000000E+00 0.  1.
         11    1    4    4    0    0 -0.21822450652E+02  0.18830648402E+02 -0.14494624717E+03  0.14778439444E+03  0.00000000000E+00 0. -1.
</event>
<event>
 8    1  0.6185113E-009  0.2095590E+03  0.7561462E-02  0.1141916E+00
          2   -1    0    0  501    0  0.00000000000E+00  0.00000000000E+00  0.63215326505E+03  0.63215326505E+03  0.00000000000E+00 0. -1.
         -2   -1    0    0    0  501 -0.00000000000E+00 -0.00000000000E+00 -0.87126453796E+02  0.87126453796E+02  0.00000000000E+00 0.  1.
         25    2    1    2    0    0  0.20380749704E+03 -0.13606522003E+02  0.33919984644E+03  0.41524368349E+03  0.12509255596E+03 0.  0.
         23    2    1    2    0    0 -0.20380749704E+03  0.13606522003E+02  0.20582696481E+03  0.30403603536E+03  0.91381278509E+02 0.  0.
          5    1    3    3  502    0  0.57731534881E+02  0.18083928675E+02  0.20683969426E+03  0.21554602784E+03  0.41800000000E+01 0. -1.
         -5    1    3    3    0  502  0.14607596216E+03 -0.31690450678E+02  0.13236015219E+03  0.19969765565E+03  0.41800000000E+01 0. -1.
        -11    1    4    4    0    0 -0.17490444057E+03  0.27194740602E+02  0.20664136757E+03  0.27208780208E+03  0.00000000000E+00 0. -1.
         11    1    4    4    0    0 -0.28903056470E+02 -0.13588218599E+02 -0.81440275758E+00  0.31948233282E+02  0.00000000000E+00 0.  1.
</event>
<event>
 8    1  0.6185113E-009  0.9837251E+02  0.7561462E-02  0.1283756E+00
          2   -1    0    0  501    0  0.00000000000E+00  0.00000000000E+00  0.44044751329E+03  0.44044751329E+03  0.00000000000E+00 0. -1.
         -2   -1    0    0    0  501 -0.00000000000E+00 -0.00000000000E+00 -0.30514770359E+02  0.30514770359E+02  0.00000000000E+00 0.  1.
         25    2    1    2    0    0  0.38156688993E+02 -0.24653079859E+02  0.22561298252E+03  0.26194154964E+03  0.12509376596E+03 0.  0.
         23    2    1    2    0    0 -0.38156688993E+02  0.24653079859E+02  0.18431976041E+03  0.20902073401E+03  0.87476773534E+02 0.  0.
          5    1    3    3  502    0  0.54749235121E+02 -0.62873347431E+02  0.18781603363E+03  0.20553070683E+03  0.41800000000E+01 0. -1.
         -5    1    3    3    0  502 -0.16592546128E+02  0.38220267572E+02  0.37796948895E+02  0.56410842806E+02  0.41800000000E+01 0. -1.
        -11    1    4    4    0    0 -0.23880700586E+02 -0.15707692307E+02  0.11222156128E+02  0.30707592649E+02  0.00000000000E+00 0.  1.
         11    1    4    4    0    0 -0.14275988407E+02  0.40360772166E+02  0.17309760428E+03  0.17831314136E+03  0.00000000000E+00 0. -1.
</event>
<event>
 8    1  0.6185113E-009  0.9833953E+02  0.7561462E-02  0.1283827E+00
         -2   -1    0    0    0  501 -0.00000000000E+00  0.00000000000E+00  0.10042445361E+03  0.10042445361E+03  0.00000000000E+00 0.  1.
          2   -1    0    0  501    0  0.00000000000E+00 -0.00000000000E+00 -0.15257357018E+03  0.15257357018E+03  0.00000000000E+00 0. -1.
         25    2    1    2    0    0 -0.43676584221E+02 -0.38305675630E+01  0.94362526197E+01  0.13288780876E+03  0.12509120512E+03 0.  0.
         23    2    1    2    0    0  0.43676584221E+02  0.38305675630E+01 -0.61585369195E+02  0.12011021503E+03  0.93334820934E+02 0.  0.
          5    1    3    3  502    0 -0.65679544501E+02 -0.48463497848E+02 -0.15957972700E+01  0.81746756256E+02  0.41800000000E+01 0.  1.
         -5    1    3    3    0  502  0.22002960279E+02  0.44632930285E+02  0.11032049890E+02  0.51141052508E+02  0.41800000000E+01 0.  1.
        -11    1    4    4    0    0 -0.79484081182E+01 -0.88051698018E+01  0.19697364526E+02  0.22993355043E+02  0.00000000000E+00 0.  1.
         11    1    4    4    0    0  0.51624992339E+02  0.12635737365E+02 -0.81282733721E+02  0.97116859988E+02  0.00000000000E+00 0. -1.
</event>
<event>
 8    1  0.6185113E-009  0.1091294E+03  0.7561462E-02  0.1262191E+00
         -2   -1    0    0    0  501 -0.00000000000E+00  0.00000000000E+00  0.13199021536E+03  0.13199021536E+03  0.00000000000E+00 0.  1.
          2   -1    0    0  501    0  0.00000000000E+00 -0.00000000000E+00 -0.19232127773E+03  0.19232127773E+03  0.00000000000E+00 0. -1.
         25    2    1    2    0    0  0.62797700815E+02  0.43970191129E+02  0.57821610341E+02  0.15769689630E+03  0.12509214022E+03 0.  0.
         23    2    1    2    0    0 -0.62797700815E+02 -0.43970191129E+02 -0.11815267271E+03  0.16661459678E+03  0.89013711613E+02 0.  0.
          5    1    3    3  502    0  0.26900091772E+02  0.64459577825E+02 -0.17096796370E+02  0.72030722312E+02  0.41800000000E+01 0. -1.
         -5    1    3    3    0  502  0.35897609043E+02 -0.20489386695E+02  0.74918406711E+02  0.85666173991E+02  0.41800000000E+01 0. -1.
        -11    1    4    4    0    0 -0.20597397982E+02 -0.58571177814E+02 -0.32639129446E+02  0.70143769824E+02  0.00000000000E+00 0.  1.
         11    1    4    4    0    0 -0.42200302833E+02  0.14600986684E+02 -0.85513543266E+02  0.96470826955E+02  0.00000000000E+00 0. -1.
</event>
<event>
 8    1  0.6185113E-009  0.8000597E+02  0.7561462E-02  0.1329034E+00
          1   -1    0    0  501    0  0.00000000000E+00  0.00000000000E+00  0.37225023298E+03  0.37225023298E+03  0.00000000000E+00 0. -1.
         -1   -1    0    0    0  501 -0.00000000000E+00 -0.00000000000E+00 -0.48880673896E+02  0.48880673896E+02  0.00000000000E+00 0.  1.
         25    2    1    2    0    0 -0.40429058790E+02  0.40235015329E+01  0.32138300907E+03  0.34725325034E+03  0.12508830478E+03 0.  0.
         23    2    1    2    0    0  0.40429058790E+02 -0.40235015329E+01  0.19865500202E+01  0.73877656543E+02  0.61670612094E+02 0.  0.
          5    1    3    3  502    0 -0.56595390488E+02  0.41955894849E+02  0.10228626148E+03  0.12427102246E+03  0.41800000000E+01 0. -1.
         -5    1    3    3    0  502  0.16166331698E+02 -0.37932393316E+02  0.21909674759E+03  0.22298222787E+03  0.41800000000E+01 0. -1.
        -11    1    4    4    0    0  0.33771629077E+02  0.75823639626E+01  0.28069250295E+02  0.44563415330E+02  0.00000000000E+00 0. -1.
         11    1    4    4    0    0  0.66574297128E+01 -0.11605865496E+02 -0.26082700274E+02  0.29314241213E+02  0.00000000000E+00 0.  1.
</event>
<event>
 8    1  0.6185113E-009  0.1117601E+03  0.7561462E-02  0.1257345E+00
         -1   -1    0    0    0  501 -0.00000000000E+00  0.00000000000E+00  0.11806629040E+04  0.11806629040E+04  0.00000000000E+00 0.  1.
          1   -1    0    0  501    0  0.00000000000E+00 -0.00000000000E+00 -0.11437124869E+02  0.11437124869E+02  0.00000000000E+00 0. -1.
         25    2    1    2    0    0  0.31602056959E+02 -0.98276039568E+01  0.81193345476E+03  0.82218087361E+03  0.12510068817E+03 0.  0.
         23    2    1    2    0    0 -0.31602056959E+02  0.98276039568E+01  0.35729232437E+03  0.36991915525E+03  0.89928330150E+02 0.  0.
          5    1    3    3  502    0  0.23231719291E+02  0.56597740799E+02  0.33707452782E+03  0.34260724854E+03  0.41800000000E+01 0. -1.
         -5    1    3    3    0  502  0.83703376676E+01 -0.66425344756E+02  0.47485892693E+03  0.47957362507E+03  0.41800000000E+01 0. -1.
        -11    1    4    4    0    0 -0.11533397025E+02 -0.39877989242E+02  0.17853786198E+03  0.18330041308E+03  0.00000000000E+00 0.  1.
         11    1    4    4    0    0 -0.20068659934E+02  0.49705593198E+02  0.17875446238E+03  0.18661874217E+03  0.00000000000E+00 0. -1.
</event>
<event>
 8    1  0.6185113E-009  0.2419816E+03  0.7561462E-02  0.1118480E+00
          2   -1    0    0  501    0  0.00000000000E+00  0.00000000000E+00  0.36114198532E+03  0.36114198532E+03  0.00000000000E+00 0. -1.
         -2   -1    0    0    0  501 -0.00000000000E+00 -0.00000000000E+00 -0.21578107960E+03  0.21578107960E+03  0.00000000000E+00 0.  1.
         25    2    1    2    0    0 -0.22271689915E+02  0.23845727433E+03 -0.21372312114E+02  0.27103780811E+03  0.12508724094E+03 0.  0.
         23    2    1    2    0    0  0.22271689915E+02 -0.23845727433E+03  0.16673321783E+03  0.30588525682E+03  0.91694735713E+02 0.  0.
          5    1    3    3  502    0 -0.32435121243E+00  0.31702574177E+02 -0.51789329689E+02  0.60866784726E+02  0.41800000000E+01 0. -1.
         -5    1    3    3    0  502 -0.21947338703E+02  0.20675470015E+03  0.30417017575E+02  0.21017102338E+03  0.41800000000E+01 0. -1.
        -11    1    4    4    0    0 -0.14082817168E+02 -0.94807856937E+02  0.21144746661E+02  0.98152716660E+02  0.00000000000E+00 0.  1.
         11    1    4    4    0    0  0.36354507083E+02 -0.14364941739E+03  0.14558847117E+03  0.20773254016E+03  0.00000000000E+00 0. -1.
</event>
<event>
 8    1  0.6185113E-009  0.9549921E+02  0.7561462E-02  0.1290056E+00
          1   -1    0    0  501    0  0.00000000000E+00  0.00000000000E+00  0.30798945867E+03  0.30798945867E+03  0.00000000000E+00 0. -1.
         -1   -1    0    0    0  501 -0.00000000000E+00 -0.00000000000E+00 -0.40790722799E+02  0.40790722799E+02  0.00000000000E+00 0.  1.
         25    2    1    2    0    0 -0.55544853378E+02 -0.15439251073E+02  0.18625682872E+03  0.23165331062E+03  0.12509216148E+03 0.  0.
         23    2    1    2    0    0  0.55544853378E+02  0.15439251073E+02  0.80941907142E+02  0.11712687085E+03  0.61996050941E+02 0.  0.
          5    1    3    3  502    0  0.85969604037E+01 -0.52777742760E+02  0.37776189040E+02  0.65604197407E+02  0.41800000000E+01 0. -1.
         -5    1    3    3    0  502 -0.64141813781E+02  0.37338491687E+02  0.14848063968E+03  0.16604911321E+03  0.41800000000E+01 0. -1.
        -11    1    4    4    0    0  0.52103160238E+02  0.53630942326E+01  0.21302891426E+02  0.56544807628E+02  0.00000000000E+00 0.  1.
         11    1    4    4    0    0  0.34416931392E+01  0.10076156840E+02  0.59639015716E+02  0.60582063219E+02  0.00000000000E+00 0. -1.
</event>
<event>
 8    1  0.6185113E-009  0.1236738E+03  0.7561462E-02  0.1237157E+00
          1   -1    0    0  501    0  0.00000000000E+00  0.00000000000E+00  0.75057056116E+02  0.75057056116E+02  0.00000000000E+00 0. -1.
         -1   -1    0    0    0  501 -0.00000000000E+00 -0.00000000000E+00 -0.31683148226E+03  0.31683148226E+03  0.00000000000E+00 0.  1.
         25    2    1    2    0    0  0.55769737104E+02  0.49726629204E+02 -0.28933879751E+02  0.14855218775E+03  0.12509029483E+03 0.  0.
         23    2    1    2    0    0 -0.55769737104E+02 -0.49726629204E+02 -0.21284054640E+03  0.24333635063E+03  0.91260506889E+02 0.  0.
          5    1    3    3  502    0  0.73644732370E+02  0.79288851523E+02 -0.95387765304E+01  0.10871397904E+03  0.41800000000E+01 0. -1.
         -5    1    3    3    0  502 -0.17874995265E+02 -0.29562222320E+02 -0.19395103221E+02  0.39838208709E+02  0.41800000000E+01 0. -1.
        -11    1    4    4    0    0  0.15075986294E+02 -0.25045384296E+02 -0.12233810001E+03  0.12578222192E+03  0.00000000000E+00 0.  1.
         11    1    4    4    0    0 -0.70845723398E+02 -0.24681244907E+02 -0.90502446385E+02  0.11755412871E+03  0.00000000000E+00 0. -1.
</event>
<event>
 8    1  0.6185113E-009  0.1328603E+03  0.7561462E-02  0.1223272E+00
          3   -1    0    0  501    0  0.00000000000E+00  0.00000000000E+00  0.54579112948E+02  0.54579112948E+02  0.00000000000E+00 0. -1.
         -3   -1    0    0    0  501 -0.00000000000E+00 -0.00000000000E+00 -0.50579236147E+03  0.50579236147E+03  0.00000000000E+00 0.  1.
         25    2    1    2    0    0  0.79428217072E+02 -0.70614784065E+02 -0.13214935806E+03  0.21072791128E+03  0.12509000903E+03 0.  0.
         23    2    1    2    0    0 -0.79428217072E+02  0.70614784065E+02 -0.31906389046E+03  0.34964356314E+03  0.95674268513E+02 0.  0.
          5    1    3    3  502    0  0.81967546817E+02 -0.39134624820E+02 -0.14910236895E+03  0.17464016267E+03  0.41800000000E+01 0. -1.
         -5    1    3    3    0  502 -0.25393297451E+01 -0.31480159245E+02  0.16953010884E+02  0.36087748609E+02  0.41800000000E+01 0. -1.
        -11    1    4    4    0    0 -0.78278330537E+02  0.62134768224E+01 -0.17009076969E+03  0.18734186467E+03  0.00000000000E+00 0.  1.
         11    1    4    4    0    0 -0.11498865351E+01  0.64401307243E+02 -0.14897312077E+03  0.16230169847E+03  0.00000000000E+00 0. -1.
</event>
<event>
 8    1  0.6185113E-009  0.1315093E+03  0.7561462E-02  0.1225233E+00
          1   -1    0    0  501    0  0.00000000000E+00  0.00000000000E+00  0.70881170930E+02  0.70881170930E+02  0.00000000000E+00 0. -1.
         -1   -1    0    0    0  501 -0.00000000000E+00 -0.00000000000E+00 -0.44566551062E+03  0.44566551062E+03  0.00000000000E+00 0.  1.
         25    2    1    2    0    0 -0.47954654466E+01  0.10351160074E+03 -0.33788388440E+03  0.37490156992E+03  0.12509204537E+03 0.  0.
         23    2    1    2    0    0  0.47954654466E+01 -0.10351160074E+03 -0.36900455293E+02  0.14164511163E+03  0.89241504200E+02 0.  0.
          5    1    3    3  502    0  0.33009888093E+02  0.16237948132E+02 -0.18031479492E+02  0.41181674615E+02  0.41800000000E+01 0. -1.
         -5    1    3    3    0  502 -0.37805353540E+02  0.87273652611E+02 -0.31985240491E+03  0.33371989530E+03  0.41800000000E+01 0. -1.
        -11    1    4    4    0    0  0.44894265448E+01 -0.11710722615E+03 -0.18315080765E+02  0.11861576435E+03  0.00000000000E+00 0. -1.
         11    1    4    4    0    0  0.30603890180E+00  0.13595625411E+02 -0.18585374528E+02  0.23029347287E+02  0.00000000000E+00 0.  1.
</event>
<event>
 8    1  0.6185113E-009  0.2147437E+03  0.7561462E-02  0.1137864E+00
         -1   -1    0    0    0  501 -0.00000000000E+00  0.00000000000E+00  0.11348023943E+03  0.11348023943E+03  0.00000000000E+00 0.  1.
          1   -1    0    0  501    0  0.00000000000E+00 -0.00000000000E+00 -0.54538549219E+03  0.54538549219E+03  0.00000000000E+00 0. -1.
         25    2    1    2    0    0  0.10472504185E+03 -0.16708823657E+03 -0.35836442906E+03  0.42773508140E+03  0.12508566129E+03 0.  0.
         23    2    1    2    0    0 -0.10472504185E+03  0.16708823657E+03 -0.73540823703E+02  0.23113065021E+03  0.95536964181E+02 0.  0.
          5    1    3    3  502    0  0.85387299672E+02 -0.26061682893E+02 -0.16417091672E+03  0.18692181402E+03  0.41800000000E+01 0.  1.
         -5    1    3    3    0  502  0.19337742182E+02 -0.14102655367E+03 -0.19419351234E+03  0.24081326739E+03  0.41800000000E+01 0.  1.
        -11    1    4    4    0    0 -0.11759998787E+02  0.28440272794E+02  0.22884861729E+02  0.38351839388E+02  0.00000000000E+00 0.  1.
         11    1    4    4    0    0 -0.92965043068E+02  0.13864796377E+03 -0.96425685432E+02  0.19277881082E+03  0.00000000000E+00 0. -1.
</event>
<event>
 8    1  0.6185113E-009  0.1056650E+03  0.7561462E-02  0.1268815E+00
         -2   -1    0    0    0  501 -0.00000000000E+00  0.00000000000E+00  0.27943473445E+03  0.27943473445E+03  0.00000000000E+00 0.  1.
          2   -1    0    0  501    0  0.00000000000E+00 -0.00000000000E+00 -0.72040286187E+02  0.72040286187E+02  0.00000000000E+00 0. -1.
         25    2    1    2    0    0  0.81707003690E+02  0.36453695979E+02  0.13356016580E+03  0.20366851922E+03  0.12505055550E+03 0.  0.
         23    2    1    2    0    0 -0.81707003690E+02 -0.36453695979E+02  0.73834282458E+02  0.14780650141E+03  0.91598876583E+02 0.  0.
          5    1    3    3  502    0  0.18762505063E+02 -0.96834744460E+01 -0.21251756996E+02  0.30247493268E+02  0.41800000000E+01 0. -1.
         -5    1    3    3    0  502  0.62944498627E+02  0.46137170425E+02  0.15481192280E+03  0.17342102596E+03  0.41800000000E+01 0. -1.
        -11    1    4    4    0    0 -0.51045287145E+02 -0.55619605710E+02  0.81235294614E+02  0.11089785828E+03  0.00000000000E+00 0.  1.
         11    1    4    4    0    0 -0.30661716545E+02  0.19165909731E+02 -0.74010121559E+01  0.36908643138E+02  0.00000000000E+00 0. -1.
</event>
<event>
 8    1  0.6185113E-009  0.1893369E+03  0.7561462E-02  0.1159061E+00
          2   -1    0    0  501    0  0.00000000000E+00  0.00000000000E+00  0.63315171161E+03  0.63315171161E+03  0.00000000000E+00 0. -1.
         -2   -1    0    0    0  501 -0.00000000000E+00 -0.00000000000E+00 -0.77278881285E+02  0.77278881285E+02  0.00000000000E+00 0.  1.
         25    2    1    2    0    0 -0.13048744739E+03  0.13628904821E+03  0.22760622728E+03  0.32101940767E+03  0.12508871579E+03 0.  0.
         23    2    1    2    0    0  0.13048744739E+03 -0.13628904821E+03  0.32826660304E+03  0.38941118522E+03  0.90996867595E+02 0.  0.
          5    1    3    3  502    0 -0.52899987208E+02  0.48791898279E+02  0.18141996924E+03  0.19521714992E+03  0.41800000000E+01 0. -1.
         -5    1    3    3    0  502 -0.77587460181E+02  0.87497149930E+02  0.46186258036E+02  0.12580225775E+03  0.41800000000E+01 0. -1.
        -11    1    4    4    0    0  0.78273540600E+02 -0.68586481459E+02  0.94778405745E+02  0.14076149613E+03  0.00000000000E+00 0.  1.
         11    1    4    4    0    0  0.52213906789E+02 -0.67702566750E+02  0.23348819730E+03  0.24864968909E+03  0.00000000000E+00 0. -1.
</event>
<event>
 8    1  0.6185113E-009  0.1307058E+03  0.7561462E-02  0.1226412E+00
          1   -1    0    0  501    0  0.00000000000E+00  0.00000000000E+00  0.50270421653E+03  0.50270421653E+03  0.00000000000E+00 0. -1.
         -1   -1    0    0    0  501 -0.00000000000E+00 -0.00000000000E+00 -0.47831864484E+02  0.47831864484E+02  0.00000000000E+00 0.  1.
         25    2    1    2    0    0  0.83161147159E+02 -0.54946619682E+02  0.32759558462E+03  0.36455664804E+03  0.12509106744E+03 0.  0.
         23    2    1    2    0    0 -0.83161147159E+02  0.54946619682E+02  0.12727676742E+03  0.18597943298E+03  0.91945998025E+02 0.  0.
          5    1    3    3  502    0  0.11010105508E+03 -0.47502816369E+02  0.30692406122E+03  0.32954303459E+03  0.41800000000E+01 0.  1.
         -5    1    3    3    0  502 -0.26939907925E+02 -0.74438033124E+01  0.20671523407E+02  0.35013613449E+02  0.41800000000E+01 0.  1.
        -11    1    4    4    0    0 -0.88902653561E+02  0.40639589014E+02  0.55174267942E+02  0.11224730664E+03  0.00000000000E+00 0.  1.
         11    1    4    4    0    0  0.57415064018E+01  0.14307030668E+02  0.72102499480E+02  0.73732126333E+02  0.00000000000E+00 0. -1.
</event>
<event>
 8    1  0.6185113E-009  0.1368086E+03  0.7561462E-02  0.1217689E+00
         -2   -1    0    0    0  501 -0.00000000000E+00  0.00000000000E+00  0.38450445218E+02  0.38450445218E+02  0.00000000000E+00 0.  1.
          2   -1    0    0  501    0  0.00000000000E+00 -0.00000000000E+00 -0.70125780660E+03  0.70125780660E+03  0.00000000000E+00 0. -1.
         25    2    1    2    0    0 -0.10861901611E+03  0.56019899258E+02 -0.38755572473E+03  0.42518745430E+03  0.12509441135E+03 0.  0.
         23    2    1    2    0    0  0.10861901611E+03 -0.56019899258E+02 -0.27525163666E+03  0.31452079752E+03  0.90683784748E+02 0.  0.
          5    1    3    3  502    0  0.50287972683E+01  0.30814106908E+01 -0.19648798346E+03  0.19662091429E+03  0.41800000000E+01 0.  1.
         -5    1    3    3    0  502 -0.11364781338E+03  0.52938488567E+02 -0.19106774127E+03  0.22856654001E+03  0.41800000000E+01 0.  1.
        -11    1    4    4    0    0  0.95573728948E+01 -0.39346998107E+02 -0.32891745021E+02  0.52167006117E+02  0.00000000000E+00 0.  1.
         11    1    4    4    0    0  0.99061643216E+02 -0.16672901151E+02 -0.24235989164E+03  0.26235379140E+03  0.00000000000E+00 0. -1.
</event>
<event>
 7    1  0.6185113E-009  0.9760715E+02  0.7561462E-02  0.1285410E+00
          2   -1    0    0  501    0  0.00000000000E+00  0.00000000000E+00  0.33399430961E+03  0.33399430961E+03  0.00000000000E+00 0. -1.
         -2   -1    0    0    0  501 -0.00000000000E+00 -0.00000000000E+00 -0.51449931056E+02  0.51449931056E+02  0.00000000000E+00 0.  1.
         23    2    1    2    0    0 -0.19399324028E+02 -0.60715570498E+02  0.74165109616E+02  0.13424709427E+03  0.91973390511E+02 0.  0.
          5    1    1    2  502    0  0.56353691082E+02  0.72692285837E+02  0.18227053656E+03  0.20420560183E+03  0.41800000000E+01 0.  1.
         -5    1    1    2    0  502 -0.36954367054E+02 -0.11976715339E+02  0.26108732377E+02  0.46991544569E+02  0.41800000000E+01 0.  1.
        -11    1    3    3    0    0 -0.12793501934E+02 -0.48771664738E+02 -0.79156400984E+01  0.51039262644E+02  0.00000000000E+00 0.  1.
         11    1    3    3    0    0 -0.66058220940E+01 -0.11943905760E+02  0.82080749715E+02  0.83207831627E+02  0.00000000000E+00 0. -1.
</event>
<event>
 8    1  0.6185113E-009  0.7612932E+02  0.7561462E-02  0.1340409E+00
          1   -1    0    0  501    0  0.00000000000E+00  0.00000000000E+00  0.14982221872E+03  0.14982221872E+03  0.00000000000E+00 0. -1.
         -1   -1    0    0    0  501 -0.00000000000E+00 -0.00000000000E+00 -0.14948569016E+03  0.14948569016E+03  0.00000000000E+00 0.  1.
         25    2    1    2    0    0  0.42068921977E+02 -0.12155067188E+02 -0.91899781756E+02  0.16127819964E+03  0.12509015923E+03 0.  0.
         23    2    1    2    0    0 -0.42068921977E+02  0.12155067188E+02  0.92236310324E+02  0.13802970924E+03  0.92882311754E+02 0.  0.
          5    1    3    3  502    0  0.37564976995E+02 -0.29086502372E+00  0.23893444872E+02  0.44716677056E+02  0.41800000000E+01 0.  1.
         -5    1    3    3    0  502  0.45039449815E+01 -0.11864202164E+02 -0.11579322663E+03  0.11656152258E+03  0.41800000000E+01 0.  1.
        -11    1    4    4    0    0 -0.63071311810E+02 -0.16855429037E+02  0.70728958717E+02  0.96253215337E+02  0.00000000000E+00 0. -1.
         11    1    4    4    0    0  0.21002389833E+02  0.29010496225E+02  0.21507351606E+02  0.41776493906E+02  0.00000000000E+00 0.  1.
</event>
<event>
 8    1  0.6185113E-009  0.1383470E+03  0.7561462E-02  0.1215571E+00
         -1   -1    0    0    0  501 -0.00000000000E+00  0.00000000000E+00  0.13784000790E+02  0.13784000790E+02  0.00000000000E+00 0.  1.
          1   -1    0    0  501    0  0.00000000000E+00 -0.00000000000E+00 -0.14617565175E+04  0.14617565175E+04  0.00000000000E+00 0. -1.
         25    2    1    2    0    0  0.11881977700E+02  0.86865590374E+02 -0.94884292468E+03  0.96106045230E+03  0.12508990796E+03 0.  0.
         23    2    1    2    0    0 -0.11881977700E+02 -0.86865590374E+02 -0.49912959203E+03  0.51448006599E+03  0.88727540682E+02 0.  0.
          5    1    3    3  502    0 -0.31607875950E+02  0.10140249749E+03 -0.69351840188E+03  0.70161725354E+03  0.41800000000E+01 0.  1.
         -5    1    3    3    0  502  0.43489853650E+02 -0.14536907120E+02 -0.25532452280E+03  0.25944319876E+03  0.41800000000E+01 0.  1.
        -11    1    4    4    0    0  0.38427243684E+02 -0.33074345090E+02 -0.18393259570E+03  0.19079246610E+03  0.00000000000E+00 0.  1.
         11    1    4    4    0    0 -0.50309221384E+02 -0.53791245283E+02 -0.31519699633E+03  0.32368759988E+03  0.00000000000E+00 0. -1.
</event>
<event>
 8    1  0.6185113E-009  0.1139462E+03  0.7561462E-02  0.1253432E+00
         -1   -1    0    0    0  501 -0.00000000000E+00  0.00000000000E+00  0.26207335343E+02  0.26207335343E+02  0.00000000000E+00 0.  1.
          1   -1    0    0  501    0  0.00000000000E+00 -0.00000000000E+00 -0.85799502485E+03  0.85799502485E+03  0.00000000000E+00 0. -1.
         25    2    1    2    0    0  0.96371670970E+02  0.16778533586E+02 -0.36772485665E+03  0.40054676351E+03  0.12508845431E+03 0.  0.
         23    2    1    2    0    0 -0.96371670970E+02 -0.16778533586E+02 -0.46406283286E+03  0.48365559669E+03  0.94865194959E+02 0.  0.
          5    1    3    3  502    0  0.52392598544E+02  0.40027232655E+02 -0.33359473017E+03  0.34007363928E+03  0.41800000000E+01 0. -1.
         -5    1    3    3    0  502  0.43979072426E+02 -0.23248699070E+02 -0.34130126480E+02  0.60473124224E+02  0.41800000000E+01 0. -1.
        -11    1    4    4    0    0 -0.21300846431E+02  0.19183444640E+02 -0.29279816425E+02  0.40976069319E+02  0.00000000000E+00 0.  1.
         11    1    4    4    0    0 -0.75070824538E+02 -0.35961978225E+02 -0.43478301643E+03  0.44267952737E+03  0.00000000000E+00 0. -1.
</event>
<event>
 8    1  0.6185113E-009  0.1420889E+03  0.7561462E-02  0.1210545E+00
          3   -1    0    0  501    0  0.00000000000E+00  0.00000000000E+00  0.58723060994E+02  0.58723060994E+02  0.00000000000E+00 0. -1.
         -3   -1    0    0    0  501 -0.00000000000E+00 -0.00000000000E+00 -0.43758979663E+03  0.43758979663E+03  0.00000000000E+00 0.  1.
         25    2    1    2    0    0  0.40641807952E+02 -0.83592904086E+02 -0.91550817478E+02  0.18073634738E+03  0.12507815523E+03 0.  0.
         23    2    1    2    0    0 -0.40641807952E+02  0.83592904086E+02 -0.28731591816E+03  0.31557651025E+03  0.91643694949E+02 0.  0.
          5    1    3    3  502    0  0.55178132057E+02 -0.11024997114E+03 -0.83777203097E+02  0.14911664747E+03  0.41800000000E+01 0. -1.
         -5    1    3    3    0  502 -0.14536324105E+02  0.26657067049E+02 -0.77736143817E+01  0.31619699915E+02  0.41800000000E+01 0. -1.
        -11    1    4    4    0    0  0.85717115467E+00 -0.19250863509E+02 -0.51420367511E+02  0.54912518456E+02  0.00000000000E+00 0. -1.
         11    1    4    4    0    0 -0.41498979107E+02  0.10284376759E+03 -0.23589555065E+03  0.26066399179E+03  0.00000000000E+00 0.  1.
</event>
<event>
 8    1  0.6185113E-009  0.1206858E+03  0.7561462E-02  0.1241970E+00
         -2   -1    0    0    0  501 -0.00000000000E+00  0.00000000000E+00  0.12251556761E+03  0.12251556761E+03  0.00000000000E+00 0. -1.
          2   -1    0    0  501    0  0.00000000000E+00 -0.00000000000E+00 -0.16955048560E+03  0.16955048560E+03  0.00000000000E+00 0.  1.
         25    2    1    2    0    0  0.30838823839E+02 -0.84721772324E+02  0.43223569153E+01  0.15425533028E+03  0.12508881800E+03 0.  0.
         23    2    1    2    0    0 -0.30838823839E+02  0.84721772324E+02 -0.51357274897E+02  0.13781072294E+03  0.90694067667E+02 0.  0.
          5    1    3    3  502    0  0.71687118280E+02 -0.34798026945E+02 -0.24510448450E+02  0.83475625722E+02  0.41800000000E+01 0. -1.
         -5    1    3    3    0  502 -0.40848294441E+02 -0.49923745379E+02  0.28832805365E+02  0.70779704553E+02  0.41800000000E+01 0. -1.
        -11    1    4    4    0    0 -0.14880584146E+02  0.78351496736E+02  0.39957584308E+01  0.79852081443E+02  0.00000000000E+00 0. -1.
         11    1    4    4    0    0 -0.15958239693E+02  0.63702755875E+01 -0.55353033328E+02  0.57958641494E+02  0.00000000000E+00 0.  1.
</event>
<event>
 8    1  0.6185113E-009  0.1137474E+03  0.7561462E-02  0.1253784E+00
          2   -1    0    0  501    0  0.00000000000E+00  0.00000000000E+00  0.28056897503E+03  0.28056897503E+03  0.00000000000E+00 0. -1.
         -2   -1    0    0    0  501 -0.00000000000E+00 -0.00000000000E+00 -0.65162041092E+02  0.65162041092E+02  0.00000000000E+00 0.  1.
         25    2    1    2    0    0 -0.69492458101E+02 -0.14387459852E+02  0.16010425031E+03  0.21521476409E+03  0.12509125861E+03 0.  0.
         23    2    1    2    0    0  0.69492458101E+02  0.14387459852E+02  0.55302683620E+02  0.13051625203E+03  0.94551068176E+02 0.  0.
          5    1    3    3  502    0 -0.47273128283E+01  0.44457016403E+02  0.18208117858E+02  0.48453913670E+02  0.41800000000E+01 0.  1.
         -5    1    3    3    0  502 -0.64765145272E+02 -0.58844476255E+02  0.14189613246E+03  0.16676085042E+03  0.41800000000E+01 0.  1.
        -11    1    4    4    0    0 -0.10483177192E+02 -0.64922202072E+01 -0.16794154776E+02  0.20834816100E+02  0.00000000000E+00 0.  1.
         11    1    4    4    0    0  0.79975635293E+02  0.20879680060E+02  0.72096838396E+02  0.10968143593E+03  0.00000000000E+00 0. -1.
</event>
<event>
 8    1  0.6185113E-009  0.1055227E+03  0.7561462E-02  0.1269093E+00
          1   -1    0    0  501    0  0.00000000000E+00  0.00000000000E+00  0.53171571605E+02  0.53171571605E+02  0.00000000000E+00 0. -1.
         -1   -1    0    0    0  501 -0.00000000000E+00 -0.00000000000E+00 -0.30776616657E+03  0.30776616657E+03  0.00000000000E+00 0.  1.
         25    2    1    2    0    0  0.53113269348E+02  0.20203745213E+02 -0.19183370009E+03  0.23596003866E+03  0.12509100948E+03 0.  0.
         23    2    1    2    0    0 -0.53113269348E+02 -0.20203745213E+02 -0.62760894870E+02  0.12497769951E+03  0.91930869401E+02 0.  0.
          5    1    3    3  502    0  0.85751448293E+02  0.54449203231E+01 -0.17732031397E+03  0.19708608319E+03  0.41800000000E+01 0. -1.
         -5    1    3    3    0  502 -0.32638178945E+02  0.14758824890E+02 -0.14513386121E+02  0.38873955467E+02  0.41800000000E+01 0. -1.
        -11    1    4    4    0    0  0.14545492552E+02 -0.15314829094E+02 -0.52218279398E+02  0.56328181642E+02  0.00000000000E+00 0.  1.
         11    1    4    4    0    0 -0.67658761900E+02 -0.48889161194E+01 -0.10542615472E+02  0.68649517869E+02  0.00000000000E+00 0. -1.
</event>
<event>
 8    1  0.6185113E-009  0.1389198E+03  0.7561462E-02  0.1214790E+00
          1   -1    0    0  501    0  0.00000000000E+00  0.00000000000E+00  0.57250038320E+02  0.57250038320E+02  0.00000000000E+00 0. -1.
         -1   -1    0    0    0  501 -0.00000000000E+00 -0.00000000000E+00 -0.46771273656E+03  0.46771273656E+03  0.00000000000E+00 0.  1.
         25    2    1    2    0    0  0.82330070031E+02 -0.65075253757E+02 -0.31532050031E+03  0.35508789194E+03  0.12508942401E+03 0.  0.
         23    2    1    2    0    0 -0.82330070031E+02  0.65075253757E+02 -0.95142197925E+02  0.16987488294E+03  0.93767846010E+02 0.  0.
          5    1    3    3  502    0 -0.18979612985E+02 -0.12675028677E+02 -0.16356258608E+03  0.16520010298E+03  0.41800000000E+01 0.  1.
         -5    1    3    3    0  502  0.10130968302E+03 -0.52400225081E+02 -0.15175791424E+03  0.18988778896E+03  0.41800000000E+01 0.  1.
        -11    1    4    4    0    0 -0.97586725048E+02  0.74318085517E+02 -0.79706758579E+02  0.14628572761E+03  0.00000000000E+00 0.  1.
         11    1    4    4    0    0  0.15256655017E+02 -0.92428317594E+01 -0.15435439346E+02  0.23589155327E+02  0.00000000000E+00 0. -1.
</event>
<event>
 8    1  0.6185113E-009  0.9964117E+02  0.7561462E-02  0.1281052E+00
          1   -1    0    0  501    0  0.00000000000E+00  0.00000000000E+00  0.32451898954E+03  0.32451898954E+03  0.00000000000E+00 0. -1.
         -1   -1    0    0    0  501 -0.00000000000E+00 -0.00000000000E+00 -0.51237841394E+02  0.51237841394E+02  0.00000000000E+00 0.  1.
         25    2    1    2    0    0  0.24614040783E+01  0.32961610919E+02  0.24084903335E+03  0.27340783018E+03  0.12510419030E+03 0.  0.
         23    2    1    2    0    0 -0.24614040783E+01 -0.32961610919E+02  0.32432114800E+02  0.10234900076E+03  0.91274035641E+02 0.  0.
          5    1    3    3  502    0  0.19375922386E+02 -0.44252573549E+02  0.11405406992E+03  0.12393353016E+03  0.41800000000E+01 0.  1.
         -5    1    3    3    0  502 -0.16914518307E+02  0.77214184468E+02  0.12679496343E+03  0.14947430001E+03  0.41800000000E+01 0.  1.
        -11    1    4    4    0    0 -0.12256420240E+02  0.16870168823E+02  0.45377818304E+02  0.49939651853E+02  0.00000000000E+00 0. -1.
         11    1    4    4    0    0  0.97950161620E+01 -0.49831779742E+02 -0.12945703504E+02  0.52409348909E+02  0.00000000000E+00 0.  1.
</event>
<event>
 8    1  0.6185113E-009  0.4934637E+02  0.7561462E-02  0.1448899E+00
          2   -1    0    0  501    0  0.00000000000E+00  0.00000000000E+00  0.17574205839E+03  0.17574205839E+03  0.00000000000E+00 0. -1.
         -2   -1    0    0    0  501 -0.00000000000E+00 -0.00000000000E+00 -0.81451297163E+02  0.81451297163E+02  0.00000000000E+00 0.  1.
         25    2    1    2    0    0 -0.19563448123E+02  0.23277951262E+02  0.95984667497E+02  0.16057503919E+03  0.12508675109E+03 0.  0.
         23    2    1    2    0    0  0.19563448123E+02 -0.23277951262E+02 -0.16939062737E+01  0.96618316363E+02  0.91693174342E+02 0.  0.
          5    1    3    3  502    0 -0.14991281678E+02 -0.79673464649E+01 -0.27754075220E+02  0.32802107057E+02  0.41800000000E+01 0.  1.
         -5    1    3    3    0  502 -0.45721664448E+01  0.31245297727E+02  0.12373874272E+03  0.12777293213E+03  0.41800000000E+01 0.  1.
        -11    1    4    4    0    0  0.13588528576E+02  0.91496257126E+01 -0.41683881798E+02  0.44787383953E+02  0.00000000000E+00 0.  1.
         11    1    4    4    0    0  0.59749195470E+01 -0.32427576975E+02  0.39989975525E+02  0.51830932410E+02  0.00000000000E+00 0. -1.
</event>
<event>
 8    1  0.6185113E-009  0.9999164E+02  0.7561462E-02  0.1280314E+00
          2   -1    0    0  501    0  0.00000000000E+00  0.00000000000E+00  0.38303507540E+02  0.38303507540E+02  0.00000000000E+00 0. -1.
         -2   -1    0    0    0  501 -0.00000000000E+00 -0.00000000000E+00 -0.37247007204E+03  0.37247007204E+03  0.00000000000E+00 0.  1.
         25    2    1    2    0    0 -0.59608032066E+01 -0.24019174824E+02 -0.26577230765E+03  0.29477992996E+03  0.12509130929E+03 0.  0.
         23    2    1    2    0    0  0.59608032066E+01  0.24019174824E+02 -0.68394256849E+02  0.11599364962E+03  0.90356518568E+02 0.  0.
          5    1    3    3  502    0  0.24597447323E+02  0.37930063725E+02 -0.17408699108E+03  0.17990963569E+03  0.41800000000E+01 0. -1.
         -5    1    3    3    0  502 -0.30558250530E+02 -0.61949238549E+02 -0.91685316568E+02  0.11487029427E+03  0.41800000000E+01 0. -1.
        -11    1    4    4    0    0  0.37761219174E+02  0.35247807205E+02 -0.16731838832E+02  0.54297992752E+02  0.00000000000E+00 0. -1.
         11    1    4    4    0    0 -0.31800415967E+02 -0.11228632381E+02 -0.51662418017E+02  0.61695656867E+02  0.00000000000E+00 0.  1.
</event>
<event>
 8    1  0.6185113E-009  0.1028052E+03  0.7561462E-02  0.1274505E+00
         -2   -1    0    0    0  501 -0.00000000000E+00  0.00000000000E+00  0.12775023108E+02  0.12775023108E+02  0.00000000000E+00 0. -1.
          2   -1    0    0  501    0  0.00000000000E+00 -0.00000000000E+00 -0.96077412451E+03  0.96077412451E+03  0.00000000000E+00 0.  1.
         25    2    1    2    0    0 -0.11735456325E+01 -0.10163383915E+02 -0.47134928194E+03  0.48776102150E+03  0.12504397996E+03 0.  0.
         23    2    1    2    0    0  0.11735456325E+01  0.10163383915E+02 -0.47664981945E+03  0.48578812611E+03  0.93222215732E+02 0.  0.
          5    1    3    3  502    0  0.12663217688E+01 -0.60827343748E+02 -0.14256200513E+03  0.15505794732E+03  0.41800000000E+01 0. -1.
         -5    1    3    3    0  502 -0.24398674013E+01  0.50663959832E+02 -0.32878727681E+03  0.33270307418E+03  0.41800000000E+01 0. -1.
        -11    1    4    4    0    0  0.44356720240E+02 -0.10913432639E+02 -0.22435944190E+03  0.22896240044E+03  0.00000000000E+00 0.  1.
         11    1    4    4    0    0 -0.43183174608E+02  0.21076816555E+02 -0.25229037755E+03  0.25682572568E+03  0.00000000000E+00 0. -1.
</event>
<event>
 8    1  0.6185113E-009  0.3196827E+03  0.7561462E-02  0.1075795E+00
         -2   -1    0    0    0  501 -0.00000000000E+00  0.00000000000E+00  0.31217667230E+03  0.31217667230E+03  0.00000000000E+00 0.  1.
          2   -1    0    0  501    0  0.00000000000E+00 -0.00000000000E+00 -0.42010714656E+03  0.42010714656E+03  0.00000000000E+00 0. -1.
         25    2    1    2    0    0  0.16924807369E+03  0.26827620332E+03 -0.19225160739E+03  0.39143918105E+03  0.12508765008E+03 0.  0.
         23    2    1    2    0    0 -0.16924807369E+03 -0.26827620332E+03  0.84321133134E+02  0.34084463781E+03  0.91912903978E+02 0.  0.
          5    1    3    3  502    0  0.70245672065E+02  0.87878556625E+02 -0.13893909119E+03  0.17882572136E+03  0.41800000000E+01 0. -1.
         -5    1    3    3    0  502  0.99002401621E+02  0.18039764669E+03 -0.53312516201E+02  0.21261345969E+03  0.41800000000E+01 0. -1.
        -11    1    4    4    0    0 -0.62746352001E+02 -0.14536582688E+03  0.81754187973E+02  0.17819112089E+03  0.00000000000E+00 0. -1.
         11    1    4    4    0    0 -0.10650172168E+03 -0.12291037644E+03  0.25669451608E+01  0.16265351692E+03  0.00000000000E+00 0.  1.
</event>
<event>
 8    1  0.6185113E-009  0.2661358E+03  0.7561462E-02  0.1103512E+00
          2   -1    0    0  501    0  0.00000000000E+00  0.00000000000E+00  0.13158786686E+03  0.13158786686E+03  0.00000000000E+00 0. -1.
         -2   -1    0    0    0  501 -0.00000000000E+00 -0.00000000000E+00 -0.59230099569E+03  0.59230099569E+03  0.00000000000E+00 0.  1.
         25    2    1    2    0    0  0.13987445674E+03  0.20968557389E+03 -0.16225934848E+03  0.32482164660E+03  0.12509237542E+03 0.  0.
         23    2    1    2    0    0 -0.13987445674E+03 -0.20968557389E+03 -0.29845378035E+03  0.39906721595E+03  0.81529628333E+02 0.  0.
          5    1    3    3  502    0  0.14254272005E+03  0.13137270857E+03 -0.76122519053E+02  0.20830104634E+03  0.41800000000E+01 0.  1.
         -5    1    3    3    0  502 -0.26682633118E+01  0.78312865321E+02 -0.86136829422E+02  0.11652060027E+03  0.41800000000E+01 0.  1.
        -11    1    4    4    0    0 -0.80530263097E+02 -0.17115256552E+03 -0.18011959001E+03  0.26119224848E+03  0.00000000000E+00 0. -1.
         11    1    4    4    0    0 -0.59344193643E+02 -0.38533008373E+02 -0.11833419034E+03  0.13787496748E+03  0.00000000000E+00 0.  1.
</event>
<event>
 8    1  0.6185113E-009  0.1059513E+03  0.7561462E-02  0.1268257E+00
         -2   -1    0    0    0  501 -0.00000000000E+00  0.00000000000E+00  0.70366516086E+02  0.70366516086E+02  0.00000000000E+00 0.  1.
          2   -1    0    0  501    0  0.00000000000E+00 -0.00000000000E+00 -0.21844338294E+03  0.21844338294E+03  0.00000000000E+00 0. -1.
         25    2    1    2    0    0 -0.15289741294E+00  0.59009265633E+02 -0.85164161513E+02  0.16242569086E+03  0.12508818424E+03 0.  0.
         23    2    1    2    0    0  0.15289741294E+00 -0.59009265633E+02 -0.62912705341E+02  0.12638420817E+03  0.92373387793E+02 0.  0.
          5    1    3    3  502    0 -0.12799156449E+02 -0.29115779927E+02  0.84473294310E+01  0.33171928209E+02  0.41800000000E+01 0. -1.
         -5    1    3    3    0  502  0.12646259036E+02  0.88125045560E+02 -0.93611490944E+02  0.12925376265E+03  0.41800000000E+01 0. -1.
        -11    1    4    4    0    0  0.33668722777E+02 -0.19575921858E+02  0.68269985795E+01  0.39539948402E+02  0.00000000000E+00 0. -1.
         11    1    4    4    0    0 -0.33515825364E+02 -0.39433343775E+02 -0.69739703920E+02  0.86844259764E+02  0.00000000000E+00 0.  1.
</event>
<event>
 8    1  0.6185113E-009  0.2269073E+03  0.7561462E-02  0.1128836E+00
          1   -1    0    0  501    0  0.00000000000E+00  0.00000000000E+00  0.12956009721E+04  0.12956009721E+04  0.00000000000E+00 0. -1.
         -1   -1    0    0    0  501 -0.00000000000E+00 -0.00000000000E+00 -0.44674167353E+02  0.44674167353E+02  0.00000000000E+00 0.  1.
         25    2    1    2    0    0  0.20165575233E+03  0.64752517651E+02  0.73633548399E+03  0.77633554182E+03  0.12509595327E+03 0.  0.
         23    2    1    2    0    0 -0.20165575233E+03 -0.64752517651E+02  0.51459132075E+03  0.56393959763E+03  0.91464262915E+02 0.  0.
          5    1    3    3  502    0  0.57005777086E+02 -0.34195582599E+02  0.27124791419E+03  0.27930610420E+03  0.41800000000E+01 0. -1.
         -5    1    3    3    0  502  0.14464997524E+03  0.98948100251E+02  0.46508756980E+03  0.49702943762E+03  0.41800000000E+01 0. -1.
        -11    1    4    4    0    0 -0.15720676539E+03 -0.53377072484E+02  0.47554459185E+03  0.50369210614E+03  0.00000000000E+00 0. -1.
         11    1    4    4    0    0 -0.44448986933E+02 -0.11375445167E+02  0.39046728897E+02  0.60247491481E+02  0.00000000000E+00 0.  1.
</event>
<event>
 8    1  0.6185113E-009  0.8563745E+02  0.7561462E-02  0.1313774E+00
          3   -1    0    0  501    0  0.00000000000E+00  0.00000000000E+00  0.51646425465E+02  0.51646425465E+02  0.00000000000E+00 0. -1.
         -3   -1    0    0    0  501 -0.00000000000E+00 -0.00000000000E+00 -0.23960234856E+03  0.23960234856E+03  0.00000000000E+00 0.  1.
         25    2    1    2    0    0 -0.16148043838E+02  0.48167165874E+01 -0.84395983101E+02  0.15183708498E+03  0.12509139991E+03 0.  0.
         23    2    1    2    0    0  0.16148043838E+02 -0.48167165874E+01 -0.10355993999E+03  0.13941168905E+03  0.91798680779E+02 0.  0.
          5    1    3    3  502    0 -0.55613785420E+02  0.10475726035E+02 -0.94741478535E+02  0.11043574657E+03  0.41800000000E+01 0.  1.
         -5    1    3    3    0  502  0.39465741582E+02 -0.56590094478E+01  0.10345495433E+02  0.41401338412E+02  0.41800000000E+01 0.  1.
        -11    1    4    4    0    0  0.29959878727E+02  0.26636635125E+02 -0.12351160304E+02  0.41948251751E+02  0.00000000000E+00 0. -1.
         11    1    4    4    0    0 -0.13811834888E+02 -0.31453351713E+02 -0.91208779690E+02  0.97463437296E+02  0.00000000000E+00 0.  1.
</event>
<event>
 8    1  0.6185113E-009  0.1177738E+03  0.7561462E-02  0.1246815E+00
          3   -1    0    0  501    0  0.00000000000E+00  0.00000000000E+00  0.25912979708E+03  0.25912979708E+03  0.00000000000E+00 0. -1.
         -3   -1    0    0    0  501 -0.00000000000E+00 -0.00000000000E+00 -0.11585498323E+03  0.11585498323E+03  0.00000000000E+00 0.  1.
         25    2    1    2    0    0 -0.38679842553E+02  0.96027278038E+02  0.16901063980E+03  0.23436961774E+03  0.12508858065E+03 0.  0.
         23    2    1    2    0    0  0.38679842553E+02 -0.96027278038E+02 -0.25735825943E+02  0.14061516257E+03  0.91612896795E+02 0.  0.
          5    1    3    3  502    0  0.20904120594E+02  0.41717074001E+02  0.14154340939E+03  0.14909495519E+03  0.41800000000E+01 0.  1.
         -5    1    3    3    0  502 -0.59583963148E+02  0.54310204038E+02  0.27467230405E+02  0.85274662551E+02  0.41800000000E+01 0.  1.
        -11    1    4    4    0    0  0.11719395335E+02 -0.68290028163E+02  0.27723972761E+02  0.74629021428E+02  0.00000000000E+00 0. -1.
         11    1    4    4    0    0  0.26960447219E+02 -0.27737249875E+02 -0.53459798705E+02  0.65986141139E+02  0.00000000000E+00 0.  1.
</event>
<event>
 8    1  0.6185113E-009  0.1418507E+03  0.7561462E-02  0.1210860E+00
          2   -1    0    0  501    0  0.00000000000E+00  0.00000000000E+00  0.20960003346E+03  0.20960003346E+03  0.00000000000E+00 0. -1.
         -2   -1    0    0    0  501 -0.00000000000E+00 -0.00000000000E+00 -0.10760869012E+03  0.10760869012E+03  0.00000000000E+00 0.  1.
         25    2    1    2    0    0  0.73721381134E+02 -0.67231684205E+02  0.22280385605E+02  0.16154979304E+03  0.12508788371E+03 0.  0.
         23    2    1    2    0    0 -0.73721381134E+02  0.67231684205E+02  0.79710957736E+02  0.15565893054E+03  0.88999575711E+02 0.  0.
          5    1    3    3  502    0 -0.24877184591E+02  0.10715841772E+02 -0.13845429157E+02  0.30706219022E+02  0.41800000000E+01 0.  1.
         -5    1    3    3    0  502  0.98598565725E+02 -0.77947525977E+02  0.36125814762E+02  0.13084357402E+03  0.41800000000E+01 0.  1.
        -11    1    4    4    0    0 -0.90521154787E+02  0.40970666234E+02  0.45221251344E+02  0.10916792811E+03  0.00000000000E+00 0.  1.
         11    1    4    4    0    0  0.16799773653E+02  0.26261017972E+02  0.34489706391E+02  0.46491002427E+02  0.00000000000E+00 0. -1.
</event>
<event>
 8    1  0.6185113E-009  0.1350732E+03  0.7561462E-02  0.1220116E+00
          1   -1    0    0  501    0  0.00000000000E+00  0.00000000000E+00  0.23777985772E+03  0.23777985772E+03  0.00000000000E+00 0. -1.
         -1   -1    0    0    0  501 -0.00000000000E+00 -0.00000000000E+00 -0.83593185004E+02  0.83593185004E+02  0.00000000000E+00 0.  1.
         25    2    1    2    0    0 -0.23531432991E+02  0.76907218283E+02  0.11971392709E+03  0.19091317191E+03  0.12509183149E+03 0.  0.
         23    2    1    2    0    0  0.23531432991E+02 -0.76907218283E+02  0.34472745624E+02  0.13045987082E+03  0.96762384943E+02 0.  0.
          5    1    3    3  502    0 -0.72691377494E+02  0.45697326306E+02  0.48055429552E+02  0.98483900730E+02  0.41800000000E+01 0. -1.
         -5    1    3    3    0  502  0.49159944503E+02  0.31209891977E+02  0.71658497542E+02  0.92429271179E+02  0.41800000000E+01 0. -1.
        -11    1    4    4    0    0  0.60379314147E+02 -0.34185150094E+02  0.20178003967E+02  0.72259517766E+02  0.00000000000E+00 0. -1.
         11    1    4    4    0    0 -0.36847881156E+02 -0.42722068190E+02  0.14294741657E+02  0.58200353050E+02  0.00000000000E+00 0.  1.
</event>
<event>
 8    1  0.6185113E-009  0.1159351E+03  0.7561462E-02  0.1249958E+00
         -1   -1    0    0    0  501 -0.00000000000E+00  0.00000000000E+00  0.17065099610E+02  0.17065099610E+02  0.00000000000E+00 0.  1.
          1   -1    0    0  501    0  0.00000000000E+00 -0.00000000000E+00 -0.99297200904E+03  0.99297200904E+03  0.00000000000E+00 0. -1.
         25    2    1    2    0    0  0.57678644980E+02 -0.41950412846E+02 -0.57193985290E+03  0.58978729634E+03  0.12508875398E+03 0.  0.
         23    2    1    2    0    0 -0.57678644980E+02  0.41950412846E+02 -0.40396705653E+03  0.42024981230E+03  0.91289970725E+02 0.  0.
          5    1    3    3  502    0  0.83570250433E+02 -0.37651639628E+02 -0.54217337464E+03  0.54988278141E+03  0.41800000000E+01 0. -1.
         -5    1    3    3    0  502 -0.25891605453E+02 -0.42987732184E+01 -0.29766478257E+02  0.39904514932E+02  0.41800000000E+01 0. -1.
        -11    1    4    4    0    0  0.13392553703E+02  0.40278777547E+02 -0.11258822329E+03  0.12032393128E+03  0.00000000000E+00 0.  1.
         11    1    4    4    0    0 -0.71071198683E+02  0.16716352995E+01 -0.29137883324E+03  0.29992588102E+03  0.00000000000E+00 0. -1.
</event>
<event>
 8    1  0.6185113E-009  0.1681811E+03  0.7561462E-02  0.1179758E+00
         -2   -1    0    0    0  501 -0.00000000000E+00  0.00000000000E+00  0.74154565565E+02  0.74154565565E+02  0.00000000000E+00 0.  1.
          2   -1    0    0  501    0  0.00000000000E+00 -0.00000000000E+00 -0.50763544030E+03  0.50763544030E+03  0.00000000000E+00 0. -1.
         25    2    1    2    0    0 -0.44761551398E+02 -0.13761500174E+03 -0.12263014596E+03  0.22721460874E+03  0.12508733165E+03 0.  0.
         23    2    1    2    0    0  0.44761551398E+02  0.13761500174E+03 -0.31085072877E+03  0.35457539712E+03  0.90299786715E+02 0.  0.
          5    1    3    3  502    0 -0.68829475057E+02 -0.51380649097E+02 -0.10525662456E+03  0.13591871524E+03  0.41800000000E+01 0.  1.
         -5    1    3    3    0  502  0.24067923660E+02 -0.86234352642E+02 -0.17373521406E+02  0.91295893505E+02  0.41800000000E+01 0.  1.
        -11    1    4    4    0    0  0.85286433864E+01  0.12026671678E+03 -0.17213671057E+03  0.21016152847E+03  0.00000000000E+00 0.  1.
         11    1    4    4    0    0  0.36232908012E+02  0.17348284957E+02 -0.13871401820E+03  0.14441386865E+03  0.00000000000E+00 0. -1.
</event>
<event>
 8    1  0.6185113E-009  0.1080733E+03  0.7561462E-02  0.1264180E+00
         -3   -1    0    0    0  501 -0.00000000000E+00  0.00000000000E+00  0.45143684328E+03  0.45143684328E+03  0.00000000000E+00 0.  1.
          3   -1    0    0  501    0  0.00000000000E+00 -0.00000000000E+00 -0.26835068573E+02  0.26835068573E+02  0.00000000000E+00 0. -1.
         25    2    1    2    0    0  0.48652608390E+01 -0.90970444072E+01  0.27122845104E+03  0.29886636390E+03  0.12509917601E+03 0.  0.
         23    2    1    2    0    0 -0.48652608390E+01  0.90970444072E+01  0.15337332368E+03  0.17940554796E+03  0.92501606706E+02 0.  0.
          5    1    3    3  502    0  0.21262342761E+02  0.53953791455E+02  0.15519992905E+03  0.16573348850E+03  0.41800000000E+01 0. -1.
         -5    1    3    3    0  502 -0.16397081922E+02 -0.63050835862E+02  0.11602852199E+03  0.13313287540E+03  0.41800000000E+01 0. -1.
        -11    1    4    4    0    0 -0.37371717091E+02 -0.25505279900E+02  0.67049749945E+02  0.80887783433E+02  0.00000000000E+00 0.  1.
         11    1    4    4    0    0  0.32506456252E+02  0.34602324307E+02  0.86323573731E+02  0.98517764526E+02  0.00000000000E+00 0. -1.
</event>
<event>
 8    1  0.6185113E-009  0.9334993E+02  0.7561462E-02  0.1294936E+00
         -2   -1    0    0    0  501 -0.00000000000E+00  0.00000000000E+00  0.83279895164E+02  0.83279895164E+02  0.00000000000E+00 0. -1.
          2   -1    0    0  501    0  0.00000000000E+00 -0.00000000000E+00 -0.19863548171E+03  0.19863548171E+03  0.00000000000E+00 0.  1.
         25    2    1    2    0    0  0.31712472254E+02  0.40430420461E+02 -0.11543183197E+03  0.17779846588E+03  0.12508991503E+03 0.  0.
         23    2    1    2    0    0 -0.31712472254E+02 -0.40430420461E+02  0.76245429052E-01  0.10411691099E+03  0.90553992435E+02 0.  0.
          5    1    3    3  502    0 -0.47678550609E+02  0.75878604261E+01 -0.32761227733E+02  0.58494360895E+02  0.41800000000E+01 0.  1.
         -5    1    3    3    0  502  0.79391022863E+02  0.32842560035E+02 -0.82670604238E+02  0.11930410498E+03  0.41800000000E+01 0.  1.
        -11    1    4    4    0    0 -0.28131435136E+02 -0.29687525769E+02 -0.43137641458E+02  0.59443947881E+02  0.00000000000E+00 0.  1.
         11    1    4    4    0    0 -0.35810371176E+01 -0.10742894692E+02  0.43213886887E+02  0.44672963111E+02  0.00000000000E+00 0. -1.
</event>
<event>
 8    1  0.6185113E-009  0.1452762E+03  0.7561462E-02  0.1206401E+00
          1   -1    0    0  501    0  0.00000000000E+00  0.00000000000E+00  0.25280066621E+03  0.25280066621E+03  0.00000000000E+00 0. -1.
         -1   -1    0    0    0  501 -0.00000000000E+00 -0.00000000000E+00 -0.85028966774E+02  0.85028966774E+02  0.00000000000E+00 0.  1.
         25    2    1    2    0    0  0.38746757884E+01 -0.98054208279E+02  0.82715685367E+02  0.17923067747E+03  0.12510839407E+03 0.  0.
         23    2    1    2    0    0 -0.38746757884E+01  0.98054208279E+02  0.85056014068E+02  0.15859895551E+03  0.91046484208E+02 0.  0.
          5    1    3    3  502    0  0.47744364411E+02 -0.10185690403E+03  0.45469895530E+02  0.12140567133E+03  0.41800000000E+01 0. -1.
         -5    1    3    3    0  502 -0.43869688623E+02  0.38026957487E+01  0.37245789837E+02  0.57825006142E+02  0.41800000000E+01 0. -1.
        -11    1    4    4    0    0  0.84735212244E+01 -0.16491853901E+02  0.14077285296E+02  0.23279857567E+02  0.00000000000E+00 0.  1.
         11    1    4    4    0    0 -0.12348197013E+02  0.11454606218E+03  0.70978728772E+02  0.13531909794E+03  0.00000000000E+00 0. -1.
</event>
<event>
 8    1  0.6185113E-009  0.9724883E+02  0.7561462E-02  0.1286190E+00
          1   -1    0    0  501    0  0.00000000000E+00  0.00000000000E+00  0.23322710772E+02  0.23322710772E+02  0.00000000000E+00 0.  1.
         -1   -1    0    0    0  501 -0.00000000000E+00 -0.00000000000E+00 -0.52566446710E+03  0.52566446710E+03  0.00000000000E+00 0. -1.
         25    2    1    2    0    0 -0.19278250816E+02 -0.19208224055E+02 -0.32795383337E+03  0.35205949285E+03  0.12510620630E+03 0.  0.
         23    2    1    2    0    0  0.19278250816E+02  0.19208224055E+02 -0.17438792295E+03  0.19692768502E+03  0.87342765185E+02 0.  0.
          5    1    3    3  502    0 -0.71061135421E+02 -0.17480300951E+02 -0.15489287803E+03  0.17136079468E+03  0.41800000000E+01 0.  1.
         -5    1    3    3    0  502  0.51782884605E+02 -0.17279231038E+01 -0.17306095535E+03  0.18069869817E+03  0.41800000000E+01 0.  1.
        -11    1    4    4    0    0  0.39610553810E+02 -0.22286374591E+01 -0.30511995520E+02  0.50049422261E+02  0.00000000000E+00 0. -1.
         11    1    4    4    0    0 -0.20332302994E+02  0.21436861514E+02 -0.14387592744E+03  0.14687826276E+03  0.00000000000E+00 0.  1.
</event>
<event>
 8    1  0.6185113E-009  0.1686993E+03  0.7561462E-02  0.1179211E+00
          1   -1    0    0  501    0  0.00000000000E+00  0.00000000000E+00  0.39345675486E+03  0.39345675486E+03  0.00000000000E+00 0. -1.
         -1   -1    0    0    0  501 -0.00000000000E+00 -0.00000000000E+00 -0.11259890442E+03  0.11259890442E+03  0.00000000000E+00 0.  1.
         25    2    1    2    0    0 -0.10521891371E+03 -0.11775160211E+03  0.25042874925E+03  0.32139757375E+03  0.12508150287E+03 0.  0.
         23    2    1    2    0    0  0.10521891371E+03  0.11775160211E+03  0.30429101199E+02  0.18465808553E+03  0.90753615626E+02 0.  0.
          5    1    3    3  502    0 -0.96405502584E+02 -0.58397765645E+02  0.23285332348E+03  0.25873241509E+03  0.41800000000E+01 0. -1.
         -5    1    3    3    0  502 -0.88134111244E+01 -0.59353836468E+02  0.17575425765E+02  0.62665158660E+02  0.41800000000E+01 0. -1.
        -11    1    4    4    0    0  0.32023205426E+01  0.29183966756E+02 -0.25067662475E+02  0.38605005821E+02  0.00000000000E+00 0.  1.
         11    1    4    4    0    0  0.10201659317E+03  0.88567635357E+02  0.55496763674E+02  0.14605307971E+03  0.00000000000E+00 0. -1.
</event>
<event>
 8    1  0.6185113E-009  0.9291656E+02  0.7561462E-02  0.1295939E+00
         -2   -1    0    0    0  501 -0.00000000000E+00  0.00000000000E+00  0.99801447062E+02  0.99801447062E+02  0.00000000000E+00 0.  1.
          2   -1    0    0  501    0  0.00000000000E+00 -0.00000000000E+00 -0.14720222509E+03  0.14720222509E+03  0.00000000000E+00 0. -1.
         25    2    1    2    0    0  0.29186470374E+02  0.37561149846E+02 -0.35533280101E+02  0.13846330192E+03  0.12508709746E+03 0.  0.
         23    2    1    2    0    0 -0.29186470374E+02 -0.37561149846E+02 -0.11867497929E+02  0.10854037024E+03  0.96837412365E+02 0.  0.
          5    1    3    3  502    0  0.16383258193E+02  0.82117049676E+02 -0.37567876126E+02  0.91871860290E+02  0.41800000000E+01 0. -1.
         -5    1    3    3    0  502  0.12803212181E+02 -0.44555899829E+02  0.20345960257E+01  0.46591441625E+02  0.41800000000E+01 0. -1.
        -11    1    4    4    0    0 -0.32601809741E+02 -0.21562567332E+02 -0.52086501955E+02  0.65121624629E+02  0.00000000000E+00 0. -1.
         11    1    4    4    0    0  0.34153393677E+01 -0.15998582514E+02  0.40219004026E+02  0.43418745609E+02  0.00000000000E+00 0.  1.
</event>
<event>
 8    1  0.6185113E-009  0.1384768E+03  0.7561462E-02  0.1215393E+00
          4   -1    0    0  501    0  0.00000000000E+00  0.00000000000E+00  0.34725660941E+03  0.34725660941E+03  0.00000000000E+00 0. -1.
         -4   -1    0    0    0  501 -0.00000000000E+00 -0.00000000000E+00 -0.77929123192E+02  0.77929123192E+02  0.00000000000E+00 0.  1.
         25    2    1    2    0    0  0.63581229807E+00  0.11091709367E+03  0.74310225457E+02  0.18295539534E+03  0.12509061177E+03 0.  0.
         23    2    1    2    0    0 -0.63581229807E+00 -0.11091709367E+03  0.19501726076E+03  0.24223033726E+03  0.91327971440E+02 0.  0.
          5    1    3    3  502    0 -0.58288938734E+02  0.30294105477E+02  0.18020479998E+02  0.68246196266E+02  0.41800000000E+01 0.  1.
         -5    1    3    3    0  502  0.58924751032E+02  0.80622988194E+02  0.56289745459E+02  0.11470919908E+03  0.41800000000E+01 0.  1.
        -11    1    4    4    0    0  0.30480811091E+01 -0.24998071084E+02  0.13507672879E+03  0.13740421034E+03  0.00000000000E+00 0.  1.
         11    1    4    4    0    0 -0.36838934072E+01 -0.85919022586E+02  0.59940531968E+02  0.10482612692E+03  0.00000000000E+00 0. -1.
</event>
<event>
 8    1  0.6185113E-009  0.6872592E+02  0.7561462E-02  0.1364480E+00
          2   -1    0    0  501    0  0.00000000000E+00  0.00000000000E+00  0.80570327673E+03  0.80570327673E+03  0.00000000000E+00 0. -1.
         -2   -1    0    0    0  501 -0.00000000000E+00 -0.00000000000E+00 -0.17979957291E+02  0.17979957291E+02  0.00000000000E+00 0.  1.
         25    2    1    2    0    0 -0.31210557027E+02 -0.49851378829E+01  0.29626927119E+03  0.32313758516E+03  0.12507384787E+03 0.  0.
         23    2    1    2    0    0  0.31210557027E+02  0.49851378829E+01  0.49145404825E+03  0.50054564886E+03  0.89553975818E+02 0.  0.
          5    1    3    3  502    0  0.22413821987E+01  0.56336245766E+01  0.28632597992E+03  0.28642067086E+03  0.41800000000E+01 0.  1.
         -5    1    3    3    0  502 -0.33451939226E+02 -0.10618762460E+02  0.99432912697E+01  0.36716914296E+02  0.41800000000E+01 0.  1.
        -11    1    4    4    0    0  0.52024294838E+02  0.31665850171E+02  0.29908119147E+03  0.30521928578E+03  0.00000000000E+00 0.  1.
         11    1    4    4    0    0 -0.20813737811E+02 -0.26680712288E+02  0.19237285678E+03  0.19532636308E+03  0.00000000000E+00 0. -1.
</event>
<event>
 8    1  0.6185113E-009  0.3831144E+03  0.7561462E-02  0.1049789E+00
         -1   -1    0    0    0  501 -0.00000000000E+00  0.00000000000E+00  0.22534710499E+03  0.22534710499E+03  0.00000000000E+00 0.  1.
          1   -1    0    0  501    0  0.00000000000E+00 -0.00000000000E+00 -0.67747415217E+03  0.67747415217E+03  0.00000000000E+00 0. -1.
         25    2    1    2    0    0 -0.34678248346E+03  0.14126086002E+03 -0.19650257719E+03  0.44099169192E+03  0.12509071944E+03 0.  0.
         23    2    1    2    0    0  0.34678248346E+03 -0.14126086002E+03 -0.25562447000E+03  0.46182956524E+03  0.87920169826E+02 0.  0.
          5    1    3    3  502    0 -0.27937842030E+03  0.80528480125E+02 -0.19507475440E+03  0.35015535131E+03  0.41800000000E+01 0. -1.
         -5    1    3    3    0  502 -0.67404063157E+02  0.60732379893E+02 -0.14278227845E+01  0.90836340611E+02  0.41800000000E+01 0. -1.
        -11    1    4    4    0    0  0.18062337653E+03 -0.26202827382E+02 -0.12313733109E+03  0.22016855956E+03  0.00000000000E+00 0.  1.
         11    1    4    4    0    0  0.16615910693E+03 -0.11505803264E+03 -0.13248713891E+03  0.24166100568E+03  0.00000000000E+00 0. -1.
</event>
<event>
 8    1  0.6185113E-009  0.8539599E+02  0.7561462E-02  0.1314400E+00
         -3   -1    0    0    0  501 -0.00000000000E+00  0.00000000000E+00  0.19713639716E+03  0.19713639716E+03  0.00000000000E+00 0.  1.
          3   -1    0    0  501    0  0.00000000000E+00 -0.00000000000E+00 -0.65446338905E+02  0.65446338905E+02  0.00000000000E+00 0. -1.
         25    2    1    2    0    0 -0.17241195207E+02  0.36482796596E+01  0.40767701549E+02  0.13273508957E+03  0.12508409074E+03 0.  0.
         23    2    1    2    0    0  0.17241195207E+02 -0.36482796596E+01  0.90922356706E+02  0.12984764649E+03  0.91010810317E+02 0.  0.
          5    1    3    3  502    0  0.34130244118E+02  0.42562293949E+02  0.40632111347E+02  0.68153233982E+02  0.41800000000E+01 0. -1.
         -5    1    3    3    0  502 -0.51371439325E+02 -0.38914014289E+02  0.13559020178E+00  0.64581855587E+02  0.41800000000E+01 0. -1.
        -11    1    4    4    0    0  0.13984667625E+02 -0.25670211425E+02 -0.64730941225E+01  0.29940468110E+02  0.00000000000E+00 0. -1.
         11    1    4    4    0    0  0.32565275822E+01  0.22021931765E+02  0.97395450828E+02  0.99907178384E+02  0.00000000000E+00 0.  1.
</event>
<event>
 8    1  0.6185113E-009  0.1073665E+03  0.7561462E-02  0.1265526E+00
         -2   -1    0    0    0  501 -0.00000000000E+00  0.00000000000E+00  0.24552121712E+02  0.24552121712E+02  0.00000000000E+00 0.  1.
          2   -1    0    0  501    0  0.00000000000E+00 -0.00000000000E+00 -0.63752145719E+03  0.63752145719E+03  0.00000000000E+00 0. -1.
         25    2    1    2    0    0 -0.55563436321E+02  0.37981897137E+01 -0.26940581853E+03  0.30220675380E+03  0.12509078815E+03 0.  0.
         23    2    1    2    0    0  0.55563436321E+02 -0.37981897137E+01 -0.34356351694E+03  0.35986682510E+03  0.91468682799E+02 0.  0.
          5    1    3    3  502    0  0.33727751082E+02 -0.24440976190E+02 -0.64762513276E+02  0.77114058615E+02  0.41800000000E+01 0.  1.
         -5    1    3    3    0  502 -0.89291187403E+02  0.28239165904E+02 -0.20464330526E+03  0.22509269519E+03  0.41800000000E+01 0.  1.
        -11    1    4    4    0    0 -0.76591166395E+00 -0.20391155685E+02 -0.13149978075E+02  0.24275662179E+02  0.00000000000E+00 0.  1.
         11    1    4    4    0    0  0.56329347985E+02  0.16592965971E+02 -0.33041353887E+03  0.33559116292E+03  0.00000000000E+00 0. -1.
</event>
<event>
 8    1  0.6185113E-009  0.1364730E+03  0.7561462E-02  0.1218155E+00
         -1   -1    0    0    0  501 -0.00000000000E+00  0.00000000000E+00  0.27549681760E+02  0.27549681760E+02  0.00000000000E+00 0.  1.
          1   -1    0    0  501    0  0.00000000000E+00 -0.00000000000E+00 -0.80272606169E+03  0.80272606169E+03  0.00000000000E+00 0. -1.
         25    2    1    2    0    0  0.49607734588E+02  0.85223410209E+02 -0.35618822412E+03  0.39018147607E+03  0.12509027256E+03 0.  0.
         23    2    1    2    0    0 -0.49607734588E+02 -0.85223410209E+02 -0.41898815581E+03  0.44009426738E+03  0.91694778978E+02 0.  0.
          5    1    3    3  502    0  0.54520010019E+02 -0.63918646953E+00 -0.23649619584E+03  0.24273599465E+03  0.41800000000E+01 0.  1.
         -5    1    3    3    0  502 -0.49122754307E+01  0.85862596678E+02 -0.11969202829E+03  0.14744548143E+03  0.41800000000E+01 0.  1.
        -11    1    4    4    0    0 -0.70188485016E+02 -0.36166336836E+02 -0.20742533517E+03  0.22194525681E+03  0.00000000000E+00 0.  1.
         11    1    4    4    0    0  0.20580750427E+02 -0.49057073373E+02 -0.21156282064E+03  0.21814901057E+03  0.00000000000E+00 0. -1.
</event>
<event>
 8    1  0.6185113E-009  0.1181149E+03  0.7561462E-02  0.1246240E+00
         -2   -1    0    0    0  501 -0.00000000000E+00  0.00000000000E+00  0.22604882240E+03  0.22604882240E+03  0.00000000000E+00 0.  1.
          2   -1    0    0  501    0  0.00000000000E+00 -0.00000000000E+00 -0.79612913540E+02  0.79612913540E+02  0.00000000000E+00 0. -1.
         25    2    1    2    0    0 -0.63685433236E+02  0.46709970222E+02  0.92196620897E+02  0.17431210150E+03  0.12508731390E+03 0.  0.
         23    2    1    2    0    0  0.63685433236E+02 -0.46709970222E+02  0.54239287962E+02  0.13134963444E+03  0.89850822946E+02 0.  0.
          5    1    3    3  502    0 -0.69915761174E+02 -0.11534398031E+02  0.91211857508E+02  0.11557824773E+03  0.41800000000E+01 0.  1.
         -5    1    3    3    0  502  0.62303279379E+01  0.58244368253E+02  0.98476338874E+00  0.58733853767E+02  0.41800000000E+01 0.  1.
        -11    1    4    4    0    0  0.33729085323E+01 -0.46081059706E+02 -0.54102611286E+01  0.46520011835E+02  0.00000000000E+00 0. -1.
         11    1    4    4    0    0  0.60312524704E+02 -0.62891051599E+00  0.59649549090E+02  0.84829622605E+02  0.00000000000E+00 0.  1.
</event>
<event>
 8    1  0.6185113E-009  0.9181599E+02  0.7561462E-02  0.1298513E+00
         -1   -1    0    0    0  501 -0.00000000000E+00  0.00000000000E+00  0.91461309981E+02  0.91461309981E+02  0.00000000000E+00 0.  1.
          1   -1    0    0  501    0  0.00000000000E+00 -0.00000000000E+00 -0.16995935416E+03  0.16995935416E+03  0.00000000000E+00 0. -1.
         25    2    1    2    0    0 -0.46154335762E+02  0.16510955959E+02 -0.61102068690E+01  0.13448947903E+03  0.12508897220E+03 0.  0.
         23    2    1    2    0    0  0.46154335762E+02 -0.16510955959E+02 -0.72387837308E+02  0.12693118511E+03  0.92025498565E+02 0.  0.
          5    1    3    3  502    0 -0.88658070689E+02  0.21570999496E+02 -0.45670706156E+01  0.91454316747E+02  0.41800000000E+01 0. -1.
         -5    1    3    3    0  502  0.42503734927E+02 -0.50600435370E+01 -0.15431362534E+01  0.43035162285E+02  0.41800000000E+01 0. -1.
        -11    1    4    4    0    0  0.31614111584E+02 -0.87509921014E+01  0.16366772807E+02  0.36659284856E+02  0.00000000000E+00 0.  1.
         11    1    4    4    0    0  0.14540224178E+02 -0.77599638573E+01 -0.88754610116E+02  0.90271900251E+02  0.00000000000E+00 0. -1.
</event>
<event>
 8    1  0.6185113E-009  0.2585626E+03  0.7561462E-02  0.1108010E+00
         -2   -1    0    0    0  501 -0.00000000000E+00  0.00000000000E+00  0.61944645186E+02  0.61944645186E+02  0.00000000000E+00 0. -1.
          2   -1    0    0  501    0  0.00000000000E+00 -0.00000000000E+00 -0.11966748348E+04  0.11966748348E+04  0.00000000000E+00 0.  1.
         25    2    1    2    0    0  0.12118422798E+03  0.20486574790E+03 -0.75509328464E+03  0.80154166053E+03  0.12509026051E+03 0.  0.
         23    2    1    2    0    0 -0.12118422798E+03 -0.20486574790E+03 -0.37963690497E+03  0.45707781946E+03  0.90223952773E+02 0.  0.
          5    1    3    3  502    0  0.79678807953E+01  0.13077370261E+03 -0.31772550637E+03  0.34370367792E+03  0.41800000000E+01 0. -1.
         -5    1    3    3    0  502  0.11321634719E+03  0.74092045288E+02 -0.43736777827E+03  0.45783798260E+03  0.41800000000E+01 0. -1.
        -11    1    4    4    0    0 -0.85631686585E+02 -0.68239458391E+02 -0.12712260528E+03  0.16777832459E+03  0.00000000000E+00 0. -1.
         11    1    4    4    0    0 -0.35552541397E+02 -0.13662628950E+03 -0.25251429970E+03  0.28929949488E+03  0.00000000000E+00 0.  1.
</event>
<event>
 8    1  0.6185113E-009  0.1409057E+03  0.7561462E-02  0.1212115E+00
          2   -1    0    0  501    0  0.00000000000E+00  0.00000000000E+00  0.63832501504E+03  0.63832501504E+03  0.00000000000E+00 0. -1.
         -2   -1    0    0    0  501 -0.00000000000E+00 -0.00000000000E+00 -0.55681100036E+02  0.55681100036E+02  0.00000000000E+00 0.  1.
         25    2    1    2    0    0  0.10509175250E+03 -0.74686472349E+02  0.46678851673E+03  0.50016134342E+03  0.12508998562E+03 0.  0.
         23    2    1    2    0    0 -0.10509175250E+03  0.74686472349E+02  0.11585539827E+03  0.19384477166E+03  0.86781199541E+02 0.  0.
          5    1    3    3  502    0  0.10349250004E+03 -0.70811549625E+02  0.47429008476E+03  0.49060526905E+03  0.41800000000E+01 0.  1.
         -5    1    3    3    0  502  0.15992524651E+01 -0.38749227247E+01 -0.75015680217E+01  0.95560743694E+01  0.41800000000E+01 0.  1.
        -11    1    4    4    0    0 -0.89322029664E+02  0.91153834296E+02  0.77755128343E+02  0.14944332194E+03  0.00000000000E+00 0.  1.
         11    1    4    4    0    0 -0.15769722838E+02 -0.16467361946E+02  0.38100269930E+02  0.44401449712E+02  0.00000000000E+00 0. -1.
</event>
<event>
 8    1  0.6185113E-009  0.1186981E+03  0.7561462E-02  0.1245260E+00
         -2   -1    0    0    0  501 -0.00000000000E+00  0.00000000000E+00  0.18302055926E+03  0.18302055926E+03  0.00000000000E+00 0.  1.
          2   -1    0    0  501    0  0.00000000000E+00 -0.00000000000E+00 -0.90868729459E+02  0.90868729459E+02  0.00000000000E+00 0. -1.
         25    2    1    2    0    0  0.59573330836E+02 -0.71793077550E+01  0.35337416514E+02  0.14316176603E+03  0.12508410786E+03 0.  0.
         23    2    1    2    0    0 -0.59573330836E+02  0.71793077550E+01  0.56814413290E+02  0.13072752269E+03  0.10129799320E+03 0.  0.
          5    1    3    3  502    0  0.84230193586E+02  0.33167013336E+02  0.16601966272E+02  0.92129658467E+02  0.41800000000E+01 0. -1.
         -5    1    3    3    0  502 -0.24656862751E+02 -0.40346321091E+02  0.18735450242E+02  0.51032107560E+02  0.41800000000E+01 0. -1.
        -11    1    4    4    0    0 -0.62942017520E+02 -0.24430781354E+02  0.22214414429E+01  0.67553648674E+02  0.00000000000E+00 0. -1.
         11    1    4    4    0    0  0.33686866849E+01  0.31610089109E+02  0.54592971847E+02  0.63173874019E+02  0.00000000000E+00 0.  1.
</event>
<event>
 8    1  0.6185113E-009  0.9044146E+02  0.7561462E-02  0.1301786E+00
          3   -1    0    0  501    0  0.00000000000E+00  0.00000000000E+00  0.66274696652E+03  0.66274696652E+03  0.00000000000E+00 0. -1.
         -3   -1    0    0    0  501 -0.00000000000E+00 -0.00000000000E+00 -0.24151862957E+02  0.24151862957E+02  0.00000000000E+00 0.  1.
         25    2    1    2    0    0 -0.11129477170E+02  0.32762902431E+02  0.50906223790E+03  0.52534700958E+03  0.12509134816E+03 0.  0.
         23    2    1    2    0    0  0.11129477170E+02 -0.32762902431E+02  0.12953286567E+03  0.16155181990E+03  0.90127433043E+02 0.  0.
          5    1    3    3  502    0 -0.44578852832E+02  0.20268903850E+02  0.74199580193E+02  0.89000857770E+02  0.41800000000E+01 0. -1.
         -5    1    3    3    0  502  0.33449375662E+02  0.12493998581E+02  0.43486265771E+03  0.43634615181E+03  0.41800000000E+01 0. -1.
        -11    1    4    4    0    0 -0.37590118526E+02 -0.95872512059E+00  0.60934510833E+02  0.71602728824E+02  0.00000000000E+00 0.  1.
         11    1    4    4    0    0  0.48719595696E+02 -0.31804177310E+02  0.68598354835E+02  0.89949091075E+02  0.00000000000E+00 0. -1.
</event>
<event>
 8    1  0.6185113E-009  0.1718726E+03  0.7561462E-02  0.1175909E+00
         -1   -1    0    0    0  501 -0.00000000000E+00  0.00000000000E+00  0.75734666012E+02  0.75734666012E+02  0.00000000000E+00 0. -1.
          1   -1    0    0  501    0  0.00000000000E+00 -0.00000000000E+00 -0.57549008767E+03  0.57549008767E+03  0.00000000000E+00 0.  1.
         25    2    1    2    0    0  0.44488644435E+02 -0.14405662343E+03 -0.11258750299E+03  0.22595388383E+03  0.12509061336E+03 0.  0.
         23    2    1    2    0    0 -0.44488644435E+02  0.14405662343E+03 -0.38716791867E+03  0.42527086985E+03  0.90690491536E+02 0.  0.
          5    1    3    3  502    0  0.74933475752E+02 -0.44013535845E+02 -0.28033226511E+02  0.91408704807E+02  0.41800000000E+01 0.  1.
         -5    1    3    3    0  502 -0.30444831317E+02 -0.10004308759E+03 -0.84554276474E+02  0.13454517902E+03  0.41800000000E+01 0.  1.
        -11    1    4    4    0    0 -0.39564404112E+02  0.96816233958E+02 -0.14675004551E+03  0.18020627372E+03  0.00000000000E+00 0.  1.
         11    1    4    4    0    0 -0.49242403227E+01  0.47240389477E+02 -0.24041787316E+03  0.24506459613E+03  0.00000000000E+00 0. -1.
</event>
<event>
 8    1  0.6185113E-009  0.1438915E+03  0.7561462E-02  0.1208186E+00
         -2   -1    0    0    0  501 -0.00000000000E+00  0.00000000000E+00  0.53909870218E+02  0.53909870218E+02  0.00000000000E+00 0.  1.
          2   -1    0    0  501    0  0.00000000000E+00 -0.00000000000E+00 -0.40835664768E+03  0.40835664768E+03  0.00000000000E+00 0. -1.
         25    2    1    2    0    0  0.66318769276E+02 -0.75020476499E+02 -0.20386230368E+03  0.25929451659E+03  0.12509019314E+03 0.  0.
         23    2    1    2    0    0 -0.66318769276E+02  0.75020476499E+02 -0.15058447379E+03  0.20297200131E+03  0.92172113558E+02 0.  0.
          5    1    3    3  502    0 -0.26372494571E+02  0.80652246462E+01 -0.11585789016E+02  0.30203629345E+02  0.41800000000E+01 0. -1.
         -5    1    3    3    0  502  0.92691263847E+02 -0.83085701145E+02 -0.19227651466E+03  0.22909088724E+03  0.41800000000E+01 0. -1.
        -11    1    4    4    0    0  0.33911576066E+01  0.64796905134E+02 -0.82887972680E+02  0.10526421462E+03  0.00000000000E+00 0.  1.
         11    1    4    4    0    0 -0.69709926883E+02  0.10223571365E+02 -0.67696501106E+02  0.97707786688E+02  0.00000000000E+00 0. -1.
</event>
<event>
 8    1  0.6185113E-009  0.1327686E+03  0.7561462E-02  0.1223404E+00
         -2   -1    0    0    0  501 -0.00000000000E+00  0.00000000000E+00  0.48472852981E+02  0.48472852981E+02  0.00000000000E+00 0.  1.
          2   -1    0    0  501    0  0.00000000000E+00 -0.00000000000E+00 -0.43124561924E+03  0.43124561924E+03  0.00000000000E+00 0. -1.
         25    2    1    2    0    0 -0.49228450498E+02  0.65150158082E+02 -0.29277548810E+03  0.32868690953E+03  0.12509841976E+03 0.  0.
         23    2    1    2    0    0  0.49228450498E+02 -0.65150158082E+02 -0.89997278159E+02  0.15103156269E+03  0.89682994019E+02 0.  0.
          5    1    3    3  502    0 -0.49599343192E+02 -0.23839022253E+02 -0.72790063618E+02  0.91346918878E+02  0.41800000000E+01 0. -1.
         -5    1    3    3    0  502  0.37089269370E+00  0.88989180335E+02 -0.21998542448E+03  0.23733999065E+03  0.41800000000E+01 0. -1.
        -11    1    4    4    0    0  0.74197596827E+02 -0.34784538067E+02 -0.62362474857E+02  0.10297730689E+03  0.00000000000E+00 0.  1.
         11    1    4    4    0    0 -0.24969146329E+02 -0.30365620015E+02 -0.27634803301E+02  0.48054255803E+02  0.00000000000E+00 0. -1.
</event>
<event>
 8    1  0.6185113E-009  0.1683508E+03  0.7561462E-02  0.1179579E+00
          1   -1    0    0  501    0  0.00000000000E+00  0.00000000000E+00  0.49251880706E+03  0.49251880706E+03  0.00000000000E+00 0. -1.
         -1   -1    0    0    0  501 -0.00000000000E+00 -0.00000000000E+00 -0.75379606646E+02  0.75379606646E+02  0.00000000000E+00 0.  1.
         25    2    1    2    0    0 -0.60981838476E+02 -0.14190474797E+03  0.28204140379E+03  0.34503743709E+03  0.12509091663E+03 0.  0.
         23    2    1    2    0    0  0.60981838476E+02  0.14190474797E+03  0.13509779662E+03  0.22286097661E+03  0.86947444607E+02 0.  0.
          5    1    3    3  502    0 -0.21405079015E+02 -0.93341145169E+01 -0.68554924257E+01  0.24693587788E+02  0.41800000000E+01 0. -1.
         -5    1    3    3    0  502 -0.39576759461E+02 -0.13257063345E+03  0.28889689621E+03  0.32034384930E+03  0.41800000000E+01 0. -1.
        -11    1    4    4    0    0  0.93909652394E+01  0.11682124011E+03  0.71832549695E+02  0.13746020357E+03  0.00000000000E+00 0.  1.
         11    1    4    4    0    0  0.51590873237E+02  0.25083507861E+02  0.63265246927E+02  0.85400773045E+02  0.00000000000E+00 0. -1.
</event>
<event>
 8    1  0.6185113E-009  0.9867641E+02  0.7561462E-02  0.1283104E+00
         -2   -1    0    0    0  501 -0.00000000000E+00  0.00000000000E+00  0.69056213237E+02  0.69056213237E+02  0.00000000000E+00 0.  1.
          2   -1    0    0  501    0  0.00000000000E+00 -0.00000000000E+00 -0.22614700005E+03  0.22614700005E+03  0.00000000000E+00 0. -1.
         25    2    1    2    0    0  0.38515564111E+02 -0.46690158705E+02 -0.74129205201E+02  0.15749723331E+03  0.12508724890E+03 0.  0.
         23    2    1    2    0    0 -0.38515564111E+02  0.46690158705E+02 -0.82961581614E+02  0.13770597998E+03  0.91743628112E+02 0.  0.
          5    1    3    3  502    0  0.37681180627E+02 -0.62552051006E+02  0.81478452902E+01  0.73596808636E+02  0.41800000000E+01 0. -1.
         -5    1    3    3    0  502  0.83438348407E+00  0.15861892300E+02 -0.82277050492E+02  0.83900424676E+02  0.41800000000E+01 0. -1.
        -11    1    4    4    0    0 -0.22333240885E+02 -0.25444941619E+02 -0.39201257809E+02  0.51797271320E+02  0.00000000000E+00 0. -1.
         11    1    4    4    0    0 -0.16182323227E+02  0.72135100324E+02 -0.43760323804E+02  0.85908708658E+02  0.00000000000E+00 0.  1.
</event>
<event>
 8    1  0.6185113E-009  0.5640992E+02  0.7561462E-02  0.1413547E+00
         -1   -1    0    0    0  501 -0.00000000000E+00  0.00000000000E+00  0.67148986657E+02  0.67148986657E+02  0.00000000000E+00 0.  1.
          1   -1    0    0  501    0  0.00000000000E+00 -0.00000000000E+00 -0.20819657005E+03  0.20819657005E+03  0.00000000000E+00 0. -1.
         25    2    1    2    0    0 -0.14557009622E+02  0.24156878481E+02 -0.13293942518E+02  0.12891495855E+03  0.12508747468E+03 0.  0.
         23    2    1    2    0    0  0.14557009622E+02 -0.24156878481E+02 -0.12775364087E+03  0.14643059816E+03  0.65768275127E+02 0.  0.
          5    1    3    3  502    0  0.17163403040E+02 -0.70839337329E+01  0.48808540388E+02  0.52388076276E+02  0.41800000000E+01 0.  1.
         -5    1    3    3    0  502 -0.31720412662E+02  0.31240812214E+02 -0.62102482907E+02  0.76526882273E+02  0.41800000000E+01 0.  1.
        -11    1    4    4    0    0  0.27961805135E+02 -0.10321955045E+02 -0.17619560102E+02  0.34624474011E+02  0.00000000000E+00 0.  1.
         11    1    4    4    0    0 -0.13404795513E+02 -0.13834923436E+02 -0.11013408077E+03  0.11180612414E+03  0.00000000000E+00 0. -1.
</event>
<event>
 8    1  0.6185113E-009  0.1469477E+03  0.7561462E-02  0.1204275E+00
          1   -1    0    0  501    0  0.00000000000E+00  0.00000000000E+00  0.61469153502E+02  0.61469153502E+02  0.00000000000E+00 0. -1.
         -1   -1    0    0    0  501 -0.00000000000E+00 -0.00000000000E+00 -0.45710782882E+03  0.45710782882E+03  0.00000000000E+00 0.  1.
         25    2    1    2    0    0  0.21065975701E+02  0.12349153532E+03 -0.17278972058E+03  0.24738131850E+03  0.12508914652E+03 0.  0.
         23    2    1    2    0    0 -0.21065975701E+02 -0.12349153532E+03 -0.22284895474E+03  0.27119566382E+03  0.90506888234E+02 0.  0.
          5    1    3    3  502    0  0.27370239319E+02  0.13979801480E+03 -0.17859938746E+03  0.22849032483E+03  0.41800000000E+01 0. -1.
         -5    1    3    3    0  502 -0.63042636176E+01 -0.16306479475E+02  0.58096668775E+01  0.18890993671E+02  0.41800000000E+01 0. -1.
        -11    1    4    4    0    0  0.14217119583E+02 -0.24647643277E+02 -0.43326841776E+01  0.28782024955E+02  0.00000000000E+00 0. -1.
         11    1    4    4    0    0 -0.35283095284E+02 -0.98843892045E+02 -0.21851627056E+03  0.24241363886E+03  0.00000000000E+00 0.  1.
</event>
<event>
 8    1  0.6185113E-009  0.1839076E+03  0.7561462E-02  0.1164074E+00
         -2   -1    0    0    0  501 -0.00000000000E+00  0.00000000000E+00  0.46018347617E+03  0.46018347617E+03  0.00000000000E+00 0. -1.
          2   -1    0    0  501    0  0.00000000000E+00 -0.00000000000E+00 -0.10454182175E+03  0.10454182175E+03  0.00000000000E+00 0.  1.
         25    2    1    2    0    0 -0.14159004445E+03  0.61123924419E+02  0.32917425814E+03  0.38443028327E+03  0.12508827141E+03 0.  0.
         23    2    1    2    0    0  0.14159004445E+03 -0.61123924419E+02  0.26467396273E+02  0.18029501466E+03  0.89565028997E+02 0.  0.
          5    1    3    3  502    0 -0.56758167126E+02 -0.36336876423E+02  0.89504397329E+02  0.11211765100E+03  0.41800000000E+01 0. -1.
         -5    1    3    3    0  502 -0.84831877329E+02  0.97460800843E+02  0.23966986082E+03  0.27231263227E+03  0.41800000000E+01 0. -1.
        -11    1    4    4    0    0  0.13163603309E+03 -0.25572776401E+02 -0.12942809886E+01  0.13410327089E+03  0.00000000000E+00 0.  1.
         11    1    4    4    0    0  0.99540113649E+01 -0.35551148018E+02  0.27761677261E+02  0.46191743765E+02  0.00000000000E+00 0. -1.
</event>
<event>
 8    1  0.6185113E-009  0.9690500E+02  0.7561462E-02  0.1286942E+00
          2   -1    0    0  501    0  0.00000000000E+00  0.00000000000E+00  0.35935570273E+03  0.35935570273E+03  0.00000000000E+00 0. -1.
         -2   -1    0    0    0  501 -0.00000000000E+00 -0.00000000000E+00 -0.89186652901E+02  0.89186652901E+02  0.00000000000E+00 0.  1.
         25    2    1    2    0    0  0.65773695204E+02  0.10283783443E+02  0.30241138654E+03  0.33396358780E+03  0.12508835310E+03 0.  0.
         23    2    1    2    0    0 -0.65773695204E+02 -0.10283783443E+02 -0.32242336716E+02  0.11457876783E+03  0.87503088962E+02 0.  0.
          5    1    3    3  502    0  0.45037100725E+02  0.58450719920E+02  0.24585115930E+03  0.25671987074E+03  0.41800000000E+01 0.  1.
         -5    1    3    3    0  502  0.20736594479E+02 -0.48166936477E+02  0.56560227243E+02  0.77243717064E+02  0.41800000000E+01 0.  1.
        -11    1    4    4    0    0 -0.38845357228E+02 -0.10948354047E+02 -0.62291936221E+02  0.74223402999E+02  0.00000000000E+00 0.  1.
         11    1    4    4    0    0 -0.26928337976E+02  0.66457060456E+00  0.30049599505E+02  0.40355364831E+02  0.00000000000E+00 0. -1.
</event>
<event>
 8    1  0.6185113E-009  0.9194464E+02  0.7561462E-02  0.1298210E+00
          2   -1    0    0  501    0  0.00000000000E+00  0.00000000000E+00  0.12004030370E+04  0.12004030370E+04  0.00000000000E+00 0. -1.
         -2   -1    0    0    0  501 -0.00000000000E+00 -0.00000000000E+00 -0.10391250863E+02  0.10391250863E+02  0.00000000000E+00 0.  1.
         25    2    1    2    0    0 -0.25936546809E+02 -0.76113616702E+01  0.68103947283E+03  0.69296004271E+03  0.12509284533E+03 0.  0.
         23    2    1    2    0    0  0.25936546809E+02  0.76113616702E+01  0.50897231326E+03  0.51783424510E+03  0.91481432285E+02 0.  0.
          5    1    3    3  502    0 -0.48158011931E+02 -0.30325770252E+02  0.63074846957E+03  0.63332452243E+03  0.41800000000E+01 0. -1.
         -5    1    3    3    0  502  0.22221465122E+02  0.22714408582E+02  0.50291003266E+02  0.59635520278E+02  0.41800000000E+01 0. -1.
        -11    1    4    4    0    0 -0.16204242252E+01  0.46821666483E+02  0.22225409216E+03  0.22713823040E+03  0.00000000000E+00 0.  1.
         11    1    4    4    0    0  0.27556971034E+02 -0.39210304813E+02  0.28671822109E+03  0.29069601470E+03  0.00000000000E+00 0. -1.
</event>
<event>
 8    1  0.6185113E-009  0.1208924E+03  0.7561462E-02  0.1241632E+00
         -1   -1    0    0    0  501 -0.00000000000E+00  0.00000000000E+00  0.80125131845E+02  0.80125131845E+02  0.00000000000E+00 0.  1.
          1   -1    0    0  501    0  0.00000000000E+00 -0.00000000000E+00 -0.22416233354E+03  0.22416233354E+03  0.00000000000E+00 0. -1.
         25    2    1    2    0    0 -0.66825822277E+02 -0.38009879113E+02 -0.61613071070E+02  0.15923011075E+03  0.12509043212E+03 0.  0.
         23    2    1    2    0    0  0.66825822277E+02  0.38009879113E+02 -0.82424130622E+02  0.14505735464E+03  0.91309678524E+02 0.  0.
          5    1    3    3  502    0  0.35384161372E+02 -0.23944931503E+02 -0.11433291439E+02  0.44425118726E+02  0.41800000000E+01 0.  1.
         -5    1    3    3    0  502 -0.10220998365E+03 -0.14064947610E+02 -0.50179779631E+02  0.11480499202E+03  0.41800000000E+01 0.  1.
        -11    1    4    4    0    0  0.32846066003E+02 -0.12142573825E+02 -0.76567182040E+02  0.84195246401E+02  0.00000000000E+00 0. -1.
         11    1    4    4    0    0  0.33979756274E+02  0.50152452938E+02 -0.58569485822E+01  0.60862108236E+02  0.00000000000E+00 0.  1.
</event>
<event>
 8    1  0.6185113E-009  0.1518687E+03  0.7561462E-02  0.1198195E+00
         -1   -1    0    0    0  501 -0.00000000000E+00  0.00000000000E+00  0.40813709909E+03  0.40813709909E+03  0.00000000000E+00 0.  1.
          1   -1    0    0  501    0  0.00000000000E+00 -0.00000000000E+00 -0.72930896299E+02  0.72930896299E+02  0.00000000000E+00 0. -1.
         25    2    1    2    0    0 -0.12423280355E+03  0.11836112327E+02  0.24670991307E+03  0.30345893191E+03  0.12509060362E+03 0.  0.
         23    2    1    2    0    0  0.12423280355E+03 -0.11836112327E+02  0.88496289724E+02  0.17760906348E+03  0.90219194763E+02 0.  0.
          5    1    3    3  502    0 -0.96610083873E+02  0.50216489508E+02  0.22750044799E+03  0.25224815235E+03  0.41800000000E+01 0. -1.
         -5    1    3    3    0  502 -0.27622719679E+02 -0.38380377180E+02  0.19209465077E+02  0.51210779564E+02  0.41800000000E+01 0. -1.
        -11    1    4    4    0    0 -0.12866373440E+01 -0.21383394076E+02  0.34555436319E+02  0.40656895566E+02  0.00000000000E+00 0.  1.
         11    1    4    4    0    0  0.12551944090E+03  0.95472817492E+01  0.53940853405E+02  0.13695216792E+03  0.00000000000E+00 0. -1.
</event>
<event>
 8    1  0.6185113E-009  0.1241009E+03  0.7561462E-02  0.1236481E+00
          1   -1    0    0  501    0  0.00000000000E+00  0.00000000000E+00  0.69718684175E+02  0.69718684175E+02  0.00000000000E+00 0. -1.
         -1   -1    0    0    0  501 -0.00000000000E+00 -0.00000000000E+00 -0.27708384817E+03  0.27708384817E+03  0.00000000000E+00 0.  1.
         25    2    1    2    0    0 -0.78320908215E+02  0.16127056527E+02 -0.15778524077E+03  0.21665100251E+03  0.12508888066E+03 0.  0.
         23    2    1    2    0    0  0.78320908215E+02 -0.16127056527E+02 -0.49579923223E+02  0.13015152984E+03  0.89927778339E+02 0.  0.
          5    1    3    3  502    0  0.21731387373E+02  0.35786793791E+02 -0.71727586692E+02  0.83158083790E+02  0.41800000000E+01 0.  1.
         -5    1    3    3    0  502 -0.10005229559E+03 -0.19659737264E+02 -0.86057654081E+02  0.13349291872E+03  0.41800000000E+01 0.  1.
        -11    1    4    4    0    0  0.86964415551E+02 -0.26176950873E+02 -0.63587182180E+02  0.11086646051E+03  0.00000000000E+00 0.  1.
         11    1    4    4    0    0 -0.86435073357E+01  0.10049894346E+02  0.14007258957E+02  0.19285069327E+02  0.00000000000E+00 0. -1.
</event>
<event>
 8    1  0.6185113E-009  0.1060675E+03  0.7561462E-02  0.1268031E+00
         -4   -1    0    0    0  501 -0.00000000000E+00  0.00000000000E+00  0.49854019006E+03  0.49854019006E+03  0.00000000000E+00 0.  1.
          4   -1    0    0  501    0  0.00000000000E+00 -0.00000000000E+00 -0.37406104011E+02  0.37406104011E+02  0.00000000000E+00 0. -1.
         25    2    1    2    0    0 -0.18552135920E+02 -0.66117825947E+02  0.15278299647E+03  0.20905014592E+03  0.12507426132E+03 0.  0.
         23    2    1    2    0    0  0.18552135920E+02  0.66117825947E+02  0.30835108958E+03  0.32689614815E+03  0.84053248443E+02 0.  0.
          5    1    3    3  502    0  0.50703443912E+02 -0.18723372472E+02  0.35597392483E+02  0.64854071984E+02  0.41800000000E+01 0.  1.
         -5    1    3    3    0  502 -0.69255579832E+02 -0.47394453475E+02  0.11718560398E+03  0.14419607394E+03  0.41800000000E+01 0.  1.
        -11    1    4    4    0    0  0.25463167785E+02  0.45319670248E+02  0.29828135902E+03  0.30277716982E+03  0.00000000000E+00 0.  1.
         11    1    4    4    0    0 -0.69110318654E+01  0.20798155699E+02  0.10069730554E+02  0.24118978323E+02  0.00000000000E+00 0. -1.
</event>
<event>
 8    1  0.6185113E-009  0.7840402E+02  0.7561462E-02  0.1333643E+00
          1   -1    0    0  501    0  0.00000000000E+00  0.00000000000E+00  0.52511818809E+03  0.52511818809E+03  0.00000000000E+00 0. -1.
         -1   -1    0    0    0  501 -0.00000000000E+00 -0.00000000000E+00 -0.31444064866E+02  0.31444064866E+02  0.00000000000E+00 0.  1.
         25    2    1    2    0    0  0.55687603751E+02 -0.38741715976E+02  0.30128145802E+03  0.33319615007E+03  0.12508847952E+03 0.  0.
         23    2    1    2    0    0 -0.55687603751E+02  0.38741715976E+02  0.19239266521E+03  0.22336610288E+03  0.90969492268E+02 0.  0.
          5    1    3    3  502    0  0.58424880484E+01 -0.62348465965E+01  0.26109456033E+03  0.26126777415E+03  0.41800000000E+01 0. -1.
         -5    1    3    3    0  502  0.49845115703E+02 -0.32506869379E+02  0.40186897688E+02  0.71928375917E+02  0.41800000000E+01 0. -1.
        -11    1    4    4    0    0 -0.57122327939E+02  0.50228593682E+02  0.19679297032E+03  0.21098185975E+03  0.00000000000E+00 0. -1.
         11    1    4    4    0    0  0.14347241876E+01 -0.11486877706E+02 -0.44003051189E+01  0.12384243137E+02  0.00000000000E+00 0.  1.
</event>
<event>
 8    1  0.6185113E-009  0.1812563E+03  0.7561462E-02  0.1166593E+00
         -2   -1    0    0    0  501 -0.00000000000E+00  0.00000000000E+00  0.39430464808E+03  0.39430464808E+03  0.00000000000E+00 0.  1.
          2   -1    0    0  501    0  0.00000000000E+00 -0.00000000000E+00 -0.92687433097E+02  0.92687433097E+02  0.00000000000E+00 0. -1.
         25    2    1    2    0    0 -0.10104506572E+03  0.11457247657E+03  0.11598508797E+03  0.22899023315E+03  0.12508808318E+03 0.  0.
         23    2    1    2    0    0  0.10104506572E+03 -0.11457247657E+03  0.18563212701E+03  0.25800184802E+03  0.93641386748E+02 0.  0.
          5    1    3    3  502    0 -0.32612494715E+02  0.12289794495E+03  0.86815628532E+02  0.15401917232E+03  0.41800000000E+01 0.  1.
         -5    1    3    3    0  502 -0.68432571005E+02 -0.83254683855E+01  0.29169459434E+02  0.74971060829E+02  0.41800000000E+01 0.  1.
        -11    1    4    4    0    0  0.85310682497E+02 -0.48134887039E+02  0.59589241350E+02  0.11465495010E+03  0.00000000000E+00 0. -1.
         11    1    4    4    0    0  0.15734383222E+02 -0.66437589526E+02  0.12604288566E+03  0.14334689792E+03  0.00000000000E+00 0.  1.
</event>
<event>
 8    1  0.6185113E-009  0.1801209E+03  0.7561462E-02  0.1167686E+00
         -1   -1    0    0    0  501 -0.00000000000E+00  0.00000000000E+00  0.42540570694E+03  0.42540570694E+03  0.00000000000E+00 0.  1.
          1   -1    0    0  501    0  0.00000000000E+00 -0.00000000000E+00 -0.82600779244E+02  0.82600779244E+02  0.00000000000E+00 0. -1.
         25    2    1    2    0    0  0.36924378070E+02 -0.14569450716E+03  0.21475938644E+03  0.29044438312E+03  0.12508415772E+03 0.  0.
         23    2    1    2    0    0 -0.36924378070E+02  0.14569450716E+03  0.12804554126E+03  0.21756210306E+03  0.91363608397E+02 0.  0.
          5    1    3    3  502    0 -0.13066266106E+02  0.16401394823E+02  0.76672318756E+01  0.22715455239E+02  0.41800000000E+01 0.  1.
         -5    1    3    3    0  502  0.49990644176E+02 -0.16209590198E+03  0.20709215456E+03  0.26772892788E+03  0.41800000000E+01 0.  1.
        -11    1    4    4    0    0  0.17181946538E+02  0.89636300755E+02  0.98378106828E+02  0.13419440228E+03  0.00000000000E+00 0.  1.
         11    1    4    4    0    0 -0.54106324608E+02  0.56058206405E+02  0.29667434432E+02  0.83367700782E+02  0.00000000000E+00 0. -1.
</event>
<event>
 8    1  0.6185113E-009  0.9099361E+02  0.7561462E-02  0.1300463E+00
         -2   -1    0    0    0  501 -0.00000000000E+00  0.00000000000E+00  0.70022530812E+02  0.70022530812E+02  0.00000000000E+00 0.  1.
          2   -1    0    0  501    0  0.00000000000E+00 -0.00000000000E+00 -0.24783872929E+03  0.24783872929E+03  0.00000000000E+00 0. -1.
         25    2    1    2    0    0 -0.18649394922E+02  0.56027302225E+02 -0.43727982038E+02  0.14507502713E+03  0.12509104108E+03 0.  0.
         23    2    1    2    0    0  0.18649394922E+02 -0.56027302225E+02 -0.13408821644E+03  0.17278623297E+03  0.91589158698E+02 0.  0.
          5    1    3    3  502    0 -0.27300385562E+02  0.16143988876E+02  0.40367432591E+02  0.51506712599E+02  0.41800000000E+01 0. -1.
         -5    1    3    3    0  502  0.86509906398E+01  0.39883313348E+02 -0.84095414629E+02  0.93568314532E+02  0.41800000000E+01 0. -1.
        -11    1    4    4    0    0  0.28547520896E+02 -0.78977416067E+02 -0.10285865821E+03  0.13278665884E+03  0.00000000000E+00 0.  1.
         11    1    4    4    0    0 -0.98981259740E+01  0.22950113843E+02 -0.31229558236E+02  0.39999574133E+02  0.00000000000E+00 0. -1.
</event>
<event>
 8    1  0.6185113E-009  0.1700381E+03  0.7561462E-02  0.1177808E+00
          3   -1    0    0  501    0  0.00000000000E+00  0.00000000000E+00  0.77117558543E+02  0.77117558543E+02  0.00000000000E+00 0. -1.
         -3   -1    0    0    0  501 -0.00000000000E+00 -0.00000000000E+00 -0.41982748175E+03  0.41982748175E+03  0.00000000000E+00 0.  1.
         25    2    1    2    0    0 -0.12120435744E+03  0.66134244336E+02 -0.13085411415E+03  0.22767264190E+03  0.12509115934E+03 0.  0.
         23    2    1    2    0    0  0.12120435744E+03 -0.66134244336E+02 -0.21185580906E+03  0.26927239839E+03  0.92523003457E+02 0.  0.
          5    1    3    3  502    0 -0.85545242920E+02  0.95176140020E+02 -0.56065171635E+02  0.13977575643E+03  0.41800000000E+01 0.  1.
         -5    1    3    3    0  502 -0.35659114516E+02 -0.29041895684E+02 -0.74788942511E+02  0.87896885468E+02  0.41800000000E+01 0.  1.
        -11    1    4    4    0    0  0.22454589078E+02 -0.63194299677E+02 -0.94300361254E+02  0.11571640426E+03  0.00000000000E+00 0.  1.
         11    1    4    4    0    0  0.98749768358E+02 -0.29399446592E+01 -0.11755544780E+03  0.15355599413E+03  0.00000000000E+00 0. -1.
</event>
<event>
 8    1  0.6185113E-009  0.1869584E+03  0.7561462E-02  0.1161234E+00
          2   -1    0    0  501    0  0.00000000000E+00  0.00000000000E+00  0.70629576819E+03  0.70629576819E+03  0.00000000000E+00 0. -1.
         -2   -1    0    0    0  501 -0.00000000000E+00 -0.00000000000E+00 -0.63666543087E+02  0.63666543087E+02  0.00000000000E+00 0.  1.
         25    2    1    2    0    0  0.14773866058E+03  0.78559196152E+02  0.20539910917E+03  0.29297467093E+03  0.12508838727E+03 0.  0.
         23    2    1    2    0    0 -0.14773866058E+03 -0.78559196152E+02  0.43723011594E+03  0.47698764035E+03  0.91371634730E+02 0.  0.
          5    1    3    3  502    0  0.14299475817E+03  0.44434022569E+02  0.95318714457E+02  0.17755284552E+03  0.41800000000E+01 0. -1.
         -5    1    3    3    0  502  0.47439024109E+01  0.34125173583E+02  0.11008039471E+03  0.11542182542E+03  0.41800000000E+01 0. -1.
        -11    1    4    4    0    0 -0.95867650298E+02 -0.71554075756E+00  0.24837749581E+03  0.26623767352E+03  0.00000000000E+00 0. -1.
         11    1    4    4    0    0 -0.51871010281E+02 -0.77843655394E+02  0.18885262012E+03  0.21074996683E+03  0.00000000000E+00 0.  1.
</event>
<event>
 8    1  0.6185113E-009  0.1265906E+03  0.7561462E-02  0.1232604E+00
          1   -1    0    0  501    0  0.00000000000E+00  0.00000000000E+00  0.40342778014E+03  0.40342778014E+03  0.00000000000E+00 0. -1.
         -1   -1    0    0    0  501 -0.00000000000E+00 -0.00000000000E+00 -0.61099785964E+02  0.61099785964E+02  0.00000000000E+00 0.  1.
         25    2    1    2    0    0 -0.17942739850E+02  0.94896834226E+02  0.27241552192E+03  0.31492602247E+03  0.12506331191E+03 0.  0.
         23    2    1    2    0    0  0.17942739850E+02 -0.94896834226E+02  0.69912472262E+02  0.14960154364E+03  0.90363250397E+02 0.  0.
          5    1    3    3  502    0 -0.55579035183E+02  0.26147347856E+02  0.50785095272E+02  0.79807964850E+02  0.41800000000E+01 0. -1.
         -5    1    3    3    0  502  0.37636295333E+02  0.68749486370E+02  0.22163042665E+03  0.23511805762E+03  0.41800000000E+01 0. -1.
        -11    1    4    4    0    0 -0.21666281437E+02 -0.39102851669E+02 -0.85292044281E+01  0.45510527223E+02  0.00000000000E+00 0.  1.
         11    1    4    4    0    0  0.39609021287E+02 -0.55793982557E+02  0.78441676690E+02  0.10409101642E+03  0.00000000000E+00 0. -1.
</event>
<event>
 8    1  0.6185113E-009  0.9884070E+02  0.7561462E-02  0.1282753E+00
          4   -1    0    0  501    0  0.00000000000E+00  0.00000000000E+00  0.24687442350E+03  0.24687442350E+03  0.00000000000E+00 0. -1.
         -4   -1    0    0    0  501 -0.00000000000E+00 -0.00000000000E+00 -0.48394756263E+02  0.48394756263E+02  0.00000000000E+00 0.  1.
         25    2    1    2    0    0  0.90147637062E+01  0.92235803011E+01  0.92368967190E+02  0.15603718046E+03  0.12509690319E+03 0.  0.
         23    2    1    2    0    0 -0.90147637062E+01 -0.92235803011E+01  0.10611070005E+03  0.13923199931E+03  0.89217310924E+02 0.  0.
          5    1    3    3  502    0 -0.25281755154E+02 -0.40513960382E+02  0.29342543980E+01  0.48027391958E+02  0.41800000000E+01 0.  1.
         -5    1    3    3    0  502  0.34296518860E+02  0.49737540683E+02  0.89434712791E+02  0.10800978850E+03  0.41800000000E+01 0.  1.
        -11    1    4    4    0    0  0.34772444343E+02  0.16404415459E+02  0.55945057716E+02  0.67882819734E+02  0.00000000000E+00 0. -1.
         11    1    4    4    0    0 -0.43787208049E+02 -0.25627995760E+02  0.50165642330E+02  0.71349179573E+02  0.00000000000E+00 0.  1.
</event>
<event>
 8    1  0.6185113E-009  0.8099419E+02  0.7561462E-02  0.1326254E+00
         -1   -1    0    0    0  501 -0.00000000000E+00  0.00000000000E+00  0.74855156333E+02  0.74855156333E+02  0.00000000000E+00 0.  1.
          1   -1    0    0  501    0  0.00000000000E+00 -0.00000000000E+00 -0.18390052398E+03  0.18390052398E+03  0.00000000000E+00 0. -1.
         25    2    1    2    0    0 -0.31280852464E+02  0.98251042671E+01 -0.32088833715E+02  0.13323719838E+03  0.12508970133E+03 0.  0.
         23    2    1    2    0    0  0.31280852464E+02 -0.98251042671E+01 -0.76956533937E+02  0.12551848194E+03  0.93581818681E+02 0.  0.
          5    1    3    3  502    0 -0.20631791201E+02  0.40659830183E+02 -0.69625249490E+02  0.83330908822E+02  0.41800000000E+01 0. -1.
         -5    1    3    3    0  502 -0.10649061264E+02 -0.30834725916E+02  0.37536415775E+02  0.49906289557E+02  0.41800000000E+01 0. -1.
        -11    1    4    4    0    0  0.15393093834E+02 -0.43465293080E+02 -0.74871264697E+01  0.46714410016E+02  0.00000000000E+00 0.  1.
         11    1    4    4    0    0  0.15887758630E+02  0.33640188813E+02 -0.69469407468E+02  0.78804071922E+02  0.00000000000E+00 0. -1.
</event>
<event>
 8    1  0.6185113E-009  0.1106937E+03  0.7561462E-02  0.1259291E+00
          3   -1    0    0  501    0  0.00000000000E+00  0.00000000000E+00  0.21875336635E+03  0.21875336635E+03  0.00000000000E+00 0. -1.
         -3   -1    0    0    0  501 -0.00000000000E+00 -0.00000000000E+00 -0.10799681347E+03  0.10799681347E+03  0.00000000000E+00 0.  1.
         25    2    1    2    0    0 -0.71645174428E+02  0.42753638057E+02 -0.14396664958E+02  0.15105125458E+03  0.12509321709E+03 0.  0.
         23    2    1    2    0    0  0.71645174428E+02 -0.42753638057E+02  0.12515321784E+03  0.17569892524E+03  0.90806826877E+02 0.  0.
          5    1    3    3  502    0 -0.94593677715E+01 -0.26769367125E+02 -0.44497634650E+02  0.52948942806E+02  0.41800000000E+01 0. -1.
         -5    1    3    3    0  502 -0.62185806656E+02  0.69523005181E+02  0.30100969692E+02  0.98102311773E+02  0.41800000000E+01 0. -1.
        -11    1    4    4    0    0  0.60763636022E+02 -0.55684441919E+02  0.45242209249E+02  0.94020391576E+02  0.00000000000E+00 0.  1.
         11    1    4    4    0    0  0.10881538405E+02  0.12930803862E+02  0.79911008594E+02  0.81678533662E+02  0.00000000000E+00 0. -1.
</event>
<event>
 8    1  0.6185113E-009  0.1598615E+03  0.7561462E-02  0.1188853E+00
         -3   -1    0    0    0  501 -0.00000000000E+00  0.00000000000E+00  0.56793337584E+02  0.56793337584E+02  0.00000000000E+00 0.  1.
          3   -1    0    0  501    0  0.00000000000E+00 -0.00000000000E+00 -0.47355347044E+03  0.47355347044E+03  0.00000000000E+00 0. -1.
         25    2    1    2    0    0  0.59341364023E+02  0.95905273316E+02 -0.16999664278E+03  0.23930093285E+03  0.12508740533E+03 0.  0.
         23    2    1    2    0    0 -0.59341364023E+02 -0.95905273316E+02 -0.24676349007E+03  0.29104587517E+03  0.10533879858E+03 0.  0.
          5    1    3    3  502    0  0.21186387446E+02 -0.29149560167E+02 -0.25235037467E+02  0.44190942362E+02  0.41800000000E+01 0.  1.
         -5    1    3    3    0  502  0.38154976577E+02  0.12505483348E+03 -0.14476160531E+03  0.19510999049E+03  0.41800000000E+01 0.  1.
        -11    1    4    4    0    0 -0.70648858138E+02 -0.16661938732E+02 -0.96033912944E+02  0.12038020516E+03  0.00000000000E+00 0.  1.
         11    1    4    4    0    0  0.11307494115E+02 -0.79243334585E+02 -0.15072957713E+03  0.17066567001E+03  0.00000000000E+00 0. -1.
</event>
<event>
 8    1  0.6185113E-009  0.7096108E+02  0.7561462E-02  0.1356855E+00
         -2   -1    0    0    0  501 -0.00000000000E+00  0.00000000000E+00  0.98042435925E+02  0.98042435925E+02  0.00000000000E+00 0.  1.
          2   -1    0    0  501    0  0.00000000000E+00 -0.00000000000E+00 -0.17644137606E+03  0.17644137606E+03  0.00000000000E+00 0. -1.
         25    2    1    2    0    0  0.12733734845E+02  0.64309269387E+01 -0.11776727208E+03  0.17239392599E+03  0.12508809104E+03 0.  0.
         23    2    1    2    0    0 -0.12733734845E+02 -0.64309269387E+01  0.39368331940E+02  0.10208988600E+03  0.93107327525E+02 0.  0.
          5    1    3    3  502    0 -0.33878401109E+02  0.30847906413E+02 -0.30440130857E+01  0.46109411268E+02  0.41800000000E+01 0. -1.
         -5    1    3    3    0  502  0.46612135954E+02 -0.24416979475E+02 -0.11472325899E+03  0.12628451472E+03  0.41800000000E+01 0. -1.
        -11    1    4    4    0    0 -0.11615339479E+02  0.16494976875E+02 -0.25942213859E+02  0.32863335698E+02  0.00000000000E+00 0. -1.
         11    1    4    4    0    0 -0.11183953658E+01 -0.22925903814E+02  0.65310545798E+02  0.69226550299E+02  0.00000000000E+00 0.  1.
</event>
<event>
 8    1  0.6185113E-009  0.1092376E+03  0.7561462E-02  0.1261988E+00
         -2   -1    0    0    0  501 -0.00000000000E+00  0.00000000000E+00  0.51800536029E+02  0.51800536029E+02  0.00000000000E+00 0.  1.
          2   -1    0    0  501    0  0.00000000000E+00 -0.00000000000E+00 -0.28949961269E+03  0.28949961269E+03  0.00000000000E+00 0. -1.
         25    2    1    2    0    0  0.28949857698E+02 -0.31962829358E+02 -0.20652172671E+03  0.24525335312E+03  0.12505305632E+03 0.  0.
         23    2    1    2    0    0 -0.28949857698E+02  0.31962829358E+02 -0.31177349954E+02  0.96046795598E+02  0.79957758054E+02 0.  0.
          5    1    3    3  502    0  0.67213850851E+02  0.13110514014E+02 -0.14159086281E+03  0.15733731965E+03  0.41800000000E+01 0.  1.
         -5    1    3    3    0  502 -0.38263993153E+02 -0.45073343372E+02 -0.64930863895E+02  0.87916033469E+02  0.41800000000E+01 0.  1.
        -11    1    4    4    0    0  0.37524529753E+01  0.52070334817E+02 -0.14427355648E+02  0.54162249420E+02  0.00000000000E+00 0.  1.
         11    1    4    4    0    0 -0.32702310674E+02 -0.20107505459E+02 -0.16749994307E+02  0.41884546177E+02  0.00000000000E+00 0. -1.
</event>
<event>
 8    1  0.6185113E-009  0.2046076E+03  0.7561462E-02  0.1145909E+00
          1   -1    0    0  501    0  0.00000000000E+00  0.00000000000E+00  0.36041194308E+02  0.36041194308E+02  0.00000000000E+00 0. -1.
         -1   -1    0    0    0  501 -0.00000000000E+00 -0.00000000000E+00 -0.12785241678E+04  0.12785241678E+04  0.00000000000E+00 0.  1.
         25    2    1    2    0    0  0.52893501338E+02 -0.16792836047E+03 -0.81215841633E+03  0.84038587028E+03  0.12509780584E+03 0.  0.
         23    2    1    2    0    0 -0.52893501338E+02  0.16792836047E+03 -0.43032455719E+03  0.47417949185E+03  0.93109125436E+02 0.  0.
          5    1    3    3  502    0  0.24275121732E+02  0.14284587337E+02 -0.16517169250E+03  0.16760814829E+03  0.41800000000E+01 0. -1.
         -5    1    3    3    0  502  0.28618379606E+02 -0.18221294780E+03 -0.64698672383E+03  0.67277772199E+03  0.41800000000E+01 0. -1.
        -11    1    4    4    0    0 -0.67663749879E+02  0.70545666430E+02 -0.17392413788E+03  0.19951110204E+03  0.00000000000E+00 0.  1.
         11    1    4    4    0    0  0.14770248542E+02  0.97382694037E+02 -0.25640041931E+03  0.27466838981E+03  0.00000000000E+00 0. -1.
</event>
<event>
 8    1  0.6185113E-009  0.1798674E+03  0.7561462E-02  0.1167931E+00
          2   -1    0    0  501    0  0.00000000000E+00  0.00000000000E+00  0.70982298794E+03  0.70982298794E+03  0.00000000000E+00 0. -1.
         -2   -1    0    0    0  501 -0.00000000000E+00 -0.00000000000E+00 -0.51535465926E+02  0.51535465926E+02  0.00000000000E+00 0.  1.
         25    2    1    2    0    0  0.13700934856E+03  0.61271773277E+02  0.43993758003E+03  0.48137076667E+03  0.12508776475E+03 0.  0.
         23    2    1    2    0    0 -0.13700934856E+03 -0.61271773277E+02  0.21834994198E+03  0.27998768719E+03  0.90502022194E+02 0.  0.
          5    1    3    3  502    0  0.43029277288E+02 -0.36821173291E+02  0.95785401615E+02  0.11135363968E+03  0.41800000000E+01 0.  1.
         -5    1    3    3    0  502  0.93980071275E+02  0.98092946568E+02  0.34415217841E+03  0.37001712700E+03  0.41800000000E+01 0.  1.
        -11    1    4    4    0    0 -0.17431112266E+02 -0.42574692481E+02  0.10293555862E+03  0.11274829197E+03  0.00000000000E+00 0. -1.
         11    1    4    4    0    0 -0.11957823630E+03 -0.18697080796E+02  0.11541438337E+03  0.16723939522E+03  0.00000000000E+00 0.  1.
</event>
<event>
 8    1  0.6185113E-009  0.1305659E+03  0.7561462E-02  0.1226619E+00
         -1   -1    0    0    0  501 -0.00000000000E+00  0.00000000000E+00  0.27838174257E+02  0.27838174257E+02  0.00000000000E+00 0.  1.
          1   -1    0    0  501    0  0.00000000000E+00 -0.00000000000E+00 -0.71421544717E+03  0.71421544717E+03  0.00000000000E+00 0. -1.
         25    2    1    2    0    0  0.85844734617E+02 -0.26297469338E+01 -0.29487573956E+03  0.33162808408E+03  0.12509696375E+03 0.  0.
         23    2    1    2    0    0 -0.85844734617E+02  0.26297469338E+01 -0.39150153335E+03  0.41042553735E+03  0.88314421582E+02 0.  0.
          5    1    3    3  502    0  0.87904184886E+02 -0.51446638745E+02 -0.18299585483E+03  0.20947280884E+03  0.41800000000E+01 0.  1.
         -5    1    3    3    0  502 -0.20594502690E+01  0.48816891811E+02 -0.11187988473E+03  0.12215527524E+03  0.41800000000E+01 0.  1.
        -11    1    4    4    0    0 -0.48922143927E+02 -0.32866451276E+02 -0.29840991251E+03  0.30417438365E+03  0.00000000000E+00 0. -1.
         11    1    4    4    0    0 -0.36922590689E+02  0.35496198210E+02 -0.93091620845E+02  0.10625115370E+03  0.00000000000E+00 0.  1.
</event>
<event>
 8    1  0.6185113E-009  0.1205117E+03  0.7561462E-02  0.1242255E+00
         -1   -1    0    0    0  501 -0.00000000000E+00  0.00000000000E+00  0.39060591986E+02  0.39060591986E+02  0.00000000000E+00 0.  1.
          1   -1    0    0  501    0  0.00000000000E+00 -0.00000000000E+00 -0.42970435676E+03  0.42970435676E+03  0.00000000000E+00 0. -1.
         25    2    1    2    0    0  0.48426064117E+02 -0.27469625052E+02 -0.29192430803E+03  0.32243904009E+03  0.12508984358E+03 0.  0.
         23    2    1    2    0    0 -0.48426064117E+02  0.27469625052E+02 -0.98719456740E+02  0.14632590866E+03  0.92553100538E+02 0.  0.
          5    1    3    3  502    0  0.77486991957E+02  0.19856326121E+02 -0.19207777151E+03  0.20811018793E+03  0.41800000000E+01 0. -1.
         -5    1    3    3    0  502 -0.29060927840E+02 -0.47325951173E+02 -0.99846536519E+02  0.11432885216E+03  0.41800000000E+01 0. -1.
        -11    1    4    4    0    0 -0.27231410885E+02 -0.32045824322E+02 -0.23786426969E+02  0.48314373671E+02  0.00000000000E+00 0.  1.
         11    1    4    4    0    0 -0.21194653232E+02  0.59515449374E+02 -0.74933029772E+02  0.98011534987E+02  0.00000000000E+00 0. -1.
</event>
<event>
 8    1  0.6185113E-009  0.1461408E+03  0.7561462E-02  0.1205297E+00
         -2   -1    0    0    0  501 -0.00000000000E+00  0.00000000000E+00  0.74328339805E+02  0.74328339805E+02  0.00000000000E+00 0.  1.
          2   -1    0    0  501    0  0.00000000000E+00 -0.00000000000E+00 -0.33725309078E+03  0.33725309078E+03  0.00000000000E+00 0. -1.
         25    2    1    2    0    0 -0.60763344473E+02  0.94370392068E+02 -0.10976548623E+03  0.20073381595E+03  0.12509055907E+03 0.  0.
         23    2    1    2    0    0  0.60763344473E+02 -0.94370392068E+02 -0.15315926474E+03  0.21084761463E+03  0.91656976212E+02 0.  0.
          5    1    3    3  502    0  0.33086642710E+02  0.14706191479E+02 -0.10785583330E+01  0.36464142410E+02  0.41800000000E+01 0.  1.
         -5    1    3    3    0  502 -0.93849987184E+02  0.79664200590E+02 -0.10868692790E+03  0.16426967354E+03  0.41800000000E+01 0.  1.
        -11    1    4    4    0    0  0.80850373187E+01 -0.76658857084E+02 -0.45032425286E+02  0.89274114529E+02  0.00000000000E+00 0.  1.
         11    1    4    4    0    0  0.52678307155E+02 -0.17711534985E+02 -0.10812683946E+03  0.12157350010E+03  0.00000000000E+00 0. -1.
</event>
<event>
 8    1  0.6185113E-009  0.1771051E+03  0.7561462E-02  0.1170635E+00
          2   -1    0    0  501    0  0.00000000000E+00  0.00000000000E+00  0.76554561268E+03  0.76554561268E+03  0.00000000000E+00 0. -1.
         -2   -1    0    0    0  501 -0.00000000000E+00 -0.00000000000E+00 -0.55363795751E+02  0.55363795751E+02  0.00000000000E+00 0.  1.
         25    2    1    2    0    0  0.70580736006E+02 -0.12846090192E+03  0.18192531982E+03  0.26500788529E+03  0.12509401927E+03 0.  0.
         23    2    1    2    0    0 -0.70580736006E+02  0.12846090192E+03  0.52825649711E+03  0.55590152314E+03  0.92128893791E+02 0.  0.
          5    1    3    3  502    0 -0.22569248387E+02  0.42870026693E+01  0.52578537331E+02  0.57530203828E+02  0.41800000000E+01 0. -1.
         -5    1    3    3    0  502  0.93149984393E+02 -0.13274790459E+03  0.12934678249E+03  0.20747768146E+03  0.41800000000E+01 0. -1.
        -11    1    4    4    0    0 -0.57792685078E+02  0.22676524187E+02  0.13728122238E+03  0.15066636391E+03  0.00000000000E+00 0.  1.
         11    1    4    4    0    0 -0.12788050928E+02  0.10578437773E+03  0.39097527473E+03  0.40523515922E+03  0.00000000000E+00 0. -1.
</event>
<event>
 8    1  0.6185113E-009  0.8881698E+02  0.7561462E-02  0.1305742E+00
          2   -1    0    0  501    0  0.00000000000E+00  0.00000000000E+00  0.28388851433E+03  0.28388851433E+03  0.00000000000E+00 0. -1.
         -2   -1    0    0    0  501 -0.00000000000E+00 -0.00000000000E+00 -0.52127968396E+02  0.52127968396E+02  0.00000000000E+00 0.  1.
         25    2    1    2    0    0 -0.54289094036E+02 -0.12908710573E+02  0.13799530823E+03  0.19443223713E+03  0.12508896514E+03 0.  0.
         23    2    1    2    0    0  0.54289094036E+02  0.12908710573E+02  0.93765237701E+02  0.14158424560E+03  0.90223268953E+02 0.  0.
          5    1    3    3  502    0 -0.75230039265E+02 -0.93360615995E+01  0.25829169064E+02  0.80195630981E+02  0.41800000000E+01 0. -1.
         -5    1    3    3    0  502  0.20940945229E+02 -0.35726489732E+01  0.11216613917E+03  0.11423660615E+03  0.41800000000E+01 0. -1.
        -11    1    4    4    0    0 -0.11837665648E+02 -0.26448367447E+01  0.67773343710E+02  0.68850211379E+02  0.00000000000E+00 0. -1.
         11    1    4    4    0    0  0.66126759684E+02  0.15553547317E+02  0.25991893992E+02  0.72734034219E+02  0.00000000000E+00 0.  1.
</event>
<event>
 8    1  0.6185113E-009  0.2173460E+03  0.7561462E-02  0.1135877E+00
          2   -1    0    0  501    0  0.00000000000E+00  0.00000000000E+00  0.38091363828E+03  0.38091363828E+03  0.00000000000E+00 0. -1.
         -2   -1    0    0    0  501 -0.00000000000E+00 -0.00000000000E+00 -0.31055518108E+03  0.31055518108E+03  0.00000000000E+00 0.  1.
         25    2    1    2    0    0  0.77644071235E+02 -0.19607451961E+03  0.28599645025E+03  0.37671319224E+03  0.12508013676E+03 0.  0.
         23    2    1    2    0    0 -0.77644071235E+02  0.19607451961E+03 -0.21563799305E+03  0.31475562713E+03  0.89986341863E+02 0.  0.
          5    1    3    3  502    0  0.14844030856E+02  0.16009524636E+01  0.89967806104E+02  0.91293958376E+02  0.41800000000E+01 0.  1.
         -5    1    3    3    0  502  0.62800040379E+02 -0.19767547208E+03  0.19602864415E+03  0.28541923386E+03  0.41800000000E+01 0. -1.
        -11    1    4    4    0    0 -0.38753602167E+02  0.12292806946E+03 -0.18697144315E+03  0.22709353248E+03  0.00000000000E+00 0.  1.
         11    1    4    4    0    0 -0.38890469068E+02  0.73146450151E+02 -0.28666549902E+02  0.87662094644E+02  0.00000000000E+00 0. -1.
</event>
<event>
 7    1  0.6185113E-009  0.6609714E+02  0.7561462E-02  0.1373891E+00
         -2   -1    0    0    0  501 -0.00000000000E+00  0.00000000000E+00  0.20231461634E+02  0.20231461634E+02  0.00000000000E+00 0.  1.
          2   -1    0    0  501    0  0.00000000000E+00 -0.00000000000E+00 -0.64051621250E+03  0.64051621250E+03  0.00000000000E+00 0. -1.
         23    2    1    2    0    0 -0.26532087743E+02  0.21299266566E+02 -0.27855462642E+03  0.29523119659E+03  0.91712426111E+02 0.  0.
          5    1    1    2  502    0  0.27594043530E+02 -0.88009482796E+01 -0.34913724488E+03  0.35036149345E+03  0.41800000000E+01 0. -1.
         -5    1    1    2    0  502 -0.10619557863E+01 -0.12498318286E+02  0.74071204288E+01  0.15154984102E+02  0.41800000000E+01 0. -1.
        -11    1    3    3    0    0 -0.31159445702E+02  0.50937344118E+02 -0.12200474149E+03  0.13583328395E+03  0.00000000000E+00 0.  1.
         11    1    3    3    0    0  0.46273579590E+01 -0.29638077552E+02 -0.15654988493E+03  0.15939791264E+03  0.00000000000E+00 0. -1.
</event>
<event>
 8    1  0.6185113E-009  0.1983603E+03  0.7561462E-02  0.1151130E+00
          1   -1    0    0  501    0  0.00000000000E+00  0.00000000000E+00  0.70595885776E+03  0.70595885776E+03  0.00000000000E+00 0. -1.
         -1   -1    0    0    0  501 -0.00000000000E+00 -0.00000000000E+00 -0.61792561525E+02  0.61792561525E+02  0.00000000000E+00 0.  1.
         25    2    1    2    0    0  0.15419015129E+03 -0.87509826027E+02  0.38237503874E+03  0.43964947044E+03  0.12509362173E+03 0.  0.
         23    2    1    2    0    0 -0.15419015129E+03  0.87509826027E+02  0.26179125749E+03  0.32810194885E+03  0.87656454033E+02 0.  0.
          5    1    3    3  502    0  0.41630658311E+02 -0.91076017805E+02  0.13814696624E+03  0.17067515757E+03  0.41800000000E+01 0.  1.
         -5    1    3    3    0  502  0.11255949298E+03  0.35661917781E+01  0.24422807251E+03  0.26897431287E+03  0.41800000000E+01 0.  1.
        -11    1    4    4    0    0 -0.66472059334E+02  0.10944580926E+02  0.15940123556E+03  0.17305222455E+03  0.00000000000E+00 0. -1.
         11    1    4    4    0    0 -0.87718091954E+02  0.76565245101E+02  0.10239002193E+03  0.15504972429E+03  0.00000000000E+00 0.  1.
</event>
<event>
 8    1  0.6185113E-009  0.8657994E+02  0.7561462E-02  0.1311352E+00
          1   -1    0    0  501    0  0.00000000000E+00  0.00000000000E+00  0.53792575551E+02  0.53792575551E+02  0.00000000000E+00 0. -1.
         -1   -1    0    0    0  501 -0.00000000000E+00 -0.00000000000E+00 -0.26218362635E+03  0.26218362635E+03  0.00000000000E+00 0.  1.
         25    2    1    2    0    0  0.28876236907E+01 -0.11071329058E+02 -0.52047038284E+02  0.13596249197E+03  0.12508394114E+03 0.  0.
         23    2    1    2    0    0 -0.28876236907E+01  0.11071329058E+02 -0.15634401252E+03  0.18001370993E+03  0.88490523868E+02 0.  0.
          5    1    3    3  502    0  0.21393819137E+02  0.30966115743E+02 -0.75319040766E+02  0.84303179795E+02  0.41800000000E+01 0. -1.
         -5    1    3    3    0  502 -0.18506195446E+02 -0.42037444801E+02  0.23272002483E+02  0.51659312180E+02  0.41800000000E+01 0. -1.
        -11    1    4    4    0    0  0.11526629795E+01 -0.38959528902E+02 -0.65163961520E+02  0.75930991072E+02  0.00000000000E+00 0.  1.
         11    1    4    4    0    0 -0.40402866703E+01  0.50030857960E+02 -0.91180050999E+02  0.10408271886E+03  0.00000000000E+00 0. -1.
</event>
<event>
 8    1  0.6185113E-009  0.1264441E+03  0.7561462E-02  0.1232829E+00
         -2   -1    0    0    0  501 -0.00000000000E+00  0.00000000000E+00  0.85898627342E+02  0.85898627342E+02  0.00000000000E+00 0.  1.
          2   -1    0    0  501    0  0.00000000000E+00 -0.00000000000E+00 -0.32905530704E+03  0.32905530704E+03  0.00000000000E+00 0. -1.
         25    2    1    2    0    0 -0.94878813597E+02  0.69001376019E+02 -0.65209180602E+02  0.18347475896E+03  0.12509025053E+03 0.  0.
         23    2    1    2    0    0  0.94878813597E+02 -0.69001376019E+02 -0.17794749910E+03  0.23147917543E+03  0.90300149832E+02 0.  0.
          5    1    3    3  502    0 -0.96275395379E+02  0.63832975466E+02 -0.97042491690E+02  0.15092487570E+03  0.41800000000E+01 0.  1.
         -5    1    3    3    0  502  0.13965817813E+01  0.51684005525E+01  0.31833311088E+02  0.32549883253E+02  0.41800000000E+01 0.  1.
        -11    1    4    4    0    0  0.24680002241E+02  0.83456369854E+01 -0.10852645757E+01  0.26075466755E+02  0.00000000000E+00 0.  1.
         11    1    4    4    0    0  0.70198811356E+02 -0.77347013004E+02 -0.17686223452E+03  0.20540370867E+03  0.00000000000E+00 0. -1.
</event>
<event>
 8    1  0.6185113E-009  0.7765261E+02  0.7561462E-02  0.1335848E+00
          2   -1    0    0  501    0  0.00000000000E+00  0.00000000000E+00  0.27034927462E+03  0.27034927462E+03  0.00000000000E+00 0.  1.
         -2   -1    0    0    0  501 -0.00000000000E+00 -0.00000000000E+00 -0.48108822387E+02  0.48108822387E+02  0.00000000000E+00 0. -1.
         25    2    1    2    0    0 -0.12182295092E+02  0.10331095407E+02  0.17212436550E+03  0.21337720653E+03  0.12509154735E+03 0.  0.
         23    2    1    2    0    0  0.12182295092E+02 -0.10331095407E+02  0.50116086734E+02  0.10508089048E+03  0.90968299695E+02 0.  0.
          5    1    3    3  502    0 -0.39276015698E+02  0.50388147309E+02  0.14323055632E+03  0.15688860845E+03  0.41800000000E+01 0. -1.
         -5    1    3    3    0  502  0.27093720606E+02 -0.40057051901E+02  0.28893809182E+02  0.56488598074E+02  0.41800000000E+01 0. -1.
        -11    1    4    4    0    0 -0.13813661672E+02  0.20203905792E+01 -0.22775076367E+02  0.26713354907E+02  0.00000000000E+00 0. -1.
         11    1    4    4    0    0  0.25995956764E+02 -0.12351485987E+02  0.72891163101E+02  0.78367535577E+02  0.00000000000E+00 0.  1.
</event>
<event>
 8    1  0.6185113E-009  0.1032536E+03  0.7561462E-02  0.1273599E+00
          1   -1    0    0  501    0  0.00000000000E+00  0.00000000000E+00  0.23279654860E+03  0.23279654860E+03  0.00000000000E+00 0. -1.
         -1   -1    0    0    0  501 -0.00000000000E+00 -0.00000000000E+00 -0.71548062514E+02  0.71548062514E+02  0.00000000000E+00 0.  1.
         25    2    1    2    0    0 -0.59578298516E+02  0.17656520731E+01  0.43814415496E+02  0.14533045122E+03  0.12509414801E+03 0.  0.
         23    2    1    2    0    0  0.59578298516E+02 -0.17656520731E+01  0.11743407059E+03  0.15901415989E+03  0.89118185174E+02 0.  0.
          5    1    3    3  502    0  0.27216519819E+02 -0.20265110223E+02  0.43954609049E+02  0.55685668713E+02  0.41800000000E+01 0. -1.
         -5    1    3    3    0  502 -0.86794818335E+02  0.22030762296E+02 -0.14019355286E+00  0.89644782510E+02  0.41800000000E+01 0. -1.
        -11    1    4    4    0    0  0.49396521904E+02 -0.26406612125E+02  0.22423447887E+02  0.60333544196E+02  0.00000000000E+00 0.  1.
         11    1    4    4    0    0  0.10181776612E+02  0.24640960052E+02  0.95010622701E+02  0.98680615692E+02  0.00000000000E+00 0. -1.
</event>
<event>
 8    1  0.6185113E-009  0.1020168E+03  0.7561462E-02  0.1276111E+00
         -2   -1    0    0    0  501 -0.00000000000E+00  0.00000000000E+00  0.59562711807E+02  0.59562711807E+02  0.00000000000E+00 0.  1.
          2   -1    0    0  501    0  0.00000000000E+00 -0.00000000000E+00 -0.23157677151E+03  0.23157677151E+03  0.00000000000E+00 0. -1.
         25    2    1    2    0    0 -0.32971691690E+02 -0.25112445280E+02 -0.77425553140E+02  0.15284041996E+03  0.12509080835E+03 0.  0.
         23    2    1    2    0    0  0.32971691690E+02  0.25112445280E+02 -0.94588506568E+02  0.13829906336E+03  0.91988466622E+02 0.  0.
          5    1    3    3  502    0 -0.68260796725E+02 -0.80459517405E+01 -0.88271972046E+02  0.11195395106E+03  0.41800000000E+01 0. -1.
         -5    1    3    3    0  502  0.35289105035E+02 -0.17066493540E+02  0.10846418907E+02  0.40886468899E+02  0.41800000000E+01 0. -1.
        -11    1    4    4    0    0  0.21553913743E+02 -0.31406376955E+02 -0.59969579400E+02  0.71044226821E+02  0.00000000000E+00 0.  1.
         11    1    4    4    0    0  0.11417777947E+02  0.56518822235E+02 -0.34618927167E+02  0.67254836542E+02  0.00000000000E+00 0. -1.
</event>
<event>
 8    1  0.6185113E-009  0.1180672E+03  0.7561462E-02  0.1246320E+00
         -2   -1    0    0    0  501 -0.00000000000E+00  0.00000000000E+00  0.39596226217E+02  0.39596226217E+02  0.00000000000E+00 0.  1.
          2   -1    0    0  501    0  0.00000000000E+00 -0.00000000000E+00 -0.59513853975E+03  0.59513853975E+03  0.00000000000E+00 0. -1.
         25    2    1    2    0    0  0.67591833077E+02 -0.84274046611E+02 -0.22169656244E+03  0.27652593508E+03  0.12508579513E+03 0.  0.
         23    2    1    2    0    0 -0.67591833077E+02  0.84274046611E+02 -0.33384575109E+03  0.35820883089E+03  0.72040337120E+02 0.  0.
          5    1    3    3  502    0  0.74879051363E+02 -0.64788060794E+02 -0.65272226529E+02  0.11866887170E+03  0.41800000000E+01 0. -1.
         -5    1    3    3    0  502 -0.72872182857E+01 -0.19485985817E+02 -0.15642433591E+03  0.15785706338E+03  0.41800000000E+01 0. -1.
        -11    1    4    4    0    0 -0.22405123374E+02  0.27145326217E+01 -0.17940895635E+02  0.28831128610E+02  0.00000000000E+00 0.  1.
         11    1    4    4    0    0 -0.45186709704E+02  0.81559513989E+02 -0.31590485546E+03  0.32937770228E+03  0.00000000000E+00 0. -1.
</event>
<event>
 8    1  0.6185113E-009  0.1565326E+03  0.7561462E-02  0.1192668E+00
          1   -1    0    0  501    0  0.00000000000E+00  0.00000000000E+00  0.41321967331E+03  0.41321967331E+03  0.00000000000E+00 0. -1.
         -1   -1    0    0    0  501 -0.00000000000E+00 -0.00000000000E+00 -0.67838477742E+02  0.67838477742E+02  0.00000000000E+00 0.  1.
         25    2    1    2    0    0  0.85103408500E+02 -0.85262706376E+02  0.15308629557E+03  0.23150763811E+03  0.12509217951E+03 0.  0.
         23    2    1    2    0    0 -0.85103408500E+02  0.85262706376E+02  0.19229490000E+03  0.24955051295E+03  0.10385475775E+03 0.  0.
          5    1    3    3  502    0  0.31391158423E+02  0.23235571343E+02  0.82329577016E+02  0.91219122198E+02  0.41800000000E+01 0. -1.
         -5    1    3    3    0  502  0.53712250077E+02 -0.10849827772E+03  0.70756718550E+02  0.14028851591E+03  0.41800000000E+01 0. -1.
        -11    1    4    4    0    0 -0.11533980104E+02 -0.20673158758E+02  0.87862412055E+01  0.25250945024E+02  0.00000000000E+00 0.  1.
         11    1    4    4    0    0 -0.73569428396E+02  0.10593586513E+03  0.18350865880E+03  0.22429956792E+03  0.00000000000E+00 0. -1.
</event>
<event>
 8    1  0.6185113E-009  0.1073926E+03  0.7561462E-02  0.1265476E+00
          1   -1    0    0  501    0  0.00000000000E+00  0.00000000000E+00  0.31850947675E+03  0.31850947675E+03  0.00000000000E+00 0. -1.
         -1   -1    0    0    0  501 -0.00000000000E+00 -0.00000000000E+00 -0.79379349888E+02  0.79379349888E+02  0.00000000000E+00 0.  1.
         25    2    1    2    0    0 -0.55688355424E+02 -0.54380945485E+02  0.23641656025E+03  0.27856310408E+03  0.12508450277E+03 0.  0.
         23    2    1    2    0    0  0.55688355424E+02  0.54380945485E+02  0.27135666092E+01  0.11932572255E+03  0.90403453793E+02 0.  0.
          5    1    3    3  502    0 -0.20291783520E+02  0.34336298696E+02  0.26974796810E+02  0.48330631586E+02  0.41800000000E+01 0.  1.
         -5    1    3    3    0  502 -0.35396571904E+02 -0.88717244182E+02  0.20944176344E+03  0.23023247250E+03  0.41800000000E+01 0.  1.
        -11    1    4    4    0    0  0.25478045267E+02  0.15452778233E+02  0.45283731019E+02  0.54208259894E+02  0.00000000000E+00 0. -1.
         11    1    4    4    0    0  0.30210310157E+02  0.38928167252E+02 -0.42570164410E+02  0.65117462660E+02  0.00000000000E+00 0.  1.
</event>
<event>
 8    1  0.6185113E-009  0.1112892E+03  0.7561462E-02  0.1258201E+00
         -2   -1    0    0    0  501 -0.00000000000E+00  0.00000000000E+00  0.91035331561E+02  0.91035331561E+02  0.00000000000E+00 0.  1.
          2   -1    0    0  501    0  0.00000000000E+00 -0.00000000000E+00 -0.18245305007E+03  0.18245305007E+03  0.00000000000E+00 0. -1.
         25    2    1    2    0    0 -0.52830306561E+02 -0.19475428420E+02 -0.94760618269E+02  0.16672654892E+03  0.12509130161E+03 0.  0.
         23    2    1    2    0    0  0.52830306561E+02  0.19475428420E+02  0.33428997561E+01  0.10676183271E+03  0.90645354772E+02 0.  0.
          5    1    3    3  502    0 -0.88227219838E+02  0.11102635327E+02 -0.51325223498E+02  0.10275729560E+03  0.41800000000E+01 0. -1.
         -5    1    3    3    0  502  0.35396913276E+02 -0.30578063746E+02 -0.43435394772E+02  0.63969253325E+02  0.41800000000E+01 0. -1.
        -11    1    4    4    0    0  0.86921517719E+00 -0.20821380809E+02  0.29395706292E+02  0.36033220536E+02  0.00000000000E+00 0.  1.
         11    1    4    4    0    0  0.51961091384E+02  0.40296809229E+02 -0.26052806536E+02  0.70728612175E+02  0.00000000000E+00 0. -1.
</event>
<event>
 8    1  0.6185113E-009  0.1024836E+03  0.7561462E-02  0.1275158E+00
          2   -1    0    0  501    0  0.00000000000E+00  0.00000000000E+00  0.74284944309E+02  0.74284944309E+02  0.00000000000E+00 0. -1.
         -2   -1    0    0    0  501 -0.00000000000E+00 -0.00000000000E+00 -0.27625614137E+03  0.27625614137E+03  0.00000000000E+00 0.  1.
         25    2    1    2    0    0  0.24653087465E+02  0.60512958769E+02 -0.19124507574E+03  0.23767849547E+03  0.12508715088E+03 0.  0.
         23    2    1    2    0    0 -0.24653087465E+02 -0.60512958769E+02 -0.10726121326E+02  0.11286259021E+03  0.91396508080E+02 0.  0.
          5    1    3    3  502    0  0.29933257667E+02 -0.14999557483E+01  0.59609284730E+01  0.30842419653E+02  0.41800000000E+01 0.  1.
         -5    1    3    3    0  502 -0.52801702017E+01  0.62012914517E+02 -0.19720600421E+03  0.20683607582E+03  0.41800000000E+01 0.  1.
        -11    1    4    4    0    0  0.86833216723E+01  0.21830064637E+02 -0.13176746855E+01  0.23530577211E+02  0.00000000000E+00 0. -1.
         11    1    4    4    0    0 -0.33336409137E+02 -0.82343023406E+02 -0.94084466402E+01  0.89332012996E+02  0.00000000000E+00 0.  1.
</event>
<event>
 8    1  0.6185113E-009  0.2518651E+03  0.7561462E-02  0.1112132E+00
          2   -1    0    0  501    0  0.00000000000E+00  0.00000000000E+00  0.66181168181E+03  0.66181168181E+03  0.00000000000E+00 0. -1.
         -2   -1    0    0    0  501 -0.00000000000E+00 -0.00000000000E+00 -0.12057721161E+03  0.12057721161E+03  0.00000000000E+00 0.  1.
         25    2    1    2    0    0  0.16376203173E+03  0.18445201495E+03  0.39212481679E+03  0.47984506760E+03  0.12509543595E+03 0.  0.
         23    2    1    2    0    0 -0.16376203173E+03 -0.18445201495E+03  0.14910965341E+03  0.30254382583E+03  0.91970261229E+02 0.  0.
          5    1    3    3  502    0  0.15600517945E+03  0.14246866047E+03  0.38076190713E+03  0.43546760793E+03  0.41800000000E+01 0.  1.
         -5    1    3    3    0  502  0.77568522793E+01  0.41983354480E+02  0.11362909660E+02  0.44377459669E+02  0.41800000000E+01 0.  1.
        -11    1    4    4    0    0 -0.60651955463E+02 -0.42446738840E+02  0.91802674744E+02  0.11793267753E+03  0.00000000000E+00 0.  1.
         11    1    4    4    0    0 -0.10311007627E+03 -0.14200527611E+03  0.57306978665E+02  0.18461114830E+03  0.00000000000E+00 0. -1.
</event>
<event>
 8    1  0.6185113E-009  0.8044064E+02  0.7561462E-02  0.1327806E+00
         -1   -1    0    0    0  501 -0.00000000000E+00  0.00000000000E+00  0.38614404615E+02  0.38614404615E+02  0.00000000000E+00 0.  1.
          1   -1    0    0  501    0  0.00000000000E+00 -0.00000000000E+00 -0.41864631353E+03  0.41864631353E+03  0.00000000000E+00 0. -1.
         25    2    1    2    0    0 -0.48037747553E+02  0.22875829704E+02 -0.27566504503E+03  0.30735915079E+03  0.12508997461E+03 0.  0.
         23    2    1    2    0    0  0.48037747553E+02 -0.22875829704E+02 -0.10436686389E+03  0.14990156736E+03  0.93525979511E+02 0.  0.
          5    1    3    3  502    0  0.11595174676E+02  0.19626903524E+02 -0.23225757886E+03  0.23341105105E+03  0.41800000000E+01 0. -1.
         -5    1    3    3    0  502 -0.59632922229E+02  0.32489261801E+01 -0.43407466170E+02  0.73948099733E+02  0.41800000000E+01 0. -1.
        -11    1    4    4    0    0  0.46224546660E+02  0.79973375419E+01 -0.10896612190E+03  0.11863507847E+03  0.00000000000E+00 0. -1.
         11    1    4    4    0    0  0.18132008932E+01 -0.30873167246E+02  0.45992580079E+01  0.31266488890E+02  0.00000000000E+00 0.  1.
</event>
<event>
 7    1  0.6185113E-009  0.9216223E+02  0.7561462E-02  0.1297698E+00
         -2   -1    0    0    0  501 -0.00000000000E+00  0.00000000000E+00  0.15572323404E+02  0.15572323404E+02  0.00000000000E+00 0.  1.
          2   -1    0    0  501    0  0.00000000000E+00 -0.00000000000E+00 -0.63901106004E+03  0.63901106004E+03  0.00000000000E+00 0. -1.
         25    2    1    2    0    0  0.22430039832E+02 -0.40970647713E+02 -0.47459763901E+03  0.49302403411E+03  0.12509228034E+03 0.  0.
          5    1    3    3  502    0 -0.35390312601E+02  0.18332150745E+02 -0.76297240889E+02  0.86181687986E+02  0.41800000000E+01 0.  1.
         -5    1    3    3    0  502  0.57820352432E+02 -0.59302798458E+02 -0.39830039812E+03  0.40684234613E+03  0.41800000000E+01 0.  1.
        -11    1    1    2    0    0  0.51763907412E+01  0.31815458115E+02 -0.95655437440E+02  0.10094048300E+03  0.00000000000E+00 0. -1.
         11    1    1    2    0    0 -0.27606430573E+02  0.91551895979E+01 -0.53185660185E+02  0.60618866328E+02  0.00000000000E+00 0.  1.
</event>
<event>
 8    1  0.6185113E-009  0.1098194E+03  0.7561462E-02  0.1260905E+00
         -2   -1    0    0    0  501 -0.00000000000E+00  0.00000000000E+00  0.26855159087E+02  0.26855159087E+02  0.00000000000E+00 0.  1.
          2   -1    0    0  501    0  0.00000000000E+00 -0.00000000000E+00 -0.59904466379E+03  0.59904466379E+03  0.00000000000E+00 0. -1.
         25    2    1    2    0    0  0.26805216844E+02  0.45950285013E+02 -0.41326126006E+03  0.43504291236E+03  0.12509004029E+03 0.  0.
         23    2    1    2    0    0 -0.26805216844E+02 -0.45950285013E+02 -0.15892824464E+03  0.19085691052E+03  0.91313881787E+02 0.  0.
          5    1    3    3  502    0 -0.37661471759E+02  0.56948985914E+01 -0.27102175059E+03  0.27371715331E+03  0.41800000000E+01 0.  1.
         -5    1    3    3    0  502  0.64466688603E+02  0.40255386421E+02 -0.14223950947E+03  0.16132575904E+03  0.41800000000E+01 0.  1.
        -11    1    4    4    0    0 -0.57823766715E+02 -0.11702562350E+02 -0.80049191519E+02  0.99440489870E+02  0.00000000000E+00 0.  1.
         11    1    4    4    0    0  0.31018549871E+02 -0.34247722663E+02 -0.78879053121E+02  0.91416420653E+02  0.00000000000E+00 0. -1.
</event>
<event>
 8    1  0.6185113E-009  0.9055774E+02  0.7561462E-02  0.1301507E+00
          2   -1    0    0  501    0  0.00000000000E+00  0.00000000000E+00  0.16610758520E+03  0.16610758520E+03  0.00000000000E+00 0. -1.
         -2   -1    0    0    0  501 -0.00000000000E+00 -0.00000000000E+00 -0.88033180777E+02  0.88033180777E+02  0.00000000000E+00 0.  1.
         25    2    1    2    0    0  0.28573962393E+02 -0.18712673366E+02  0.57131118094E+00  0.12966069499E+03  0.12507971041E+03 0.  0.
         23    2    1    2    0    0 -0.28573962393E+02  0.18712673366E+02  0.77503093246E+02  0.12448007099E+03  0.91224575312E+02 0.  0.
          5    1    3    3  502    0 -0.29933872003E+02  0.80286468876E+01 -0.42032295078E+02  0.52389713623E+02  0.41800000000E+01 0. -1.
         -5    1    3    3    0  502  0.58507834396E+02 -0.26741320253E+02  0.42603606259E+02  0.77270981363E+02  0.41800000000E+01 0. -1.
        -11    1    4    4    0    0 -0.56432881811E+00 -0.29561226940E+02  0.58456192770E+02  0.65508099334E+02  0.00000000000E+00 0. -1.
         11    1    4    4    0    0 -0.28009633575E+02  0.48273900306E+02  0.19046900476E+02  0.58971971660E+02  0.00000000000E+00 0.  1.
</event>
<event>
 8    1  0.6185113E-009  0.1511618E+03  0.7561462E-02  0.1199053E+00
          1   -1    0    0  501    0  0.00000000000E+00  0.00000000000E+00  0.40252265276E+03  0.40252265276E+03  0.00000000000E+00 0. -1.
         -1   -1    0    0    0  501 -0.00000000000E+00 -0.00000000000E+00 -0.85446009269E+02  0.85446009269E+02  0.00000000000E+00 0.  1.
         25    2    1    2    0    0  0.11271420138E+03 -0.11964342354E+02  0.29317702514E+03  0.33830037243E+03  0.12508691872E+03 0.  0.
         23    2    1    2    0    0 -0.11271420138E+03  0.11964342354E+02  0.23899618356E+02  0.14966828960E+03  0.94772192514E+02 0.  0.
          5    1    3    3  502    0  0.13255628173E+03 -0.20512051743E+01  0.18405217430E+03  0.22686571035E+03  0.41800000000E+01 0.  1.
         -5    1    3    3    0  502 -0.19842080352E+02 -0.99131371801E+01  0.10912485084E+03  0.11143466208E+03  0.41800000000E+01 0.  1.
        -11    1    4    4    0    0 -0.21589860215E+02  0.45221600628E+02  0.16104594343E+01  0.50136900652E+02  0.00000000000E+00 0. -1.
         11    1    4    4    0    0 -0.91124341167E+02 -0.33257258273E+02  0.22289158921E+02  0.99531388950E+02  0.00000000000E+00 0.  1.
</event>
<event>
 8    1  0.6185113E-009  0.1543714E+03  0.7561462E-02  0.1195202E+00
          2   -1    0    0  501    0  0.00000000000E+00  0.00000000000E+00  0.48315657703E+03  0.48315657703E+03  0.00000000000E+00 0. -1.
         -2   -1    0    0    0  501 -0.00000000000E+00 -0.00000000000E+00 -0.58826972133E+02  0.58826972133E+02  0.00000000000E+00 0.  1.
         25    2    1    2    0    0  0.10511592388E+00 -0.12719601322E+03  0.26057289531E+03  0.31579179708E+03  0.12508952195E+03 0.  0.
         23    2    1    2    0    0 -0.10511592388E+00  0.12719601322E+03  0.16375670959E+03  0.22619175209E+03  0.90374841357E+02 0.  0.
          5    1    3    3  502    0  0.56739132315E+02 -0.44758734637E+02  0.15051923539E+03  0.16702151383E+03  0.41800000000E+01 0. -1.
         -5    1    3    3    0  502 -0.56634016391E+02 -0.82437278582E+02  0.11005365993E+03  0.14877028324E+03  0.41800000000E+01 0. -1.
        -11    1    4    4    0    0 -0.24073878681E+02  0.51481640637E+02  0.16993201203E+02  0.59318461246E+02  0.00000000000E+00 0.  1.
         11    1    4    4    0    0  0.23968762757E+02  0.75714372582E+02  0.14676350838E+03  0.16687329084E+03  0.00000000000E+00 0. -1.
</event>
<event>
 8    1  0.6185113E-009  0.1126299E+03  0.7561462E-02  0.1255776E+00
         -2   -1    0    0    0  501 -0.00000000000E+00  0.00000000000E+00  0.17085495890E+03  0.17085495890E+03  0.00000000000E+00 0.  1.
          2   -1    0    0  501    0  0.00000000000E+00 -0.00000000000E+00 -0.11667235336E+03  0.11667235336E+03  0.00000000000E+00 0. -1.
         25    2    1    2    0    0 -0.37704772172E+02  0.24016090759E+02  0.10959833877E+03  0.17221238027E+03  0.12508751175E+03 0.  0.
         23    2    1    2    0    0  0.37704772172E+02 -0.24016090759E+02 -0.55415733225E+02  0.11531493199E+03  0.90709468033E+02 0.  0.
          5    1    3    3  502    0 -0.65050369041E+02 -0.29056904926E+02  0.46143476665E+02  0.84985569804E+02  0.41800000000E+01 0.  1.
         -5    1    3    3    0  502  0.27345596869E+02  0.53072995685E+02  0.63454862106E+02  0.87226810465E+02  0.41800000000E+01 0.  1.
        -11    1    4    4    0    0  0.57064978702E+02  0.69868617237E+01 -0.12302290197E+02  0.58792638783E+02  0.00000000000E+00 0.  1.
         11    1    4    4    0    0 -0.19360206530E+02 -0.31002952482E+02 -0.43113443027E+02  0.56522293205E+02  0.00000000000E+00 0. -1.
</event>
<event>
 8    1  0.6185113E-009  0.2352214E+03  0.7561462E-02  0.1123018E+00
         -2   -1    0    0    0  501 -0.00000000000E+00  0.00000000000E+00  0.27023611065E+03  0.27023611065E+03  0.00000000000E+00 0.  1.
          2   -1    0    0  501    0  0.00000000000E+00 -0.00000000000E+00 -0.41851563528E+03  0.41851563528E+03  0.00000000000E+00 0. -1.
         25    2    1    2    0    0  0.21363145918E+03  0.38288819927E+02  0.16289209716E+03  0.29880597144E+03  0.12508692645E+03 0.  0.
         23    2    1    2    0    0 -0.21363145918E+03 -0.38288819927E+02 -0.31117162179E+03  0.38994577449E+03  0.90141526211E+02 0.  0.
          5    1    3    3  502    0  0.59259103915E+02 -0.31950219161E+02  0.59853083635E+01  0.67718197093E+02  0.41800000000E+01 0.  1.
         -5    1    3    3    0  502  0.15437235527E+03  0.70239039089E+02  0.15690678880E+03  0.23108777435E+03  0.41800000000E+01 0.  1.
        -11    1    4    4    0    0 -0.56082013010E+02 -0.50295296911E+02 -0.79503671358E+02  0.10952462204E+03  0.00000000000E+00 0.  1.
         11    1    4    4    0    0 -0.15754944617E+03  0.12006476984E+02 -0.23166795043E+03  0.28042115244E+03  0.00000000000E+00 0. -1.
</event>
<event>
 8    1  0.6185113E-009  0.1237052E+03  0.7561462E-02  0.1237107E+00
          2   -1    0    0  501    0  0.00000000000E+00  0.00000000000E+00  0.41688207364E+03  0.41688207364E+03  0.00000000000E+00 0. -1.
         -2   -1    0    0    0  501 -0.00000000000E+00 -0.00000000000E+00 -0.44500773475E+02  0.44500773475E+02  0.00000000000E+00 0.  1.
         25    2    1    2    0    0  0.58406569887E+02  0.26886690018E+02  0.11891963943E+03  0.18418596191E+03  0.12509343074E+03 0.  0.
         23    2    1    2    0    0 -0.58406569887E+02 -0.26886690018E+02  0.25346166073E+03  0.27719688521E+03  0.91984119303E+02 0.  0.
          5    1    3    3  502    0  0.57027917190E+02 -0.41866880033E+02  0.70613379022E+02  0.10004369385E+03  0.41800000000E+01 0. -1.
         -5    1    3    3    0  502  0.13786526964E+01  0.68753570051E+02  0.48306260413E+02  0.84142268053E+02  0.41800000000E+01 0. -1.
        -11    1    4    4    0    0  0.14912212458E+01  0.27021203237E+02  0.34305645053E+02  0.43694924735E+02  0.00000000000E+00 0.  1.
         11    1    4    4    0    0 -0.59897791132E+02 -0.53907893255E+02  0.21915601568E+03  0.23350196048E+03  0.00000000000E+00 0. -1.
</event>
<event>
 8    1  0.6185113E-009  0.2035241E+03  0.7561462E-02  0.1146799E+00
         -2   -1    0    0    0  501 -0.00000000000E+00  0.00000000000E+00  0.10011391589E+03  0.10011391589E+03  0.00000000000E+00 0.  1.
          2   -1    0    0  501    0  0.00000000000E+00 -0.00000000000E+00 -0.46190663489E+03  0.46190663489E+03  0.00000000000E+00 0. -1.
         25    2    1    2    0    0 -0.12236611585E+03 -0.12086996449E+03 -0.97849692741E+02  0.23409946878E+03  0.12507991162E+03 0.  0.
         23    2    1    2    0    0  0.12236611585E+03  0.12086996449E+03 -0.26394302627E+03  0.32792108200E+03  0.91012638011E+02 0.  0.
          5    1    3    3  502    0 -0.11523678169E+03 -0.27228464455E+02 -0.59329013133E+02  0.13250777083E+03  0.41800000000E+01 0. -1.
         -5    1    3    3    0  502 -0.71293341555E+01 -0.93641500040E+02 -0.38520679608E+02  0.10159169795E+03  0.41800000000E+01 0. -1.
        -11    1    4    4    0    0  0.10991499812E+03  0.46823074984E+02 -0.16503685542E+03  0.20374216748E+03  0.00000000000E+00 0. -1.
         11    1    4    4    0    0  0.12451117731E+02  0.74046889510E+02 -0.98906170848E+02  0.12417891452E+03  0.00000000000E+00 0.  1.
</event>
<event>
 8    1  0.6185113E-009  0.1875791E+03  0.7561462E-02  0.1160663E+00
         -2   -1    0    0    0  501 -0.00000000000E+00  0.00000000000E+00  0.57565015866E+02  0.57565015866E+02  0.00000000000E+00 0.  1.
          2   -1    0    0  501    0  0.00000000000E+00 -0.00000000000E+00 -0.85958323331E+03  0.85958323331E+03  0.00000000000E+00 0. -1.
         25    2    1    2    0    0  0.10177838064E+03 -0.15181273816E+03 -0.54877288082E+03  0.59178145781E+03  0.12509065851E+03 0.  0.
         23    2    1    2    0    0 -0.10177838064E+03  0.15181273816E+03 -0.25324533662E+03  0.32536679136E+03  0.91238161813E+02 0.  0.
          5    1    3    3  502    0  0.45044688488E+02 -0.11383319368E+03 -0.47764293094E+03  0.49309964695E+03  0.41800000000E+01 0.  1.
         -5    1    3    3    0  502  0.56733692155E+02 -0.37979544475E+02 -0.71129949879E+02  0.98681810856E+02  0.41800000000E+01 0.  1.
        -11    1    4    4    0    0 -0.28337589534E+02  0.25337294832E+02 -0.12566521074E+03  0.13128877591E+03  0.00000000000E+00 0. -1.
         11    1    4    4    0    0 -0.73440791108E+02  0.12647544332E+03 -0.12758012588E+03  0.19407801545E+03  0.00000000000E+00 0.  1.
</event>
<event>
 8    1  0.6185113E-009  0.1275763E+03  0.7561462E-02  0.1231097E+00
         -2   -1    0    0    0  501 -0.00000000000E+00  0.00000000000E+00  0.71341524372E+02  0.71341524372E+02  0.00000000000E+00 0.  1.
          2   -1    0    0  501    0  0.00000000000E+00 -0.00000000000E+00 -0.35417833003E+03  0.35417833003E+03  0.00000000000E+00 0. -1.
         25    2    1    2    0    0  0.29633507295E+02  0.11170841039E+03 -0.17343186282E+03  0.24307122073E+03  0.12509234029E+03 0.  0.
         23    2    1    2    0    0 -0.29633507295E+02 -0.11170841039E+03 -0.10940494284E+03  0.18244863367E+03  0.89225269430E+02 0.  0.
          5    1    3    3  502    0  0.31331138494E+02  0.46543396234E+02  0.15618366553E+01  0.56283565150E+02  0.41800000000E+01 0. -1.
         -5    1    3    3    0  502 -0.16976311988E+01  0.65165014156E+02 -0.17499369947E+03  0.18678765558E+03  0.41800000000E+01 0. -1.
        -11    1    4    4    0    0 -0.19343362479E+02  0.19545333314E+01 -0.50294837603E+02  0.53921763343E+02  0.00000000000E+00 0.  1.
         11    1    4    4    0    0 -0.10290144816E+02 -0.11366294372E+03 -0.59110105239E+02  0.12852687033E+03  0.00000000000E+00 0. -1.
</event>
<event>
 8    1  0.6185113E-009  0.1191089E+03  0.7561462E-02  0.1244574E+00
         -1   -1    0    0    0  501 -0.00000000000E+00  0.00000000000E+00  0.34426873185E+02  0.34426873185E+02  0.00000000000E+00 0.  1.
          1   -1    0    0  501    0  0.00000000000E+00 -0.00000000000E+00 -0.46800312295E+03  0.46800312295E+03  0.00000000000E+00 0. -1.
         25    2    1    2    0    0  0.56630044025E+01  0.33805779537E+02 -0.16865851613E+03  0.21276168649E+03  0.12508772851E+03 0.  0.
         23    2    1    2    0    0 -0.56630044025E+01 -0.33805779537E+02 -0.26491773363E+03  0.28966830964E+03  0.11203313648E+03 0.  0.
          5    1    3    3  502    0 -0.38481752234E+02  0.64318980573E+02 -0.86385798126E+02  0.11444542383E+03  0.41800000000E+01 0. -1.
         -5    1    3    3    0  502  0.44144756637E+02 -0.30513201035E+02 -0.82272718005E+02  0.98316262662E+02  0.41800000000E+01 0. -1.
        -11    1    4    4    0    0  0.39872012115E+01 -0.70890925045E+02 -0.11692615625E+03  0.13679600522E+03  0.00000000000E+00 0.  1.
         11    1    4    4    0    0 -0.96502056140E+01  0.37085145508E+02 -0.14799157738E+03  0.15287230443E+03  0.00000000000E+00 0. -1.
</event>
<event>
 8    1  0.6185113E-009  0.1267224E+03  0.7561462E-02  0.1232402E+00
          2   -1    0    0  501    0  0.00000000000E+00  0.00000000000E+00  0.37415011091E+03  0.37415011091E+03  0.00000000000E+00 0. -1.
         -2   -1    0    0    0  501 -0.00000000000E+00 -0.00000000000E+00 -0.62870980200E+02  0.62870980200E+02  0.00000000000E+00 0.  1.
         25    2    1    2    0    0 -0.39595128134E+02 -0.92904187582E+02  0.11231920216E+03  0.19612357154E+03  0.12509951998E+03 0.  0.
         23    2    1    2    0    0  0.39595128134E+02  0.92904187582E+02  0.19895992855E+03  0.24089751957E+03  0.90816295469E+02 0.  0.
          5    1    3    3  502    0  0.19265543022E+02 -0.82000482357E+02  0.21100211551E+02  0.86936365131E+02  0.41800000000E+01 0. -1.
         -5    1    3    3    0  502 -0.58860671156E+02 -0.10903705225E+02  0.91218990609E+02  0.10918720641E+03  0.41800000000E+01 0. -1.
        -11    1    4    4    0    0  0.30997195263E+02  0.22822212399E+02  0.10879717178E+02  0.40000596731E+02  0.00000000000E+00 0.  1.
         11    1    4    4    0    0  0.85979328710E+01  0.70081975183E+02  0.18808021137E+03  0.20089692284E+03  0.00000000000E+00 0. -1.
</event>
<event>
 8    1  0.6185113E-009  0.1654277E+03  0.7561462E-02  0.1182702E+00
         -2   -1    0    0    0  501 -0.00000000000E+00  0.00000000000E+00  0.38200715349E+02  0.38200715349E+02  0.00000000000E+00 0. -1.
          2   -1    0    0  501    0  0.00000000000E+00 -0.00000000000E+00 -0.82137244886E+03  0.82137244886E+03  0.00000000000E+00 0.  1.
         25    2    1    2    0    0 -0.12932302766E+03 -0.31700559911E+02 -0.30587738936E+03  0.35628294149E+03  0.12508871289E+03 0.  0.
         23    2    1    2    0    0  0.12932302766E+03  0.31700559911E+02 -0.47729434415E+03  0.50329022272E+03  0.88101000804E+02 0.  0.
          5    1    3    3  502    0 -0.10017815038E+03  0.30529060003E+02 -0.23581503755E+03  0.25805791918E+03  0.41800000000E+01 0. -1.
         -5    1    3    3    0  502 -0.29144877285E+02 -0.62229619914E+02 -0.70062351814E+02  0.98225022312E+02  0.41800000000E+01 0. -1.
        -11    1    4    4    0    0  0.26178908581E+02 -0.27751234611E+02 -0.15750229001E+03  0.16205689629E+03  0.00000000000E+00 0.  1.
         11    1    4    4    0    0  0.10314411908E+03  0.59451794522E+02 -0.31979205414E+03  0.34123332643E+03  0.00000000000E+00 0. -1.
</event>
<event>
 8    1  0.6185113E-009  0.1452781E+03  0.7561462E-02  0.1206398E+00
          1   -1    0    0  501    0  0.00000000000E+00  0.00000000000E+00  0.17996841053E+03  0.17996841053E+03  0.00000000000E+00 0. -1.
         -1   -1    0    0    0  501 -0.00000000000E+00 -0.00000000000E+00 -0.21285523365E+03  0.21285523365E+03  0.00000000000E+00 0.  1.
         25    2    1    2    0    0 -0.13264056850E+03  0.52086698682E+02  0.61372548006E+02  0.19930522637E+03  0.12509771788E+03 0.  0.
         23    2    1    2    0    0  0.13264056850E+03 -0.52086698682E+02 -0.94259371121E+02  0.19351841782E+03  0.90873562709E+02 0.  0.
          5    1    3    3  502    0 -0.10301615619E+03  0.49435801793E+02 -0.16793841243E+02  0.11556700411E+03  0.41800000000E+01 0.  1.
         -5    1    3    3    0  502 -0.29624412307E+02  0.26508968889E+01  0.78166389249E+02  0.83738222259E+02  0.41800000000E+01 0.  1.
        -11    1    4    4    0    0  0.49382174320E+02 -0.28744916715E+01  0.10894063884E+02  0.50651184299E+02  0.00000000000E+00 0. -1.
         11    1    4    4    0    0  0.83258394175E+02 -0.49212207011E+02 -0.10515343500E+03  0.14286723352E+03  0.00000000000E+00 0.  1.
</event>
<event>
 8    1  0.6185113E-009  0.9249914E+02  0.7561462E-02  0.1296910E+00
          2   -1    0    0  501    0  0.00000000000E+00  0.00000000000E+00  0.38486174538E+02  0.38486174538E+02  0.00000000000E+00 0. -1.
         -2   -1    0    0    0  501 -0.00000000000E+00 -0.00000000000E+00 -0.27279916217E+03  0.27279916217E+03  0.00000000000E+00 0.  1.
         25    2    1    2    0    0 -0.13694223022E+02 -0.27637514914E+01 -0.16545579719E+03  0.20787772124E+03  0.12506940511E+03 0.  0.
         23    2    1    2    0    0  0.13694223022E+02  0.27637514914E+01 -0.68857190433E+02  0.10340761547E+03  0.75872605040E+02 0.  0.
          5    1    3    3  502    0 -0.18288894161E+02 -0.53563787136E+02 -0.32474616240E+02  0.65388347906E+02  0.41800000000E+01 0.  1.
         -5    1    3    3    0  502  0.45946711386E+01  0.50800035645E+02 -0.13298118095E+03  0.14248937333E+03  0.41800000000E+01 0.  1.
        -11    1    4    4    0    0 -0.30014734043E+02  0.12115197002E+02 -0.26574634007E+02  0.41879272088E+02  0.00000000000E+00 0.  1.
         11    1    4    4    0    0  0.43708957065E+02 -0.93514455108E+01 -0.42282556426E+02  0.61528343378E+02  0.00000000000E+00 0. -1.
</event>
<event>
 8    1  0.6185113E-009  0.1938451E+03  0.7561462E-02  0.1155038E+00
         -1   -1    0    0    0  501 -0.00000000000E+00  0.00000000000E+00  0.87727539016E+02  0.87727539016E+02  0.00000000000E+00 0.  1.
          1   -1    0    0  501    0  0.00000000000E+00 -0.00000000000E+00 -0.58637947300E+03  0.58637947300E+03  0.00000000000E+00 0. -1.
         25    2    1    2    0    0 -0.13349841655E+03  0.91997437136E+02 -0.42889735396E+03  0.47527480789E+03  0.12509135510E+03 0.  0.
         23    2    1    2    0    0  0.13349841655E+03 -0.91997437136E+02 -0.69754580027E+02  0.19883220413E+03  0.91559752626E+02 0.  0.
          5    1    3    3  502    0 -0.67430872827E+02  0.11609609394E+03 -0.28005080772E+03  0.31059805689E+03  0.41800000000E+01 0. -1.
         -5    1    3    3    0  502 -0.66067543728E+02 -0.24098656804E+02 -0.14884654624E+03  0.16467675101E+03  0.41800000000E+01 0. -1.
        -11    1    4    4    0    0  0.12458255386E+03 -0.41013464051E+02 -0.32691359960E+02  0.13517263767E+03  0.00000000000E+00 0.  1.
         11    1    4    4    0    0  0.89158626941E+01 -0.50983973085E+02 -0.37063220067E+02  0.63659566452E+02  0.00000000000E+00 0. -1.
</event>
<event>
 8    1  0.6185113E-009  0.1182326E+03  0.7561462E-02  0.1246042E+00
         -1   -1    0    0    0  501 -0.00000000000E+00  0.00000000000E+00  0.51583087581E+03  0.51583087581E+03  0.00000000000E+00 0.  1.
          1   -1    0    0  501    0  0.00000000000E+00 -0.00000000000E+00 -0.59372318494E+02  0.59372318494E+02  0.00000000000E+00 0. -1.
         25    2    1    2    0    0  0.69453952714E+02 -0.71205085101E+01  0.43367856397E+03  0.45672655019E+03  0.12508993412E+03 0.  0.
         23    2    1    2    0    0 -0.69453952714E+02  0.71205085101E+01  0.22779993345E+02  0.11847664411E+03  0.92968994363E+02 0.  0.
          5    1    3    3  502    0 -0.95478628810E+01  0.30965400319E+02  0.26070369546E+03  0.26274304354E+03  0.41800000000E+01 0. -1.
         -5    1    3    3    0  502  0.79001815595E+02 -0.38085908829E+02  0.17297486851E+03  0.19398350665E+03  0.41800000000E+01 0. -1.
        -11    1    4    4    0    0 -0.33408465496E+02  0.49898896944E+02  0.15868258481E+02  0.62111408857E+02  0.00000000000E+00 0.  1.
         11    1    4    4    0    0 -0.36045487219E+02 -0.42778388434E+02  0.69117348647E+01  0.56365235249E+02  0.00000000000E+00 0. -1.
</event>
<event>
 8    1  0.6185113E-009  0.1453841E+03  0.7561462E-02  0.1206262E+00
          2   -1    0    0  501    0  0.00000000000E+00  0.00000000000E+00  0.38336422021E+03  0.38336422021E+03  0.00000000000E+00 0. -1.
         -2   -1    0    0    0  501 -0.00000000000E+00 -0.00000000000E+00 -0.59257701409E+02  0.59257701409E+02  0.00000000000E+00 0.  1.
         25    2    1    2    0    0 -0.98049461121E+02  0.62016263632E+01  0.22638848773E+03  0.27667972597E+03  0.12509103243E+03 0.  0.
         23    2    1    2    0    0  0.98049461121E+02 -0.62016263632E+01  0.97718031073E+02  0.16594219565E+03  0.91300830792E+02 0.  0.
          5    1    3    3  502    0  0.21446520187E+02  0.29917635759E+02  0.57282591422E+02  0.68218661945E+02  0.41800000000E+01 0. -1.
         -5    1    3    3    0  502 -0.11949598131E+03 -0.23716009396E+02  0.16910589630E+03  0.20846106403E+03  0.41800000000E+01 0. -1.
        -11    1    4    4    0    0  0.10834262066E+03 -0.24270433675E+02  0.69856404452E+02  0.13117581578E+03  0.00000000000E+00 0.  1.
         11    1    4    4    0    0 -0.10293159540E+02  0.18068807312E+02  0.27861626622E+02  0.34766379867E+02  0.00000000000E+00 0. -1.
</event>
<event>
 8    1  0.6185113E-009  0.5990101E+02  0.7561462E-02  0.1398248E+00
          2   -1    0    0  501    0  0.00000000000E+00  0.00000000000E+00  0.10617413584E+03  0.10617413584E+03  0.00000000000E+00 0. -1.
         -2   -1    0    0    0  501 -0.00000000000E+00 -0.00000000000E+00 -0.21421414334E+03  0.21421414334E+03  0.00000000000E+00 0.  1.
         25    2    1    2    0    0 -0.58722574617E+01 -0.27811216809E+02  0.47778879080E+02  0.13686975621E+03  0.12507022703E+03 0.  0.
         23    2    1    2    0    0  0.58722574617E+01  0.27811216809E+02 -0.15581888657E+03  0.18351852297E+03  0.92690752889E+02 0.  0.
          5    1    3    3  502    0 -0.58378015881E+01 -0.31074622731E+02  0.89396651672E+02  0.94915466787E+02  0.41800000000E+01 0.  1.
         -5    1    3    3    0  502 -0.34455873616E-01  0.32634059219E+01 -0.41617772591E+02  0.41954289422E+02  0.41800000000E+01 0.  1.
        -11    1    4    4    0    0  0.95992287764E+00 -0.27279428130E+02 -0.10471543454E+03  0.10821465188E+03  0.00000000000E+00 0.  1.
         11    1    4    4    0    0  0.49123345841E+01  0.55090644939E+02 -0.51103452035E+02  0.75303871088E+02  0.00000000000E+00 0. -1.
</event>
<event>
 8    1  0.6185113E-009  0.1535720E+03  0.7561462E-02  0.1196151E+00
         -2   -1    0    0    0  501 -0.00000000000E+00  0.00000000000E+00  0.42181491922E+02  0.42181491922E+02  0.00000000000E+00 0.  1.
          2   -1    0    0  501    0  0.00000000000E+00 -0.00000000000E+00 -0.68889162267E+03  0.68889162267E+03  0.00000000000E+00 0. -1.
         25    2    1    2    0    0  0.11374062256E+03  0.93240337381E+01 -0.20666534260E+03  0.26717595664E+03  0.12509420909E+03 0.  0.
         23    2    1    2    0    0 -0.11374062256E+03 -0.93240337381E+01 -0.44004478814E+03  0.46389715795E+03  0.92397460763E+02 0.  0.
          5    1    3    3  502    0 -0.45573914290E+01  0.38091611641E+02 -0.17955032345E+02  0.42562850945E+02  0.41800000000E+01 0. -1.
         -5    1    3    3    0  502  0.11829801399E+03 -0.28767577903E+02 -0.18871031026E+03  0.22461310569E+03  0.41800000000E+01 0. -1.
        -11    1    4    4    0    0 -0.45340699378E+01  0.30244429109E+02 -0.84904306630E+02  0.90244249493E+02  0.00000000000E+00 0.  1.
         11    1    4    4    0    0 -0.10920655262E+03 -0.39568462847E+02 -0.35514048151E+03  0.37365290846E+03  0.00000000000E+00 0. -1.
</event>
<event>
 8    1  0.6185113E-009  0.8887156E+02  0.7561462E-02  0.1305608E+00
         -1   -1    0    0    0  501 -0.00000000000E+00  0.00000000000E+00  0.41551249860E+03  0.41551249860E+03  0.00000000000E+00 0.  1.
          1   -1    0    0  501    0  0.00000000000E+00 -0.00000000000E+00 -0.37020713586E+02  0.37020713586E+02  0.00000000000E+00 0. -1.
         25    2    1    2    0    0  0.11204413502E+02 -0.10165256752E+01  0.29521903788E+03  0.32082670853E+03  0.12509566087E+03 0.  0.
         23    2    1    2    0    0 -0.11204413502E+02  0.10165256752E+01  0.83272747132E+02  0.13170650366E+03  0.10141834393E+03 0.  0.
          5    1    3    3  502    0  0.19278131440E+02 -0.60971778799E+02  0.13271599644E+03  0.14737778758E+03  0.41800000000E+01 0.  1.
         -5    1    3    3    0  502 -0.80737179387E+01  0.59955253123E+02  0.16250304145E+03  0.17344892095E+03  0.41800000000E+01 0.  1.
        -11    1    4    4    0    0  0.15922529940E+02 -0.14697906046E+02 -0.16428349527E+02  0.27192757675E+02  0.00000000000E+00 0. -1.
         11    1    4    4    0    0 -0.27126943441E+02  0.15714431721E+02  0.99701096660E+02  0.10451374599E+03  0.00000000000E+00 0.  1.
</event>
<event>
 8    1  0.6185113E-009  0.9674905E+02  0.7561462E-02  0.1287285E+00
         -2   -1    0    0    0  501 -0.00000000000E+00  0.00000000000E+00  0.90878360900E+02  0.90878360900E+02  0.00000000000E+00 0.  1.
          2   -1    0    0  501    0  0.00000000000E+00 -0.00000000000E+00 -0.15299507218E+03  0.15299507218E+03  0.00000000000E+00 0. -1.
         25    2    1    2    0    0 -0.10159214465E+02  0.19931852052E+02 -0.77079229839E+02  0.14862421023E+03  0.12508980706E+03 0.  0.
         23    2    1    2    0    0  0.10159214465E+02 -0.19931852052E+02  0.14962518555E+02  0.95249222853E+02  0.91367659091E+02 0.  0.
          5    1    3    3  502    0 -0.52169248923E+02  0.27940302671E+02 -0.86251677612E+02  0.10468579339E+03  0.41800000000E+01 0. -1.
         -5    1    3    3    0  502  0.42010034458E+02 -0.80084506188E+01  0.91724477735E+01  0.43938416843E+02  0.41800000000E+01 0. -1.
        -11    1    4    4    0    0  0.35560984880E+02  0.22258806540E+02  0.18550974176E+02  0.45871306469E+02  0.00000000000E+00 0.  1.
         11    1    4    4    0    0 -0.25401770415E+02 -0.42190658593E+02 -0.35884556214E+01  0.49377916384E+02  0.00000000000E+00 0. -1.
</event>
<event>
 8    1  0.6185113E-009  0.1149018E+03  0.7561462E-02  0.1251753E+00
          1   -1    0    0  501    0  0.00000000000E+00  0.00000000000E+00  0.54254118049E+02  0.54254118049E+02  0.00000000000E+00 0.  1.
         -1   -1    0    0    0  501 -0.00000000000E+00 -0.00000000000E+00 -0.25926517259E+03  0.25926517259E+03  0.00000000000E+00 0. -1.
         25    2    1    2    0    0  0.24748969672E+02  0.31658764522E+02 -0.84085507188E+02  0.15599324428E+03  0.12509488747E+03 0.  0.
         23    2    1    2    0    0 -0.24748969672E+02 -0.31658764522E+02 -0.12092554735E+03  0.15752604636E+03  0.92610357993E+02 0.  0.
          5    1    3    3  502    0 -0.88797287917E+01  0.74117765623E+02 -0.34110510133E+02  0.82178416059E+02  0.41800000000E+01 0. -1.
         -5    1    3    3    0  502  0.33628698463E+02 -0.42459001101E+02 -0.49974997055E+02  0.73814828222E+02  0.41800000000E+01 0. -1.
        -11    1    4    4    0    0  0.35353586095E+02 -0.89859323768E+01 -0.38677137772E+02  0.53165251967E+02  0.00000000000E+00 0.  1.
         11    1    4    4    0    0 -0.60102555767E+02 -0.22672832145E+02 -0.82248409582E+02  0.10436079439E+03  0.00000000000E+00 0. -1.
</event>
<event>
 8    1  0.6185113E-009  0.1237830E+03  0.7561462E-02  0.1236984E+00
         -2   -1    0    0    0  501 -0.00000000000E+00  0.00000000000E+00  0.35226142915E+02  0.35226142915E+02  0.00000000000E+00 0.  1.
          2   -1    0    0  501    0  0.00000000000E+00 -0.00000000000E+00 -0.76355260332E+03  0.76355260332E+03  0.00000000000E+00 0. -1.
         25    2    1    2    0    0  0.95826292173E+02 -0.34147346801E+01 -0.57659711941E+03  0.59775123455E+03  0.12509181273E+03 0.  0.
         23    2    1    2    0    0 -0.95826292173E+02  0.34147346801E+01 -0.15172934100E+03  0.20102751169E+03  0.90531369425E+02 0.  0.
          5    1    3    3  502    0  0.12167222730E+02 -0.50145146705E+02 -0.11241291952E+03  0.12376071235E+03  0.41800000000E+01 0.  1.
         -5    1    3    3    0  502  0.83659069443E+02  0.46730412024E+02 -0.46418419990E+03  0.47399052221E+03  0.41800000000E+01 0.  1.
        -11    1    4    4    0    0 -0.54353642851E+02 -0.11951511342E+02 -0.14622635341E+03  0.15645863206E+03  0.00000000000E+00 0. -1.
         11    1    4    4    0    0 -0.41472649321E+02  0.15366246022E+02 -0.55029875872E+01  0.44568879624E+02  0.00000000000E+00 0.  1.
</event>
<event>
 8    1  0.6185113E-009  0.1235785E+03  0.7561462E-02  0.1237308E+00
         -1   -1    0    0    0  501 -0.00000000000E+00  0.00000000000E+00  0.26798695099E+02  0.26798695099E+02  0.00000000000E+00 0.  1.
          1   -1    0    0  501    0  0.00000000000E+00 -0.00000000000E+00 -0.68555169435E+03  0.68555169435E+03  0.00000000000E+00 0. -1.
         25    2    1    2    0    0 -0.53409679532E+02 -0.60625297051E+02 -0.38351813202E+03  0.41141413540E+03  0.12508961871E+03 0.  0.
         23    2    1    2    0    0  0.53409679532E+02  0.60625297051E+02 -0.27523486723E+03  0.30093625405E+03  0.90996573290E+02 0.  0.
          5    1    3    3  502    0 -0.90705791424E+02 -0.60002307439E+02 -0.31524119423E+03  0.33350007561E+03  0.41800000000E+01 0.  1.
         -5    1    3    3    0  502  0.37296111892E+02 -0.62298961260E+00 -0.68276937791E+02  0.77914059787E+02  0.41800000000E+01 0.  1.
        -11    1    4    4    0    0 -0.12080652511E+02  0.83790617036E+00 -0.36376811467E+00  0.12115138426E+02  0.00000000000E+00 0.  1.
         11    1    4    4    0    0  0.65490332043E+02  0.59787390881E+02 -0.27487109912E+03  0.28882111562E+03  0.00000000000E+00 0. -1.
</event>
<event>
 8    1  0.6185113E-009  0.1024469E+03  0.7561462E-02  0.1275233E+00
         -2   -1    0    0    0  501 -0.00000000000E+00  0.00000000000E+00  0.86265053629E+02  0.86265053629E+02  0.00000000000E+00 0.  1.
          2   -1    0    0  501    0  0.00000000000E+00 -0.00000000000E+00 -0.22708250805E+03  0.22708250805E+03  0.00000000000E+00 0. -1.
         25    2    1    2    0    0 -0.54284532481E+02  0.45256244909E+02 -0.18683313037E+02  0.14488434923E+03  0.12508984889E+03 0.  0.
         23    2    1    2    0    0  0.54284532481E+02 -0.45256244909E+02 -0.12213414138E+03  0.16846321245E+03  0.92022645509E+02 0.  0.
          5    1    3    3  502    0 -0.74626342003E+02  0.66793466116E+02  0.13266330957E+02  0.10111343122E+03  0.41800000000E+01 0. -1.
         -5    1    3    3    0  502  0.20341809522E+02 -0.21537221206E+02 -0.31949643994E+02  0.43770918008E+02  0.41800000000E+01 0. -1.
        -11    1    4    4    0    0  0.30168232073E+02 -0.95408075965E+01  0.69329002114E+01  0.32391578247E+02  0.00000000000E+00 0.  1.
         11    1    4    4    0    0  0.24116300408E+02 -0.35715437313E+02 -0.12906704159E+03  0.13607163420E+03  0.00000000000E+00 0. -1.
</event>
<event>
 8    1  0.6185113E-009  0.1119728E+03  0.7561462E-02  0.1256960E+00
          2   -1    0    0  501    0  0.00000000000E+00  0.00000000000E+00  0.56758112331E+02  0.56758112331E+02  0.00000000000E+00 0. -1.
         -2   -1    0    0    0  501 -0.00000000000E+00 -0.00000000000E+00 -0.24956316451E+03  0.24956316451E+03  0.00000000000E+00 0.  1.
         25    2    1    2    0    0 -0.37005737455E+02  0.17031027016E+02 -0.14321501695E+03  0.19446369607E+03  0.12508440160E+03 0.  0.
         23    2    1    2    0    0  0.37005737455E+02 -0.17031027016E+02 -0.49590035225E+02  0.11185758077E+03  0.91615862689E+02 0.  0.
          5    1    3    3  502    0 -0.11613478669E+02 -0.54131635196E+02 -0.53594228039E+02  0.77168131342E+02  0.41800000000E+01 0. -1.
         -5    1    3    3    0  502 -0.25392258786E+02  0.71162662211E+02 -0.89620788912E+02  0.11729556473E+03  0.41800000000E+01 0. -1.
        -11    1    4    4    0    0  0.48808260874E+02 -0.42476074461E+02 -0.52951035917E+02  0.83607867069E+02  0.00000000000E+00 0.  1.
         11    1    4    4    0    0 -0.11802523419E+02  0.25445047445E+02  0.33610006921E+01  0.28249713701E+02  0.00000000000E+00 0. -1.
</event>
<event>
 8    1  0.6185113E-009  0.1027158E+03  0.7561462E-02  0.1274687E+00
          1   -1    0    0  501    0  0.00000000000E+00  0.00000000000E+00  0.13398202734E+03  0.13398202734E+03  0.00000000000E+00 0. -1.
         -1   -1    0    0    0  501 -0.00000000000E+00 -0.00000000000E+00 -0.18733056541E+03  0.18733056541E+03  0.00000000000E+00 0.  1.
         25    2    1    2    0    0  0.41819657447E+01 -0.89106369119E+02 -0.86168586410E+02  0.17615295627E+03  0.12508958735E+03 0.  0.
         23    2    1    2    0    0 -0.41819657447E+01  0.89106369119E+02  0.32820048341E+02  0.14515963649E+03  0.10971203506E+03 0.  0.
          5    1    3    3  502    0  0.13305970679E+01 -0.78314901160E+02  0.10157209623E+02  0.79092575755E+02  0.41800000000E+01 0. -1.
         -5    1    3    3    0  502  0.28513686768E+01 -0.10791467959E+02 -0.96325796033E+02  0.97060380513E+02  0.41800000000E+01 0. -1.
        -11    1    4    4    0    0 -0.20105619914E+02 -0.40990051239E+01 -0.26516068513E+02  0.33528192384E+02  0.00000000000E+00 0.  1.
         11    1    4    4    0    0  0.15923654169E+02  0.93205374243E+02  0.59336116854E+02  0.11163144411E+03  0.00000000000E+00 0. -1.
</event>
<event>
 8    1  0.6185113E-009  0.1028057E+03  0.7561462E-02  0.1274504E+00
          2   -1    0    0  501    0  0.00000000000E+00  0.00000000000E+00  0.95474637256E+03  0.95474637256E+03  0.00000000000E+00 0.  1.
         -2   -1    0    0    0  501 -0.00000000000E+00 -0.00000000000E+00 -0.21501644930E+02  0.21501644930E+02  0.00000000000E+00 0. -1.
         25    2    1    2    0    0 -0.16397621539E+02 -0.75342593756E+02  0.70798398724E+03  0.72307231259E+03  0.12508738794E+03 0.  0.
         23    2    1    2    0    0  0.16397621539E+02  0.75342593756E+02  0.22526074039E+03  0.25317570490E+03  0.86082216305E+02 0.  0.
          5    1    3    3  502    0  0.10261123377E+02 -0.55790624436E+02  0.67053744979E+03  0.67294563554E+03  0.41800000000E+01 0.  1.
         -5    1    3    3    0  502 -0.26658744916E+02 -0.19551969320E+02  0.37446537455E+02  0.50126677051E+02  0.41800000000E+01 0.  1.
        -11    1    4    4    0    0 -0.34041767068E+02  0.16266719918E+02  0.79959572109E+02  0.88413693814E+02  0.00000000000E+00 0.  1.
         11    1    4    4    0    0  0.50439388607E+02  0.59075873839E+02  0.14530116828E+03  0.16476201109E+03  0.00000000000E+00 0. -1.
</event>
<event>
 8    1  0.6185113E-009  0.1188032E+03  0.7561462E-02  0.1245084E+00
          2   -1    0    0  501    0  0.00000000000E+00  0.00000000000E+00  0.47876170567E+03  0.47876170567E+03  0.00000000000E+00 0.  1.
         -2   -1    0    0    0  501 -0.00000000000E+00 -0.00000000000E+00 -0.46890661926E+02  0.46890661926E+02  0.00000000000E+00 0. -1.
         25    2    1    2    0    0  0.14811179790E+02 -0.10200035437E+03  0.25409816777E+03  0.30139177563E+03  0.12509068796E+03 0.  0.
         23    2    1    2    0    0 -0.14811179790E+02  0.10200035437E+03  0.17777287597E+03  0.22426059197E+03  0.89811883065E+02 0.  0.
          5    1    3    3  502    0 -0.72478804012E+00 -0.73623901393E+02  0.25819066110E+03  0.26851609645E+03  0.41800000000E+01 0. -1.
         -5    1    3    3    0  502  0.15535967830E+02 -0.28376452976E+02 -0.40924933276E+01  0.32875679180E+02  0.41800000000E+01 0. -1.
        -11    1    4    4    0    0  0.29224940953E+02  0.72681395087E+02  0.73909870027E+02  0.10770028437E+03  0.00000000000E+00 0. -1.
         11    1    4    4    0    0 -0.44036120743E+02  0.29318959282E+02  0.10386300595E+03  0.11656030760E+03  0.00000000000E+00 0.  1.
</event>
<event>
 8    1  0.6185113E-009  0.9218818E+02  0.7561462E-02  0.1297638E+00
         -1   -1    0    0    0  501 -0.00000000000E+00  0.00000000000E+00  0.40788001850E+03  0.40788001850E+03  0.00000000000E+00 0. -1.
          1   -1    0    0  501    0  0.00000000000E+00 -0.00000000000E+00 -0.33298410011E+02  0.33298410011E+02  0.00000000000E+00 0.  1.
         25    2    1    2    0    0 -0.10182209485E+02  0.10224009146E+02  0.28643476703E+03  0.31288956630E+03  0.12508715835E+03 0.  0.
         23    2    1    2    0    0  0.10182209485E+02 -0.10224009146E+02  0.88146841465E+02  0.12828886221E+03  0.92086691520E+02 0.  0.
          5    1    3    3  502    0  0.29078270985E+02  0.55447175739E+02  0.11154688364E+03  0.12798482250E+03  0.41800000000E+01 0.  1.
         -5    1    3    3    0  502 -0.39260480470E+02 -0.45223166593E+02  0.17488788339E+03  0.18490474380E+03  0.41800000000E+01 0.  1.
        -11    1    4    4    0    0 -0.11634345700E+01 -0.34646034086E+02 -0.14868377257E+01  0.34697434261E+02  0.00000000000E+00 0.  1.
         11    1    4    4    0    0  0.11345644055E+02  0.24422024940E+02  0.89633679190E+02  0.93591427954E+02  0.00000000000E+00 0. -1.
</event>
<event>
 8    1  0.6185113E-009  0.1585831E+03  0.7561462E-02  0.1190306E+00
          1   -1    0    0  501    0  0.00000000000E+00  0.00000000000E+00  0.10236036731E+04  0.10236036731E+04  0.00000000000E+00 0. -1.
         -1   -1    0    0    0  501 -0.00000000000E+00 -0.00000000000E+00 -0.30800086982E+02  0.30800086982E+02  0.00000000000E+00 0.  1.
         25    2    1    2    0    0 -0.44235389051E+02  0.12261386472E+03  0.67717113739E+03  0.70085668426E+03  0.12509361735E+03 0.  0.
         23    2    1    2    0    0  0.44235389051E+02 -0.12261386472E+03  0.31563244878E+03  0.35354707586E+03  0.91546505478E+02 0.  0.
          5    1    3    3  502    0 -0.78524543710E+02  0.68758400655E+02  0.28581460924E+03  0.30430459227E+03  0.41800000000E+01 0. -1.
         -5    1    3    3    0  502  0.34289154660E+02  0.53855464062E+02  0.39135652815E+03  0.39655209199E+03  0.41800000000E+01 0. -1.
        -11    1    4    4    0    0  0.69719803022E+00 -0.99371564585E+02  0.26417462804E+03  0.28224710456E+03  0.00000000000E+00 0. -1.
         11    1    4    4    0    0  0.43538191021E+02 -0.23242300132E+02  0.51457820741E+02  0.71299971305E+02  0.00000000000E+00 0.  1.
</event>
<event>
 8    1  0.6185113E-009  0.1061722E+03  0.7561462E-02  0.1267827E+00
          1   -1    0    0  501    0  0.00000000000E+00  0.00000000000E+00  0.10639717070E+03  0.10639717070E+03  0.00000000000E+00 0. -1.
         -1   -1    0    0    0  501 -0.00000000000E+00 -0.00000000000E+00 -0.11728993582E+03  0.11728993582E+03  0.00000000000E+00 0.  1.
         25    2    1    2    0    0 -0.93530950339E+00 -0.25290660575E+02  0.36083615609E+01  0.12767572215E+03  0.12509027715E+03 0.  0.
         23    2    1    2    0    0  0.93530950339E+00  0.25290660575E+02 -0.14501126678E+02  0.96011384366E+02  0.91473553209E+02 0.  0.
          5    1    3    3  502    0 -0.66815614567E+01  0.49165089662E+02  0.15036482035E+02  0.52013627992E+02  0.41800000000E+01 0.  1.
         -5    1    3    3    0  502  0.57462519533E+01 -0.74455750237E+02 -0.11428120474E+02  0.75662094158E+02  0.41800000000E+01 0.  1.
        -11    1    4    4    0    0  0.36261031036E+02 -0.10214647003E+02  0.11751822404E+02  0.39462725641E+02  0.00000000000E+00 0. -1.
         11    1    4    4    0    0 -0.35325721533E+02  0.35505307578E+02 -0.26252949082E+02  0.56548658725E+02  0.00000000000E+00 0.  1.
</event>
<event>
 8    1  0.6185113E-009  0.1245908E+03  0.7561462E-02  0.1235710E+00
          1   -1    0    0  501    0  0.00000000000E+00  0.00000000000E+00  0.55041542638E+03  0.55041542638E+03  0.00000000000E+00 0. -1.
         -1   -1    0    0    0  501 -0.00000000000E+00 -0.00000000000E+00 -0.30050415904E+02  0.30050415904E+02  0.00000000000E+00 0.  1.
         25    2    1    2    0    0 -0.35665234613E+02  0.50549663798E+02  0.31950861384E+03  0.34865513568E+03  0.12508945539E+03 0.  0.
         23    2    1    2    0    0  0.35665234613E+02 -0.50549663798E+02  0.20085639664E+03  0.23181070660E+03  0.97804060015E+02 0.  0.
          5    1    3    3  502    0 -0.40680407222E+02 -0.31459316313E+02  0.17413025200E+03  0.18161332874E+03  0.41800000000E+01 0. -1.
         -5    1    3    3    0  502  0.50151726083E+01  0.82008980111E+02  0.14537836184E+03  0.16704180694E+03  0.41800000000E+01 0. -1.
        -11    1    4    4    0    0  0.68737919271E+02 -0.43966893706E+02  0.15069942677E+03  0.17137183700E+03  0.00000000000E+00 0.  1.
         11    1    4    4    0    0 -0.33072684658E+02 -0.65827700918E+01  0.50156969867E+02  0.60438869602E+02  0.00000000000E+00 0. -1.
</event>
<event>
 8    1  0.6185113E-009  0.1520746E+03  0.7561462E-02  0.1197947E+00
          1   -1    0    0  501    0  0.00000000000E+00  0.00000000000E+00  0.22430669463E+02  0.22430669463E+02  0.00000000000E+00 0. -1.
         -1   -1    0    0    0  501 -0.00000000000E+00 -0.00000000000E+00 -0.12150019622E+04  0.12150019622E+04  0.00000000000E+00 0.  1.
         25    2    1    2    0    0  0.98800362398E+02  0.72850869766E+02 -0.69288882302E+03  0.71471045508E+03  0.12508937884E+03 0.  0.
         23    2    1    2    0    0 -0.98800362398E+02 -0.72850869766E+02 -0.49968246975E+03  0.52272217662E+03  0.92125688683E+02 0.  0.
          5    1    3    3  502    0 -0.98242221217E+01  0.55796246687E+02 -0.14203686877E+03  0.15297607974E+03  0.41800000000E+01 0.  1.
         -5    1    3    3    0  502  0.10862458452E+03  0.17054623079E+02 -0.55085195425E+03  0.56173437534E+03  0.41800000000E+01 0.  1.
        -11    1    4    4    0    0 -0.27258078579E+02  0.88971223734E+01 -0.33713743404E+02  0.44258085461E+02  0.00000000000E+00 0.  1.
         11    1    4    4    0    0 -0.71542283819E+02 -0.81747992139E+02 -0.46596872635E+03  0.47846409116E+03  0.00000000000E+00 0. -1.
</event>
<event>
 8    1  0.6185113E-009  0.1274259E+03  0.7561462E-02  0.1231326E+00
          2   -1    0    0  501    0  0.00000000000E+00  0.00000000000E+00  0.34643158058E+03  0.34643158058E+03  0.00000000000E+00 0. -1.
         -2   -1    0    0    0  501 -0.00000000000E+00 -0.00000000000E+00 -0.11090414024E+03  0.11090414024E+03  0.00000000000E+00 0.  1.
         25    2    1    2    0    0 -0.86970035009E+02  0.28614316117E+02 -0.33183316311E+02  0.15852627534E+03  0.12508749504E+03 0.  0.
         23    2    1    2    0    0  0.86970035009E+02 -0.28614316117E+02  0.26871075665E+03  0.29880944549E+03  0.93268686584E+02 0.  0.
          5    1    3    3  502    0 -0.44291279867E+01  0.62954999765E+02 -0.50863275661E+00  0.63250931040E+02  0.41800000000E+01 0. -1.
         -5    1    3    3    0  502 -0.82540907022E+02 -0.34340683649E+02 -0.32674683554E+02  0.95275344296E+02  0.41800000000E+01 0. -1.
        -11    1    4    4    0    0  0.34167873969E+02  0.11220183721E+02  0.19375498137E+02  0.40850288400E+02  0.00000000000E+00 0.  1.
         11    1    4    4    0    0  0.52802161040E+02 -0.39834499838E+02  0.24933525852E+03  0.25795915709E+03  0.00000000000E+00 0. -1.
</event>
<event>
 8    1  0.6185113E-009  0.1092144E+03  0.7561462E-02  0.1262032E+00
         -2   -1    0    0    0  501 -0.00000000000E+00  0.00000000000E+00  0.10988441346E+03  0.10988441346E+03  0.00000000000E+00 0.  1.
          2   -1    0    0  501    0  0.00000000000E+00 -0.00000000000E+00 -0.16617178003E+03  0.16617178003E+03  0.00000000000E+00 0. -1.
         25    2    1    2    0    0 -0.44095747460E+02 -0.59028102033E+02 -0.65386989134E+02  0.15922152686E+03  0.12508910621E+03 0.  0.
         23    2    1    2    0    0  0.44095747460E+02  0.59028102033E+02  0.90996225657E+01  0.11683466663E+03  0.90215211704E+02 0.  0.
          5    1    3    3  502    0 -0.82219912333E+02 -0.41326482534E+02 -0.14767565484E+02  0.93292794647E+02  0.41800000000E+01 0. -1.
         -5    1    3    3    0  502  0.38124164874E+02 -0.17701619499E+02 -0.50619423650E+02  0.65928732210E+02  0.41800000000E+01 0. -1.
        -11    1    4    4    0    0 -0.32060741358E+01  0.26433291334E+02 -0.35310772734E+02  0.44224975672E+02  0.00000000000E+00 0. -1.
         11    1    4    4    0    0  0.47301821595E+02  0.32594810699E+02  0.44410395300E+02  0.72609690961E+02  0.00000000000E+00 0.  1.
</event>
<event>
 8    1  0.6185113E-009  0.1567059E+03  0.7561462E-02  0.1192467E+00
         -1   -1    0    0    0  501 -0.00000000000E+00  0.00000000000E+00  0.32015749359E+02  0.32015749359E+02  0.00000000000E+00 0.  1.
          1   -1    0    0  501    0  0.00000000000E+00 -0.00000000000E+00 -0.10864703794E+04  0.10864703794E+04  0.00000000000E+00 0. -1.
         25    2    1    2    0    0  0.75642255590E+02 -0.13248564815E+03 -0.54111899843E+03  0.57596137699E+03  0.12509012564E+03 0.  0.
         23    2    1    2    0    0 -0.75642255590E+02  0.13248564815E+03 -0.51333563164E+03  0.54252475179E+03  0.86864479499E+02 0.  0.
          5    1    3    3  502    0  0.18616166618E+02 -0.13792236706E+02 -0.30227442640E+03  0.30318985588E+03  0.41800000000E+01 0. -1.
         -5    1    3    3    0  502  0.57026088972E+02 -0.11869341144E+03 -0.23884457202E+03  0.27277152111E+03  0.41800000000E+01 0. -1.
        -11    1    4    4    0    0 -0.43820981926E+02  0.36606920914E+02 -0.31293480220E+03  0.31810145479E+03  0.00000000000E+00 0. -1.
         11    1    4    4    0    0 -0.31821273664E+02  0.95878727235E+02 -0.20040082944E+03  0.22442329700E+03  0.00000000000E+00 0.  1.
</event>
<event>
 8    1  0.6185113E-009  0.9992296E+02  0.7561462E-02  0.1280458E+00
         -1   -1    0    0    0  501 -0.00000000000E+00  0.00000000000E+00  0.17552686329E+03  0.17552686329E+03  0.00000000000E+00 0.  1.
          1   -1    0    0  501    0  0.00000000000E+00 -0.00000000000E+00 -0.68215493250E+02  0.68215493250E+02  0.00000000000E+00 0. -1.
         25    2    1    2    0    0 -0.62048950172E+01  0.73245979508E+01  0.64336606186E+02  0.14099610514E+03  0.12509417377E+03 0.  0.
         23    2    1    2    0    0  0.62048950172E+01 -0.73245979508E+01  0.42974763855E+02  0.10274625140E+03  0.92832167871E+02 0.  0.
          5    1    3    3  502    0 -0.36950655590E+01  0.57864827638E+02  0.68745673944E+02  0.90030172015E+02  0.41800000000E+01 0. -1.
         -5    1    3    3    0  502 -0.25098294582E+01 -0.50540229687E+02 -0.44090677578E+01  0.50965933124E+02  0.41800000000E+01 0. -1.
        -11    1    4    4    0    0  0.83249524992E+01  0.41368918621E+02  0.31541484023E+02  0.52683559830E+02  0.00000000000E+00 0.  1.
         11    1    4    4    0    0 -0.21200574820E+01 -0.48693516572E+02  0.11433279832E+02  0.50062691573E+02  0.00000000000E+00 0. -1.
</event>
<event>
 8    1  0.6185113E-009  0.1177785E+03  0.7561462E-02  0.1246808E+00
         -1   -1    0    0    0  501 -0.00000000000E+00  0.00000000000E+00  0.84413535167E+03  0.84413535167E+03  0.00000000000E+00 0.  1.
          1   -1    0    0  501    0  0.00000000000E+00 -0.00000000000E+00 -0.24106420952E+02  0.24106420952E+02  0.00000000000E+00 0. -1.
         25    2    1    2    0    0  0.78680636802E+02 -0.47693775683E+02  0.43032293998E+03  0.45748353644E+03  0.12509202451E+03 0.  0.
         23    2    1    2    0    0 -0.78680636802E+02  0.47693775683E+02  0.38970599074E+03  0.41075823618E+03  0.91576364449E+02 0.  0.
          5    1    3    3  502    0  0.64576309348E+02 -0.62267753842E+02  0.42720555275E+03  0.43654258624E+03  0.41800000000E+01 0. -1.
         -5    1    3    3    0  502  0.14104327453E+02  0.14573978159E+02  0.31173872273E+01  0.20940950203E+02  0.41800000000E+01 0. -1.
        -11    1    4    4    0    0 -0.89688393318E+02  0.15495818151E+02  0.32680937675E+03  0.33924695578E+03  0.00000000000E+00 0.  1.
         11    1    4    4    0    0  0.11007756517E+02  0.32197957532E+02  0.62896613987E+02  0.71511280395E+02  0.00000000000E+00 0. -1.
</event>
<event>
 8    1  0.6185113E-009  0.1186408E+03  0.7561462E-02  0.1245356E+00
         -1   -1    0    0    0  501 -0.00000000000E+00  0.00000000000E+00  0.30629511712E+02  0.30629511712E+02  0.00000000000E+00 0.  1.
          1   -1    0    0  501    0  0.00000000000E+00 -0.00000000000E+00 -0.54907038302E+03  0.54907038302E+03  0.00000000000E+00 0. -1.
         25    2    1    2    0    0 -0.57029407672E+02 -0.44981131926E+02 -0.32458549595E+03  0.35535819870E+03  0.12509216454E+03 0.  0.
         23    2    1    2    0    0  0.57029407672E+02  0.44981131926E+02 -0.19385537535E+03  0.22434169603E+03  0.86450184828E+02 0.  0.
          5    1    3    3  502    0  0.11559319579E+02  0.31752210751E+02 -0.13894396099E+03  0.14305494557E+03  0.41800000000E+01 0.  1.
         -5    1    3    3    0  502 -0.68588727251E+02 -0.76733342678E+02 -0.18564153496E+03  0.21230325313E+03  0.41800000000E+01 0.  1.
        -11    1    4    4    0    0 -0.80237611243E+01 -0.11537377236E+02 -0.22274802547E+01  0.14228614983E+02  0.00000000000E+00 0.  1.
         11    1    4    4    0    0  0.65053168796E+02  0.56518509162E+02 -0.19162789510E+03  0.21011308105E+03  0.00000000000E+00 0. -1.
</event>
<event>
 8    1  0.6185113E-009  0.6662397E+02  0.7561462E-02  0.1371965E+00
         -2   -1    0    0    0  501 -0.00000000000E+00  0.00000000000E+00  0.21678333764E+03  0.21678333764E+03  0.00000000000E+00 0.  1.
          2   -1    0    0  501    0  0.00000000000E+00 -0.00000000000E+00 -0.58701290250E+02  0.58701290250E+02  0.00000000000E+00 0. -1.
         25    2    1    2    0    0  0.42285472595E+01 -0.95160371013E+01  0.51505772149E+02  0.13567747073E+03  0.12508835248E+03 0.  0.
         23    2    1    2    0    0 -0.42285472595E+01  0.95160371013E+01  0.10657627524E+03  0.13980715716E+03  0.89883831555E+02 0.  0.
          5    1    3    3  502    0  0.64519043305E+00 -0.29845689658E+02 -0.35261806010E+02  0.46390180264E+02  0.41800000000E+01 0. -1.
         -5    1    3    3    0  502  0.35833568265E+01  0.20329652556E+02  0.86767578160E+02  0.89287290467E+02  0.41800000000E+01 0. -1.
        -11    1    4    4    0    0  0.99655865285E+01  0.43808713740E+02  0.28085721119E+02  0.52984186746E+02  0.00000000000E+00 0. -1.
         11    1    4    4    0    0 -0.14194133788E+02 -0.34292676639E+02  0.78490554124E+02  0.86822970416E+02  0.00000000000E+00 0.  1.
</event>
<event>
 8    1  0.6185113E-009  0.3554700E+03  0.7561462E-02  0.1060392E+00
          2   -1    0    0  501    0  0.00000000000E+00  0.00000000000E+00  0.21450230533E+04  0.21450230533E+04  0.00000000000E+00 0. -1.
         -2   -1    0    0    0  501 -0.00000000000E+00 -0.00000000000E+00 -0.67294546927E+02  0.67294546927E+02  0.00000000000E+00 0.  1.
         25    2    1    2    0    0  0.18882874612E+03 -0.28408759264E+03  0.14208959373E+04  0.14666135374E+04  0.12509175728E+03 0.  0.
         23    2    1    2    0    0 -0.18882874612E+03  0.28408759264E+03  0.65683256908E+03  0.74570406286E+03  0.91013569878E+02 0.  0.
          5    1    3    3  502    0  0.14904796356E+03 -0.12715251262E+03  0.90157624550E+03  0.92262682367E+03  0.41800000000E+01 0.  1.
         -5    1    3    3    0  502  0.39780782563E+02 -0.15693508002E+03  0.51931969179E+03  0.54398671370E+03  0.41800000000E+01 0.  1.
        -11    1    4    4    0    0 -0.14436597766E+03  0.13573732418E+03  0.36429752590E+03  0.41470332053E+03  0.00000000000E+00 0.  1.
         11    1    4    4    0    0 -0.44462768455E+02  0.14835026846E+03  0.29253504318E+03  0.33100074233E+03  0.00000000000E+00 0. -1.
</event>
<event>
 8    1  0.6185113E-009  0.1461318E+03  0.7561462E-02  0.1205308E+00
         -2   -1    0    0    0  501 -0.00000000000E+00  0.00000000000E+00  0.52254331918E+02  0.52254331918E+02  0.00000000000E+00 0.  1.
          2   -1    0    0  501    0  0.00000000000E+00 -0.00000000000E+00 -0.43836054637E+03  0.43836054637E+03  0.00000000000E+00 0. -1.
         25    2    1    2    0    0 -0.62259547396E+02 -0.74199917688E+02 -0.15679090340E+03  0.22273426655E+03  0.12508112199E+03 0.  0.
         23    2    1    2    0    0  0.62259547396E+02  0.74199917688E+02 -0.22931531106E+03  0.26788061174E+03  0.98957724487E+02 0.  0.
          5    1    3    3  502    0  0.13890322399E+02  0.25552308585E+02 -0.49545790862E+02  0.57603119035E+02  0.41800000000E+01 0.  1.
         -5    1    3    3    0  502 -0.76149869795E+02 -0.99752226273E+02 -0.10724511254E+03  0.16513114751E+03  0.41800000000E+01 0.  1.
        -11    1    4    4    0    0  0.37319785770E+02 -0.18262327381E+02 -0.54241131241E+02  0.68325539366E+02  0.00000000000E+00 0.  1.
         11    1    4    4    0    0  0.24939761625E+02  0.92462245069E+02 -0.17507417982E+03  0.19955507238E+03  0.00000000000E+00 0. -1.
</event>
<event>
 8    1  0.6185113E-009  0.5350013E+02  0.7561462E-02  0.1427328E+00
          1   -1    0    0  501    0  0.00000000000E+00  0.00000000000E+00  0.70617892761E+03  0.70617892761E+03  0.00000000000E+00 0. -1.
         -1   -1    0    0    0  501 -0.00000000000E+00 -0.00000000000E+00 -0.29671044712E+02  0.29671044712E+02  0.00000000000E+00 0.  1.
         25    2    1    2    0    0 -0.36964501899E+02 -0.21875335586E+02  0.58689067929E+03  0.60160881613E+03  0.12509034138E+03 0.  0.
         23    2    1    2    0    0  0.36964501899E+02  0.21875335586E+02  0.89617203604E+02  0.13424115618E+03  0.90247105903E+02 0.  0.
          5    1    3    3  502    0 -0.29855684523E+02  0.59894564598E+01  0.56341187371E+03  0.56424963210E+03  0.41800000000E+01 0.  1.
         -5    1    3    3    0  502 -0.71088173755E+01 -0.27864792046E+02  0.23478805578E+02  0.37359184033E+02  0.41800000000E+01 0.  1.
        -11    1    4    4    0    0  0.26282267588E+02  0.24793135392E+02  0.10738758234E+03  0.11330291256E+03  0.00000000000E+00 0. -1.
         11    1    4    4    0    0  0.10682234311E+02 -0.29177998056E+01 -0.17770378740E+02  0.20938243626E+02  0.00000000000E+00 0.  1.
</event>
<event>
 8    1  0.6185113E-009  0.1271175E+03  0.7561462E-02  0.1231797E+00
         -1   -1    0    0    0  501 -0.00000000000E+00  0.00000000000E+00  0.29553606123E+02  0.29553606123E+02  0.00000000000E+00 0.  1.
          1   -1    0    0  501    0  0.00000000000E+00 -0.00000000000E+00 -0.56757704425E+03  0.56757704425E+03  0.00000000000E+00 0. -1.
         25    2    1    2    0    0 -0.28359280027E+02 -0.63766500881E+02 -0.29617353759E+03  0.32899259291E+03  0.12508775490E+03 0.  0.
         23    2    1    2    0    0  0.28359280027E+02  0.63766500881E+02 -0.24184990054E+03  0.26813805746E+03  0.92391709963E+02 0.  0.
          5    1    3    3  502    0  0.25885582757E+01 -0.96191906079E+02 -0.17546521888E+03  0.20016268100E+03  0.41800000000E+01 0. -1.
         -5    1    3    3    0  502 -0.30947838303E+02  0.32425405198E+02 -0.12070831871E+03  0.12882991191E+03  0.41800000000E+01 0. -1.
        -11    1    4    4    0    0  0.59624119653E+02  0.29533620740E+02 -0.11216984836E+03  0.13041988069E+03  0.00000000000E+00 0.  1.
         11    1    4    4    0    0 -0.31264839626E+02  0.34232880140E+02 -0.12968005218E+03  0.13771817677E+03  0.00000000000E+00 0. -1.
</event>
<event>
 8    1  0.6185113E-009  0.1034126E+03  0.7561462E-02  0.1273279E+00
         -2   -1    0    0    0  501 -0.00000000000E+00  0.00000000000E+00  0.21288647265E+02  0.21288647265E+02  0.00000000000E+00 0.  1.
          2   -1    0    0  501    0  0.00000000000E+00 -0.00000000000E+00 -0.58771379869E+03  0.58771379869E+03  0.00000000000E+00 0. -1.
         25    2    1    2    0    0 -0.27032374640E+01  0.26001267458E+02 -0.31247462453E+03  0.33759602007E+03  0.12508920172E+03 0.  0.
         23    2    1    2    0    0  0.27032374640E+01 -0.26001267458E+02 -0.25395052689E+03  0.27140642589E+03  0.92126025108E+02 0.  0.
          5    1    3    3  502    0 -0.57655843700E+02 -0.10470944827E+02 -0.11143125712E+03  0.12596918060E+03  0.41800000000E+01 0.  1.
         -5    1    3    3    0  502  0.54952606236E+02  0.36472212285E+02 -0.20104336741E+03  0.21162683947E+03  0.41800000000E+01 0.  1.
        -11    1    4    4    0    0  0.40177100672E+02 -0.15604864823E+02 -0.20180380425E+03  0.20635524378E+03  0.00000000000E+00 0. -1.
         11    1    4    4    0    0 -0.37473863208E+02 -0.10396402636E+02 -0.52146722635E+02  0.65051182104E+02  0.00000000000E+00 0.  1.
</event>
<event>
 8    1  0.6185113E-009  0.1235295E+03  0.7561462E-02  0.1237385E+00
         -2   -1    0    0    0  501 -0.00000000000E+00  0.00000000000E+00  0.22347104100E+03  0.22347104100E+03  0.00000000000E+00 0. -1.
          2   -1    0    0  501    0  0.00000000000E+00 -0.00000000000E+00 -0.87254141745E+02  0.87254141745E+02  0.00000000000E+00 0.  1.
         25    2    1    2    0    0  0.67322105474E+02 -0.27136844637E+02  0.12733071467E+03  0.19269196253E+03  0.12509359418E+03 0.  0.
         23    2    1    2    0    0 -0.67322105474E+02  0.27136844637E+02  0.88861845807E+01  0.11803322021E+03  0.92650971793E+02 0.  0.
          5    1    3    3  502    0 -0.24114140791E+02  0.14886982939E+02 -0.20629523834E+01  0.28720066498E+02  0.41800000000E+01 0. -1.
         -5    1    3    3    0  502  0.91436246266E+02 -0.42023827576E+02  0.12939366705E+03  0.16397189603E+03  0.41800000000E+01 0. -1.
        -11    1    4    4    0    0 -0.78875014318E+02  0.49078832209E+02  0.66781166074E+01  0.93137516051E+02  0.00000000000E+00 0.  1.
         11    1    4    4    0    0  0.11552908844E+02 -0.21941987572E+02  0.22080679733E+01  0.24895704158E+02  0.00000000000E+00 0. -1.
</event>
<event>
 8    1  0.6185113E-009  0.1142895E+03  0.7561462E-02  0.1252826E+00
         -1   -1    0    0    0  501 -0.00000000000E+00  0.00000000000E+00  0.32678692014E+02  0.32678692014E+02  0.00000000000E+00 0.  1.
          1   -1    0    0  501    0  0.00000000000E+00 -0.00000000000E+00 -0.43567169157E+03  0.43567169157E+03  0.00000000000E+00 0. -1.
         25    2    1    2    0    0  0.37317880272E+01  0.49643553875E+02 -0.22657602383E+03  0.26357756777E+03  0.12513205415E+03 0.  0.
         23    2    1    2    0    0 -0.37317880272E+01 -0.49643553875E+02 -0.17641697573E+03  0.20477281581E+03  0.91271836227E+02 0.  0.
          5    1    3    3  502    0  0.37904749262E+02  0.77992486673E+02 -0.12058390992E+03  0.14858515984E+03  0.41800000000E+01 0. -1.
         -5    1    3    3    0  502 -0.34172961235E+02 -0.28348932798E+02 -0.10599211391E+03  0.11499240793E+03  0.41800000000E+01 0. -1.
        -11    1    4    4    0    0 -0.24792281638E+02  0.15136508882E+02 -0.23475647645E+02  0.37348054331E+02  0.00000000000E+00 0.  1.
         11    1    4    4    0    0  0.21060493611E+02 -0.64780062757E+02 -0.15294132808E+03  0.16742476148E+03  0.00000000000E+00 0. -1.
</event>
<event>
 8    1  0.6185113E-009  0.2273669E+03  0.7561462E-02  0.1128507E+00
         -2   -1    0    0    0  501 -0.00000000000E+00  0.00000000000E+00  0.46999799588E+02  0.46999799588E+02  0.00000000000E+00 0. -1.
          2   -1    0    0  501    0  0.00000000000E+00 -0.00000000000E+00 -0.14746798123E+04  0.14746798123E+04  0.00000000000E+00 0.  1.
         25    2    1    2    0    0  0.14917278638E+03 -0.14052385522E+03 -0.10909177292E+04  0.11170268680E+04  0.12509219765E+03 0.  0.
         23    2    1    2    0    0 -0.14917278638E+03  0.14052385522E+03 -0.33676228354E+03  0.40465274390E+03  0.91299142629E+02 0.  0.
          5    1    3    3  502    0  0.15204839289E+03 -0.78021038582E+02 -0.67005502869E+03  0.69151804757E+03  0.41800000000E+01 0. -1.
         -5    1    3    3    0  502 -0.28756065082E+01 -0.62502816639E+02 -0.42086270050E+03  0.42550882045E+03  0.41800000000E+01 0. -1.
        -11    1    4    4    0    0 -0.16540064796E+02 -0.10877482689E+02 -0.13905418776E+02  0.24192024398E+02  0.00000000000E+00 0. -1.
         11    1    4    4    0    0 -0.13263272159E+03  0.15140133791E+03 -0.32285686477E+03  0.38046071950E+03  0.00000000000E+00 0.  1.
</event>
<event>
 8    1  0.6185113E-009  0.1771925E+03  0.7561462E-02  0.1170548E+00
          1   -1    0    0  501    0  0.00000000000E+00  0.00000000000E+00  0.27140559978E+04  0.27140559978E+04  0.00000000000E+00 0. -1.
         -1   -1    0    0    0  501 -0.00000000000E+00 -0.00000000000E+00 -0.22877904003E+02  0.22877904003E+02  0.00000000000E+00 0.  1.
         25    2    1    2    0    0 -0.14110419091E+03 -0.32404021588E+02  0.23263408896E+04  0.23341957772E+04  0.12509027971E+03 0.  0.
         23    2    1    2    0    0  0.14110419091E+03  0.32404021588E+02  0.36483720414E+03  0.40273812461E+03  0.90174265625E+02 0.  0.
          5    1    3    3  502    0 -0.11894807727E+03  0.26208301278E+02  0.18001281441E+04  0.18042489650E+04  0.41800000000E+01 0. -1.
         -5    1    3    3    0  502 -0.22156113638E+02 -0.58612322866E+02  0.52621274556E+03  0.52994681220E+03  0.41800000000E+01 0. -1.
        -11    1    4    4    0    0  0.15293311547E+03  0.23110133794E+02  0.34254084825E+03  0.37584152087E+03  0.00000000000E+00 0. -1.
         11    1    4    4    0    0 -0.11828924560E+02  0.92938877947E+01  0.22296355893E+02  0.26896603739E+02  0.00000000000E+00 0.  1.
</event>
<event>
 8    1  0.6185113E-009  0.8681147E+02  0.7561462E-02  0.1310762E+00
          2   -1    0    0  501    0  0.00000000000E+00  0.00000000000E+00  0.30816888908E+03  0.30816888908E+03  0.00000000000E+00 0. -1.
         -2   -1    0    0    0  501 -0.00000000000E+00 -0.00000000000E+00 -0.54993678066E+02  0.54993678066E+02  0.00000000000E+00 0.  1.
         25    2    1    2    0    0 -0.13447826646E+02 -0.38040210453E+02  0.23059913316E+03  0.26542474990E+03  0.12508571459E+03 0.  0.
         23    2    1    2    0    0  0.13447826646E+02  0.38040210453E+02  0.22576077857E+02  0.97737817246E+02  0.86110974770E+02 0.  0.
          5    1    3    3  502    0 -0.68963716110E+02 -0.29414753626E+02  0.13080745989E+03  0.15082866383E+03  0.41800000000E+01 0. -1.
         -5    1    3    3    0  502  0.55515889464E+02 -0.86254568273E+01  0.99791673274E+02  0.11459608607E+03  0.41800000000E+01 0. -1.
        -11    1    4    4    0    0  0.61493228923E+00  0.20247006704E+02 -0.32588561921E+02  0.38371001945E+02  0.00000000000E+00 0.  1.
         11    1    4    4    0    0  0.12832894357E+02  0.17793203749E+02  0.55164639777E+02  0.59366815301E+02  0.00000000000E+00 0. -1.
</event>
<event>
 8    1  0.6185113E-009  0.1924434E+03  0.7561462E-02  0.1156276E+00
         -2   -1    0    0    0  501 -0.00000000000E+00  0.00000000000E+00  0.19670263146E+02  0.19670263146E+02  0.00000000000E+00 0.  1.
          2   -1    0    0  501    0  0.00000000000E+00 -0.00000000000E+00 -0.22543802065E+04  0.22543802065E+04  0.00000000000E+00 0. -1.
         25    2    1    2    0    0  0.21865602363E+02  0.16690666400E+03 -0.15067582727E+04  0.15212837341E+04  0.12509103893E+03 0.  0.
         23    2    1    2    0    0 -0.21865602363E+02 -0.16690666400E+03 -0.72795167062E+03  0.75276673558E+03  0.91696152509E+02 0.  0.
          5    1    3    3  502    0 -0.32923418287E+02  0.13599939542E+03 -0.84369664203E+03  0.85523171316E+03  0.41800000000E+01 0. -1.
         -5    1    3    3    0  502  0.54789020650E+02  0.30907268579E+02 -0.66306163071E+03  0.66605202090E+03  0.41800000000E+01 0. -1.
        -11    1    4    4    0    0 -0.45708412269E+02 -0.84554592440E+02 -0.26384361133E+03  0.28080631990E+03  0.00000000000E+00 0. -1.
         11    1    4    4    0    0  0.23842809906E+02 -0.82352071562E+02 -0.46410805929E+03  0.47196041568E+03  0.00000000000E+00 0.  1.
</event>
<event>
 8    1  0.6185113E-009  0.1557164E+03  0.7561462E-02  0.1193620E+00
         -1   -1    0    0    0  501 -0.00000000000E+00  0.00000000000E+00  0.40189832739E+03  0.40189832739E+03  0.00000000000E+00 0.  1.
          1   -1    0    0  501    0  0.00000000000E+00 -0.00000000000E+00 -0.67030397592E+02  0.67030397592E+02  0.00000000000E+00 0. -1.
         25    2    1    2    0    0  0.48021862314E+02 -0.10313262301E+03  0.11205470018E+03  0.20286328475E+03  0.12511922025E+03 0.  0.
         23    2    1    2    0    0 -0.48021862314E+02  0.10313262301E+03  0.22281322962E+03  0.26606544024E+03  0.90568460332E+02 0.  0.
          5    1    3    3  502    0  0.72704339634E+02 -0.11716538897E+03  0.78554482552E+02  0.15875115276E+03  0.41800000000E+01 0. -1.
         -5    1    3    3    0  502 -0.24682477320E+02  0.14032765958E+02  0.33500217629E+02  0.44112131985E+02  0.41800000000E+01 0. -1.
        -11    1    4    4    0    0 -0.46222678542E+00 -0.16258734832E+02  0.17901129208E+02  0.24186991108E+02  0.00000000000E+00 0. -1.
         11    1    4    4    0    0 -0.47559635529E+02  0.11939135784E+03  0.20491210041E+03  0.24187844913E+03  0.00000000000E+00 0.  1.
</event>
<event>
 8    1  0.6185113E-009  0.1525772E+03  0.7561462E-02  0.1197341E+00
          1   -1    0    0  501    0  0.00000000000E+00  0.00000000000E+00  0.29055822826E+03  0.29055822826E+03  0.00000000000E+00 0. -1.
         -1   -1    0    0    0  501 -0.00000000000E+00 -0.00000000000E+00 -0.90771423855E+02  0.90771423855E+02  0.00000000000E+00 0.  1.
         25    2    1    2    0    0  0.10577519015E+03  0.55059642922E+02  0.15817092802E+03  0.23427710660E+03  0.12509102715E+03 0.  0.
         23    2    1    2    0    0 -0.10577519015E+03 -0.55059642922E+02  0.41615876385E+02  0.14705254552E+03  0.75316763382E+02 0.  0.
          5    1    3    3  502    0  0.23494075121E+01  0.64844794820E+02  0.85547472376E+02  0.10745329014E+03  0.41800000000E+01 0. -1.
         -5    1    3    3    0  502  0.10342578264E+03 -0.97851518981E+01  0.72623455645E+02  0.12682381646E+03  0.41800000000E+01 0. -1.
        -11    1    4    4    0    0 -0.62891355091E+02  0.41779594185E+01  0.24444087702E+00  0.63030450113E+02  0.00000000000E+00 0.  1.
         11    1    4    4    0    0 -0.42883835059E+02 -0.59237602340E+02  0.41371435508E+02  0.84022095406E+02  0.00000000000E+00 0. -1.
</event>
<event>
 8    1  0.6185113E-009  0.9367792E+02  0.7561462E-02  0.1294182E+00
         -2   -1    0    0    0  501 -0.00000000000E+00  0.00000000000E+00  0.11344848383E+02  0.11344848383E+02  0.00000000000E+00 0.  1.
          2   -1    0    0  501    0  0.00000000000E+00 -0.00000000000E+00 -0.12880744282E+04  0.12880744282E+04  0.00000000000E+00 0. -1.
         25    2    1    2    0    0  0.31694015683E+02  0.28052731279E+02 -0.91129121864E+03  0.92080985822E+03  0.12509054103E+03 0.  0.
         23    2    1    2    0    0 -0.31694015683E+02 -0.28052731279E+02 -0.36543836122E+03  0.37860941841E+03  0.89489829003E+02 0.  0.
          5    1    3    3  502    0  0.60988156202E+02  0.56756322423E+01 -0.81961973359E+03  0.82191590086E+03  0.41800000000E+01 0. -1.
         -5    1    3    3    0  502 -0.29294140519E+02  0.22377099037E+02 -0.91671485047E+02  0.98893957353E+02  0.41800000000E+01 0. -1.
        -11    1    4    4    0    0  0.89063620399E+01 -0.44259634142E+02 -0.26850964948E+03  0.27227866307E+03  0.00000000000E+00 0. -1.
         11    1    4    4    0    0 -0.40600377722E+02  0.16206902862E+02 -0.96928711743E+02  0.10633075534E+03  0.00000000000E+00 0.  1.
</event>
<event>
 8    1  0.6185113E-009  0.1309794E+03  0.7561462E-02  0.1226010E+00
          2   -1    0    0  501    0  0.00000000000E+00  0.00000000000E+00  0.95186255965E+03  0.95186255965E+03  0.00000000000E+00 0. -1.
         -2   -1    0    0    0  501 -0.00000000000E+00 -0.00000000000E+00 -0.21831016425E+02  0.21831016425E+02  0.00000000000E+00 0.  1.
         25    2    1    2    0    0 -0.18746172134E+02  0.74936546239E+02  0.69293238185E+03  0.70835936081E+03  0.12510313069E+03 0.  0.
         23    2    1    2    0    0  0.18746172134E+02 -0.74936546239E+02  0.23709916138E+03  0.26533421526E+03  0.90660512517E+02 0.  0.
          5    1    3    3  502    0  0.35496582575E+02  0.81849391502E+02  0.35834565797E+03  0.36930801947E+03  0.41800000000E+01 0.  1.
         -5    1    3    3    0  502 -0.54242754709E+02 -0.69128452624E+01  0.33458672388E+03  0.33905134134E+03  0.41800000000E+01 0.  1.
        -11    1    4    4    0    0  0.39394034346E+02  0.70042029216E+00  0.98629019975E+02  0.10620764620E+03  0.00000000000E+00 0.  1.
         11    1    4    4    0    0 -0.20647862212E+02 -0.75636966532E+02  0.13847014140E+03  0.15912656906E+03  0.00000000000E+00 0. -1.
</event>
<event>
 8    1  0.6185113E-009  0.7531959E+02  0.7561462E-02  0.1342884E+00
          1   -1    0    0  501    0  0.00000000000E+00  0.00000000000E+00  0.87550002896E+02  0.87550002896E+02  0.00000000000E+00 0. -1.
         -1   -1    0    0    0  501 -0.00000000000E+00 -0.00000000000E+00 -0.17570173642E+03  0.17570173642E+03  0.00000000000E+00 0.  1.
         25    2    1    2    0    0  0.16836724179E+01 -0.60690400925E+02 -0.60972518440E+02  0.15182775404E+03  0.12509140407E+03 0.  0.
         23    2    1    2    0    0 -0.16836724179E+01  0.60690400925E+02 -0.27179215084E+02  0.11142398528E+03  0.89389234508E+02 0.  0.
          5    1    3    3  502    0  0.11394995935E+02  0.11570915015E+02  0.30482990853E+02  0.34791049682E+02  0.41800000000E+01 0. -1.
         -5    1    3    3    0  502 -0.97113235166E+01 -0.72261315940E+02 -0.91455509293E+02  0.11703670435E+03  0.41800000000E+01 0. -1.
        -11    1    4    4    0    0  0.12733519698E+01  0.15420103158E+02 -0.55718569632E+02  0.57826983395E+02  0.00000000000E+00 0.  1.
         11    1    4    4    0    0 -0.29570243877E+01  0.45270297767E+02  0.28539354549E+02  0.53597001886E+02  0.00000000000E+00 0. -1.
</event>
<event>
 8    1  0.6185113E-009  0.1059555E+03  0.7561462E-02  0.1268248E+00
          2   -1    0    0  501    0  0.00000000000E+00  0.00000000000E+00  0.23861062214E+03  0.23861062214E+03  0.00000000000E+00 0.  1.
         -2   -1    0    0    0  501 -0.00000000000E+00 -0.00000000000E+00 -0.65800173207E+02  0.65800173207E+02  0.00000000000E+00 0. -1.
         25    2    1    2    0    0  0.25491068064E+02 -0.51793489802E+02  0.13144616048E+03  0.19041523880E+03  0.12509000731E+03 0.  0.
         23    2    1    2    0    0 -0.25491068064E+02  0.51793489802E+02  0.41364288451E+02  0.11399555654E+03  0.89171870085E+02 0.  0.
          5    1    3    3  502    0 -0.27245792853E+02 -0.68496567003E+02  0.41394396810E+02  0.84646803877E+02  0.41800000000E+01 0.  1.
         -5    1    3    3    0  502  0.52736860917E+02  0.16703077201E+02  0.90051763667E+02  0.10576843493E+03  0.41800000000E+01 0.  1.
        -11    1    4    4    0    0 -0.38136128211E+02  0.10706155653E+02  0.55991591196E+02  0.68586035959E+02  0.00000000000E+00 0.  1.
         11    1    4    4    0    0  0.12645060147E+02  0.41087334149E+02 -0.14627302746E+02  0.45409520579E+02  0.00000000000E+00 0. -1.
</event>
<event>
 8    1  0.6185113E-009  0.1288882E+03  0.7561462E-02  0.1229115E+00
         -2   -1    0    0    0  501 -0.00000000000E+00  0.00000000000E+00  0.56048413708E+02  0.56048413708E+02  0.00000000000E+00 0. -1.
          2   -1    0    0  501    0  0.00000000000E+00 -0.00000000000E+00 -0.57537787979E+03  0.57537787979E+03  0.00000000000E+00 0.  1.
         25    2    1    2    0    0 -0.56103641012E+02  0.82969421770E+02 -0.45264188850E+03  0.48017140781E+03  0.12509339776E+03 0.  0.
         23    2    1    2    0    0  0.56103641012E+02 -0.82969421770E+02 -0.66687577578E+02  0.15125488569E+03  0.91647498376E+02 0.  0.
          5    1    3    3  502    0 -0.85075310971E+02  0.29634984835E+02 -0.34430496239E+03  0.35592052538E+03  0.41800000000E+01 0.  1.
         -5    1    3    3    0  502  0.28971669960E+02  0.53334436934E+02 -0.10833692612E+03  0.12425088243E+03  0.41800000000E+01 0.  1.
        -11    1    4    4    0    0 -0.53562969498E+01 -0.10030561534E+02  0.19584238393E+02  0.22646069750E+02  0.00000000000E+00 0. -1.
         11    1    4    4    0    0  0.61459937961E+02 -0.72938860235E+02 -0.86271815971E+02  0.12860881594E+03  0.00000000000E+00 0.  1.
</event>
<event>
 8    1  0.6185113E-009  0.1956677E+03  0.7561462E-02  0.1153446E+00
         -2   -1    0    0    0  501 -0.00000000000E+00  0.00000000000E+00  0.13524333676E+03  0.13524333676E+03  0.00000000000E+00 0.  1.
          2   -1    0    0  501    0  0.00000000000E+00 -0.00000000000E+00 -0.36751878709E+03  0.36751878709E+03  0.00000000000E+00 0. -1.
         25    2    1    2    0    0 -0.10083427944E+03  0.14892098088E+03 -0.20360043605E+03  0.29907242084E+03  0.12508463090E+03 0.  0.
         23    2    1    2    0    0  0.10083427944E+03 -0.14892098088E+03 -0.28675014278E+02  0.20368970302E+03  0.91226247398E+02 0.  0.
          5    1    3    3  502    0 -0.78835075027E+02  0.61333732820E+02 -0.17957945979E+03  0.20553114268E+03  0.41800000000E+01 0. -1.
         -5    1    3    3    0  502 -0.21999204417E+02  0.87587248060E+02 -0.24020976265E+02  0.93541278153E+02  0.41800000000E+01 0. -1.
        -11    1    4    4    0    0 -0.10617661161E+02 -0.52575593610E+02 -0.18377922067E+00  0.53637314873E+02  0.00000000000E+00 0. -1.
         11    1    4    4    0    0  0.11145194061E+03 -0.96345387271E+02 -0.28491235057E+02  0.15005238815E+03  0.00000000000E+00 0.  1.
</event>
<event>
 8    1  0.6185113E-009  0.1170034E+03  0.7561462E-02  0.1248124E+00
          2   -1    0    0  501    0  0.00000000000E+00  0.00000000000E+00  0.38460018379E+03  0.38460018379E+03  0.00000000000E+00 0.  1.
         -2   -1    0    0    0  501 -0.00000000000E+00 -0.00000000000E+00 -0.38860532613E+02  0.38860532613E+02  0.00000000000E+00 0. -1.
         25    2    1    2    0    0 -0.31380705379E+02 -0.38263382837E+02  0.23486322017E+03  0.27065945205E+03  0.12508785577E+03 0.  0.
         23    2    1    2    0    0  0.31380705379E+02  0.38263382837E+02  0.11087643100E+03  0.15280126435E+03  0.92767495910E+02 0.  0.
          5    1    3    3  502    0  0.25612643194E+02 -0.63026368466E+02  0.89364676513E+02  0.11239149622E+03  0.41800000000E+01 0.  1.
         -5    1    3    3    0  502 -0.56993348573E+02  0.24762985629E+02  0.14549854366E+03  0.15826795584E+03  0.41800000000E+01 0.  1.
        -11    1    4    4    0    0 -0.22821473414E+02  0.43487921911E+02  0.65823163765E+02  0.82126170548E+02  0.00000000000E+00 0.  1.
         11    1    4    4    0    0  0.54202178793E+02 -0.52245390736E+01  0.45053267239E+02  0.70675093798E+02  0.00000000000E+00 0. -1.
</event>
<event>
 8    1  0.6185113E-009  0.9692025E+02  0.7561462E-02  0.1286909E+00
          1   -1    0    0  501    0  0.00000000000E+00  0.00000000000E+00  0.47770932534E+03  0.47770932534E+03  0.00000000000E+00 0. -1.
         -1   -1    0    0    0  501 -0.00000000000E+00 -0.00000000000E+00 -0.32420724783E+02  0.32420724783E+02  0.00000000000E+00 0.  1.
         25    2    1    2    0    0 -0.37484061142E+02  0.38766571909E+02  0.29826610932E+03  0.32789151003E+03  0.12506905470E+03 0.  0.
         23    2    1    2    0    0  0.37484061142E+02 -0.38766571909E+02  0.14702249123E+03  0.18223854009E+03  0.93206065404E+02 0.  0.
          5    1    3    3  502    0 -0.48005611709E+02  0.54939151636E+02  0.78536167794E+02  0.10727651742E+03  0.41800000000E+01 0. -1.
         -5    1    3    3    0  502  0.10521550567E+02 -0.16172579726E+02  0.21972994153E+03  0.22061499261E+03  0.41800000000E+01 0. -1.
        -11    1    4    4    0    0  0.63221969508E+02 -0.40734409919E+02  0.77113959667E+02  0.10771662989E+03  0.00000000000E+00 0.  1.
         11    1    4    4    0    0 -0.25737908366E+02  0.19678380100E+01  0.69908531568E+02  0.74521910198E+02  0.00000000000E+00 0. -1.
</event>
<event>
 8    1  0.6185113E-009  0.1088379E+03  0.7561462E-02  0.1262737E+00
          3   -1    0    0  501    0  0.00000000000E+00  0.00000000000E+00  0.28371156398E+03  0.28371156398E+03  0.00000000000E+00 0. -1.
         -3   -1    0    0    0  501 -0.00000000000E+00 -0.00000000000E+00 -0.73839769007E+02  0.73839769007E+02  0.00000000000E+00 0.  1.
         25    2    1    2    0    0  0.54548343111E+02  0.77926498660E+02  0.72448054153E+02  0.17303988132E+03  0.12508404793E+03 0.  0.
         23    2    1    2    0    0 -0.54548343111E+02 -0.77926498660E+02  0.13742374082E+03  0.18451145167E+03  0.78173718894E+02 0.  0.
          5    1    3    3  502    0  0.34039426094E+02  0.89190420266E+02 -0.12901807599E+01  0.95565425560E+02  0.41800000000E+01 0.  1.
         -5    1    3    3    0  502  0.20508917017E+02 -0.11263921606E+02  0.73738234913E+02  0.77474455759E+02  0.41800000000E+01 0.  1.
        -11    1    4    4    0    0 -0.27490494006E+02 -0.18735376137E+02  0.10814532960E+03  0.11314660355E+03  0.00000000000E+00 0. -1.
         11    1    4    4    0    0 -0.27057849105E+02 -0.59191122522E+02  0.29278411218E+02  0.71364848119E+02  0.00000000000E+00 0.  1.
</event>
<event>
 8    1  0.6185113E-009  0.1014023E+03  0.7561462E-02  0.1277374E+00
         -1   -1    0    0    0  501 -0.00000000000E+00  0.00000000000E+00  0.14666454972E+03  0.14666454972E+03  0.00000000000E+00 0.  1.
          1   -1    0    0  501    0  0.00000000000E+00 -0.00000000000E+00 -0.80560438659E+02  0.80560438659E+02  0.00000000000E+00 0. -1.
         25    2    1    2    0    0  0.55836257439E+01 -0.30925924333E+02  0.39051271927E+02  0.13475840138E+03  0.12508890931E+03 0.  0.
         23    2    1    2    0    0 -0.55836257439E+01  0.30925924333E+02  0.27052839137E+02  0.92466586998E+02  0.82647588794E+02 0.  0.
          5    1    3    3  502    0  0.39377320194E+02 -0.59990935926E+02  0.51340326652E+02  0.88333387118E+02  0.41800000000E+01 0. -1.
         -5    1    3    3    0  502 -0.33793694450E+02  0.29065011593E+02 -0.12289054725E+02  0.46425014265E+02  0.41800000000E+01 0. -1.
        -11    1    4    4    0    0  0.14949743246E+02 -0.23573837755E+02 -0.76399256186E+00  0.27924976889E+02  0.00000000000E+00 0.  1.
         11    1    4    4    0    0 -0.20533368990E+02  0.54499762088E+02  0.27816831699E+02  0.64541610109E+02  0.00000000000E+00 0. -1.
</event>
<event>
 8    1  0.6185113E-009  0.1162597E+03  0.7561462E-02  0.1249398E+00
          1   -1    0    0  501    0  0.00000000000E+00  0.00000000000E+00  0.53766085509E+03  0.53766085509E+03  0.00000000000E+00 0. -1.
         -1   -1    0    0    0  501 -0.00000000000E+00 -0.00000000000E+00 -0.30641166778E+02  0.30641166778E+02  0.00000000000E+00 0.  1.
         25    2    1    2    0    0 -0.31115448006E+02  0.66463470180E+02  0.24769107452E+03  0.28702607930E+03  0.12509011882E+03 0.  0.
         23    2    1    2    0    0  0.31115448006E+02 -0.66463470180E+02  0.25932861379E+03  0.28127594257E+03  0.80493862908E+02 0.  0.
          5    1    3    3  502    0 -0.12473822313E+02 -0.37197548924E+02  0.61481520631E+02  0.73052745795E+02  0.41800000000E+01 0. -1.
         -5    1    3    3    0  502 -0.18641625693E+02  0.10366101910E+03  0.18620955389E+03  0.21397333350E+03  0.41800000000E+01 0. -1.
        -11    1    4    4    0    0 -0.12883563399E+02 -0.11655587216E+02  0.60033872899E+01  0.18381500977E+02  0.00000000000E+00 0.  1.
         11    1    4    4    0    0  0.43999011405E+02 -0.54807882964E+02  0.25332522650E+03  0.26289444159E+03  0.00000000000E+00 0. -1.
</event>
<event>
 8    1  0.6185113E-009  0.9829153E+02  0.7561462E-02  0.1283930E+00
          1   -1    0    0  501    0  0.00000000000E+00  0.00000000000E+00  0.25066153893E+03  0.25066153893E+03  0.00000000000E+00 0. -1.
         -1   -1    0    0    0  501 -0.00000000000E+00 -0.00000000000E+00 -0.56838666800E+02  0.56838666800E+02  0.00000000000E+00 0.  1.
         25    2    1    2    0    0  0.40175099315E+01 -0.15813111895E+02  0.16977443461E+03  0.21151298196E+03  0.12509271760E+03 0.  0.
         23    2    1    2    0    0 -0.40175099315E+01  0.15813111895E+02  0.24048437519E+02  0.95987223769E+02  0.91482374728E+02 0.  0.
          5    1    3    3  502    0 -0.52263402002E+02 -0.18433130785E+02  0.35787441684E+02  0.66101867460E+02  0.41800000000E+01 0.  1.
         -5    1    3    3    0  502  0.56280911934E+02  0.26200188908E+01  0.13398699293E+03  0.14541111450E+03  0.41800000000E+01 0.  1.
        -11    1    4    4    0    0  0.56076889381E+01  0.49325321159E+02  0.33466961547E+02  0.59870451793E+02  0.00000000000E+00 0.  1.
         11    1    4    4    0    0 -0.96251988696E+01 -0.33512209265E+02 -0.94185240283E+01  0.36116771976E+02  0.00000000000E+00 0. -1.
</event>
<event>
 8    1  0.6185113E-009  0.7768182E+02  0.7561462E-02  0.1335762E+00
         -2   -1    0    0    0  501 -0.00000000000E+00  0.00000000000E+00  0.43466275139E+02  0.43466275139E+02  0.00000000000E+00 0.  1.
          2   -1    0    0  501    0  0.00000000000E+00 -0.00000000000E+00 -0.32473878921E+03  0.32473878921E+03  0.00000000000E+00 0. -1.
         25    2    1    2    0    0 -0.29030697671E+02  0.18983340185E+02 -0.21128156294E+03  0.24796886210E+03  0.12508200959E+03 0.  0.
         23    2    1    2    0    0  0.29030697671E+02 -0.18983340185E+02 -0.69990951131E+02  0.12023620225E+03  0.91404936839E+02 0.  0.
          5    1    3    3  502    0 -0.56185937836E+02 -0.11178186165E+02 -0.19625870184E+03  0.20449147147E+03  0.41800000000E+01 0. -1.
         -5    1    3    3    0  502  0.27155240165E+02  0.30161526350E+02 -0.15022861096E+02  0.43477390627E+02  0.41800000000E+01 0. -1.
        -11    1    4    4    0    0  0.46695338390E+01 -0.30019411247E+02  0.12998094524E+02  0.33044213701E+02  0.00000000000E+00 0.  1.
         11    1    4    4    0    0  0.24361163832E+02  0.11036071062E+02 -0.82989045655E+02  0.87191988545E+02  0.00000000000E+00 0. -1.
</event>
<event>
 8    1  0.6185113E-009  0.1473252E+03  0.7561462E-02  0.1203799E+00
         -1   -1    0    0    0  501 -0.00000000000E+00  0.00000000000E+00  0.30673186810E+02  0.30673186810E+02  0.00000000000E+00 0.  1.
          1   -1    0    0  501    0  0.00000000000E+00 -0.00000000000E+00 -0.80156713636E+03  0.80156713636E+03  0.00000000000E+00 0. -1.
         25    2    1    2    0    0 -0.46612572246E+02  0.10551033921E+03 -0.37634393086E+03  0.41302221343E+03  0.12508969153E+03 0.  0.
         23    2    1    2    0    0  0.46612572246E+02 -0.10551033921E+03 -0.39455001869E+03  0.41921810973E+03  0.82273584509E+02 0.  0.
          5    1    3    3  502    0 -0.72983623174E+02  0.21247266059E+02 -0.22762326971E+03  0.24001641794E+03  0.41800000000E+01 0. -1.
         -5    1    3    3    0  502  0.26371050927E+02  0.84263073149E+02 -0.14872066114E+03  0.17300579549E+03  0.41800000000E+01 0. -1.
        -11    1    4    4    0    0 -0.12187496790E+02 -0.40143527024E+01 -0.76747164222E+01  0.14951634619E+02  0.00000000000E+00 0.  1.
         11    1    4    4    0    0  0.58800069036E+02 -0.10149598651E+03 -0.38687530227E+03  0.40426647511E+03  0.00000000000E+00 0. -1.
</event>
<event>
 8    1  0.6185113E-009  0.1418085E+03  0.7561462E-02  0.1210916E+00
          2   -1    0    0  501    0  0.00000000000E+00  0.00000000000E+00  0.39582571527E+03  0.39582571527E+03  0.00000000000E+00 0. -1.
         -2   -1    0    0    0  501 -0.00000000000E+00 -0.00000000000E+00 -0.68670454945E+02  0.68670454945E+02  0.00000000000E+00 0.  1.
         25    2    1    2    0    0  0.22594143170E+02  0.91236702971E+02  0.28901028658E+03  0.32864769887E+03  0.12509089875E+03 0.  0.
         23    2    1    2    0    0 -0.22594143170E+02 -0.91236702971E+02  0.38144973748E+02  0.13584847134E+03  0.90361146904E+02 0.  0.
          5    1    3    3  502    0 -0.51320390049E+02  0.31139501214E+02  0.94687955162E+02  0.11219060666E+03  0.41800000000E+01 0.  1.
         -5    1    3    3    0  502  0.73914533219E+02  0.60097201756E+02  0.19432233142E+03  0.21645709221E+03  0.41800000000E+01 0.  1.
        -11    1    4    4    0    0 -0.54473430868E+02 -0.39383395002E+02  0.32657918711E+02  0.74732497129E+02  0.00000000000E+00 0.  1.
         11    1    4    4    0    0  0.31879287698E+02 -0.51853307968E+02  0.54870550362E+01  0.61115974216E+02  0.00000000000E+00 0. -1.
</event>
<event>
 8    1  0.6185113E-009  0.2140673E+03  0.7561462E-02  0.1138385E+00
         -2   -1    0    0    0  501 -0.00000000000E+00  0.00000000000E+00  0.57031605594E+02  0.57031605594E+02  0.00000000000E+00 0. -1.
          2   -1    0    0  501    0  0.00000000000E+00 -0.00000000000E+00 -0.10611174243E+04  0.10611174243E+04  0.00000000000E+00 0.  1.
         25    2    1    2    0    0 -0.56153161364E+02  0.20117151546E+03 -0.36185005561E+03  0.43612570486E+03  0.12508801515E+03 0.  0.
         23    2    1    2    0    0  0.56153161364E+02 -0.20117151546E+03 -0.64223576311E+03  0.68202332505E+03  0.95214937492E+02 0.  0.
          5    1    3    3  502    0 -0.14954157915E+02  0.28820835829E+02 -0.17707606807E+03  0.18007685498E+03  0.41800000000E+01 0.  1.
         -5    1    3    3    0  502 -0.41199003449E+02  0.17235067963E+03 -0.18477398754E+03  0.25604884989E+03  0.41800000000E+01 0.  1.
        -11    1    4    4    0    0  0.69657913478E+02 -0.18023169671E+03 -0.61704525080E+03  0.64659147145E+03  0.00000000000E+00 0.  1.
         11    1    4    4    0    0 -0.13504752115E+02 -0.20939818752E+02 -0.25190512309E+02  0.35431853599E+02  0.00000000000E+00 0. -1.
</event>
<event>
 8    1  0.6185113E-009  0.8120442E+02  0.7561462E-02  0.1325668E+00
         -1   -1    0    0    0  501 -0.00000000000E+00  0.00000000000E+00  0.25897791199E+02  0.25897791199E+02  0.00000000000E+00 0.  1.
          1   -1    0    0  501    0  0.00000000000E+00 -0.00000000000E+00 -0.52206680342E+03  0.52206680342E+03  0.00000000000E+00 0. -1.
         25    2    1    2    0    0  0.13377227231E+02  0.24495061683E+02 -0.21689542019E+03  0.25193568381E+03  0.12509599203E+03 0.  0.
         23    2    1    2    0    0 -0.13377227231E+02 -0.24495061683E+02 -0.27927359203E+03  0.29602891081E+03  0.94129796410E+02 0.  0.
          5    1    3    3  502    0  0.33458638027E+02  0.27517323214E+02 -0.10855603613E+02  0.44855323712E+02  0.41800000000E+01 0. -1.
         -5    1    3    3    0  502 -0.20081410796E+02 -0.30222615305E+01 -0.20603981657E+03  0.20708036010E+03  0.41800000000E+01 0. -1.
        -11    1    4    4    0    0 -0.77889795300E+01 -0.60862747698E+02 -0.17122375894E+03  0.18188600244E+03  0.00000000000E+00 0.  1.
         11    1    4    4    0    0 -0.55882477015E+01  0.36367686015E+02 -0.10804983309E+03  0.11414290837E+03  0.00000000000E+00 0. -1.
</event>
<event>
 8    1  0.6185113E-009  0.9675534E+02  0.7561462E-02  0.1287271E+00
         -1   -1    0    0    0  501 -0.00000000000E+00  0.00000000000E+00  0.12943999618E+03  0.12943999618E+03  0.00000000000E+00 0.  1.
          1   -1    0    0  501    0  0.00000000000E+00 -0.00000000000E+00 -0.27798478091E+03  0.27798478091E+03  0.00000000000E+00 0. -1.
         25    2    1    2    0    0 -0.63088207086E+01 -0.35127504550E+02  0.84293210314E+02  0.15500617915E+03  0.12509127658E+03 0.  0.
         23    2    1    2    0    0  0.63088207086E+01  0.35127504550E+02 -0.23283799504E+03  0.25241859793E+03  0.90707628415E+02 0.  0.
          5    1    3    3  502    0  0.39252769387E+02 -0.18362211735E+01 -0.13721149132E+02  0.41831733723E+02  0.41800000000E+01 0. -1.
         -5    1    3    3    0  502 -0.45561590096E+02 -0.33291283376E+02  0.98014359447E+02  0.11317444543E+03  0.41800000000E+01 0. -1.
        -11    1    4    4    0    0  0.47109336524E+02  0.64710387917E+01 -0.10902383834E+03  0.11894268056E+03  0.00000000000E+00 0.  1.
         11    1    4    4    0    0 -0.40800515815E+02  0.28656465758E+02 -0.12381415670E+03  0.13347591738E+03  0.00000000000E+00 0. -1.
</event>
<event>
 8    1  0.6185113E-009  0.1828395E+03  0.7561462E-02  0.1165083E+00
         -1   -1    0    0    0  501 -0.00000000000E+00  0.00000000000E+00  0.43880233788E+02  0.43880233788E+02  0.00000000000E+00 0.  1.
          1   -1    0    0  501    0  0.00000000000E+00 -0.00000000000E+00 -0.88323908673E+03  0.88323908673E+03  0.00000000000E+00 0. -1.
         25    2    1    2    0    0 -0.13231455259E+03 -0.78691184324E+02 -0.57338623919E+03  0.60672986808E+03  0.12509960115E+03 0.  0.
         23    2    1    2    0    0  0.13231455259E+03  0.78691184324E+02 -0.26597261375E+03  0.32038945244E+03  0.90600919705E+02 0.  0.
          5    1    3    3  502    0 -0.13643000116E+03 -0.22631473443E+02 -0.45571726595E+03  0.47625731248E+03  0.41800000000E+01 0. -1.
         -5    1    3    3    0  502  0.41154485692E+01 -0.56059710880E+02 -0.11766897324E+03  0.13047255560E+03  0.41800000000E+01 0. -1.
        -11    1    4    4    0    0  0.68592655708E+02 -0.14011285218E+01 -0.63336155448E+02  0.93372287993E+02  0.00000000000E+00 0.  1.
         11    1    4    4    0    0  0.63721896879E+02  0.80092312846E+02 -0.20263645830E+03  0.22701716444E+03  0.00000000000E+00 0. -1.
</event>
<event>
 8    1  0.6185113E-009  0.1728610E+03  0.7561462E-02  0.1174897E+00
          1   -1    0    0  501    0  0.00000000000E+00  0.00000000000E+00  0.29482009765E+04  0.29482009765E+04  0.00000000000E+00 0. -1.
         -1   -1    0    0    0  501 -0.00000000000E+00 -0.00000000000E+00 -0.18975636656E+02  0.18975636656E+02  0.00000000000E+00 0.  1.
         25    2    1    2    0    0 -0.45987719700E+02 -0.13733911755E+03  0.24579652785E+04  0.24654040638E+04  0.12508790469E+03 0.  0.
         23    2    1    2    0    0  0.45987719700E+02  0.13733911755E+03  0.47126006139E+03  0.50177254941E+03  0.93342071463E+02 0.  0.
          5    1    3    3  502    0  0.26120952354E+02 -0.80203237050E+02  0.70836838978E+03  0.71338496720E+03  0.41800000000E+01 0.  1.
         -5    1    3    3    0  502 -0.72108672053E+02 -0.57135880495E+02  0.17495968887E+04  0.17520190966E+04  0.41800000000E+01 0.  1.
        -11    1    4    4    0    0  0.27130865716E+01  0.12380005683E+03  0.38341235151E+03  0.40291295114E+03  0.00000000000E+00 0. -1.
         11    1    4    4    0    0  0.43274633128E+02  0.13539060719E+02  0.87847709885E+02  0.98859598267E+02  0.00000000000E+00 0.  1.
</event>
<event>
 8    1  0.6185113E-009  0.8838006E+02  0.7561462E-02  0.1306823E+00
          3   -1    0    0  501    0  0.00000000000E+00  0.00000000000E+00  0.19450007967E+02  0.19450007967E+02  0.00000000000E+00 0. -1.
         -3   -1    0    0    0  501 -0.00000000000E+00 -0.00000000000E+00 -0.78800937758E+03  0.78800937758E+03  0.00000000000E+00 0.  1.
         25    2    1    2    0    0  0.41928276652E+01 -0.11063498285E+02 -0.60305582519E+03  0.61601035364E+03  0.12510973861E+03 0.  0.
         23    2    1    2    0    0 -0.41928276652E+01  0.11063498285E+02 -0.16550354442E+03  0.19144903191E+03  0.95505642788E+02 0.  0.
          5    1    3    3  502    0  0.24145482945E+02  0.27776739658E+02 -0.55652136520E+02  0.66851958175E+02  0.41800000000E+01 0.  1.
         -5    1    3    3    0  502 -0.19952655280E+02 -0.38840237943E+02 -0.54740368867E+03  0.54915839546E+03  0.41800000000E+01 0.  1.
        -11    1    4    4    0    0 -0.11450279183E+02  0.52526907207E+02 -0.10119614793E+03  0.11458990021E+03  0.00000000000E+00 0.  1.
         11    1    4    4    0    0  0.72574515174E+01 -0.41463408922E+02 -0.64307396490E+02  0.76859131697E+02  0.00000000000E+00 0. -1.
</event>
<event>
 8    1  0.6185113E-009  0.1151300E+03  0.7561462E-02  0.1251354E+00
          2   -1    0    0  501    0  0.00000000000E+00  0.00000000000E+00  0.16553803624E+03  0.16553803624E+03  0.00000000000E+00 0. -1.
         -2   -1    0    0    0  501 -0.00000000000E+00 -0.00000000000E+00 -0.11048858108E+03  0.11048858108E+03  0.00000000000E+00 0.  1.
         25    2    1    2    0    0 -0.63128664489E+02  0.49709834783E+02  0.12621170501E+02  0.14921065081E+03  0.12509287916E+03 0.  0.
         23    2    1    2    0    0  0.63128664489E+02 -0.49709834783E+02  0.42428284655E+02  0.12681596651E+03  0.88463744374E+02 0.  0.
          5    1    3    3  502    0 -0.41267906695E+01  0.51906700525E+02  0.55426733577E+02  0.76163844150E+02  0.41800000000E+01 0.  1.
         -5    1    3    3    0  502 -0.59001873820E+02 -0.21968657419E+01 -0.42805563076E+02  0.73046806663E+02  0.41800000000E+01 0.  1.
        -11    1    4    4    0    0 -0.20615264088E+02  0.15020613581E+01  0.12664496671E+02  0.24241179378E+02  0.00000000000E+00 0.  1.
         11    1    4    4    0    0  0.83743928577E+02 -0.51211896142E+02  0.29763787984E+02  0.10257478713E+03  0.00000000000E+00 0. -1.
</event>
<event>
 8    1  0.6185113E-009  0.5901510E+02  0.7561462E-02  0.1402012E+00
         -1   -1    0    0    0  501 -0.00000000000E+00  0.00000000000E+00  0.65345267881E+03  0.65345267881E+03  0.00000000000E+00 0.  1.
          1   -1    0    0  501    0  0.00000000000E+00 -0.00000000000E+00 -0.21947921117E+02  0.21947921117E+02  0.00000000000E+00 0. -1.
         25    2    1    2    0    0  0.12427492234E+02  0.34361921581E+02  0.45613773063E+03  0.47438660845E+03  0.12508333525E+03 0.  0.
         23    2    1    2    0    0 -0.12427492234E+02 -0.34361921581E+02  0.17536702706E+03  0.20101399148E+03  0.91202227878E+02 0.  0.
          5    1    3    3  502    0 -0.81352094237E+01  0.33057844821E+02  0.24294931640E+02  0.42032354680E+02  0.41800000000E+01 0.  1.
         -5    1    3    3    0  502  0.20562701658E+02  0.13040767603E+01  0.43184279899E+03  0.43235425377E+03  0.41800000000E+01 0.  1.
        -11    1    4    4    0    0 -0.28017555977E+02 -0.36368135568E+01  0.16137120672E+03  0.16382574955E+03  0.00000000000E+00 0.  1.
         11    1    4    4    0    0  0.15590063743E+02 -0.30725108025E+02  0.13995820340E+02  0.37188241927E+02  0.00000000000E+00 0. -1.
</event>
<event>
 8    1  0.6185113E-009  0.8294987E+02  0.7561462E-02  0.1320883E+00
         -4   -1    0    0    0  501 -0.00000000000E+00  0.00000000000E+00  0.13488950451E+03  0.13488950451E+03  0.00000000000E+00 0. -1.
          4   -1    0    0  501    0  0.00000000000E+00 -0.00000000000E+00 -0.17671561584E+03  0.17671561584E+03  0.00000000000E+00 0.  1.
         25    2    1    2    0    0  0.33963972215E+02 -0.73499198107E+02 -0.97080104538E+02  0.17784216220E+03  0.12509038503E+03 0.  0.
         23    2    1    2    0    0 -0.33963972215E+02  0.73499198107E+02  0.55253993210E+02  0.13376295814E+03  0.91015612259E+02 0.  0.
          5    1    3    3  502    0  0.15104233353E+02 -0.20265387962E+02 -0.11548786494E+03  0.11829515274E+03  0.41800000000E+01 0.  1.
         -5    1    3    3    0  502  0.18859738861E+02 -0.53233810144E+02  0.18407760400E+02  0.59547009457E+02  0.41800000000E+01 0.  1.
        -11    1    4    4    0    0 -0.29346676730E+02  0.38812295530E+02 -0.18557385771E+02  0.52076849809E+02  0.00000000000E+00 0.  1.
         11    1    4    4    0    0 -0.46172954850E+01  0.34686902576E+02  0.73811378980E+02  0.81686108335E+02  0.00000000000E+00 0. -1.
</event>
<event>
 8    1  0.6185113E-009  0.1121042E+03  0.7561462E-02  0.1256722E+00
          1   -1    0    0  501    0  0.00000000000E+00  0.00000000000E+00  0.25260057407E+03  0.25260057407E+03  0.00000000000E+00 0. -1.
         -1   -1    0    0    0  501 -0.00000000000E+00 -0.00000000000E+00 -0.80159074314E+02  0.80159074314E+02  0.00000000000E+00 0.  1.
         25    2    1    2    0    0 -0.75455744490E+02 -0.46224114940E+02  0.12099418173E+03  0.19523819565E+03  0.12509245721E+03 0.  0.
         23    2    1    2    0    0  0.75455744490E+02  0.46224114940E+02  0.51447318025E+02  0.13752145273E+03  0.91842720179E+02 0.  0.
          5    1    3    3  502    0 -0.66781775719E+01  0.15247325052E+02 -0.20214907609E+02  0.26517802822E+02  0.41800000000E+01 0.  1.
         -5    1    3    3    0  502 -0.68777566918E+02 -0.61471439991E+02  0.14120908934E+03  0.16872039283E+03  0.41800000000E+01 0.  1.
        -11    1    4    4    0    0  0.30768714535E+02 -0.18613744449E+02  0.46276355840E+02  0.58606197509E+02  0.00000000000E+00 0. -1.
         11    1    4    4    0    0  0.44687029954E+02  0.64837859389E+02  0.51709621846E+01  0.78915255219E+02  0.00000000000E+00 0.  1.
</event>
<event>
 8    1  0.6185113E-009  0.1043903E+03  0.7561462E-02  0.1271326E+00
          1   -1    0    0  501    0  0.00000000000E+00  0.00000000000E+00  0.11863896210E+03  0.11863896210E+03  0.00000000000E+00 0. -1.
         -1   -1    0    0    0  501 -0.00000000000E+00 -0.00000000000E+00 -0.13340444355E+03  0.13340444355E+03  0.00000000000E+00 0.  1.
         25    2    1    2    0    0 -0.17816703605E+02 -0.56869030237E+02 -0.53828159441E+02  0.14865459823E+03  0.12509675176E+03 0.  0.
         23    2    1    2    0    0  0.17816703605E+02  0.56869030237E+02  0.39062677989E+02  0.10338880741E+03  0.74912156280E+02 0.  0.
          5    1    3    3  502    0 -0.68461463602E+01 -0.87406886780E+02 -0.25289806820E+01  0.87810601409E+02  0.41800000000E+01 0.  1.
         -5    1    3    3    0  502 -0.10970557244E+02  0.30537856543E+02 -0.51299178758E+02  0.60843996826E+02  0.41800000000E+01 0.  1.
        -11    1    4    4    0    0 -0.24782378879E+02  0.23820212772E+02  0.35408984569E+02  0.49349417703E+02  0.00000000000E+00 0. -1.
         11    1    4    4    0    0  0.42599082484E+02  0.33048817466E+02  0.36536934203E+01  0.54039389707E+02  0.00000000000E+00 0.  1.
</event>
<event>
 8    1  0.6185113E-009  0.1232181E+03  0.7561462E-02  0.1237881E+00
          1   -1    0    0  501    0  0.00000000000E+00  0.00000000000E+00  0.28594252924E+03  0.28594252924E+03  0.00000000000E+00 0. -1.
         -1   -1    0    0    0  501 -0.00000000000E+00 -0.00000000000E+00 -0.70523772887E+02  0.70523772887E+02  0.00000000000E+00 0.  1.
         25    2    1    2    0    0  0.77375828997E+02 -0.30426344502E+02  0.70718513941E+02  0.16602064851E+03  0.12509582793E+03 0.  0.
         23    2    1    2    0    0 -0.77375828997E+02  0.30426344502E+02  0.14470024241E+03  0.19044565361E+03  0.91752958933E+02 0.  0.
          5    1    3    3  502    0 -0.21771548381E+02  0.20166388216E+02 -0.62667335263E+01  0.30617444075E+02  0.41800000000E+01 0.  1.
         -5    1    3    3    0  502  0.99147377378E+02 -0.50592732717E+02  0.76985247467E+02  0.13540320444E+03  0.41800000000E+01 0.  1.
        -11    1    4    4    0    0 -0.14238645545E+02 -0.19808744233E+02  0.89301981930E+02  0.92574128954E+02  0.00000000000E+00 0. -1.
         11    1    4    4    0    0 -0.63137183452E+02  0.50235088734E+02  0.55398260480E+02  0.97871524656E+02  0.00000000000E+00 0.  1.
</event>
<event>
 8    1  0.6185113E-009  0.1016272E+03  0.7561462E-02  0.1276911E+00
         -1   -1    0    0    0  501 -0.00000000000E+00  0.00000000000E+00  0.22183216401E+03  0.22183216401E+03  0.00000000000E+00 0.  1.
          1   -1    0    0  501    0  0.00000000000E+00 -0.00000000000E+00 -0.10313665982E+03  0.10313665982E+03  0.00000000000E+00 0. -1.
         25    2    1    2    0    0 -0.25037628061E+02  0.63157964829E+02  0.14964015764E+03  0.20653236898E+03  0.12509049251E+03 0.  0.
         23    2    1    2    0    0  0.25037628061E+02 -0.63157964829E+02 -0.30944653453E+02  0.11843645485E+03  0.91944607891E+02 0.  0.
          5    1    3    3  502    0 -0.44618184424E+02  0.37773017574E+02  0.16172460068E+03  0.17201715642E+03  0.41800000000E+01 0. -1.
         -5    1    3    3    0  502  0.19580556363E+02  0.25384947255E+02 -0.12084443036E+02  0.34515212561E+02  0.41800000000E+01 0. -1.
        -11    1    4    4    0    0  0.56528586713E+02 -0.22392346093E+02 -0.27721293341E+02  0.66823411944E+02  0.00000000000E+00 0.  1.
         11    1    4    4    0    0 -0.31490958652E+02 -0.40765618736E+02 -0.32233601120E+01  0.51613042907E+02  0.00000000000E+00 0. -1.
</event>
<event>
 8    1  0.6185113E-009  0.1246682E+03  0.7561462E-02  0.1235589E+00
         -2   -1    0    0    0  501 -0.00000000000E+00  0.00000000000E+00  0.37830580235E+02  0.37830580235E+02  0.00000000000E+00 0.  1.
          2   -1    0    0  501    0  0.00000000000E+00 -0.00000000000E+00 -0.68267602462E+03  0.68267602462E+03  0.00000000000E+00 0. -1.
         25    2    1    2    0    0 -0.69404635252E+02 -0.95165471318E+02 -0.33801526053E+03  0.37917823492E+03  0.12509335376E+03 0.  0.
         23    2    1    2    0    0  0.69404635252E+02  0.95165471318E+02 -0.30683018385E+03  0.34132836994E+03  0.92123960387E+02 0.  0.
          5    1    3    3  502    0 -0.22051403716E+02 -0.16676791501E+02  0.98425676630E+00  0.27978937470E+02  0.41800000000E+01 0.  1.
         -5    1    3    3    0  502 -0.47353231537E+02 -0.78488679818E+02 -0.33899951730E+03  0.35119929745E+03  0.41800000000E+01 0.  1.
        -11    1    4    4    0    0  0.15372581880E+02  0.66881551610E+02 -0.24520516826E+03  0.25462724277E+03  0.00000000000E+00 0. -1.
         11    1    4    4    0    0  0.54032053373E+02  0.28283919708E+02 -0.61625015592E+02  0.86701127169E+02  0.00000000000E+00 0.  1.
</event>
<event>
 8    1  0.6185113E-009  0.1003087E+03  0.7561462E-02  0.1279648E+00
         -1   -1    0    0    0  501 -0.00000000000E+00  0.00000000000E+00  0.36742570891E+02  0.36742570891E+02  0.00000000000E+00 0.  1.
          1   -1    0    0  501    0  0.00000000000E+00 -0.00000000000E+00 -0.37810643916E+03  0.37810643916E+03  0.00000000000E+00 0. -1.
         25    2    1    2    0    0  0.90724216306E+01  0.27417107274E+01 -0.11302227955E+03  0.16886051631E+03  0.12510000992E+03 0.  0.
         23    2    1    2    0    0 -0.90724216306E+01 -0.27417107274E+01 -0.22834158872E+03  0.24598849374E+03  0.90997978565E+02 0.  0.
          5    1    3    3  502    0 -0.34849869884E+02 -0.46855861486E+02 -0.60748487624E+02  0.84367270521E+02  0.41800000000E+01 0. -1.
         -5    1    3    3    0  502  0.43922291514E+02  0.49597572213E+02 -0.52273791922E+02  0.84493245785E+02  0.41800000000E+01 0. -1.
        -11    1    4    4    0    0  0.15389240334E+02  0.30650913860E+02 -0.37961694835E+02  0.51160507359E+02  0.00000000000E+00 0.  1.
         11    1    4    4    0    0 -0.24461661964E+02 -0.33392624587E+02 -0.19037989388E+03  0.19482798638E+03  0.00000000000E+00 0. -1.
</event>
<event>
 8    1  0.6185113E-009  0.9109018E+02  0.7561462E-02  0.1300233E+00
          1   -1    0    0  501    0  0.00000000000E+00  0.00000000000E+00  0.12355583009E+03  0.12355583009E+03  0.00000000000E+00 0. -1.
         -1   -1    0    0    0  501 -0.00000000000E+00 -0.00000000000E+00 -0.11370723297E+03  0.11370723297E+03  0.00000000000E+00 0.  1.
         25    2    1    2    0    0  0.28136283638E+02 -0.22484461861E+02 -0.25162410376E+02  0.13258251417E+03  0.12509106557E+03 0.  0.
         23    2    1    2    0    0 -0.28136283638E+02  0.22484461861E+02  0.35011007487E+02  0.10468054889E+03  0.91842502075E+02 0.  0.
          5    1    3    3  502    0  0.81817507249E+01 -0.68542041510E+02 -0.40234278704E+02  0.80007637648E+02  0.41800000000E+01 0.  1.
         -5    1    3    3    0  502  0.19954532913E+02  0.46057579648E+02  0.15071868327E+02  0.52574876526E+02  0.41800000000E+01 0.  1.
        -11    1    4    4    0    0  0.14508405664E+02  0.11782211714E+02 -0.24421530227E+02  0.30752650071E+02  0.00000000000E+00 0.  1.
         11    1    4    4    0    0 -0.42644689303E+02  0.10702250147E+02  0.59432537714E+02  0.73927898814E+02  0.00000000000E+00 0. -1.
</event>
<event>
 8    1  0.6185113E-009  0.9943349E+02  0.7561462E-02  0.1281492E+00
          1   -1    0    0  501    0  0.00000000000E+00  0.00000000000E+00  0.79062426895E+03  0.79062426895E+03  0.00000000000E+00 0. -1.
         -1   -1    0    0    0  501 -0.00000000000E+00 -0.00000000000E+00 -0.16379753035E+02  0.16379753035E+02  0.00000000000E+00 0.  1.
         25    2    1    2    0    0  0.23428488996E+02 -0.20690432903E+02  0.51468882364E+03  0.53059090272E+03  0.12508050513E+03 0.  0.
         23    2    1    2    0    0 -0.23428488996E+02  0.20690432903E+02  0.25955569227E+03  0.27641311926E+03  0.89766736579E+02 0.  0.
          5    1    3    3  502    0  0.66050753876E+02  0.71214858881E+01  0.39338313918E+03  0.39897516745E+03  0.41800000000E+01 0. -1.
         -5    1    3    3    0  502 -0.42622264880E+02 -0.27811918791E+02  0.12130568446E+03  0.13161573527E+03  0.41800000000E+01 0. -1.
        -11    1    4    4    0    0  0.69122892586E+01  0.43015805621E+02  0.65041353179E+02  0.78284844634E+02  0.00000000000E+00 0.  1.
         11    1    4    4    0    0 -0.30340778254E+02 -0.22325372718E+02  0.19451433910E+03  0.19812827462E+03  0.00000000000E+00 0. -1.
</event>
<event>
 8    1  0.6185113E-009  0.1233580E+03  0.7561462E-02  0.1237658E+00
          2   -1    0    0  501    0  0.00000000000E+00  0.00000000000E+00  0.81574396168E+03  0.81574396168E+03  0.00000000000E+00 0. -1.
         -2   -1    0    0    0  501 -0.00000000000E+00 -0.00000000000E+00 -0.23977254063E+02  0.23977254063E+02  0.00000000000E+00 0.  1.
         25    2    1    2    0    0  0.16823834816E+02  0.82135778950E+02  0.46652523313E+03  0.49022591088E+03  0.12508526270E+03 0.  0.
         23    2    1    2    0    0 -0.16823834816E+02 -0.82135778950E+02  0.32524147448E+03  0.34949530486E+03  0.96621031849E+02 0.  0.
          5    1    3    3  502    0 -0.50100706516E+02  0.25953789076E+02  0.11761404901E+03  0.13051519791E+03  0.41800000000E+01 0.  1.
         -5    1    3    3    0  502  0.66924541333E+02  0.56181989874E+02  0.34891118412E+03  0.35971071297E+03  0.41800000000E+01 0.  1.
        -11    1    4    4    0    0  0.18921568854E+02 -0.53839131006E+02  0.27817786661E+03  0.28397113104E+03  0.00000000000E+00 0. -1.
         11    1    4    4    0    0 -0.35745403670E+02 -0.28296647944E+02  0.47063607872E+02  0.65524173817E+02  0.00000000000E+00 0.  1.
</event>
<event>
 8    1  0.6185113E-009  0.1155470E+03  0.7561462E-02  0.1250629E+00
          1   -1    0    0  501    0  0.00000000000E+00  0.00000000000E+00  0.40099598780E+03  0.40099598780E+03  0.00000000000E+00 0. -1.
         -1   -1    0    0    0  501 -0.00000000000E+00 -0.00000000000E+00 -0.41213063508E+02  0.41213063508E+02  0.00000000000E+00 0.  1.
         25    2    1    2    0    0  0.13926816746E+02  0.65893425872E+02  0.22481854106E+03  0.26594412944E+03  0.12508798415E+03 0.  0.
         23    2    1    2    0    0 -0.13926816746E+02 -0.65893425872E+02  0.13496438323E+03  0.17626492187E+03  0.91203279235E+02 0.  0.
          5    1    3    3  502    0 -0.21004865536E+02 -0.17216134006E+02  0.44828767619E+01  0.27841843157E+02  0.41800000000E+01 0.  1.
         -5    1    3    3    0  502  0.34931682282E+02  0.83109559878E+02  0.22033566430E+03  0.23810228628E+03  0.41800000000E+01 0.  1.
        -11    1    4    4    0    0  0.25168396730E+02 -0.69681971018E+02  0.89250699060E+02  0.11599445056E+03  0.00000000000E+00 0. -1.
         11    1    4    4    0    0 -0.39095213476E+02  0.37885451461E+01  0.45713684168E+02  0.60270471304E+02  0.00000000000E+00 0.  1.
</event>
<event>
 8    1  0.6185113E-009  0.9756640E+02  0.7561462E-02  0.1285498E+00
          2   -1    0    0  501    0  0.00000000000E+00  0.00000000000E+00  0.87147629525E+03  0.87147629525E+03  0.00000000000E+00 0. -1.
         -2   -1    0    0    0  501 -0.00000000000E+00 -0.00000000000E+00 -0.15331818086E+02  0.15331818086E+02  0.00000000000E+00 0.  1.
         25    2    1    2    0    0 -0.10248169148E+02 -0.37322509122E+02  0.52238516592E+03  0.53854586323E+03  0.12508953025E+03 0.  0.
         23    2    1    2    0    0  0.10248169148E+02  0.37322509122E+02  0.33375931125E+03  0.34826225010E+03  0.91615077057E+02 0.  0.
          5    1    3    3  502    0 -0.57933301601E+02 -0.38766732731E+02  0.41677540964E+03  0.42258530675E+03  0.41800000000E+01 0. -1.
         -5    1    3    3    0  502  0.47685132453E+02  0.14442236087E+01  0.10560975628E+03  0.11596055649E+03  0.41800000000E+01 0. -1.
        -11    1    4    4    0    0  0.24312616860E+02 -0.11288619935E+02  0.29647737432E+02  0.39969045691E+02  0.00000000000E+00 0.  1.
         11    1    4    4    0    0 -0.14064447712E+02  0.48611129057E+02  0.30411157382E+03  0.30829320441E+03  0.00000000000E+00 0. -1.
</event>
<event>
 8    1  0.6185113E-009  0.1896620E+03  0.7561462E-02  0.1158767E+00
          2   -1    0    0  501    0  0.00000000000E+00  0.00000000000E+00  0.38511831031E+03  0.38511831031E+03  0.00000000000E+00 0. -1.
         -2   -1    0    0    0  501 -0.00000000000E+00 -0.00000000000E+00 -0.14718056843E+03  0.14718056843E+03  0.00000000000E+00 0.  1.
         25    2    1    2    0    0  0.67809558738E+02  0.14605123353E+03  0.27615564710E+03  0.34327525513E+03  0.12508741060E+03 0.  0.
         23    2    1    2    0    0 -0.67809558738E+02 -0.14605123353E+03 -0.38217905219E+02  0.18902362361E+03  0.91324821009E+02 0.  0.
          5    1    3    3  502    0  0.74799101195E+01  0.14256722411E+03  0.20466077396E+03  0.24956936359E+03  0.41800000000E+01 0. -1.
         -5    1    3    3    0  502  0.60329648618E+02  0.34840094182E+01  0.71494873139E+02  0.93705891540E+02  0.41800000000E+01 0. -1.
        -11    1    4    4    0    0  0.14998545695E+02 -0.17979479282E+02 -0.27527791447E+02  0.36138585337E+02  0.00000000000E+00 0.  1.
         11    1    4    4    0    0 -0.82808104433E+02 -0.12807175425E+03 -0.10690113773E+02  0.15288503827E+03  0.00000000000E+00 0. -1.
</event>
<event>
 8    1  0.6185113E-009  0.1400298E+03  0.7561462E-02  0.1213289E+00
          3   -1    0    0  501    0  0.00000000000E+00  0.00000000000E+00  0.10636280489E+03  0.10636280489E+03  0.00000000000E+00 0. -1.
         -3   -1    0    0    0  501 -0.00000000000E+00 -0.00000000000E+00 -0.24140438866E+03  0.24140438866E+03  0.00000000000E+00 0.  1.
         25    2    1    2    0    0  0.99708315129E+02 -0.56777780759E+02 -0.59857106856E+02  0.17998580320E+03  0.12508617677E+03 0.  0.
         23    2    1    2    0    0 -0.99708315129E+02  0.56777780759E+02 -0.75184476913E+02  0.16778139035E+03  0.96604476524E+02 0.  0.
          5    1    3    3  502    0  0.28031997239E+02  0.33715008945E+02 -0.45925831389E+02  0.63632924545E+02  0.41800000000E+01 0.  1.
         -5    1    3    3    0  502  0.71676317890E+02 -0.90492789704E+02 -0.13931275466E+02  0.11635287865E+03  0.41800000000E+01 0.  1.
        -11    1    4    4    0    0 -0.62768568607E+02  0.14623824359E+02 -0.89161344079E+02  0.11001588395E+03  0.00000000000E+00 0.  1.
         11    1    4    4    0    0 -0.36939746522E+02  0.42153956400E+02  0.13976867166E+02  0.57765506395E+02  0.00000000000E+00 0. -1.
</event>
<event>
 8    1  0.6185113E-009  0.1033101E+03  0.7561462E-02  0.1273485E+00
         -4   -1    0    0    0  501 -0.00000000000E+00  0.00000000000E+00  0.32783651613E+03  0.32783651613E+03  0.00000000000E+00 0.  1.
          4   -1    0    0  501    0  0.00000000000E+00 -0.00000000000E+00 -0.62421902481E+02  0.62421902481E+02  0.00000000000E+00 0. -1.
         25    2    1    2    0    0  0.70953000416E+01  0.58229397666E+02  0.24216653416E+03  0.27880703480E+03  0.12509087238E+03 0.  0.
         23    2    1    2    0    0 -0.70953000416E+01 -0.58229397666E+02  0.23248079483E+02  0.11145138381E+03  0.91869100993E+02 0.  0.
          5    1    3    3  502    0  0.39260695327E+02  0.25312141311E+01  0.19491000668E+03  0.19888487209E+03  0.41800000000E+01 0.  1.
         -5    1    3    3    0  502 -0.32165395285E+02  0.55698183535E+02  0.47256527483E+02  0.79922162713E+02  0.41800000000E+01 0.  1.
        -11    1    4    4    0    0  0.26831921798E+02  0.81606590895E+01 -0.10056825739E+02  0.29794095524E+02  0.00000000000E+00 0. -1.
         11    1    4    4    0    0 -0.33927221840E+02 -0.66390056755E+02  0.33304905221E+02  0.81657288282E+02  0.00000000000E+00 0.  1.
</event>
<event>
 8    1  0.6185113E-009  0.1019813E+03  0.7561462E-02  0.1276184E+00
          2   -1    0    0  501    0  0.00000000000E+00  0.00000000000E+00  0.64072780727E+03  0.64072780727E+03  0.00000000000E+00 0. -1.
         -2   -1    0    0    0  501 -0.00000000000E+00 -0.00000000000E+00 -0.25478552184E+02  0.25478552184E+02  0.00000000000E+00 0.  1.
         25    2    1    2    0    0  0.34346290896E+02  0.57739089713E+02  0.38081292083E+03  0.40642334082E+03  0.12509189067E+03 0.  0.
         23    2    1    2    0    0 -0.34346290896E+02 -0.57739089713E+02  0.23443633425E+03  0.25978301863E+03  0.89517326666E+02 0.  0.
          5    1    3    3  502    0  0.26526511014E+02  0.91854654788E+02  0.19407160684E+03  0.21638436722E+03  0.41800000000E+01 0. -1.
         -5    1    3    3    0  502  0.78197798820E+01 -0.34115565075E+02  0.18674131399E+03  0.19003897360E+03  0.41800000000E+01 0. -1.
        -11    1    4    4    0    0 -0.24295649916E+02 -0.13802649521E+02  0.82289486142E+01  0.29129149214E+02  0.00000000000E+00 0.  1.
         11    1    4    4    0    0 -0.10050640980E+02 -0.43936440192E+02  0.22620738564E+03  0.23065386942E+03  0.00000000000E+00 0. -1.
</event>
<event>
 8    1  0.6185113E-009  0.1858993E+03  0.7561462E-02  0.1162213E+00
         -2   -1    0    0    0  501 -0.00000000000E+00  0.00000000000E+00  0.10119551412E+03  0.10119551412E+03  0.00000000000E+00 0.  1.
          2   -1    0    0  501    0  0.00000000000E+00 -0.00000000000E+00 -0.41632789601E+03  0.41632789601E+03  0.00000000000E+00 0. -1.
         25    2    1    2    0    0 -0.96016904282E+02 -0.13589326843E+03 -0.22370933932E+03  0.30558093328E+03  0.12509041521E+03 0.  0.
         23    2    1    2    0    0  0.96016904282E+02  0.13589326843E+03 -0.91423042574E+02  0.21194247686E+03  0.94208356697E+02 0.  0.
          5    1    3    3  502    0  0.17025463634E+02 -0.68953013258E+02 -0.11395404323E+03  0.13434054049E+03  0.41800000000E+01 0. -1.
         -5    1    3    3    0  502 -0.11304236792E+03 -0.66940255168E+02 -0.10975529608E+03  0.17124039279E+03  0.41800000000E+01 0. -1.
        -11    1    4    4    0    0  0.81249647746E+02  0.91215434066E+02 -0.10698496267E+03  0.16238085758E+03  0.00000000000E+00 0. -1.
         11    1    4    4    0    0  0.14767256536E+02  0.44677834360E+02  0.15561920093E+02  0.49561619280E+02  0.00000000000E+00 0.  1.
</event>
<event>
 8    1  0.6185113E-009  0.1935174E+03  0.7561462E-02  0.1155327E+00
         -2   -1    0    0    0  501 -0.00000000000E+00  0.00000000000E+00  0.35221317160E+02  0.35221317160E+02  0.00000000000E+00 0.  1.
          2   -1    0    0  501    0  0.00000000000E+00 -0.00000000000E+00 -0.12915659920E+04  0.12915659920E+04  0.00000000000E+00 0. -1.
         25    2    1    2    0    0 -0.12729937738E+03  0.13165569546E+03 -0.63184051970E+03  0.66963300055E+03  0.12509020533E+03 0.  0.
         23    2    1    2    0    0  0.12729937738E+03 -0.13165569546E+03 -0.62450415511E+03  0.65715430858E+03  0.91148186496E+02 0.  0.
          5    1    3    3  502    0 -0.81774548648E+02  0.91987711644E+02 -0.56980553891E+03  0.58296195457E+03  0.41800000000E+01 0. -1.
         -5    1    3    3    0  502 -0.45524828730E+02  0.39667983815E+02 -0.62034980788E+02  0.86671045985E+02  0.41800000000E+01 0. -1.
        -11    1    4    4    0    0  0.96334703278E+02 -0.36046574035E+02 -0.35148049130E+03  0.36622160821E+03  0.00000000000E+00 0.  1.
         11    1    4    4    0    0  0.30964674100E+02 -0.95609121424E+02 -0.27302366381E+03  0.29093270036E+03  0.00000000000E+00 0. -1.
</event>
<event>
 8    1  0.6185113E-009  0.2428631E+03  0.7561462E-02  0.1117900E+00
          2   -1    0    0  501    0  0.00000000000E+00  0.00000000000E+00  0.22278315886E+03  0.22278315886E+03  0.00000000000E+00 0. -1.
         -2   -1    0    0    0  501 -0.00000000000E+00 -0.00000000000E+00 -0.28092634922E+03  0.28092634922E+03  0.00000000000E+00 0.  1.
         25    2    1    2    0    0  0.19261733347E+03  0.11536334483E+03 -0.15717540095E+02  0.25751077557E+03  0.12511842384E+03 0.  0.
         23    2    1    2    0    0 -0.19261733347E+03 -0.11536334483E+03 -0.42425650264E+02  0.24619873250E+03  0.91671923740E+02 0.  0.
          5    1    3    3  502    0  0.11801327428E+03  0.12992335159E+03 -0.34900013274E+02  0.17900473044E+03  0.41800000000E+01 0.  1.
         -5    1    3    3    0  502  0.74604059189E+02 -0.14560006760E+02  0.19182473179E+02  0.78506045127E+02  0.41800000000E+01 0.  1.
        -11    1    4    4    0    0 -0.14431765286E+03 -0.11687367789E+03 -0.62099364759E+01  0.18581066929E+03  0.00000000000E+00 0. -1.
         11    1    4    4    0    0 -0.48299680612E+02  0.15103330678E+01 -0.36215713788E+02  0.60388063211E+02  0.00000000000E+00 0.  1.
</event>
<event>
 8    1  0.6185113E-009  0.1847208E+03  0.7561462E-02  0.1163311E+00
          1   -1    0    0  501    0  0.00000000000E+00  0.00000000000E+00  0.25887673763E+03  0.25887673763E+03  0.00000000000E+00 0. -1.
         -1   -1    0    0    0  501 -0.00000000000E+00 -0.00000000000E+00 -0.13906923323E+03  0.13906923323E+03  0.00000000000E+00 0.  1.
         25    2    1    2    0    0  0.12481890432E+02  0.15151890440E+03  0.31498120379E+02  0.19938335931E+03  0.12509123232E+03 0.  0.
         23    2    1    2    0    0 -0.12481890432E+02 -0.15151890440E+03  0.88309384015E+02  0.19856261154E+03  0.92275605757E+02 0.  0.
          5    1    3    3  502    0  0.38202901358E+02  0.16248639944E+03  0.35859154066E+02  0.17077658799E+03  0.41800000000E+01 0. -1.
         -5    1    3    3    0  502 -0.25721010926E+02 -0.10967495039E+02 -0.43610336876E+01  0.28606771319E+02  0.41800000000E+01 0. -1.
        -11    1    4    4    0    0  0.36564814715E+02 -0.72455119794E+02  0.61216014569E+02  0.10165692549E+03  0.00000000000E+00 0. -1.
         11    1    4    4    0    0 -0.49046705147E+02 -0.79063784610E+02  0.27093369446E+02  0.96905686059E+02  0.00000000000E+00 0.  1.
</event>
<event>
 8    1  0.6185113E-009  0.1116646E+03  0.7561462E-02  0.1257518E+00
          2   -1    0    0  501    0  0.00000000000E+00  0.00000000000E+00  0.69505926510E+03  0.69505926510E+03  0.00000000000E+00 0.  1.
         -2   -1    0    0    0  501 -0.00000000000E+00 -0.00000000000E+00 -0.26699163237E+02  0.26699163237E+02  0.00000000000E+00 0. -1.
         25    2    1    2    0    0 -0.72624535544E+01  0.56254281179E+02  0.52609481037E+03  0.54372881621E+03  0.12509192099E+03 0.  0.
         23    2    1    2    0    0  0.72624535544E+01 -0.56254281179E+02  0.14226529150E+03  0.17802961213E+03  0.90762559726E+02 0.  0.
          5    1    3    3  502    0  0.38734489074E+02  0.58531837190E+02  0.44376862864E+03  0.44930435650E+03  0.41800000000E+01 0.  1.
         -5    1    3    3    0  502 -0.45996942629E+02 -0.22775560106E+01  0.82326181730E+02  0.94424459706E+02  0.41800000000E+01 0.  1.
        -11    1    4    4    0    0 -0.31203382578E+02 -0.60502161932E+02  0.84712476197E+02  0.10867550923E+03  0.00000000000E+00 0.  1.
         11    1    4    4    0    0  0.38465836133E+02  0.42478807525E+01  0.57552815304E+02  0.69354102905E+02  0.00000000000E+00 0. -1.
</event>
<event>
 8    1  0.6185113E-009  0.9923395E+02  0.7561462E-02  0.1281915E+00
         -1   -1    0    0    0  501 -0.00000000000E+00  0.00000000000E+00  0.20857460099E+02  0.20857460099E+02  0.00000000000E+00 0.  1.
          1   -1    0    0  501    0  0.00000000000E+00 -0.00000000000E+00 -0.62504916096E+03  0.62504916096E+03  0.00000000000E+00 0. -1.
         25    2    1    2    0    0  0.48288099210E+01 -0.78909447385E+01 -0.25541403419E+03  0.28456601668E+03  0.12512355723E+03 0.  0.
         23    2    1    2    0    0 -0.48288099210E+01  0.78909447385E+01 -0.34877766667E+03  0.36134060437E+03  0.93997804170E+02 0.  0.
          5    1    3    3  502    0  0.19146712443E+02 -0.53015597655E+02 -0.21460504458E+03  0.22192351780E+03  0.41800000000E+01 0.  1.
         -5    1    3    3    0  502 -0.14317902522E+02  0.45124652916E+02 -0.40808989604E+02  0.62642498880E+02  0.41800000000E+01 0.  1.
        -11    1    4    4    0    0  0.24361510430E+01  0.50821176682E+02 -0.19260901636E+03  0.19921586286E+03  0.00000000000E+00 0.  1.
         11    1    4    4    0    0 -0.72649609640E+01 -0.42930231943E+02 -0.15616865030E+03  0.16212474151E+03  0.00000000000E+00 0. -1.
</event>
<event>
 8    1  0.6185113E-009  0.1093063E+03  0.7561462E-02  0.1261860E+00
          2   -1    0    0  501    0  0.00000000000E+00  0.00000000000E+00  0.46386409952E+03  0.46386409952E+03  0.00000000000E+00 0. -1.
         -2   -1    0    0    0  501 -0.00000000000E+00 -0.00000000000E+00 -0.26850732906E+02  0.26850732906E+02  0.00000000000E+00 0.  1.
         25    2    1    2    0    0 -0.86132642241E+01 -0.16329681743E+02  0.22087343261E+03  0.25451029072E+03  0.12509823349E+03 0.  0.
         23    2    1    2    0    0  0.86132642241E+01  0.16329681743E+02  0.21613993401E+03  0.23620454171E+03  0.93462653646E+02 0.  0.
          5    1    3    3  502    0  0.43347578303E+02 -0.48056012783E+02  0.12589477625E+03  0.14161694812E+03  0.41800000000E+01 0. -1.
         -5    1    3    3    0  502 -0.51960842527E+02  0.31726331040E+02  0.94978656363E+02  0.11289334259E+03  0.41800000000E+01 0. -1.
        -11    1    4    4    0    0 -0.66755634631E+01  0.52784394193E+02  0.96396995475E+02  0.11010511412E+03  0.00000000000E+00 0.  1.
         11    1    4    4    0    0  0.15288827687E+02 -0.36454712450E+02  0.11974293853E+03  0.12609942760E+03  0.00000000000E+00 0. -1.
</event>
<event>
 8    1  0.6185113E-009  0.1179667E+03  0.7561462E-02  0.1246490E+00
         -1   -1    0    0    0  501 -0.00000000000E+00  0.00000000000E+00  0.56063013610E+02  0.56063013610E+02  0.00000000000E+00 0.  1.
          1   -1    0    0  501    0  0.00000000000E+00 -0.00000000000E+00 -0.48835526883E+03  0.48835526883E+03  0.00000000000E+00 0. -1.
         25    2    1    2    0    0 -0.32022486308E+02 -0.72400234189E+01 -0.46145490405E+02  0.13730846997E+03  0.12508537913E+03 0.  0.
         23    2    1    2    0    0  0.32022486308E+02  0.72400234189E+01 -0.38614676482E+03  0.40710981247E+03  0.12470452223E+03 0.  0.
          5    1    3    3  502    0  0.21598379587E+02 -0.38813106263E+02  0.17755587343E+02  0.48017502022E+02  0.41800000000E+01 0.  1.
         -5    1    3    3    0  502 -0.53620865895E+02  0.31573082844E+02 -0.63901077748E+02  0.89290967947E+02  0.41800000000E+01 0.  1.
        -11    1    4    4    0    0  0.63367599075E+02  0.46584936029E+02 -0.23486838251E+03  0.24768683045E+03  0.00000000000E+00 0.  1.
         11    1    4    4    0    0 -0.31345112767E+02 -0.39344912610E+02 -0.15127838231E+03  0.15942298202E+03  0.00000000000E+00 0. -1.
</event>
<event>
 8    1  0.6185113E-009  0.1282688E+03  0.7561462E-02  0.1230047E+00
          2   -1    0    0  501    0  0.00000000000E+00  0.00000000000E+00  0.27942781732E+03  0.27942781732E+03  0.00000000000E+00 0. -1.
         -2   -1    0    0    0  501 -0.00000000000E+00 -0.00000000000E+00 -0.88492422818E+02  0.88492422818E+02  0.00000000000E+00 0.  1.
         25    2    1    2    0    0 -0.10956073416E+03  0.11662437746E+02  0.13338566556E+03  0.21348941289E+03  0.12508567751E+03 0.  0.
         23    2    1    2    0    0  0.10956073416E+03 -0.11662437746E+02  0.57549728946E+02  0.15443082725E+03  0.91637013147E+02 0.  0.
          5    1    3    3  502    0 -0.71401696633E+02 -0.39232060311E+02  0.20925983682E+02  0.84218323608E+02  0.41800000000E+01 0. -1.
         -5    1    3    3    0  502 -0.38159037527E+02  0.50894498058E+02  0.11245968188E+03  0.12927108929E+03  0.41800000000E+01 0. -1.
        -11    1    4    4    0    0  0.95073565455E+02 -0.15246580292E+02  0.81541374683E+02  0.12617621346E+03  0.00000000000E+00 0. -1.
         11    1    4    4    0    0  0.14487168704E+02  0.35841425459E+01 -0.23991645737E+02  0.28254613783E+02  0.00000000000E+00 0.  1.
</event>
<event>
 8    1  0.6185113E-009  0.1454553E+03  0.7561462E-02  0.1206171E+00
          2   -1    0    0  501    0  0.00000000000E+00  0.00000000000E+00  0.50223739913E+03  0.50223739913E+03  0.00000000000E+00 0. -1.
         -2   -1    0    0    0  501 -0.00000000000E+00 -0.00000000000E+00 -0.60734537580E+02  0.60734537580E+02  0.00000000000E+00 0.  1.
         25    2    1    2    0    0  0.10637064963E+03  0.49505250625E+02  0.12177403219E+03  0.21033734191E+03  0.12508955809E+03 0.  0.
         23    2    1    2    0    0 -0.10637064963E+03 -0.49505250625E+02  0.31972882936E+03  0.35263459480E+03  0.91428377331E+02 0.  0.
          5    1    3    3  502    0  0.24460923930E+02  0.60726863765E+02  0.10808098619E+03  0.12643204008E+03  0.41800000000E+01 0.  1.
         -5    1    3    3    0  502  0.81909725704E+02 -0.11221613140E+02  0.13693045993E+02  0.83905301828E+02  0.41800000000E+01 0.  1.
        -11    1    4    4    0    0 -0.42531466647E+02 -0.64209373409E+02  0.12143272442E+03  0.14379734298E+03  0.00000000000E+00 0.  1.
         11    1    4    4    0    0 -0.63839182986E+02  0.14704122785E+02  0.19829610494E+03  0.20883725182E+03  0.00000000000E+00 0. -1.
</event>
<event>
 8    1  0.6185113E-009  0.2582451E+03  0.7561462E-02  0.1108202E+00
         -2   -1    0    0    0  501 -0.00000000000E+00  0.00000000000E+00  0.51934102241E+03  0.51934102241E+03  0.00000000000E+00 0.  1.
          2   -1    0    0  501    0  0.00000000000E+00 -0.00000000000E+00 -0.13003439806E+03  0.13003439806E+03  0.00000000000E+00 0. -1.
         25    2    1    2    0    0 -0.16716978129E+03  0.16530158197E+03  0.19818340256E+03  0.33196548645E+03  0.12511624341E+03 0.  0.
         23    2    1    2    0    0  0.16716978129E+03 -0.16530158197E+03  0.19112322179E+03  0.31740993401E+03  0.94607777304E+02 0.  0.
          5    1    3    3  502    0  0.15021559715E+01  0.74108731387E+02  0.48528957631E+02  0.88695505349E+02  0.41800000000E+01 0. -1.
         -5    1    3    3    0  502 -0.16867193727E+03  0.91192850581E+02  0.14965444493E+03  0.24326998110E+03  0.41800000000E+01 0. -1.
        -11    1    4    4    0    0  0.16357725221E+03 -0.17534029403E+03  0.19128945528E+03  0.30674646184E+03  0.00000000000E+00 0.  1.
         11    1    4    4    0    0  0.35925290838E+01  0.10038712065E+02 -0.16623349596E+00  0.10663472170E+02  0.00000000000E+00 0. -1.
</event>
<event>
 8    1  0.6185113E-009  0.1162529E+03  0.7561462E-02  0.1249410E+00
         -1   -1    0    0    0  501 -0.00000000000E+00  0.00000000000E+00  0.14384057355E+03  0.14384057355E+03  0.00000000000E+00 0.  1.
          1   -1    0    0  501    0  0.00000000000E+00 -0.00000000000E+00 -0.20653101915E+03  0.20653101915E+03  0.00000000000E+00 0. -1.
         25    2    1    2    0    0 -0.63274899192E+02  0.44752158394E+02  0.78306286502E+02  0.16669390149E+03  0.12509401960E+03 0.  0.
         23    2    1    2    0    0  0.63274899192E+02 -0.44752158394E+02 -0.14099673211E+03  0.18367769121E+03  0.88605571117E+02 0.  0.
          5    1    3    3  502    0 -0.92660752357E+02  0.93253677511E+01  0.76243185422E+02  0.12043036674E+03  0.41800000000E+01 0. -1.
         -5    1    3    3    0  502  0.29385853164E+02  0.35426790643E+02  0.20631010803E+01  0.46263534750E+02  0.41800000000E+01 0. -1.
        -11    1    4    4    0    0  0.23375131848E+02 -0.47635838618E+02 -0.13257149406E+03  0.14279625676E+03  0.00000000000E+00 0. -1.
         11    1    4    4    0    0  0.39899767344E+02  0.28836802241E+01 -0.84252380518E+01  0.40881434441E+02  0.00000000000E+00 0.  1.
</event>
<event>
 7    1  0.6185113E-009  0.1257932E+03  0.7561462E-02  0.1233835E+00
         -4   -1    0    0    0  501 -0.00000000000E+00  0.00000000000E+00  0.43885770166E+02  0.43885770166E+02  0.00000000000E+00 0.  1.
          4   -1    0    0  501    0  0.00000000000E+00 -0.00000000000E+00 -0.59216021710E+03  0.59216021710E+03  0.00000000000E+00 0. -1.
         25    2    1    2    0    0 -0.21399134432E+02  0.11081596306E+03 -0.17627430349E+03  0.24384060649E+03  0.12509001030E+03 0.  0.
          5    1    3    3  502    0 -0.42223361934E+02  0.87997271129E+02 -0.42595027171E+02  0.10657457839E+03  0.41800000000E+01 0. -1.
         -5    1    3    3    0  502  0.20824227502E+02  0.22818691935E+02 -0.13367927632E+03  0.13726602810E+03  0.41800000000E+01 0. -1.
        -11    1    1    2    0    0 -0.13866394567E+02 -0.14102690238E+02 -0.85940113363E+02  0.88186540101E+02  0.00000000000E+00 0. -1.
         11    1    1    2    0    0  0.35265528999E+02 -0.96713272826E+02 -0.28606003009E+03  0.30401884068E+03  0.00000000000E+00 0.  1.
</event>
<event>
 8    1  0.6185113E-009  0.1022987E+03  0.7561462E-02  0.1275535E+00
         -2   -1    0    0    0  501 -0.00000000000E+00  0.00000000000E+00  0.34367325465E+02  0.34367325465E+02  0.00000000000E+00 0. -1.
          2   -1    0    0  501    0  0.00000000000E+00 -0.00000000000E+00 -0.53484304297E+03  0.53484304297E+03  0.00000000000E+00 0.  1.
         25    2    1    2    0    0  0.16767020026E+02 -0.62699730699E+02 -0.17230324969E+03  0.22259488468E+03  0.12509070166E+03 0.  0.
         23    2    1    2    0    0 -0.16767020026E+02  0.62699730699E+02 -0.32817246782E+03  0.34661548375E+03  0.90734424317E+02 0.  0.
          5    1    3    3  502    0  0.29819055122E+02  0.28009693094E+01  0.71465763672E+01  0.31073580921E+02  0.41800000000E+01 0.  1.
         -5    1    3    3    0  502 -0.13052035096E+02 -0.65500700009E+02 -0.17944982606E+03  0.19152130376E+03  0.41800000000E+01 0.  1.
        -11    1    4    4    0    0  0.25089025704E+02  0.60532056956E+02 -0.24314296325E+03  0.25181757228E+03  0.00000000000E+00 0.  1.
         11    1    4    4    0    0 -0.41856045730E+02  0.21676737432E+01 -0.85029504562E+02  0.94797911473E+02  0.00000000000E+00 0. -1.
</event>
<event>
 8    1  0.6185113E-009  0.1129032E+03  0.7561462E-02  0.1255286E+00
         -1   -1    0    0    0  501 -0.00000000000E+00  0.00000000000E+00  0.29869531757E+03  0.29869531757E+03  0.00000000000E+00 0.  1.
          1   -1    0    0  501    0  0.00000000000E+00 -0.00000000000E+00 -0.11347628890E+03  0.11347628890E+03  0.00000000000E+00 0. -1.
         25    2    1    2    0    0 -0.51697027744E+02  0.21133169070E+02 -0.55806048303E+02  0.14792294811E+03  0.12509072722E+03 0.  0.
         23    2    1    2    0    0  0.51697027744E+02 -0.21133169070E+02  0.24102507697E+03  0.26424865836E+03  0.92817413244E+02 0.  0.
          5    1    3    3  502    0  0.14663192923E+02 -0.37365780554E+02 -0.42077952437E+02  0.58302978178E+02  0.41800000000E+01 0.  1.
         -5    1    3    3    0  502 -0.66360220668E+02  0.58498949624E+02 -0.13728095867E+02  0.89619969930E+02  0.41800000000E+01 0.  1.
        -11    1    4    4    0    0  0.44169579806E+02 -0.50197647389E+02  0.21273946579E+03  0.22299963204E+03  0.00000000000E+00 0.  1.
         11    1    4    4    0    0  0.75274479382E+01  0.29064478319E+02  0.28285611181E+02  0.41249026319E+02  0.00000000000E+00 0. -1.
</event>
<event>
 8    1  0.6185113E-009  0.1194787E+03  0.7561462E-02  0.1243959E+00
          2   -1    0    0  501    0  0.00000000000E+00  0.00000000000E+00  0.70749590300E+03  0.70749590300E+03  0.00000000000E+00 0. -1.
         -2   -1    0    0    0  501 -0.00000000000E+00 -0.00000000000E+00 -0.25744922899E+02  0.25744922899E+02  0.00000000000E+00 0.  1.
         25    2    1    2    0    0 -0.13194488163E+02 -0.75753043665E+02  0.31848911717E+03  0.35070821148E+03  0.12509322004E+03 0.  0.
         23    2    1    2    0    0  0.13194488163E+02  0.75753043665E+02  0.36326186293E+03  0.38253261442E+03  0.91975006899E+02 0.  0.
          5    1    3    3  502    0  0.41337323893E+02 -0.22070593927E+02  0.22479101648E+03  0.22966140066E+03  0.41800000000E+01 0.  1.
         -5    1    3    3    0  502 -0.54531812056E+02 -0.53682449738E+02  0.93698100691E+02  0.12104681082E+03  0.41800000000E+01 0.  1.
        -11    1    4    4    0    0 -0.18869926755E+02 -0.11650138626E+02  0.35967420412E+02  0.42254647044E+02  0.00000000000E+00 0. -1.
         11    1    4    4    0    0  0.32064414918E+02  0.87403182291E+02  0.32729444252E+03  0.34027796738E+03  0.00000000000E+00 0.  1.
</event>
<event>
 8    1  0.6185113E-009  0.1322931E+03  0.7561462E-02  0.1224092E+00
         -2   -1    0    0    0  501 -0.00000000000E+00  0.00000000000E+00  0.43103110224E+02  0.43103110224E+02  0.00000000000E+00 0.  1.
          2   -1    0    0  501    0  0.00000000000E+00 -0.00000000000E+00 -0.58278451946E+03  0.58278451946E+03  0.00000000000E+00 0. -1.
         25    2    1    2    0    0 -0.10566735066E+01 -0.11415211135E+03 -0.29678759796E+03  0.34170492863E+03  0.12509020290E+03 0.  0.
         23    2    1    2    0    0  0.10566735066E+01  0.11415211135E+03 -0.24289381128E+03  0.28418270106E+03  0.93437588479E+02 0.  0.
          5    1    3    3  502    0  0.20721079565E+02  0.87858478302E+01 -0.38102574945E+01  0.23206566368E+02  0.41800000000E+01 0.  1.
         -5    1    3    3    0  502 -0.21777753071E+02 -0.12293795918E+03 -0.29297734047E+03  0.31849836226E+03  0.41800000000E+01 0.  1.
        -11    1    4    4    0    0 -0.11320402788E+02  0.70366517794E+02 -0.22373461276E+03  0.23481221283E+03  0.00000000000E+00 0. -1.
         11    1    4    4    0    0  0.12377076295E+02  0.43785593552E+02 -0.19159198514E+02  0.49370488230E+02  0.00000000000E+00 0.  1.
</event>
<event>
 8    1  0.6185113E-009  0.1383862E+03  0.7561462E-02  0.1215517E+00
          1   -1    0    0  501    0  0.00000000000E+00  0.00000000000E+00  0.17177243565E+02  0.17177243565E+02  0.00000000000E+00 0. -1.
         -1   -1    0    0    0  501 -0.00000000000E+00 -0.00000000000E+00 -0.15847367806E+04  0.15847367806E+04  0.00000000000E+00 0.  1.
         25    2    1    2    0    0 -0.48193963426E+02 -0.75760790265E+02 -0.12447991560E+04  0.12542868890E+04  0.12509318785E+03 0.  0.
         23    2    1    2    0    0  0.48193963426E+02  0.75760790265E+02 -0.32276038108E+03  0.34762713523E+03  0.92779340901E+02 0.  0.
          5    1    3    3  502    0 -0.85141414511E+02 -0.79208869270E+02 -0.97344504669E+03  0.98037535504E+03  0.41800000000E+01 0. -1.
         -5    1    3    3    0  502  0.36947451085E+02  0.34480790049E+01 -0.27135410930E+03  0.27391153393E+03  0.41800000000E+01 0. -1.
        -11    1    4    4    0    0 -0.90662979221E+01 -0.13950673780E+02 -0.92187608034E+02  0.93676966924E+02  0.00000000000E+00 0.  1.
         11    1    4    4    0    0  0.57260261348E+02  0.89711464045E+02 -0.23057277305E+03  0.25395016830E+03  0.00000000000E+00 0. -1.
</event>
<event>
 8    1  0.6185113E-009  0.8505752E+02  0.7561462E-02  0.1315282E+00
         -3   -1    0    0    0  501 -0.00000000000E+00  0.00000000000E+00  0.30613801919E+03  0.30613801919E+03  0.00000000000E+00 0.  1.
          3   -1    0    0  501    0  0.00000000000E+00 -0.00000000000E+00 -0.40596318140E+02  0.40596318140E+02  0.00000000000E+00 0. -1.
         25    2    1    2    0    0 -0.57557108024E+01 -0.11065371106E+02  0.18988873289E+03  0.22772285423E+03  0.12507756319E+03 0.  0.
         23    2    1    2    0    0  0.57557108024E+01  0.11065371106E+02  0.75652968156E+02  0.11901148310E+03  0.91020826596E+02 0.  0.
          5    1    3    3  502    0 -0.58796008298E+02 -0.30482715663E+02  0.78724810130E+02  0.10296229735E+03  0.41800000000E+01 0.  1.
         -5    1    3    3    0  502  0.53040297496E+02  0.19417344557E+02  0.11116392276E+03  0.12476055687E+03  0.41800000000E+01 0.  1.
        -11    1    4    4    0    0  0.72645538816E+01 -0.17273456451E+02 -0.15010921687E+02  0.24009869028E+02  0.00000000000E+00 0. -1.
         11    1    4    4    0    0 -0.15088430792E+01  0.28338827557E+02  0.90663889843E+02  0.95001614071E+02  0.00000000000E+00 0.  1.
</event>
<event>
 8    1  0.6185113E-009  0.1369879E+03  0.7561462E-02  0.1217440E+00
         -2   -1    0    0    0  501 -0.00000000000E+00  0.00000000000E+00  0.88450419537E+02  0.88450419537E+02  0.00000000000E+00 0.  1.
          2   -1    0    0  501    0  0.00000000000E+00 -0.00000000000E+00 -0.22506064980E+03  0.22506064980E+03  0.00000000000E+00 0. -1.
         25    2    1    2    0    0  0.22172279862E+02 -0.82567716978E+02 -0.10665307277E+03  0.18528936311E+03  0.12509289455E+03 0.  0.
         23    2    1    2    0    0 -0.22172279862E+02  0.82567716978E+02 -0.29957157496E+02  0.12822170623E+03  0.90743246485E+02 0.  0.
          5    1    3    3  502    0  0.68662963753E+02 -0.75486770274E+02 -0.86955942230E+02  0.13413300625E+03  0.41800000000E+01 0. -1.
         -5    1    3    3    0  502 -0.46490683891E+02 -0.70809467040E+01 -0.19697130540E+02  0.51156356852E+02  0.41800000000E+01 0. -1.
        -11    1    4    4    0    0 -0.11483475403E+02  0.10189952302E+03 -0.25858702273E+02  0.10575469484E+03  0.00000000000E+00 0. -1.
         11    1    4    4    0    0 -0.10688804459E+02 -0.19331806039E+02 -0.40984552226E+01  0.22467011388E+02  0.00000000000E+00 0.  1.
</event>
<event>
 8    1  0.6185113E-009  0.9661327E+02  0.7561462E-02  0.1287583E+00
         -1   -1    0    0    0  501 -0.00000000000E+00  0.00000000000E+00  0.14104929024E+04  0.14104929024E+04  0.00000000000E+00 0.  1.
          1   -1    0    0  501    0  0.00000000000E+00 -0.00000000000E+00 -0.11710809730E+02  0.11710809730E+02  0.00000000000E+00 0. -1.
         25    2    1    2    0    0  0.53818691126E+01  0.38715694999E+02  0.10856674780E+04  0.10935491736E+04  0.12509217676E+03 0.  0.
         23    2    1    2    0    0 -0.53818691126E+01 -0.38715694999E+02  0.31311461462E+03  0.32865453850E+03  0.91897629114E+02 0.  0.
          5    1    3    3  502    0 -0.27725969251E+02 -0.29069448368E+02  0.65954068245E+03  0.66077616967E+03  0.41800000000E+01 0. -1.
         -5    1    3    3    0  502  0.33107838364E+02  0.67785143367E+02  0.42612679555E+03  0.43277300391E+03  0.41800000000E+01 0. -1.
        -11    1    4    4    0    0  0.25625288462E+02  0.24553298482E+01  0.24717765675E+02  0.35688261283E+02  0.00000000000E+00 0. -1.
         11    1    4    4    0    0 -0.31007157575E+02 -0.41171024847E+02  0.28839684894E+03  0.29296627722E+03  0.00000000000E+00 0.  1.
</event>
<event>
 8    1  0.6185113E-009  0.1064689E+03  0.7561462E-02  0.1267252E+00
         -2   -1    0    0    0  501 -0.00000000000E+00  0.00000000000E+00  0.90948357858E+02  0.90948357858E+02  0.00000000000E+00 0.  1.
          2   -1    0    0  501    0  0.00000000000E+00 -0.00000000000E+00 -0.19330233092E+03  0.19330233092E+03  0.00000000000E+00 0. -1.
         25    2    1    2    0    0  0.47375015686E+02 -0.50530838900E+02 -0.83861877999E+02  0.16576619622E+03  0.12509140433E+03 0.  0.
         23    2    1    2    0    0 -0.47375015686E+02  0.50530838900E+02 -0.18492095067E+02  0.11848449256E+03  0.94333767056E+02 0.  0.
          5    1    3    3  502    0  0.67775870583E+02  0.10459721416E+02 -0.12899414026E+02  0.69905948872E+02  0.41800000000E+01 0.  1.
         -5    1    3    3    0  502 -0.20400854898E+02 -0.60990560316E+02 -0.70962463973E+02  0.95860247347E+02  0.41800000000E+01 0.  1.
        -11    1    4    4    0    0 -0.51980345470E+02  0.32796570394E+02 -0.51859470707E+02  0.80417510822E+02  0.00000000000E+00 0. -1.
         11    1    4    4    0    0  0.46053297840E+01  0.17734268506E+02  0.33367375640E+02  0.38066981742E+02  0.00000000000E+00 0.  1.
</event>
<event>
 8    1  0.6185113E-009  0.9765244E+02  0.7561462E-02  0.1285311E+00
          2   -1    0    0  501    0  0.00000000000E+00  0.00000000000E+00  0.71959369556E+02  0.71959369556E+02  0.00000000000E+00 0. -1.
         -2   -1    0    0    0  501 -0.00000000000E+00 -0.00000000000E+00 -0.22882213505E+03  0.22882213505E+03  0.00000000000E+00 0.  1.
         25    2    1    2    0    0  0.28550244865E+02  0.12791619891E+02 -0.15499307510E+02  0.12987160392E+03  0.12509061895E+03 0.  0.
         23    2    1    2    0    0 -0.28550244865E+02 -0.12791619891E+02 -0.14136345799E+03  0.17090990069E+03  0.90817536179E+02 0.  0.
          5    1    3    3  502    0  0.39301501475E+02 -0.33378389935E+02  0.33447949274E+02  0.61603268123E+02  0.41800000000E+01 0.  1.
         -5    1    3    3    0  502 -0.10751256610E+02  0.46170009826E+02 -0.48947256784E+02  0.68268335798E+02  0.41800000000E+01 0.  1.
        -11    1    4    4    0    0 -0.45529718072E+02  0.26851130438E+02 -0.81112997922E+02  0.96815581728E+02  0.00000000000E+00 0.  1.
         11    1    4    4    0    0  0.16979473206E+02 -0.39642750329E+02 -0.60250460067E+02  0.74094318961E+02  0.00000000000E+00 0. -1.
</event>
<event>
 8    1  0.6185113E-009  0.1073628E+03  0.7561462E-02  0.1265533E+00
          1   -1    0    0  501    0  0.00000000000E+00  0.00000000000E+00  0.17911321980E+02  0.17911321980E+02  0.00000000000E+00 0. -1.
         -1   -1    0    0    0  501 -0.00000000000E+00 -0.00000000000E+00 -0.96261525897E+03  0.96261525897E+03  0.00000000000E+00 0.  1.
         25    2    1    2    0    0  0.26652573557E+02 -0.19957167193E+02 -0.76797942304E+03  0.77881249324E+03  0.12509139545E+03 0.  0.
         23    2    1    2    0    0 -0.26652573557E+02  0.19957167193E+02 -0.17672451394E+03  0.20171408770E+03  0.91369421306E+02 0.  0.
          5    1    3    3  502    0 -0.45076256766E+02  0.16432791612E+02 -0.24805134560E+03  0.25268329589E+03  0.41800000000E+01 0.  1.
         -5    1    3    3    0  502  0.71728830323E+02 -0.36389958805E+02 -0.51992807744E+03  0.52612919736E+03  0.41800000000E+01 0.  1.
        -11    1    4    4    0    0 -0.11429471071E+02  0.50565136569E+02 -0.14880592295E+03  0.15757750014E+03  0.00000000000E+00 0.  1.
         11    1    4    4    0    0 -0.15223102485E+02 -0.30607969376E+02 -0.27918590989E+02  0.44136587560E+02  0.00000000000E+00 0. -1.
</event>
<event>
 8    1  0.6185113E-009  0.9835771E+02  0.7561462E-02  0.1283788E+00
          1   -1    0    0  501    0  0.00000000000E+00  0.00000000000E+00  0.32267728286E+02  0.32267728286E+02  0.00000000000E+00 0. -1.
         -1   -1    0    0    0  501 -0.00000000000E+00 -0.00000000000E+00 -0.42815521908E+03  0.42815521908E+03  0.00000000000E+00 0.  1.
         25    2    1    2    0    0 -0.11499091171E+02  0.28226834402E+02 -0.27500840928E+03  0.30365511337E+03  0.12509124438E+03 0.  0.
         23    2    1    2    0    0  0.11499091171E+02 -0.28226834402E+02 -0.12087908151E+03  0.15676783400E+03  0.95054816559E+02 0.  0.
          5    1    3    3  502    0 -0.53193932642E+02  0.55575095005E-01 -0.50250266046E+02  0.73295014812E+02  0.41800000000E+01 0. -1.
         -5    1    3    3    0  502  0.41694841471E+02  0.28171259307E+02 -0.22475814323E+03  0.23036009855E+03  0.41800000000E+01 0. -1.
        -11    1    4    4    0    0 -0.31483481621E+02  0.12288482583E+02 -0.18390702780E+02  0.38476413137E+02  0.00000000000E+00 0.  1.
         11    1    4    4    0    0  0.42982572791E+02 -0.40515316985E+02 -0.10248837873E+03  0.11829142086E+03  0.00000000000E+00 0. -1.
</event>
<event>
 8    1  0.6185113E-009  0.9104415E+02  0.7561462E-02  0.1300343E+00
         -1   -1    0    0    0  501 -0.00000000000E+00  0.00000000000E+00  0.43556427105E+02  0.43556427105E+02  0.00000000000E+00 0.  1.
          1   -1    0    0  501    0  0.00000000000E+00 -0.00000000000E+00 -0.29131181103E+03  0.29131181103E+03  0.00000000000E+00 0. -1.
         25    2    1    2    0    0  0.23461118782E+02  0.14282177349E+02 -0.11753768448E+03  0.17383501637E+03  0.12509636669E+03 0.  0.
         23    2    1    2    0    0 -0.23461118782E+02 -0.14282177349E+02 -0.13021769945E+03  0.16103322176E+03  0.90667770338E+02 0.  0.
          5    1    3    3  502    0  0.24691818302E+00  0.46908374840E+02  0.25645111640E+01  0.47164665972E+02  0.41800000000E+01 0. -1.
         -5    1    3    3    0  502  0.23214200599E+02 -0.32626197491E+02 -0.12010219564E+03  0.12667035040E+03  0.41800000000E+01 0. -1.
        -11    1    4    4    0    0  0.21900122286E+02  0.26051746354E+02 -0.47396282711E+02  0.58349948235E+02  0.00000000000E+00 0. -1.
         11    1    4    4    0    0 -0.45361241068E+02 -0.40333923703E+02 -0.82821416737E+02  0.10268327353E+03  0.00000000000E+00 0.  1.
</event>
<event>
 8    1  0.6185113E-009  0.1304571E+03  0.7561462E-02  0.1226779E+00
          2   -1    0    0  501    0  0.00000000000E+00  0.00000000000E+00  0.12311771627E+03  0.12311771627E+03  0.00000000000E+00 0. -1.
         -2   -1    0    0    0  501 -0.00000000000E+00 -0.00000000000E+00 -0.14903721761E+03  0.14903721761E+03  0.00000000000E+00 0.  1.
         25    2    1    2    0    0  0.73143010027E+02 -0.85489232881E+01 -0.49009346387E+02  0.15321056883E+03  0.12509427790E+03 0.  0.
         23    2    1    2    0    0 -0.73143010027E+02  0.85489232881E+01  0.23089845043E+02  0.11894436505E+03  0.90507662809E+02 0.  0.
          5    1    3    3  502    0 -0.53802370597E+01  0.47702035450E+02 -0.20909026571E+02  0.52527049499E+02  0.41800000000E+01 0.  1.
         -5    1    3    3    0  502  0.78523247087E+02 -0.56250958738E+02 -0.28100319816E+02  0.10068351934E+03  0.41800000000E+01 0.  1.
        -11    1    4    4    0    0 -0.25016063748E+02 -0.40324410043E+02  0.15564921173E+02  0.49941248101E+02  0.00000000000E+00 0.  1.
         11    1    4    4    0    0 -0.48126946279E+02  0.48873333331E+02  0.75249238702E+01  0.69003116946E+02  0.00000000000E+00 0. -1.
</event>
<event>
 8    1  0.6185113E-009  0.1056420E+03  0.7561462E-02  0.1268860E+00
          1   -1    0    0  501    0  0.00000000000E+00  0.00000000000E+00  0.15056893332E+03  0.15056893332E+03  0.00000000000E+00 0. -1.
         -1   -1    0    0    0  501 -0.00000000000E+00 -0.00000000000E+00 -0.89752741914E+02  0.89752741914E+02  0.00000000000E+00 0.  1.
         25    2    1    2    0    0  0.39938425943E+02  0.66075047076E+01  0.50696108760E+02  0.14091267843E+03  0.12509016954E+03 0.  0.
         23    2    1    2    0    0 -0.39938425943E+02 -0.66075047076E+01  0.10120082648E+02  0.99408996803E+02  0.90227465814E+02 0.  0.
          5    1    3    3  502    0  0.83698123914E+02 -0.14329319211E+01  0.46947596708E+02  0.96067572454E+02  0.41800000000E+01 0.  1.
         -5    1    3    3    0  502 -0.43759697971E+02  0.80404366287E+01  0.37485120521E+01  0.44845105979E+02  0.41800000000E+01 0.  1.
        -11    1    4    4    0    0  0.11292869368E+01  0.28639543723E+02 -0.22306060583E+02  0.36318853126E+02  0.00000000000E+00 0.  1.
         11    1    4    4    0    0 -0.41067712880E+02 -0.35247048430E+02  0.32426143231E+02  0.63090143677E+02  0.00000000000E+00 0. -1.
</event>
<event>
 8    1  0.6185113E-009  0.8049037E+02  0.7561462E-02  0.1327666E+00
          3   -1    0    0  501    0  0.00000000000E+00  0.00000000000E+00  0.61754501088E+02  0.61754501088E+02  0.00000000000E+00 0. -1.
         -3   -1    0    0    0  501 -0.00000000000E+00 -0.00000000000E+00 -0.27017761032E+03  0.27017761032E+03  0.00000000000E+00 0.  1.
         25    2    1    2    0    0  0.34471114004E+02 -0.32816658565E+02 -0.18289372320E+03  0.22663309500E+03  0.12508898826E+03 0.  0.
         23    2    1    2    0    0 -0.34471114004E+02  0.32816658565E+02 -0.25529386036E+02  0.10529901641E+03  0.90393265933E+02 0.  0.
          5    1    3    3  502    0  0.55817232878E+02 -0.57576668515E+02 -0.62347475097E+02  0.10166275766E+03  0.41800000000E+01 0.  1.
         -5    1    3    3    0  502 -0.21346118874E+02  0.24760009950E+02 -0.12054624810E+03  0.12497033734E+03  0.41800000000E+01 0.  1.
        -11    1    4    4    0    0 -0.13475537666E+02  0.10505993929E+02  0.34166358676E+02  0.38200865030E+02  0.00000000000E+00 0. -1.
         11    1    4    4    0    0 -0.20995576338E+02  0.22310664636E+02 -0.59695744712E+02  0.67098151383E+02  0.00000000000E+00 0.  1.
</event>
<event>
 8    1  0.6185113E-009  0.2498538E+03  0.7561462E-02  0.1113397E+00
          1   -1    0    0  501    0  0.00000000000E+00  0.00000000000E+00  0.25378353666E+04  0.25378353666E+04  0.00000000000E+00 0. -1.
         -1   -1    0    0    0  501 -0.00000000000E+00 -0.00000000000E+00 -0.54047349264E+02  0.54047349264E+02  0.00000000000E+00 0.  1.
         25    2    1    2    0    0  0.28555183469E+02  0.23847543055E+03  0.21654375530E+04  0.21823044080E+04  0.12508718525E+03 0.  0.
         23    2    1    2    0    0 -0.28555183469E+02 -0.23847543055E+03  0.31835046434E+03  0.40957830783E+03  0.93388664317E+02 0.  0.
          5    1    3    3  502    0  0.73086165561E+01  0.20970140416E+03  0.13633504357E+04  0.13794092858E+04  0.41800000000E+01 0.  1.
         -5    1    3    3    0  502  0.21246566913E+02  0.28774026388E+02  0.80208711721E+03  0.80289512217E+03  0.41800000000E+01 0.  1.
        -11    1    4    4    0    0 -0.55965388080E+02 -0.12287467371E+03  0.20433063256E+03  0.24491083583E+03  0.00000000000E+00 0.  1.
         11    1    4    4    0    0  0.27410204611E+02 -0.11560075683E+03  0.11401983178E+03  0.16466747200E+03  0.00000000000E+00 0. -1.
</event>
<event>
 8    1  0.6185113E-009  0.1176834E+03  0.7561462E-02  0.1246968E+00
          2   -1    0    0  501    0  0.00000000000E+00  0.00000000000E+00  0.60748008076E+02  0.60748008076E+02  0.00000000000E+00 0.  1.
         -2   -1    0    0    0  501 -0.00000000000E+00 -0.00000000000E+00 -0.30341513293E+03  0.30341513293E+03  0.00000000000E+00 0. -1.
         25    2    1    2    0    0  0.68598526208E+02  0.44445484973E+02 -0.14565058928E+03  0.20866871584E+03  0.12508948750E+03 0.  0.
         23    2    1    2    0    0 -0.68598526208E+02 -0.44445484973E+02 -0.97016535581E+02  0.15549442517E+03  0.89917457423E+02 0.  0.
          5    1    3    3  502    0  0.95133873211E+02  0.29368981084E+02 -0.56962388031E+02  0.11478317356E+03  0.41800000000E+01 0.  1.
         -5    1    3    3    0  502 -0.26535347002E+02  0.15076503889E+02 -0.88688201246E+02  0.93885542286E+02  0.41800000000E+01 0.  1.
        -11    1    4    4    0    0 -0.80672359338E+02 -0.29966013435E+02 -0.10435594025E+03  0.13526327583E+03  0.00000000000E+00 0. -1.
         11    1    4    4    0    0  0.12073833130E+02 -0.14479471537E+02  0.73394046731E+01  0.20231149335E+02  0.00000000000E+00 0.  1.
</event>
<event>
 8    1  0.6185113E-009  0.1051006E+03  0.7561462E-02  0.1269921E+00
          1   -1    0    0  501    0  0.00000000000E+00  0.00000000000E+00  0.18452826177E+03  0.18452826177E+03  0.00000000000E+00 0. -1.
         -1   -1    0    0    0  501 -0.00000000000E+00 -0.00000000000E+00 -0.72752712250E+02  0.72752712250E+02  0.00000000000E+00 0.  1.
         25    2    1    2    0    0 -0.18795935184E+02  0.65447170747E+01  0.25271583018E+02  0.12916100777E+03  0.12509113685E+03 0.  0.
         23    2    1    2    0    0  0.18795935184E+02 -0.65447170747E+01  0.86503966507E+02  0.12811996626E+03  0.92388684542E+02 0.  0.
          5    1    3    3  502    0  0.38813344236E+02  0.34004725319E+02 -0.14604977301E+02  0.53791958477E+02  0.41800000000E+01 0. -1.
         -5    1    3    3    0  502 -0.57609279420E+02 -0.27460008244E+02  0.39876560319E+02  0.75369049290E+02  0.41800000000E+01 0. -1.
        -11    1    4    4    0    0 -0.31262322493E+02 -0.26106513696E+02  0.35594393431E+02  0.54091068660E+02  0.00000000000E+00 0.  1.
         11    1    4    4    0    0  0.50058257677E+02  0.19561796622E+02  0.50909573076E+02  0.74028897598E+02  0.00000000000E+00 0. -1.
</event>
<event>
 8    1  0.6185113E-009  0.1187631E+03  0.7561462E-02  0.1245152E+00
         -1   -1    0    0    0  501 -0.00000000000E+00  0.00000000000E+00  0.16081191333E+03  0.16081191333E+03  0.00000000000E+00 0. -1.
          1   -1    0    0  501    0  0.00000000000E+00 -0.00000000000E+00 -0.12919045774E+03  0.12919045774E+03  0.00000000000E+00 0.  1.
         25    2    1    2    0    0 -0.85066889279E+02  0.37567131034E+02  0.33784652472E+02  0.15948612402E+03  0.12508699384E+03 0.  0.
         23    2    1    2    0    0  0.85066889279E+02 -0.37567131034E+02 -0.21631968831E+01  0.13051624705E+03  0.91554062373E+02 0.  0.
          5    1    3    3  502    0 -0.80368523175E+02  0.48829263098E+02 -0.26536619334E+02  0.97801129941E+02  0.41800000000E+01 0.  1.
         -5    1    3    3    0  502 -0.46983661034E+01 -0.11262132064E+02  0.60321271806E+02  0.61684994083E+02  0.41800000000E+01 0.  1.
        -11    1    4    4    0    0  0.92993673782E+02 -0.91763474319E+00 -0.19546662745E+01  0.93018740785E+02  0.00000000000E+00 0. -1.
         11    1    4    4    0    0 -0.79267845031E+01 -0.36649496291E+02 -0.20853060859E+00  0.37497506263E+02  0.00000000000E+00 0.  1.
</event>
<event>
 8    1  0.6185113E-009  0.1685809E+03  0.7561462E-02  0.1179336E+00
         -2   -1    0    0    0  501 -0.00000000000E+00  0.00000000000E+00  0.10525748117E+03  0.10525748117E+03  0.00000000000E+00 0.  1.
          2   -1    0    0  501    0  0.00000000000E+00 -0.00000000000E+00 -0.33749386300E+03  0.33749386300E+03  0.00000000000E+00 0. -1.
         25    2    1    2    0    0  0.14676660291E+03 -0.16378673185E+02 -0.72468226425E+02  0.20665951822E+03  0.12509123057E+03 0.  0.
         23    2    1    2    0    0 -0.14676660291E+03  0.16378673185E+02 -0.15976815540E+03  0.23609182594E+03  0.91677642497E+02 0.  0.
          5    1    3    3  502    0  0.12753541433E+03 -0.60440512660E+02 -0.34741873130E+02  0.14540566573E+03  0.41800000000E+01 0.  1.
         -5    1    3    3    0  502  0.19231188582E+02  0.44061839476E+02 -0.37726353295E+02  0.61253852493E+02  0.41800000000E+01 0.  1.
        -11    1    4    4    0    0 -0.12297758894E+03  0.12569196719E+02 -0.16976845825E+03  0.21000667014E+03  0.00000000000E+00 0. -1.
         11    1    4    4    0    0 -0.23789013962E+02  0.38094764654E+01  0.10000302846E+02  0.26085155803E+02  0.00000000000E+00 0.  1.
</event>
<event>
 8    1  0.6185113E-009  0.2075737E+03  0.7561462E-02  0.1143502E+00
         -2   -1    0    0    0  501 -0.00000000000E+00  0.00000000000E+00  0.39195311478E+02  0.39195311478E+02  0.00000000000E+00 0.  1.
          2   -1    0    0  501    0  0.00000000000E+00 -0.00000000000E+00 -0.14772774575E+04  0.14772774575E+04  0.00000000000E+00 0. -1.
         25    2    1    2    0    0  0.15893198264E+03  0.13275742645E+03 -0.57304846771E+03  0.62202399430E+03  0.12508154840E+03 0.  0.
         23    2    1    2    0    0 -0.15893198264E+03 -0.13275742645E+03 -0.86503367835E+03  0.89444877472E+03  0.94188303592E+02 0.  0.
          5    1    3    3  502    0  0.50303147341E+02  0.43251090211E+02 -0.36368918369E+03  0.36971388691E+03  0.41800000000E+01 0. -1.
         -5    1    3    3    0  502  0.10862883530E+03  0.89506336244E+02 -0.20935928402E+03  0.25231010739E+03  0.41800000000E+01 0. -1.
        -11    1    4    4    0    0 -0.95506417515E+02 -0.68190615958E+02 -0.65964742873E+03  0.67000460156E+03  0.00000000000E+00 0. -1.
         11    1    4    4    0    0 -0.63425565127E+02 -0.64566810497E+02 -0.20538624962E+03  0.22444417316E+03  0.00000000000E+00 0.  1.
</event>
<event>
 8    1  0.6185113E-009  0.2055366E+03  0.7561462E-02  0.1145150E+00
         -1   -1    0    0    0  501 -0.00000000000E+00  0.00000000000E+00  0.92349438701E+02  0.92349438701E+02  0.00000000000E+00 0. -1.
          1   -1    0    0  501    0  0.00000000000E+00 -0.00000000000E+00 -0.62970022335E+03  0.62970022335E+03  0.00000000000E+00 0.  1.
         25    2    1    2    0    0  0.14100927108E+03  0.13625669277E+03 -0.40726135855E+03  0.46899721036E+03  0.12508824205E+03 0.  0.
         23    2    1    2    0    0 -0.14100927108E+03 -0.13625669277E+03 -0.13008942609E+03  0.25305245169E+03  0.93074076243E+02 0.  0.
          5    1    3    3  502    0  0.10219682432E+03  0.38597708152E+02 -0.29764338099E+03  0.31708520719E+03  0.41800000000E+01 0.  1.
         -5    1    3    3    0  502  0.38812446762E+02  0.97658984621E+02 -0.10961797756E+03  0.15191200317E+03  0.41800000000E+01 0.  1.
        -11    1    4    4    0    0 -0.43720657615E+02 -0.51431655107E+02  0.31079881719E+01  0.67574926118E+02  0.00000000000E+00 0.  1.
         11    1    4    4    0    0 -0.97288613464E+02 -0.84825037666E+02 -0.13319741427E+03  0.18547752557E+03  0.00000000000E+00 0. -1.
</event>
<event>
 8    1  0.6185113E-009  0.1049323E+03  0.7561462E-02  0.1270253E+00
         -1   -1    0    0    0  501 -0.00000000000E+00  0.00000000000E+00  0.25281053798E+02  0.25281053798E+02  0.00000000000E+00 0.  1.
          1   -1    0    0  501    0  0.00000000000E+00 -0.00000000000E+00 -0.47624393594E+03  0.47624393594E+03  0.00000000000E+00 0. -1.
         25    2    1    2    0    0 -0.11278423041E+02  0.11098631574E+02 -0.27259030803E+03  0.30033802345E+03  0.12508824824E+03 0.  0.
         23    2    1    2    0    0  0.11278423041E+02 -0.11098631574E+02 -0.17837257412E+03  0.20118696629E+03  0.91700805670E+02 0.  0.
          5    1    3    3  502    0  0.49417450612E+02  0.25473674602E+02 -0.77462524995E+02  0.95440597763E+02  0.41800000000E+01 0.  1.
         -5    1    3    3    0  502 -0.60695873653E+02 -0.14375043028E+02 -0.19512778303E+03  0.20489742568E+03  0.41800000000E+01 0.  1.
        -11    1    4    4    0    0 -0.39396481939E+02  0.13317080744E+01 -0.94731035578E+02  0.10260519157E+03  0.00000000000E+00 0. -1.
         11    1    4    4    0    0  0.50674904980E+02 -0.12430339648E+02 -0.83641538538E+02  0.98581774722E+02  0.00000000000E+00 0.  1.
</event>
<event>
 8    1  0.6185113E-009  0.9700964E+02  0.7561462E-02  0.1286713E+00
         -2   -1    0    0    0  501 -0.00000000000E+00  0.00000000000E+00  0.16207694051E+02  0.16207694051E+02  0.00000000000E+00 0.  1.
          2   -1    0    0  501    0  0.00000000000E+00 -0.00000000000E+00 -0.88459200708E+03  0.88459200708E+03  0.00000000000E+00 0. -1.
         25    2    1    2    0    0  0.48674248520E+02 -0.96887277467E+01 -0.53707432189E+03  0.55367808861E+03  0.12509014614E+03 0.  0.
         23    2    1    2    0    0 -0.48674248520E+02  0.96887277467E+01 -0.33130999114E+03  0.34712161252E+03  0.90906818969E+02 0.  0.
          5    1    3    3  502    0 -0.10978684136E+02  0.20374131994E+02 -0.16286512375E+02  0.28606985952E+02  0.41800000000E+01 0.  1.
         -5    1    3    3    0  502  0.59652932656E+02 -0.30062859741E+02 -0.52078780951E+03  0.52507110266E+03  0.41800000000E+01 0.  1.
        -11    1    4    4    0    0 -0.19853250047E+02  0.50125311547E+02 -0.17155159987E+03  0.17982394116E+03  0.00000000000E+00 0.  1.
         11    1    4    4    0    0 -0.28820998473E+02 -0.40436583801E+02 -0.15975839127E+03  0.16729767136E+03  0.00000000000E+00 0. -1.
</event>
<event>
 8    1  0.6185113E-009  0.8338198E+02  0.7561462E-02  0.1319719E+00
          2   -1    0    0  501    0  0.00000000000E+00  0.00000000000E+00  0.19182526550E+03  0.19182526550E+03  0.00000000000E+00 0. -1.
         -2   -1    0    0    0  501 -0.00000000000E+00 -0.00000000000E+00 -0.76196257831E+02  0.76196257831E+02  0.00000000000E+00 0.  1.
         25    2    1    2    0    0 -0.43140218214E+02  0.30016363055E+02  0.76522459366E+02  0.15577104352E+03  0.12508745234E+03 0.  0.
         23    2    1    2    0    0  0.43140218214E+02 -0.30016363055E+02  0.39106548300E+02  0.11225047981E+03  0.91152551353E+02 0.  0.
          5    1    3    3  502    0  0.15327718490E+02  0.40026437946E+02 -0.15870482617E+02  0.45895526004E+02  0.41800000000E+01 0.  1.
         -5    1    3    3    0  502 -0.58467936704E+02 -0.10010074891E+02  0.92392941982E+02  0.10987551752E+03  0.41800000000E+01 0.  1.
        -11    1    4    4    0    0  0.42692736289E+02 -0.95309094752E+01 -0.21162261710E+02  0.48593716548E+02  0.00000000000E+00 0.  1.
         11    1    4    4    0    0  0.44748192479E+00 -0.20485453579E+02  0.60268810010E+02  0.63656763258E+02  0.00000000000E+00 0. -1.
</event>
<event>
 8    1  0.6185113E-009  0.8518222E+02  0.7561462E-02  0.1314957E+00
          4   -1    0    0  501    0  0.00000000000E+00  0.00000000000E+00  0.33160344719E+03  0.33160344719E+03  0.00000000000E+00 0. -1.
         -4   -1    0    0    0  501 -0.00000000000E+00 -0.00000000000E+00 -0.38653640249E+02  0.38653640249E+02  0.00000000000E+00 0.  1.
         25    2    1    2    0    0 -0.67727799544E+01 -0.38425596114E+01  0.21645997719E+03  0.25012636018E+03  0.12509052130E+03 0.  0.
         23    2    1    2    0    0  0.67727799544E+01  0.38425596114E+01  0.76489829753E+02  0.12013072726E+03  0.92304180638E+02 0.  0.
          5    1    3    3  502    0 -0.51160999494E+02 -0.48943340669E+01  0.19293140889E+03  0.19970328818E+03  0.41800000000E+01 0. -1.
         -5    1    3    3    0  502  0.44388219540E+02  0.10517744555E+01  0.23528568299E+02  0.50423071997E+02  0.41800000000E+01 0. -1.
        -11    1    4    4    0    0 -0.24973487084E+02 -0.21989577922E+02 -0.11813134439E+00  0.33275073994E+02  0.00000000000E+00 0.  1.
         11    1    4    4    0    0  0.31746267038E+02  0.25832137533E+02  0.76607961097E+02  0.86855653263E+02  0.00000000000E+00 0. -1.
</event>
<event>
 8    1  0.6185113E-009  0.1517931E+03  0.7561462E-02  0.1198287E+00
         -1   -1    0    0    0  501 -0.00000000000E+00  0.00000000000E+00  0.17059158403E+03  0.17059158403E+03  0.00000000000E+00 0.  1.
          1   -1    0    0  501    0  0.00000000000E+00 -0.00000000000E+00 -0.19355298383E+03  0.19355298383E+03  0.00000000000E+00 0. -1.
         25    2    1    2    0    0 -0.11065950607E+03 -0.93926888407E+02 -0.12393197055E+02  0.19201236727E+03  0.12508945280E+03 0.  0.
         23    2    1    2    0    0  0.11065950607E+03  0.93926888407E+02 -0.10568202748E+02  0.17213220058E+03  0.91923995330E+02 0.  0.
          5    1    3    3  502    0 -0.10863193337E+03 -0.99781111520E+02 -0.48354276070E+02  0.15528288887E+03  0.41800000000E+01 0. -1.
         -5    1    3    3    0  502 -0.20275727084E+01  0.58542231124E+01  0.35961079015E+02  0.36729478396E+02  0.41800000000E+01 0. -1.
        -11    1    4    4    0    0  0.42333880387E+02  0.16889755855E+02  0.36998346469E+02  0.58705186508E+02  0.00000000000E+00 0.  1.
         11    1    4    4    0    0  0.68325625687E+02  0.77037132552E+02 -0.47566549217E+02  0.11342701407E+03  0.00000000000E+00 0. -1.
</event>
<event>
 8    1  0.6185113E-009  0.9314662E+02  0.7561462E-02  0.1295406E+00
         -2   -1    0    0    0  501 -0.00000000000E+00  0.00000000000E+00  0.72414952627E+02  0.72414952627E+02  0.00000000000E+00 0. -1.
          2   -1    0    0  501    0  0.00000000000E+00 -0.00000000000E+00 -0.42926263545E+03  0.42926263545E+03  0.00000000000E+00 0.  1.
         25    2    1    2    0    0 -0.77319891269E+02  0.14656898012E+01 -0.25192874675E+02  0.14920472753E+03  0.12508739326E+03 0.  0.
         23    2    1    2    0    0  0.77319891269E+02 -0.14656898012E+01 -0.33165480815E+03  0.35247286054E+03  0.90893849180E+02 0.  0.
          5    1    3    3  502    0 -0.43559746202E+02 -0.29995109865E+02 -0.67914308220E+02  0.86179949908E+02  0.41800000000E+01 0.  1.
         -5    1    3    3    0  502 -0.33760145067E+02  0.31460799667E+02  0.42721433546E+02  0.63024777626E+02  0.41800000000E+01 0.  1.
        -11    1    4    4    0    0  0.60864316055E+02  0.15975130474E+02 -0.31940889688E+03  0.32554832693E+03  0.00000000000E+00 0.  1.
         11    1    4    4    0    0  0.16455575214E+02 -0.17440820275E+02 -0.12245911274E+02  0.26924533616E+02  0.00000000000E+00 0. -1.
</event>
<event>
 8    1  0.6185113E-009  0.1163290E+03  0.7561462E-02  0.1249279E+00
          4   -1    0    0  501    0  0.00000000000E+00  0.00000000000E+00  0.72407740568E+03  0.72407740568E+03  0.00000000000E+00 0.  1.
         -4   -1    0    0    0  501 -0.00000000000E+00 -0.00000000000E+00 -0.22722169390E+02  0.22722169390E+02  0.00000000000E+00 0. -1.
         25    2    1    2    0    0  0.53489702739E+02  0.42394993609E+02  0.40794107386E+03  0.43211493690E+03  0.12509562409E+03 0.  0.
         23    2    1    2    0    0 -0.53489702739E+02 -0.42394993609E+02  0.29341416242E+03  0.31468463817E+03  0.90972891591E+02 0.  0.
          5    1    3    3  502    0  0.72448843737E+02 -0.20798721210E+02  0.19306601762E+03  0.20730022027E+03  0.41800000000E+01 0.  1.
         -5    1    3    3    0  502 -0.18959140998E+02  0.63193714819E+02  0.21487505624E+03  0.22481471663E+03  0.41800000000E+01 0.  1.
        -11    1    4    4    0    0 -0.27543871539E+02 -0.55523539214E+02  0.27092573007E+03  0.27792495297E+03  0.00000000000E+00 0.  1.
         11    1    4    4    0    0 -0.25945831200E+02  0.13128545604E+02  0.22488432353E+02  0.36759685200E+02  0.00000000000E+00 0. -1.
</event>
<event>
 8    1  0.6185113E-009  0.1041773E+03  0.7561462E-02  0.1271749E+00
         -1   -1    0    0    0  501 -0.00000000000E+00  0.00000000000E+00  0.32721823394E+03  0.32721823394E+03  0.00000000000E+00 0.  1.
          1   -1    0    0  501    0  0.00000000000E+00 -0.00000000000E+00 -0.56950332598E+02  0.56950332598E+02  0.00000000000E+00 0. -1.
         25    2    1    2    0    0 -0.72683402021E+02 -0.36663937108E+02  0.16710103975E+03  0.22404766840E+03  0.12508988376E+03 0.  0.
         23    2    1    2    0    0  0.72683402021E+02  0.36663937108E+02  0.10316686159E+03  0.16012089813E+03  0.91477753988E+02 0.  0.
          5    1    3    3  502    0 -0.60588328139E+02 -0.48321614286E+02  0.25942426631E+02  0.81831569784E+02  0.41800000000E+01 0. -1.
         -5    1    3    3    0  502 -0.12095073882E+02  0.11657677179E+02  0.14115861312E+03  0.14221609862E+03  0.41800000000E+01 0. -1.
        -11    1    4    4    0    0  0.14880234121E+02 -0.24886596339E+02  0.56842379794E+02  0.63810815584E+02  0.00000000000E+00 0.  1.
         11    1    4    4    0    0  0.57803167900E+02  0.61550533447E+02  0.46324481799E+02  0.96310082550E+02  0.00000000000E+00 0. -1.
</event>
<event>
 8    1  0.6185113E-009  0.9717198E+02  0.7561462E-02  0.1286358E+00
          2   -1    0    0  501    0  0.00000000000E+00  0.00000000000E+00  0.17683514028E+03  0.17683514028E+03  0.00000000000E+00 0. -1.
         -2   -1    0    0    0  501 -0.00000000000E+00 -0.00000000000E+00 -0.68798687990E+02  0.68798687990E+02  0.00000000000E+00 0.  1.
         25    2    1    2    0    0  0.48841751403E+01 -0.30218071273E+01  0.40988875778E+02  0.13176011914E+03  0.12509058547E+03 0.  0.
         23    2    1    2    0    0 -0.48841751403E+01  0.30218071273E+01  0.67047576511E+02  0.11387370913E+03  0.91863255053E+02 0.  0.
          5    1    3    3  502    0 -0.38794119218E+02 -0.43816759609E+02 -0.86207633041E+00  0.58678000001E+02  0.41800000000E+01 0. -1.
         -5    1    3    3    0  502  0.43678294359E+02  0.40794952482E+02  0.41850952108E+02  0.73082119143E+02  0.41800000000E+01 0. -1.
        -11    1    4    4    0    0 -0.26061148224E+02 -0.27966280538E+02  0.13981538225E+01  0.38252465646E+02  0.00000000000E+00 0.  1.
         11    1    4    4    0    0  0.21176973083E+02  0.30988087665E+02  0.65649422688E+02  0.75621243480E+02  0.00000000000E+00 0. -1.
</event>
<event>
 8    1  0.6185113E-009  0.2800415E+03  0.7561462E-02  0.1095666E+00
         -1   -1    0    0    0  501 -0.00000000000E+00  0.00000000000E+00  0.34582567531E+03  0.34582567531E+03  0.00000000000E+00 0.  1.
          1   -1    0    0  501    0  0.00000000000E+00 -0.00000000000E+00 -0.30003471870E+03  0.30003471870E+03  0.00000000000E+00 0. -1.
         25    2    1    2    0    0  0.10647562104E+03  0.25425453810E+03  0.15170238304E+03  0.33859045113E+03  0.12508977797E+03 0.  0.
         23    2    1    2    0    0 -0.10647562104E+03 -0.25425453810E+03 -0.10591142643E+03  0.30726994288E+03  0.84942095131E+02 0.  0.
          5    1    3    3  502    0  0.11224195585E+03  0.25159710053E+03  0.16651725269E+03  0.32193916426E+03  0.41800000000E+01 0.  1.
         -5    1    3    3    0  502 -0.57663348034E+01  0.26574375771E+01 -0.14814869647E+02  0.16651286863E+02  0.41800000000E+01 0.  1.
        -11    1    4    4    0    0 -0.48486166226E+01 -0.34454707155E+02 -0.46241227489E+02  0.57869569274E+02  0.00000000000E+00 0. -1.
         11    1    4    4    0    0 -0.10162700442E+03 -0.21979983095E+03 -0.59670198942E+02  0.24940037360E+03  0.00000000000E+00 0.  1.
</event>
<event>
 7    1  0.6185113E-009  0.1227887E+03  0.7561462E-02  0.1238566E+00
          3   -1    0    0  501    0  0.00000000000E+00  0.00000000000E+00  0.51822459293E+03  0.51822459293E+03  0.00000000000E+00 0. -1.
         -3   -1    0    0    0  501 -0.00000000000E+00 -0.00000000000E+00 -0.31513934967E+02  0.31513934967E+02  0.00000000000E+00 0.  1.
         23    2    1    2    0    0 -0.17160586030E+02  0.64128045211E+02  0.19409863216E+03  0.22470347894E+03  0.91708683048E+02 0.  0.
          5    1    1    2  502    0 -0.24396768809E+02  0.29102808260E+02  0.62288052167E+02  0.73071537686E+02  0.41800000000E+01 0. -1.
         -5    1    1    2    0  502  0.41557354839E+02 -0.93230853471E+02  0.23032397364E+03  0.25196351127E+03  0.41800000000E+01 0. -1.
        -11    1    3    3    0    0 -0.35113548419E+02  0.75979522525E+02  0.11192490827E+03  0.13976063186E+03  0.00000000000E+00 0.  1.
         11    1    3    3    0    0  0.17952962389E+02 -0.11851477314E+02  0.82173723885E+02  0.84942847081E+02  0.00000000000E+00 0. -1.
</event>
<event>
 8    1  0.6185113E-009  0.2027905E+03  0.7561462E-02  0.1147406E+00
          1   -1    0    0  501    0  0.00000000000E+00  0.00000000000E+00  0.18317751070E+04  0.18317751070E+04  0.00000000000E+00 0. -1.
         -1   -1    0    0    0  501 -0.00000000000E+00 -0.00000000000E+00 -0.26078242572E+02  0.26078242572E+02  0.00000000000E+00 0.  1.
         25    2    1    2    0    0 -0.57827688590E+02  0.18090309033E+03  0.88956942334E+03  0.91817818627E+03  0.12508978034E+03 0.  0.
         23    2    1    2    0    0  0.57827688590E+02 -0.18090309033E+03  0.91612744112E+03  0.93967516333E+03  0.87349611051E+02 0.  0.
          5    1    3    3  502    0 -0.64496279387E+02  0.91886364951E+02  0.69559890207E+03  0.70461207702E+03  0.41800000000E+01 0.  1.
         -5    1    3    3    0  502  0.66685907967E+01  0.89016725377E+02  0.19397052127E+03  0.21356610925E+03  0.41800000000E+01 0.  1.
        -11    1    4    4    0    0 -0.46194829365E+01 -0.10709859049E+03  0.58424300767E+03  0.59399607719E+03  0.00000000000E+00 0. -1.
         11    1    4    4    0    0  0.62447171527E+02 -0.73804499841E+02  0.33188443345E+03  0.34567908614E+03  0.00000000000E+00 0.  1.
</event>
<event>
 8    1  0.6185113E-009  0.1497830E+03  0.7561462E-02  0.1200740E+00
         -2   -1    0    0    0  501 -0.00000000000E+00  0.00000000000E+00  0.68425425516E+02  0.68425425516E+02  0.00000000000E+00 0.  1.
          2   -1    0    0  501    0  0.00000000000E+00 -0.00000000000E+00 -0.47851625612E+03  0.47851625612E+03  0.00000000000E+00 0. -1.
         25    2    1    2    0    0  0.14998402000E+02  0.14601985292E+03 -0.21227667288E+03  0.28680204678E+03  0.12508908296E+03 0.  0.
         23    2    1    2    0    0 -0.14998402000E+02 -0.14601985292E+03 -0.19781415773E+03  0.26013963486E+03  0.83638741737E+02 0.  0.
          5    1    3    3  502    0  0.19340477577E+02  0.56316069550E+02 -0.38544067824E+01  0.59815404489E+02  0.41800000000E+01 0. -1.
         -5    1    3    3    0  502 -0.43420755777E+01  0.89703783373E+02 -0.20842226610E+03  0.22698664229E+03  0.41800000000E+01 0. -1.
        -11    1    4    4    0    0  0.95751507504E+01 -0.37772759316E+02 -0.11564682861E+03  0.12203546134E+03  0.00000000000E+00 0. -1.
         11    1    4    4    0    0 -0.24573552750E+02 -0.10824709361E+03 -0.82167329120E+02  0.13810417352E+03  0.00000000000E+00 0.  1.
</event>
<event>
 8    1  0.6185113E-009  0.1309744E+03  0.7561462E-02  0.1226017E+00
         -2   -1    0    0    0  501 -0.00000000000E+00  0.00000000000E+00  0.11473832581E+03  0.11473832581E+03  0.00000000000E+00 0.  1.
          2   -1    0    0  501    0  0.00000000000E+00 -0.00000000000E+00 -0.24382677776E+03  0.24382677776E+03  0.00000000000E+00 0. -1.
         25    2    1    2    0    0  0.11273525537E+03 -0.41676316578E+02 -0.11326485041E+03  0.20717706598E+03  0.12508899697E+03 0.  0.
         23    2    1    2    0    0 -0.11273525537E+03  0.41676316578E+02 -0.15823601535E+02  0.15138803759E+03  0.90674132979E+02 0.  0.
          5    1    3    3  502    0  0.56373605109E+02 -0.54232854725E+02 -0.12555832629E+03  0.14799172810E+03  0.41800000000E+01 0.  1.
         -5    1    3    3    0  502  0.56361650264E+02  0.12556538147E+02  0.12293475882E+02  0.59185337880E+02  0.41800000000E+01 0.  1.
        -11    1    4    4    0    0 -0.13472899361E+02  0.20001786542E+02 -0.40222596291E+02  0.46898270058E+02  0.00000000000E+00 0. -1.
         11    1    4    4    0    0 -0.99262356012E+02  0.21674530036E+02  0.24398994756E+02  0.10448976753E+03  0.00000000000E+00 0.  1.
</event>
<event>
 8    1  0.6185113E-009  0.1893092E+03  0.7561462E-02  0.1159086E+00
         -2   -1    0    0    0  501 -0.00000000000E+00  0.00000000000E+00  0.36789085172E+02  0.36789085172E+02  0.00000000000E+00 0.  1.
          2   -1    0    0  501    0  0.00000000000E+00 -0.00000000000E+00 -0.11149879792E+04  0.11149879792E+04  0.00000000000E+00 0. -1.
         25    2    1    2    0    0 -0.75618800233E+02 -0.15165349406E+03 -0.61028395680E+03  0.64560023615E+03  0.12504467910E+03 0.  0.
         23    2    1    2    0    0  0.75618800233E+02  0.15165349406E+03 -0.46791493719E+03  0.50617682819E+03  0.92485716413E+02 0.  0.
          5    1    3    3  502    0 -0.76949122694E+02 -0.16056420629E+03 -0.61020844340E+03  0.63566803335E+03  0.41800000000E+01 0. -1.
         -5    1    3    3    0  502  0.13303224615E+01  0.89107122230E+01 -0.75513403343E-01  0.99322027993E+01  0.41800000000E+01 0. -1.
        -11    1    4    4    0    0 -0.18358722308E+02  0.10922536670E+02 -0.31118317425E+02  0.37745121161E+02  0.00000000000E+00 0.  1.
         11    1    4    4    0    0  0.93977522541E+02  0.14073095739E+03 -0.43679661976E+03  0.46843170703E+03  0.00000000000E+00 0. -1.
</event>
<event>
 8    1  0.6185113E-009  0.2641903E+03  0.7561462E-02  0.1104651E+00
         -1   -1    0    0    0  501 -0.00000000000E+00  0.00000000000E+00  0.11155180696E+03  0.11155180696E+03  0.00000000000E+00 0.  1.
          1   -1    0    0  501    0  0.00000000000E+00 -0.00000000000E+00 -0.67352991159E+03  0.67352991159E+03  0.00000000000E+00 0. -1.
         25    2    1    2    0    0  0.23461021231E+03 -0.75494463268E+02 -0.35128693284E+03  0.44698019320E+03  0.12508964077E+03 0.  0.
         23    2    1    2    0    0 -0.23461021231E+03  0.75494463268E+02 -0.21069117178E+03  0.33810152535E+03  0.95814956408E+02 0.  0.
          5    1    3    3  502    0  0.23968553150E+03 -0.89014745439E+02 -0.34755212061E+03  0.43148896609E+03  0.41800000000E+01 0.  1.
         -5    1    3    3    0  502 -0.50753191937E+01  0.13520282171E+02 -0.37348122218E+01  0.15491227105E+02  0.41800000000E+01 0.  1.
        -11    1    4    4    0    0 -0.11996109046E+03  0.77761273872E+02 -0.15418773150E+03  0.21026491739E+03  0.00000000000E+00 0.  1.
         11    1    4    4    0    0 -0.11464912185E+03 -0.22668106036E+01 -0.56503440284E+02  0.12783660796E+03  0.00000000000E+00 0. -1.
</event>
<event>
 8    1  0.6185113E-009  0.1246934E+03  0.7561462E-02  0.1235549E+00
         -1   -1    0    0    0  501 -0.00000000000E+00  0.00000000000E+00  0.90374341621E+02  0.90374341621E+02  0.00000000000E+00 0.  1.
          1   -1    0    0  501    0  0.00000000000E+00 -0.00000000000E+00 -0.28363892267E+03  0.28363892267E+03  0.00000000000E+00 0. -1.
         25    2    1    2    0    0  0.19092834744E+01  0.12093991757E+03 -0.97657388171E+02  0.19953186810E+03  0.12508353968E+03 0.  0.
         23    2    1    2    0    0 -0.19092834744E+01 -0.12093991757E+03 -0.95607192877E+02  0.17448139619E+03  0.81687901569E+02 0.  0.
          5    1    3    3  502    0 -0.69025838652E+01  0.11765602833E+03 -0.12407522252E+03  0.17118037244E+03  0.41800000000E+01 0.  1.
         -5    1    3    3    0  502  0.88118673396E+01  0.32838892321E+01  0.26417834345E+02  0.28351495657E+02  0.41800000000E+01 0.  1.
        -11    1    4    4    0    0 -0.27330075640E+01 -0.16855939490E+02  0.14906885728E+02  0.22667317189E+02  0.00000000000E+00 0. -1.
         11    1    4    4    0    0  0.82372408958E+00 -0.10408397807E+03 -0.11051407860E+03  0.15181407900E+03  0.00000000000E+00 0.  1.
</event>
<event>
 8    1  0.6185113E-009  0.1193137E+03  0.7561462E-02  0.1244234E+00
          1   -1    0    0  501    0  0.00000000000E+00  0.00000000000E+00  0.43061336598E+03  0.43061336598E+03  0.00000000000E+00 0. -1.
         -1   -1    0    0    0  501 -0.00000000000E+00 -0.00000000000E+00 -0.50666611113E+02  0.50666611113E+02  0.00000000000E+00 0.  1.
         25    2    1    2    0    0 -0.34267883819E+01  0.84139391864E+02  0.11715604202E+03  0.19095612050E+03  0.12509005409E+03 0.  0.
         23    2    1    2    0    0  0.34267883819E+01 -0.84139391864E+02  0.26279071285E+03  0.29032385660E+03  0.90209771135E+02 0.  0.
          5    1    3    3  502    0 -0.56721666821E+02  0.60494790536E+02  0.34955164466E+02  0.90090527204E+02  0.41800000000E+01 0.  1.
         -5    1    3    3    0  502  0.53294878440E+02  0.23644601328E+02  0.82200877557E+02  0.10086559330E+03  0.41800000000E+01 0.  1.
        -11    1    4    4    0    0  0.14370102212E+02 -0.22764273784E+01 -0.32208089099E+00  0.14552858664E+02  0.00000000000E+00 0.  1.
         11    1    4    4    0    0 -0.10943313830E+02 -0.81862964485E+02  0.26311279374E+03  0.27577099793E+03  0.00000000000E+00 0. -1.
</event>
<event>
 8    1  0.6185113E-009  0.1003056E+03  0.7561462E-02  0.1279655E+00
         -2   -1    0    0    0  501 -0.00000000000E+00  0.00000000000E+00  0.11313962786E+03  0.11313962786E+03  0.00000000000E+00 0.  1.
          2   -1    0    0  501    0  0.00000000000E+00 -0.00000000000E+00 -0.16053082205E+03  0.16053082205E+03  0.00000000000E+00 0. -1.
         25    2    1    2    0    0 -0.55912884106E+02  0.21859583505E+02  0.24477758193E+02  0.14088280613E+03  0.12507882482E+03 0.  0.
         23    2    1    2    0    0  0.55912884106E+02 -0.21859583505E+02 -0.71868952379E+02  0.13278764377E+03  0.94145207114E+02 0.  0.
          5    1    3    3  502    0  0.39361860006E+02  0.96605409541E+01  0.17933064550E+02  0.44516842642E+02  0.41800000000E+01 0. -1.
         -5    1    3    3    0  502 -0.95274744112E+02  0.12199042551E+02  0.65446936428E+01  0.96365963492E+02  0.41800000000E+01 0. -1.
        -11    1    4    4    0    0  0.35478834436E+02 -0.24503970352E+02  0.13330624842E+02  0.45132004328E+02  0.00000000000E+00 0.  1.
         11    1    4    4    0    0  0.20434049670E+02  0.26443868468E+01 -0.85199577221E+02  0.87655639444E+02  0.00000000000E+00 0. -1.
</event>
<event>
 8    1  0.6185113E-009  0.1171666E+03  0.7561462E-02  0.1247846E+00
         -1   -1    0    0    0  501 -0.00000000000E+00  0.00000000000E+00  0.73886836197E+02  0.73886836197E+02  0.00000000000E+00 0.  1.
          1   -1    0    0  501    0  0.00000000000E+00 -0.00000000000E+00 -0.38178989981E+03  0.38178989981E+03  0.00000000000E+00 0. -1.
         25    2    1    2    0    0 -0.90661403156E+02  0.40785639971E+02 -0.27451056841E+03  0.31762605132E+03  0.12508915964E+03 0.  0.
         23    2    1    2    0    0  0.90661403156E+02 -0.40785639971E+02 -0.33392495208E+02  0.13805068469E+03  0.89777359933E+02 0.  0.
          5    1    3    3  502    0 -0.67905712408E+02  0.48692758139E+02 -0.63062103170E+02  0.10476865814E+03  0.41800000000E+01 0. -1.
         -5    1    3    3    0  502 -0.22755690748E+02 -0.79071181681E+01 -0.21144846524E+03  0.21285739318E+03  0.41800000000E+01 0. -1.
        -11    1    4    4    0    0  0.17328383294E+02 -0.49429032273E+02  0.86380455822E+01  0.53085948522E+02  0.00000000000E+00 0.  1.
         11    1    4    4    0    0  0.73333019863E+02  0.86433923021E+01 -0.42030540790E+02  0.84964736166E+02  0.00000000000E+00 0. -1.
</event>
<event>
 8    1  0.6185113E-009  0.1343850E+03  0.7561462E-02  0.1221090E+00
         -2   -1    0    0    0  501 -0.00000000000E+00  0.00000000000E+00  0.69600947050E+03  0.69600947050E+03  0.00000000000E+00 0.  1.
          2   -1    0    0  501    0  0.00000000000E+00 -0.00000000000E+00 -0.32245388348E+02  0.32245388348E+02  0.00000000000E+00 0. -1.
         25    2    1    2    0    0 -0.37159763723E+02 -0.76206243544E+02  0.21635925475E+03  0.26390896698E+03  0.12509346961E+03 0.  0.
         23    2    1    2    0    0  0.37159763723E+02  0.76206243544E+02  0.44740482740E+03  0.46434589187E+03  0.90872372693E+02 0.  0.
          5    1    3    3  502    0  0.94379417787E+01 -0.96394238663E+02  0.16620277973E+03  0.19241039572E+03  0.41800000000E+01 0. -1.
         -5    1    3    3    0  502 -0.46597705502E+02  0.20187995119E+02  0.50156475021E+02  0.71498571255E+02  0.41800000000E+01 0. -1.
        -11    1    4    4    0    0 -0.24450546025E+02  0.21622977037E+01  0.14215843292E+03  0.14426200048E+03  0.00000000000E+00 0. -1.
         11    1    4    4    0    0  0.61610309749E+02  0.74043945841E+02  0.30524639449E+03  0.32008389139E+03  0.00000000000E+00 0.  1.
</event>
<event>
 8    1  0.6185113E-009  0.2145753E+03  0.7561462E-02  0.1137993E+00
          2   -1    0    0  501    0  0.00000000000E+00  0.00000000000E+00  0.15466692751E+04  0.15466692751E+04  0.00000000000E+00 0. -1.
         -2   -1    0    0    0  501 -0.00000000000E+00 -0.00000000000E+00 -0.40103564392E+02  0.40103564392E+02  0.00000000000E+00 0.  1.
         25    2    1    2    0    0  0.17124769517E+03 -0.83030150143E+02  0.11484300866E+04  0.11707940925E+04  0.12508942531E+03 0.  0.
         23    2    1    2    0    0 -0.17124769517E+03  0.83030150143E+02  0.35813562411E+03  0.41597874699E+03  0.92506290334E+02 0.  0.
          5    1    3    3  502    0  0.12140715263E+03 -0.11395740347E+03  0.91735761517E+03  0.93235639807E+03  0.41800000000E+01 0.  1.
         -5    1    3    3    0  502  0.49840542531E+02  0.30927253323E+02  0.23107247142E+03  0.23843769444E+03  0.41800000000E+01 0.  1.
        -11    1    4    4    0    0 -0.11513642376E+03  0.91458642294E+02  0.20197994833E+03  0.24983390253E+03  0.00000000000E+00 0. -1.
         11    1    4    4    0    0 -0.56111271402E+02 -0.84284921512E+01  0.15615567579E+03  0.16614484446E+03  0.00000000000E+00 0.  1.
</event>
<event>
 8    1  0.6185113E-009  0.2464950E+03  0.7561462E-02  0.1115540E+00
         -1   -1    0    0    0  501 -0.00000000000E+00  0.00000000000E+00  0.44422556977E+02  0.44422556977E+02  0.00000000000E+00 0.  1.
          1   -1    0    0  501    0  0.00000000000E+00 -0.00000000000E+00 -0.16890328177E+04  0.16890328177E+04  0.00000000000E+00 0. -1.
         25    2    1    2    0    0 -0.20517196452E+03 -0.11333682589E+03 -0.55283733601E+03  0.61336608383E+03  0.12509221229E+03 0.  0.
         23    2    1    2    0    0  0.20517196452E+03  0.11333682589E+03 -0.10917729248E+04  0.11200892909E+04  0.87699083285E+02 0.  0.
          5    1    3    3  502    0 -0.62136288394E+02  0.10910802234E+02 -0.23464871907E+03  0.24301740206E+03  0.41800000000E+01 0. -1.
         -5    1    3    3    0  502 -0.14303567613E+03 -0.12424762813E+03 -0.31818861693E+03  0.37034868177E+03  0.41800000000E+01 0. -1.
        -11    1    4    4    0    0  0.91443517464E+02  0.80635177469E+02 -0.39659903826E+03  0.41491534785E+03  0.00000000000E+00 0. -1.
         11    1    4    4    0    0  0.11372844706E+03  0.32701648424E+02 -0.69517388650E+03  0.70517394304E+03  0.00000000000E+00 0.  1.
</event>
<event>
 8    1  0.6185113E-009  0.7546561E+02  0.7561462E-02  0.1342435E+00
         -1   -1    0    0    0  501 -0.00000000000E+00  0.00000000000E+00  0.64571043845E+02  0.64571043845E+02  0.00000000000E+00 0.  1.
          1   -1    0    0  501    0  0.00000000000E+00 -0.00000000000E+00 -0.19570676425E+03  0.19570676425E+03  0.00000000000E+00 0. -1.
         25    2    1    2    0    0  0.21700022130E+02 -0.52772171409E+01 -0.49903820800E+02  0.13651377494E+03  0.12508748713E+03 0.  0.
         23    2    1    2    0    0 -0.21700022130E+02  0.52772171409E+01 -0.81231899602E+02  0.12376403315E+03  0.90665177479E+02 0.  0.
          5    1    3    3  502    0  0.44380141550E+02 -0.88069714624E+01  0.29219582861E+02  0.54022366969E+02  0.41800000000E+01 0.  1.
         -5    1    3    3    0  502 -0.22680119420E+02  0.35297543215E+01 -0.79123403662E+02  0.82491407974E+02  0.41800000000E+01 0.  1.
        -11    1    4    4    0    0 -0.31658435585E+02 -0.31140829550E+02 -0.13834896148E+02  0.46512494667E+02  0.00000000000E+00 0.  1.
         11    1    4    4    0    0  0.99584134549E+01  0.36418046691E+02 -0.67397003453E+02  0.77251538482E+02  0.00000000000E+00 0. -1.
</event>
<event>
 8    1  0.6185113E-009  0.1682681E+03  0.7561462E-02  0.1179666E+00
          4   -1    0    0  501    0  0.00000000000E+00  0.00000000000E+00  0.82974175810E+02  0.82974175810E+02  0.00000000000E+00 0.  1.
         -4   -1    0    0    0  501 -0.00000000000E+00 -0.00000000000E+00 -0.43036933330E+03  0.43036933330E+03  0.00000000000E+00 0. -1.
         25    2    1    2    0    0  0.12191499658E+03  0.63477604616E+02 -0.87676161873E+02  0.20549337750E+03  0.12509095153E+03 0.  0.
         23    2    1    2    0    0 -0.12191499658E+03 -0.63477604616E+02 -0.25971899562E+03  0.30785013162E+03  0.91788202788E+02 0.  0.
          5    1    3    3  502    0  0.53267814272E+02 -0.26031476290E+02  0.47174200006E+01  0.59622346872E+02  0.41800000000E+01 0. -1.
         -5    1    3    3    0  502  0.68647182310E+02  0.89509080906E+02 -0.92393581873E+02  0.14587103062E+03  0.41800000000E+01 0. -1.
        -11    1    4    4    0    0 -0.79257003236E+02  0.93637831425E+01 -0.10887089797E+03  0.13498972339E+03  0.00000000000E+00 0.  1.
         11    1    4    4    0    0 -0.42657993346E+02 -0.72841387759E+02 -0.15084809765E+03  0.17286040822E+03  0.00000000000E+00 0. -1.
</event>
<event>
 8    1  0.6185113E-009  0.1090462E+03  0.7561462E-02  0.1262346E+00
          1   -1    0    0  501    0  0.00000000000E+00  0.00000000000E+00  0.59705144293E+03  0.59705144293E+03  0.00000000000E+00 0. -1.
         -1   -1    0    0    0  501 -0.00000000000E+00 -0.00000000000E+00 -0.24373471214E+02  0.24373471214E+02  0.00000000000E+00 0.  1.
         25    2    1    2    0    0  0.33647101594E+02 -0.40981833157E+02  0.31514028310E+03  0.34316340008E+03  0.12504432423E+03 0.  0.
         23    2    1    2    0    0 -0.33647101594E+02  0.40981833157E+02  0.25753768861E+03  0.27826151406E+03  0.91061358769E+02 0.  0.
          5    1    3    3  502    0  0.24698680118E+02  0.41536505298E+02  0.77683715496E+02  0.91583503565E+02  0.41800000000E+01 0. -1.
         -5    1    3    3    0  502  0.89484214760E+01 -0.82518338455E+02  0.23745656761E+03  0.25157989651E+03  0.41800000000E+01 0. -1.
        -11    1    4    4    0    0  0.17171742634E+02  0.29879376733E+02  0.18954785505E+03  0.19265522379E+03  0.00000000000E+00 0. -1.
         11    1    4    4    0    0 -0.50818844228E+02  0.11102456424E+02  0.67989833554E+02  0.85606290271E+02  0.00000000000E+00 0.  1.
</event>
<event>
 8    1  0.6185113E-009  0.1301625E+03  0.7561462E-02  0.1227215E+00
          1   -1    0    0  501    0  0.00000000000E+00  0.00000000000E+00  0.35565675285E+03  0.35565675285E+03  0.00000000000E+00 0. -1.
         -1   -1    0    0    0  501 -0.00000000000E+00 -0.00000000000E+00 -0.86366639774E+02  0.86366639774E+02  0.00000000000E+00 0.  1.
         25    2    1    2    0    0 -0.19226312950E+02 -0.83872876459E+02  0.80470242682E+01  0.15204020402E+03  0.12508860269E+03 0.  0.
         23    2    1    2    0    0  0.19226312950E+02  0.83872876459E+02  0.26124308881E+03  0.28998318860E+03  0.91858520067E+02 0.  0.
          5    1    3    3  502    0 -0.43741995185E+02 -0.99489082949E+02  0.32836973223E+02  0.11360976621E+03  0.41800000000E+01 0.  1.
         -5    1    3    3    0  502  0.24515682236E+02  0.15616206491E+02 -0.24789948955E+02  0.38430437804E+02  0.41800000000E+01 0.  1.
        -11    1    4    4    0    0  0.27876937961E+02 -0.87147061163E+01  0.96313251963E+02  0.10064448458E+03  0.00000000000E+00 0. -1.
         11    1    4    4    0    0 -0.86506250115E+01  0.92587582575E+02  0.16492983684E+03  0.18933870402E+03  0.00000000000E+00 0.  1.
</event>
<event>
 8    1  0.6185113E-009  0.9214400E+02  0.7561462E-02  0.1297741E+00
          1   -1    0    0  501    0  0.00000000000E+00  0.00000000000E+00  0.26914929014E+03  0.26914929014E+03  0.00000000000E+00 0. -1.
         -1   -1    0    0    0  501 -0.00000000000E+00 -0.00000000000E+00 -0.47659102721E+02  0.47659102721E+02  0.00000000000E+00 0.  1.
         25    2    1    2    0    0  0.25664146924E+02 -0.18134553827E+02  0.10525650174E+03  0.16647908737E+03  0.12509534321E+03 0.  0.
         23    2    1    2    0    0 -0.25664146924E+02  0.18134553827E+02  0.11623368567E+03  0.15032930549E+03  0.90006221582E+02 0.  0.
          5    1    3    3  502    0 -0.31198285158E+01  0.52178321352E+02  0.36164308749E+02  0.63699608918E+02  0.41800000000E+01 0. -1.
         -5    1    3    3    0  502  0.28783975439E+02 -0.70312875179E+02  0.69092192995E+02  0.10277947845E+03  0.41800000000E+01 0. -1.
        -11    1    4    4    0    0 -0.11367264491E+02 -0.15494109136E+02 -0.80130637943E+01  0.20820454157E+02  0.00000000000E+00 0.  1.
         11    1    4    4    0    0 -0.14296882432E+02  0.33628662963E+02  0.12424674947E+03  0.12950885133E+03  0.00000000000E+00 0. -1.
</event>
<event>
 8    1  0.6185113E-009  0.8770315E+02  0.7561462E-02  0.1308511E+00
         -2   -1    0    0    0  501 -0.00000000000E+00  0.00000000000E+00  0.13410493042E+03  0.13410493042E+03  0.00000000000E+00 0.  1.
          2   -1    0    0  501    0  0.00000000000E+00 -0.00000000000E+00 -0.98620973575E+02  0.98620973575E+02  0.00000000000E+00 0. -1.
         25    2    1    2    0    0  0.20335416142E+02  0.11430660420E+02  0.51406556691E+02  0.13723705506E+03  0.12508871277E+03 0.  0.
         23    2    1    2    0    0 -0.20335416142E+02 -0.11430660420E+02 -0.15922599844E+02  0.95488848939E+02  0.91216237253E+02 0.  0.
          5    1    3    3  502    0 -0.29456326952E+02  0.12692845212E+02  0.75213709496E+02  0.81874037479E+02  0.41800000000E+01 0.  1.
         -5    1    3    3    0  502  0.49791743094E+02 -0.12621847921E+01 -0.23807152804E+02  0.55363017579E+02  0.41800000000E+01 0.  1.
        -11    1    4    4    0    0 -0.46676046392E+01  0.39508537701E+02  0.28577558045E+00  0.39784327970E+02  0.00000000000E+00 0.  1.
         11    1    4    4    0    0 -0.15667811503E+02 -0.50939198121E+02 -0.16208375425E+02  0.55704520969E+02  0.00000000000E+00 0. -1.
</event>
<event>
 8    1  0.6185113E-009  0.1733922E+03  0.7561462E-02  0.1174356E+00
          1   -1    0    0  501    0  0.00000000000E+00  0.00000000000E+00  0.10362448637E+04  0.10362448637E+04  0.00000000000E+00 0. -1.
         -1   -1    0    0    0  501 -0.00000000000E+00 -0.00000000000E+00 -0.65974036973E+02  0.65974036973E+02  0.00000000000E+00 0.  1.
         25    2    1    2    0    0 -0.11370925904E+03 -0.93649461509E+02  0.88906178267E+03  0.90982301821E+03  0.12508818419E+03 0.  0.
         23    2    1    2    0    0  0.11370925904E+03  0.93649461509E+02  0.81209044098E+02  0.19239588251E+03  0.93387630497E+02 0.  0.
          5    1    3    3  502    0 -0.38524321290E+02  0.19816464656E+02  0.99486593308E+02  0.10859037826E+03  0.41800000000E+01 0.  1.
         -5    1    3    3    0  502 -0.75184937749E+02 -0.11346592616E+03  0.78957518936E+03  0.80123263995E+03  0.41800000000E+01 0.  1.
        -11    1    4    4    0    0  0.42221761499E+02  0.85211330876E+02  0.18398647761E+02  0.96861541868E+02  0.00000000000E+00 0.  1.
         11    1    4    4    0    0  0.71487497540E+02  0.84381306336E+01  0.62810396337E+02  0.95534340638E+02  0.00000000000E+00 0. -1.
</event>
<event>
 8    1  0.6185113E-009  0.1001780E+03  0.7561462E-02  0.1279922E+00
         -1   -1    0    0    0  501 -0.00000000000E+00  0.00000000000E+00  0.12797748807E+04  0.12797748807E+04  0.00000000000E+00 0.  1.
          1   -1    0    0  501    0  0.00000000000E+00 -0.00000000000E+00 -0.12986940410E+02  0.12986940410E+02  0.00000000000E+00 0. -1.
         25    2    1    2    0    0 -0.53517334403E+02  0.14268339006E+02  0.90453947870E+03  0.91482620584E+03  0.12509047840E+03 0.  0.
         23    2    1    2    0    0  0.53517334403E+02 -0.14268339006E+02  0.36224846162E+03  0.37793561529E+03  0.92432087424E+02 0.  0.
          5    1    3    3  502    0 -0.80283488592E+02  0.16687180894E+02  0.34536464569E+03  0.35499029767E+03  0.41800000000E+01 0. -1.
         -5    1    3    3    0  502  0.26766154189E+02 -0.24188418880E+01  0.55917483301E+03  0.55983590817E+03  0.41800000000E+01 0. -1.
        -11    1    4    4    0    0  0.37369676226E+01  0.26466519712E+02  0.33019960468E+02  0.42482459698E+02  0.00000000000E+00 0. -1.
         11    1    4    4    0    0  0.49780366781E+02 -0.40734858718E+02  0.32922850115E+03  0.33545315560E+03  0.00000000000E+00 0.  1.
</event>
<event>
 8    1  0.6185113E-009  0.1590841E+03  0.7561462E-02  0.1189735E+00
         -1   -1    0    0    0  501 -0.00000000000E+00  0.00000000000E+00  0.16839703411E+03  0.16839703411E+03  0.00000000000E+00 0.  1.
          1   -1    0    0  501    0  0.00000000000E+00 -0.00000000000E+00 -0.17385477212E+03  0.17385477212E+03  0.00000000000E+00 0. -1.
         25    2    1    2    0    0  0.13336956207E+03 -0.13114954649E+02  0.17883094173E+01  0.18333104589E+03  0.12509049610E+03 0.  0.
         23    2    1    2    0    0 -0.13336956207E+03  0.13114954649E+02 -0.72460474287E+01  0.15892076033E+03  0.85110873208E+02 0.  0.
          5    1    3    3  502    0 -0.10131237857E+02 -0.35739127960E+02 -0.56550617148E+01  0.37807133862E+02  0.41800000000E+01 0. -1.
         -5    1    3    3    0  502  0.14350079993E+03  0.22624173311E+02  0.74433711321E+01  0.14552391203E+03  0.41800000000E+01 0. -1.
        -11    1    4    4    0    0 -0.12310668419E+03  0.17402190499E+02  0.23226834386E+02  0.12648153131E+03  0.00000000000E+00 0.  1.
         11    1    4    4    0    0 -0.10262877886E+02 -0.42872358502E+01 -0.30472881815E+02  0.32439229027E+02  0.00000000000E+00 0. -1.
</event>
<event>
 8    1  0.6185113E-009  0.1190661E+03  0.7561462E-02  0.1244646E+00
         -1   -1    0    0    0  501 -0.00000000000E+00  0.00000000000E+00  0.15011406076E+03  0.15011406076E+03  0.00000000000E+00 0.  1.
          1   -1    0    0  501    0  0.00000000000E+00 -0.00000000000E+00 -0.11349131623E+03  0.11349131623E+03  0.00000000000E+00 0. -1.
         25    2    1    2    0    0 -0.63541297129E+02  0.33684823461E+02  0.30694422752E+02  0.14751765469E+03  0.12508855697E+03 0.  0.
         23    2    1    2    0    0  0.63541297129E+02 -0.33684823461E+02  0.59283217835E+01  0.11608772230E+03  0.90934319683E+02 0.  0.
          5    1    3    3  502    0  0.11458288287E+02 -0.31360222853E+02 -0.16544415964E+02  0.37495947081E+02  0.41800000000E+01 0. -1.
         -5    1    3    3    0  502 -0.74999585416E+02  0.65045046314E+02  0.47238838716E+02  0.11002170761E+03  0.41800000000E+01 0. -1.
        -11    1    4    4    0    0  0.33737130099E+02 -0.57703003447E+02 -0.20100643107E+02  0.69798756489E+02  0.00000000000E+00 0. -1.
         11    1    4    4    0    0  0.29804167030E+02  0.24018179986E+02  0.26028964890E+02  0.46288965806E+02  0.00000000000E+00 0.  1.
</event>
<event>
 8    1  0.6185113E-009  0.8470373E+02  0.7561462E-02  0.1316209E+00
          3   -1    0    0  501    0  0.00000000000E+00  0.00000000000E+00  0.10081258667E+03  0.10081258667E+03  0.00000000000E+00 0. -1.
         -3   -1    0    0    0  501 -0.00000000000E+00 -0.00000000000E+00 -0.12758642626E+03  0.12758642626E+03  0.00000000000E+00 0.  1.
         25    2    1    2    0    0 -0.16283573377E+02 -0.26504504884E+02 -0.16104285274E+02  0.12990185861E+03  0.12508997292E+03 0.  0.
         23    2    1    2    0    0  0.16283573377E+02  0.26504504884E+02 -0.10669554319E+02  0.98497154320E+02  0.92845067067E+02 0.  0.
          5    1    3    3  502    0 -0.22801190470E+02  0.38928185038E+02  0.25486606951E+02  0.51984011110E+02  0.41800000000E+01 0.  1.
         -5    1    3    3    0  502  0.65176170934E+01 -0.65432689923E+02 -0.41590892225E+02  0.77917847501E+02  0.41800000000E+01 0.  1.
        -11    1    4    4    0    0  0.85856279922E+00  0.38599602626E+02  0.32897333785E+02  0.50723771775E+02  0.00000000000E+00 0. -1.
         11    1    4    4    0    0  0.15425010578E+02 -0.12095097741E+02 -0.43566888104E+02  0.47773382545E+02  0.00000000000E+00 0.  1.
</event>
<event>
 8    1  0.6185113E-009  0.1366757E+03  0.7561462E-02  0.1217873E+00
          1   -1    0    0  501    0  0.00000000000E+00  0.00000000000E+00  0.42720792030E+03  0.42720792030E+03  0.00000000000E+00 0. -1.
         -1   -1    0    0    0  501 -0.00000000000E+00 -0.00000000000E+00 -0.56874795064E+02  0.56874795064E+02  0.00000000000E+00 0.  1.
         25    2    1    2    0    0 -0.40491374163E+02  0.91210665635E+02  0.12245948875E+03  0.20150170414E+03  0.12509066103E+03 0.  0.
         23    2    1    2    0    0  0.40491374163E+02 -0.91210665635E+02  0.24787363648E+03  0.28258101123E+03  0.91933407071E+02 0.  0.
          5    1    3    3  502    0 -0.66904461978E+02  0.33511635923E+02  0.14694966314E+02  0.76371795905E+02  0.41800000000E+01 0.  1.
         -5    1    3    3    0  502  0.26413087815E+02  0.57699029712E+02  0.10776452244E+03  0.12512990823E+03  0.41800000000E+01 0.  1.
        -11    1    4    4    0    0 -0.29368010193E+02 -0.25173573963E+02  0.57293390494E+02  0.69128296978E+02  0.00000000000E+00 0. -1.
         11    1    4    4    0    0  0.69859384356E+02 -0.66037091673E+02  0.19058024599E+03  0.21345271425E+03  0.00000000000E+00 0.  1.
</event>
<event>
 7    1  0.6185113E-009  0.1038190E+03  0.7561462E-02  0.1272464E+00
          1   -1    0    0  501    0  0.00000000000E+00  0.00000000000E+00  0.15926972610E+03  0.15926972610E+03  0.00000000000E+00 0. -1.
         -1   -1    0    0    0  501 -0.00000000000E+00 -0.00000000000E+00 -0.13653634344E+03  0.13653634344E+03  0.00000000000E+00 0.  1.
         23    2    1    2    0    0 -0.74950947762E+02  0.12644631770E+02 -0.52737561949E+02  0.13050479484E+03  0.92047377764E+02 0.  0.
          5    1    1    2  502    0  0.59484184896E+02  0.22211806737E+02 -0.16425438179E+02  0.65719099436E+02  0.41800000000E+01 0.  1.
         -5    1    1    2    0  502  0.15466762865E+02 -0.34856438507E+02  0.91896382789E+02  0.99582175255E+02  0.41800000000E+01 0.  1.
        -11    1    3    3    0    0 -0.27047776631E+02 -0.30787509581E+02 -0.51521118719E+02  0.65832200639E+02  0.00000000000E+00 0.  1.
         11    1    3    3    0    0 -0.47903171131E+02  0.43432141351E+02 -0.12164432296E+01  0.64672594202E+02  0.00000000000E+00 0. -1.
</event>
<event>
 8    1  0.6185113E-009  0.1116888E+03  0.7561462E-02  0.1257474E+00
         -2   -1    0    0    0  501 -0.00000000000E+00  0.00000000000E+00  0.63345818403E+02  0.63345818403E+02  0.00000000000E+00 0. -1.
          2   -1    0    0  501    0  0.00000000000E+00 -0.00000000000E+00 -0.33167563619E+03  0.33167563619E+03  0.00000000000E+00 0.  1.
         25    2    1    2    0    0 -0.74726606177E+02 -0.55122664034E+02 -0.17884924298E+03  0.23716808004E+03  0.12505627819E+03 0.  0.
         23    2    1    2    0    0  0.74726606177E+02  0.55122664034E+02 -0.89480574808E+02  0.15785337456E+03  0.91040325294E+02 0.  0.
          5    1    3    3  502    0 -0.75701280364E+02 -0.48164844655E+02 -0.40419986286E+02  0.98497633478E+02  0.41800000000E+01 0. -1.
         -5    1    3    3    0  502  0.97467418646E+00 -0.69578193784E+01 -0.13842925670E+03  0.13867044656E+03  0.41800000000E+01 0. -1.
        -11    1    4    4    0    0 -0.18820064104E+02  0.12412537733E+02 -0.34581556638E+02  0.41281351302E+02  0.00000000000E+00 0.  1.
         11    1    4    4    0    0  0.93546670281E+02  0.42710126300E+02 -0.54899018170E+02  0.11657202325E+03  0.00000000000E+00 0. -1.
</event>
<event>
 8    1  0.6185113E-009  0.1399145E+03  0.7561462E-02  0.1213444E+00
         -2   -1    0    0    0  501 -0.00000000000E+00  0.00000000000E+00  0.59527770171E+03  0.59527770171E+03  0.00000000000E+00 0.  1.
          2   -1    0    0  501    0  0.00000000000E+00 -0.00000000000E+00 -0.40077106395E+02  0.40077106395E+02  0.00000000000E+00 0. -1.
         25    2    1    2    0    0 -0.72070647336E+02 -0.79742033282E+02  0.33526785073E+03  0.37363696658E+03  0.12508829274E+03 0.  0.
         23    2    1    2    0    0  0.72070647336E+02  0.79742033282E+02  0.21993274459E+03  0.26171784153E+03  0.92589666559E+02 0.  0.
          5    1    3    3  502    0 -0.49793404278E+02 -0.11211515775E+03  0.27970879813E+03  0.30545650404E+03  0.41800000000E+01 0. -1.
         -5    1    3    3    0  502 -0.22277243058E+02  0.32373124472E+02  0.55559052598E+02  0.68180462538E+02  0.41800000000E+01 0. -1.
        -11    1    4    4    0    0  0.74493927370E+02  0.54738448616E+02  0.21768069280E+03  0.23649635724E+03  0.00000000000E+00 0.  1.
         11    1    4    4    0    0 -0.24232800339E+01  0.25003584667E+02  0.22520517877E+01  0.25221484286E+02  0.00000000000E+00 0. -1.
</event>
<event>
 8    1  0.6185113E-009  0.1172947E+03  0.7561462E-02  0.1247628E+00
         -2   -1    0    0    0  501 -0.00000000000E+00  0.00000000000E+00  0.59501165404E+03  0.59501165404E+03  0.00000000000E+00 0.  1.
          2   -1    0    0  501    0  0.00000000000E+00 -0.00000000000E+00 -0.34033634505E+02  0.34033634505E+02  0.00000000000E+00 0. -1.
         25    2    1    2    0    0  0.57726863292E+02  0.95002716813E+00  0.46347657725E+03  0.48351909243E+03  0.12508749652E+03 0.  0.
         23    2    1    2    0    0 -0.57726863292E+02 -0.95002716813E+00  0.97501442292E+02  0.14552619612E+03  0.91312919195E+02 0.  0.
          5    1    3    3  502    0 -0.37094136164E+02  0.62515059105E+01  0.81004425012E+02  0.89410544878E+02  0.41800000000E+01 0.  1.
         -5    1    3    3    0  502  0.94820999456E+02 -0.53014787424E+01  0.38247215224E+03  0.39410854755E+03  0.41800000000E+01 0.  1.
        -11    1    4    4    0    0  0.21839219555E+02  0.28411852187E+01  0.45069158898E+02  0.50162265977E+02  0.00000000000E+00 0.  1.
         11    1    4    4    0    0 -0.79566082847E+02 -0.37912123869E+01  0.52432283394E+02  0.95363930146E+02  0.00000000000E+00 0. -1.
</event>
<event>
 8    1  0.6185113E-009  0.1266453E+03  0.7561462E-02  0.1232520E+00
         -2   -1    0    0    0  501 -0.00000000000E+00  0.00000000000E+00  0.37013858656E+02  0.37013858656E+02  0.00000000000E+00 0.  1.
          2   -1    0    0  501    0  0.00000000000E+00 -0.00000000000E+00 -0.63771602055E+03  0.63771602055E+03  0.00000000000E+00 0. -1.
         25    2    1    2    0    0  0.10168863702E+03  0.27075563139E+02 -0.27035728127E+03  0.31593614274E+03  0.12509565033E+03 0.  0.
         23    2    1    2    0    0 -0.10168863702E+03 -0.27075563139E+02 -0.33034488062E+03  0.35879373647E+03  0.92366336721E+02 0.  0.
          5    1    3    3  502    0  0.11165392306E+03  0.26719915442E+02 -0.27923635040E+03  0.30194530002E+03  0.41800000000E+01 0. -1.
         -5    1    3    3    0  502 -0.99652860445E+01  0.35564769713E+00  0.88790691336E+01  0.13990842716E+02  0.41800000000E+01 0. -1.
        -11    1    4    4    0    0 -0.81301687086E+02 -0.51146318917E+02 -0.16894940663E+03  0.19434457097E+03  0.00000000000E+00 0.  1.
         11    1    4    4    0    0 -0.20386949929E+02  0.24070755778E+02 -0.16139547399E+03  0.16444916550E+03  0.00000000000E+00 0. -1.
</event>
<event>
 8    1  0.6185113E-009  0.9994781E+02  0.7561462E-02  0.1280406E+00
         -2   -1    0    0    0  501 -0.00000000000E+00  0.00000000000E+00  0.40459629996E+02  0.40459629996E+02  0.00000000000E+00 0.  1.
          2   -1    0    0  501    0  0.00000000000E+00 -0.00000000000E+00 -0.43506180035E+03  0.43506180035E+03  0.00000000000E+00 0. -1.
         25    2    1    2    0    0  0.45093826612E+02 -0.55246126815E+02 -0.17666109199E+03  0.22791020012E+03  0.12509328586E+03 0.  0.
         23    2    1    2    0    0 -0.45093826612E+02  0.55246126815E+02 -0.21794107837E+03  0.24761123023E+03  0.93420661379E+02 0.  0.
          5    1    3    3  502    0  0.13497274811E+02 -0.48850904823E+02 -0.26860072011E+01  0.50924202144E+02  0.41800000000E+01 0. -1.
         -5    1    3    3    0  502  0.31596551801E+02 -0.63952219921E+01 -0.17397508479E+03  0.17698599797E+03  0.41800000000E+01 0. -1.
        -11    1    4    4    0    0  0.20979901200E+02  0.45028381222E+02 -0.10906524853E+03  0.11984548305E+03  0.00000000000E+00 0. -1.
         11    1    4    4    0    0 -0.66073727812E+02  0.10217745593E+02 -0.10887582983E+03  0.12776574718E+03  0.00000000000E+00 0.  1.
</event>
<event>
 8    1  0.6185113E-009  0.1370827E+03  0.7561462E-02  0.1217309E+00
         -2   -1    0    0    0  501 -0.00000000000E+00  0.00000000000E+00  0.42262634361E+02  0.42262634361E+02  0.00000000000E+00 0.  1.
          2   -1    0    0  501    0  0.00000000000E+00 -0.00000000000E+00 -0.53998285500E+03  0.53998285500E+03  0.00000000000E+00 0. -1.
         25    2    1    2    0    0 -0.91197615407E+02  0.93799258584E+01 -0.16879260081E+03  0.22922345949E+03  0.12508982463E+03 0.  0.
         23    2    1    2    0    0  0.91197615407E+02 -0.93799258584E+01 -0.32892761983E+03  0.35302202987E+03  0.89588986078E+02 0.  0.
          5    1    3    3  502    0 -0.66673850755E+02 -0.52376992398E+02 -0.69682470781E+02  0.10982654889E+03  0.41800000000E+01 0. -1.
         -5    1    3    3    0  502 -0.24523764653E+02  0.61756918256E+02 -0.99110130032E+02  0.11939691060E+03  0.41800000000E+01 0. -1.
        -11    1    4    4    0    0  0.73846289190E+02 -0.42574974892E+02 -0.27055730107E+03  0.28366733347E+03  0.00000000000E+00 0.  1.
         11    1    4    4    0    0  0.17351326218E+02  0.33195049033E+02 -0.58370318752E+02  0.69354696402E+02  0.00000000000E+00 0. -1.
</event>
<event>
 8    1  0.6185113E-009  0.7896202E+02  0.7561462E-02  0.1332023E+00
         -2   -1    0    0    0  501 -0.00000000000E+00  0.00000000000E+00  0.27384116105E+03  0.27384116105E+03  0.00000000000E+00 0.  1.
          2   -1    0    0  501    0  0.00000000000E+00 -0.00000000000E+00 -0.83111522233E+02  0.83111522233E+02  0.00000000000E+00 0. -1.
         25    2    1    2    0    0  0.31927406828E+02 -0.11563746707E+02  0.21974106967E+03  0.25511689011E+03  0.12508161485E+03 0.  0.
         23    2    1    2    0    0 -0.31927406828E+02  0.11563746707E+02 -0.29011430859E+02  0.10183579317E+03  0.91519320943E+02 0.  0.
          5    1    3    3  502    0 -0.20323281659E+01  0.15841215531E+02  0.20943381965E+03  0.21008348740E+03  0.41800000000E+01 0. -1.
         -5    1    3    3    0  502  0.33959734994E+02 -0.27404962238E+02  0.10307250027E+02  0.45033402705E+02  0.41800000000E+01 0. -1.
        -11    1    4    4    0    0  0.92790576448E+01  0.44105188662E+02 -0.14833254211E+02  0.47448856763E+02  0.00000000000E+00 0.  1.
         11    1    4    4    0    0 -0.41206464472E+02 -0.32541441955E+02 -0.14178176648E+02  0.54386936409E+02  0.00000000000E+00 0. -1.
</event>
<event>
 8    1  0.6185113E-009  0.9541900E+02  0.7561462E-02  0.1290235E+00
         -4   -1    0    0    0  501 -0.00000000000E+00  0.00000000000E+00  0.56149193864E+02  0.56149193864E+02  0.00000000000E+00 0.  1.
          4   -1    0    0  501    0  0.00000000000E+00 -0.00000000000E+00 -0.25865192392E+03  0.25865192392E+03  0.00000000000E+00 0. -1.
         25    2    1    2    0    0 -0.36897626069E+02  0.26956558608E+02 -0.15011923140E+03  0.20067787678E+03  0.12509090986E+03 0.  0.
         23    2    1    2    0    0  0.36897626069E+02 -0.26956558608E+02 -0.52383498659E+02  0.11412324101E+03  0.90509625703E+02 0.  0.
          5    1    3    3  502    0 -0.34859780529E+02 -0.38599906788E+02 -0.21883790229E+02  0.56582062329E+02  0.41800000000E+01 0.  1.
         -5    1    3    3    0  502 -0.20378455402E+01  0.65556465396E+02 -0.12823544117E+03  0.14409581445E+03  0.41800000000E+01 0.  1.
        -11    1    4    4    0    0  0.48669725820E+02 -0.61832278745E+01 -0.69265838584E+02  0.84880686338E+02  0.00000000000E+00 0. -1.
         11    1    4    4    0    0 -0.11772099751E+02 -0.20773330733E+02  0.16882339926E+02  0.29242554670E+02  0.00000000000E+00 0.  1.
</event>
<event>
 8    1  0.6185113E-009  0.1049098E+03  0.7561462E-02  0.1270297E+00
          1   -1    0    0  501    0  0.00000000000E+00  0.00000000000E+00  0.63143668829E+03  0.63143668829E+03  0.00000000000E+00 0. -1.
         -1   -1    0    0    0  501 -0.00000000000E+00 -0.00000000000E+00 -0.24756437297E+02  0.24756437297E+02  0.00000000000E+00 0.  1.
         25    2    1    2    0    0 -0.16019628527E+02 -0.53033100468E+02  0.26255485960E+03  0.29606063450E+03  0.12509079406E+03 0.  0.
         23    2    1    2    0    0  0.16019628527E+02  0.53033100468E+02  0.34412539139E+03  0.36013249109E+03  0.90575868154E+02 0.  0.
          5    1    3    3  502    0  0.32116427821E+02  0.17367418549E+02  0.27273802051E+02  0.45764886555E+02  0.41800000000E+01 0.  1.
         -5    1    3    3    0  502 -0.48136056348E+02 -0.70400519016E+02  0.23528105755E+03  0.25029574794E+03  0.41800000000E+01 0.  1.
        -11    1    4    4    0    0  0.30105148575E+02 -0.26735270385E+01  0.37469241892E+02  0.48139503586E+02  0.00000000000E+00 0.  1.
         11    1    4    4    0    0 -0.14085520048E+02  0.55706627506E+02  0.30665614950E+03  0.31199298750E+03  0.00000000000E+00 0. -1.
</event>
<event>
 8    1  0.6185113E-009  0.2443148E+03  0.7561462E-02  0.1116951E+00
          2   -1    0    0  501    0  0.00000000000E+00  0.00000000000E+00  0.43712422350E+03  0.43712422350E+03  0.00000000000E+00 0. -1.
         -2   -1    0    0    0  501 -0.00000000000E+00 -0.00000000000E+00 -0.19368764066E+03  0.19368764066E+03  0.00000000000E+00 0.  1.
         25    2    1    2    0    0 -0.15039996566E+03  0.16308113609E+03 -0.41809550459E+02  0.25809395760E+03  0.12509534692E+03 0.  0.
         23    2    1    2    0    0  0.15039996566E+03 -0.16308113609E+03  0.28524613330E+03  0.37271790656E+03  0.91310868420E+02 0.  0.
          5    1    3    3  502    0  0.16945673403E+01  0.80881047284E+02 -0.22558862109E+02  0.84089179018E+02  0.41800000000E+01 0. -1.
         -5    1    3    3    0  502 -0.15209453300E+03  0.82200088804E+02 -0.19250688350E+02  0.17400477858E+03  0.41800000000E+01 0. -1.
        -11    1    4    4    0    0  0.73313449354E+02 -0.26694372487E+02  0.13340145313E+03  0.15454254779E+03  0.00000000000E+00 0.  1.
         11    1    4    4    0    0  0.77086516305E+02 -0.13638676360E+03  0.15184468017E+03  0.21817535878E+03  0.00000000000E+00 0. -1.
</event>
<event>
 8    1  0.6185113E-009  0.1395422E+03  0.7561462E-02  0.1213946E+00
         -1   -1    0    0    0  501 -0.00000000000E+00  0.00000000000E+00  0.42496515448E+03  0.42496515448E+03  0.00000000000E+00 0.  1.
          1   -1    0    0  501    0  0.00000000000E+00 -0.00000000000E+00 -0.55234611594E+02  0.55234611594E+02  0.00000000000E+00 0. -1.
         25    2    1    2    0    0  0.93282355532E+02 -0.28902476916E+02  0.12651509482E+03  0.20295494492E+03  0.12509072478E+03 0.  0.
         23    2    1    2    0    0 -0.93282355532E+02  0.28902476916E+02  0.24321544807E+03  0.27724482116E+03  0.90410097067E+02 0.  0.
          5    1    3    3  502    0  0.19858815955E+02  0.46915955518E+02  0.26890374001E+02  0.57758497792E+02  0.41800000000E+01 0. -1.
         -5    1    3    3    0  502  0.73423539577E+02 -0.75818432434E+02  0.99624720815E+02  0.14519644713E+03  0.41800000000E+01 0. -1.
        -11    1    4    4    0    0 -0.37380073495E+02  0.50140122711E+02  0.69360666659E+02  0.93392739972E+02  0.00000000000E+00 0. -1.
         11    1    4    4    0    0 -0.55902282037E+02 -0.21237645796E+02  0.17385478141E+03  0.18385208118E+03  0.00000000000E+00 0.  1.
</event>
<event>
 8    1  0.6185113E-009  0.1118390E+03  0.7561462E-02  0.1257202E+00
         -2   -1    0    0    0  501 -0.00000000000E+00  0.00000000000E+00  0.90513669781E+03  0.90513669781E+03  0.00000000000E+00 0.  1.
          2   -1    0    0  501    0  0.00000000000E+00 -0.00000000000E+00 -0.25505437753E+02  0.25505437753E+02  0.00000000000E+00 0. -1.
         25    2    1    2    0    0  0.35374575058E+02  0.17059882579E+02  0.77720517074E+03  0.78818535323E+03  0.12508346599E+03 0.  0.
         23    2    1    2    0    0 -0.35374575058E+02 -0.17059882579E+02  0.10242608931E+03  0.14245678233E+03  0.90886912734E+02 0.  0.
          5    1    3    3  502    0 -0.20568289249E+02 -0.40313033043E+02  0.18168325712E+03  0.18728180230E+03  0.41800000000E+01 0.  1.
         -5    1    3    3    0  502  0.55942864308E+02  0.57372915622E+02  0.59552191362E+03  0.60090355093E+03  0.41800000000E+01 0.  1.
        -11    1    4    4    0    0 -0.15364035104E+02 -0.53908528178E+02  0.68549743312E+02  0.88550834514E+02  0.00000000000E+00 0.  1.
         11    1    4    4    0    0 -0.20010539954E+02  0.36848645599E+02  0.33876346002E+02  0.53905947819E+02  0.00000000000E+00 0. -1.
</event>
<event>
 8    1  0.6185113E-009  0.1453770E+03  0.7561462E-02  0.1206272E+00
         -1   -1    0    0    0  501 -0.00000000000E+00  0.00000000000E+00  0.10377853573E+03  0.10377853573E+03  0.00000000000E+00 0.  1.
          1   -1    0    0  501    0  0.00000000000E+00 -0.00000000000E+00 -0.78954093178E+03  0.78954093178E+03  0.00000000000E+00 0. -1.
         25    2    1    2    0    0 -0.39741171200E+02 -0.13222004297E+03  0.11372784284E+01  0.18631071639E+03  0.12509552026E+03 0.  0.
         23    2    1    2    0    0  0.39741171200E+02  0.13222004297E+03 -0.68689967448E+03  0.70700875112E+03  0.94703278182E+02 0.  0.
          5    1    3    3  502    0 -0.21604605403E+02 -0.26708275380E+02 -0.55284072273E+02  0.65221867464E+02  0.41800000000E+01 0. -1.
         -5    1    3    3    0  502 -0.18136565797E+02 -0.10551176759E+03  0.56421350702E+02  0.12108884893E+03  0.41800000000E+01 0. -1.
        -11    1    4    4    0    0 -0.12960099579E+02  0.11666134912E+02 -0.17148779680E+02  0.24456973022E+02  0.00000000000E+00 0.  1.
         11    1    4    4    0    0  0.52701270779E+02  0.12055390806E+03 -0.66975089480E+03  0.68255177810E+03  0.00000000000E+00 0. -1.
</event>
<event>
 8    1  0.6185113E-009  0.9720269E+02  0.7561462E-02  0.1286291E+00
         -1   -1    0    0    0  501 -0.00000000000E+00  0.00000000000E+00  0.13736668540E+02  0.13736668540E+02  0.00000000000E+00 0.  1.
          1   -1    0    0  501    0  0.00000000000E+00 -0.00000000000E+00 -0.11748130990E+04  0.11748130990E+04  0.00000000000E+00 0. -1.
         25    2    1    2    0    0 -0.26300575983E+02 -0.74347133541E+02 -0.79260720839E+03  0.80628262076E+03  0.12508501578E+03 0.  0.
         23    2    1    2    0    0  0.26300575983E+02  0.74347133541E+02 -0.36846922209E+03  0.38226714681E+03  0.64338070670E+02 0.  0.
          5    1    3    3  502    0  0.50971141932E+01  0.50482482057E+01 -0.53098318020E+03  0.53104809145E+03  0.41800000000E+01 0.  1.
         -5    1    3    3    0  502 -0.31397690177E+02 -0.79395381747E+02 -0.26162402820E+03  0.27523452930E+03  0.41800000000E+01 0.  1.
        -11    1    4    4    0    0  0.17975019663E+02 -0.66741524444E+01 -0.95500803498E+02  0.97406617390E+02  0.00000000000E+00 0.  1.
         11    1    4    4    0    0  0.83255563208E+01  0.81021285985E+02 -0.27296841859E+03  0.28486052942E+03  0.00000000000E+00 0. -1.
</event>
<event>
 8    1  0.6185113E-009  0.1733066E+03  0.7561462E-02  0.1174443E+00
         -2   -1    0    0    0  501 -0.00000000000E+00  0.00000000000E+00  0.33629184530E+02  0.33629184530E+02  0.00000000000E+00 0.  1.
          2   -1    0    0  501    0  0.00000000000E+00 -0.00000000000E+00 -0.14160896111E+04  0.14160896111E+04  0.00000000000E+00 0. -1.
         25    2    1    2    0    0 -0.90736911797E+02 -0.10531737034E+03 -0.11410404906E+04  0.11562635987E+04  0.12508866007E+03 0.  0.
         23    2    1    2    0    0  0.90736911797E+02  0.10531737034E+03 -0.24141993596E+03  0.29345519690E+03  0.92235738479E+02 0.  0.
          5    1    3    3  502    0  0.28805045779E+02 -0.17570211878E+02 -0.33185508330E+03  0.33359213378E+03  0.41800000000E+01 0. -1.
         -5    1    3    3    0  502 -0.11954195758E+03 -0.87747158458E+02 -0.80918540729E+03  0.82267146493E+03  0.41800000000E+01 0. -1.
        -11    1    4    4    0    0  0.83451952655E+02  0.30127109168E+02 -0.10455299802E+03  0.13712476255E+03  0.00000000000E+00 0. -1.
         11    1    4    4    0    0  0.72849591419E+01  0.75190261168E+02 -0.13686693794E+03  0.15633043436E+03  0.00000000000E+00 0.  1.
</event>
<event>
 8    1  0.6185113E-009  0.1826114E+03  0.7561462E-02  0.1165299E+00
          1   -1    0    0  501    0  0.00000000000E+00  0.00000000000E+00  0.25711474231E+03  0.25711474231E+03  0.00000000000E+00 0. -1.
         -1   -1    0    0    0  501 -0.00000000000E+00 -0.00000000000E+00 -0.15820567603E+03  0.15820567603E+03  0.00000000000E+00 0.  1.
         25    2    1    2    0    0 -0.15039365347E+02  0.16828774123E+03  0.70371587453E+02  0.22168974953E+03  0.12508892183E+03 0.  0.
         23    2    1    2    0    0  0.15039365347E+02 -0.16828774123E+03  0.28537478822E+02  0.19363066881E+03  0.90174840437E+02 0.  0.
          5    1    3    3  502    0  0.19843154742E+02  0.55823873747E+02  0.84219128905E+02  0.10305527519E+03  0.41800000000E+01 0. -1.
         -5    1    3    3    0  502 -0.34882520090E+02  0.11246386749E+03 -0.13847541452E+02  0.11863447434E+03  0.41800000000E+01 0. -1.
        -11    1    4    4    0    0  0.45121426733E+02 -0.56851748299E+02  0.29117818390E+02  0.78204295169E+02  0.00000000000E+00 0. -1.
         11    1    4    4    0    0 -0.30082061386E+02 -0.11143599294E+03 -0.58033956830E+00  0.11542637364E+03  0.00000000000E+00 0.  1.
</event>
<event>
 8    1  0.6185113E-009  0.1036575E+03  0.7561462E-02  0.1272788E+00
         -2   -1    0    0    0  501 -0.00000000000E+00  0.00000000000E+00  0.33349577699E+02  0.33349577699E+02  0.00000000000E+00 0.  1.
          2   -1    0    0  501    0  0.00000000000E+00 -0.00000000000E+00 -0.58925769616E+03  0.58925769616E+03  0.00000000000E+00 0. -1.
         25    2    1    2    0    0  0.84752031309E+02  0.64860296108E+01 -0.27855718655E+03  0.31696661470E+03  0.12509497697E+03 0.  0.
         23    2    1    2    0    0 -0.84752031309E+02 -0.64860296108E+01 -0.27735093191E+03  0.30564065916E+03  0.96268882355E+02 0.  0.
          5    1    3    3  502    0 -0.16999210597E+02  0.78366226763E+01  0.12302387143E+01  0.19219045324E+02  0.41800000000E+01 0.  1.
         -5    1    3    3    0  502  0.10175124191E+03 -0.13505930655E+01 -0.27978742527E+03  0.29774756937E+03  0.41800000000E+01 0.  1.
        -11    1    4    4    0    0 -0.30538247035E+02 -0.95282802848E+01 -0.11026427899E+02  0.33837180281E+02  0.00000000000E+00 0.  1.
         11    1    4    4    0    0 -0.54213784274E+02  0.30422506741E+01 -0.26632450401E+03  0.27180347888E+03  0.00000000000E+00 0. -1.
</event>
<event>
 8    1  0.6185113E-009  0.8278023E+02  0.7561462E-02  0.1321342E+00
          2   -1    0    0  501    0  0.00000000000E+00  0.00000000000E+00  0.13737877126E+04  0.13737877126E+04  0.00000000000E+00 0. -1.
         -2   -1    0    0    0  501 -0.00000000000E+00 -0.00000000000E+00 -0.20803305111E+02  0.20803305111E+02  0.00000000000E+00 0.  1.
         25    2    1    2    0    0 -0.18351239275E+02 -0.18443853116E+02  0.12455461120E+04  0.12520807734E+04  0.12507678511E+03 0.  0.
         23    2    1    2    0    0  0.18351239275E+02  0.18443853116E+02  0.10743829547E+03  0.14251024434E+03  0.89940195177E+02 0.  0.
          5    1    3    3  502    0  0.42578531729E+01  0.23482927722E+02  0.49823660789E+02  0.55402588229E+02  0.41800000000E+01 0.  1.
         -5    1    3    3    0  502 -0.22609092448E+02 -0.41926780839E+02  0.11957224512E+04  0.11966781851E+04  0.41800000000E+01 0.  1.
        -11    1    4    4    0    0 -0.30111085937E+02 -0.15962103989E+02  0.35808140646E+02  0.49433684837E+02  0.00000000000E+00 0.  1.
         11    1    4    4    0    0  0.48462325212E+02  0.34405957105E+02  0.71630154823E+02  0.93076559505E+02  0.00000000000E+00 0. -1.
</event>
<event>
 8    1  0.6185113E-009  0.7783317E+02  0.7561462E-02  0.1335316E+00
         -3   -1    0    0    0  501 -0.00000000000E+00  0.00000000000E+00  0.27332506293E+03  0.27332506293E+03  0.00000000000E+00 0.  1.
          3   -1    0    0  501    0  0.00000000000E+00 -0.00000000000E+00 -0.55581906959E+02  0.55581906959E+02  0.00000000000E+00 0. -1.
         25    2    1    2    0    0 -0.51740666396E+02  0.26307056686E+02  0.12318856665E+03  0.18490989538E+03  0.12508832347E+03 0.  0.
         23    2    1    2    0    0  0.51740666396E+02 -0.26307056686E+02  0.94554589326E+02  0.14399707451E+03  0.91790137342E+02 0.  0.
          5    1    3    3  502    0  0.11262651539E+01 -0.17574393685E+02  0.11404501853E+03  0.11547236223E+03  0.41800000000E+01 0.  1.
         -5    1    3    3    0  502 -0.52866931550E+02  0.43881450370E+02  0.91435481111E+01  0.69437533152E+02  0.41800000000E+01 0.  1.
        -11    1    4    4    0    0  0.73380610665E+01 -0.23074945908E+02 -0.13078505011E+02  0.27519948440E+02  0.00000000000E+00 0. -1.
         11    1    4    4    0    0  0.44402605330E+02 -0.32321107781E+01  0.10763309434E+03  0.11647712607E+03  0.00000000000E+00 0.  1.
</event>
<event>
 8    1  0.6185113E-009  0.1002291E+03  0.7561462E-02  0.1279815E+00
          1   -1    0    0  501    0  0.00000000000E+00  0.00000000000E+00  0.17748920950E+03  0.17748920950E+03  0.00000000000E+00 0. -1.
         -1   -1    0    0    0  501 -0.00000000000E+00 -0.00000000000E+00 -0.98343939722E+02  0.98343939722E+02  0.00000000000E+00 0.  1.
         25    2    1    2    0    0  0.57230231593E+02 -0.19990167120E+02  0.91958151915E+02  0.16666518270E+03  0.12508427252E+03 0.  0.
         23    2    1    2    0    0 -0.57230231593E+02  0.19990167120E+02 -0.12812882139E+02  0.10916796652E+03  0.89880858783E+02 0.  0.
          5    1    3    3  502    0 -0.21326797483E+02 -0.48500839184E+02  0.21705588476E+02  0.57408785596E+02  0.41800000000E+01 0.  1.
         -5    1    3    3    0  502  0.78557029076E+02  0.28510672064E+02  0.70252563439E+02  0.10925639711E+03  0.41800000000E+01 0.  1.
        -11    1    4    4    0    0 -0.40415618152E+02  0.23077089741E+02 -0.49958258688E+02  0.68277389176E+02  0.00000000000E+00 0.  1.
         11    1    4    4    0    0 -0.16814613441E+02 -0.30869226210E+01  0.37145376550E+02  0.40890577343E+02  0.00000000000E+00 0. -1.
</event>
<event>
 8    1  0.6185113E-009  0.1483512E+03  0.7561462E-02  0.1202514E+00
         -1   -1    0    0    0  501 -0.00000000000E+00  0.00000000000E+00  0.54489319206E+03  0.54489319206E+03  0.00000000000E+00 0.  1.
          1   -1    0    0  501    0  0.00000000000E+00 -0.00000000000E+00 -0.42251243541E+02  0.42251243541E+02  0.00000000000E+00 0. -1.
         25    2    1    2    0    0 -0.43612724053E+02  0.96381163239E+02  0.28615813143E+03  0.32973613704E+03  0.12509214826E+03 0.  0.
         23    2    1    2    0    0  0.43612724053E+02 -0.96381163239E+02  0.21648381709E+03  0.25740829857E+03  0.90567051312E+02 0.  0.
          5    1    3    3  502    0 -0.50734917414E+02 -0.90502314091E+01  0.14068119063E+03  0.14988198134E+03  0.41800000000E+01 0.  1.
         -5    1    3    3    0  502  0.71221933607E+01  0.10543139465E+03  0.14547694081E+03  0.17985415570E+03  0.41800000000E+01 0.  1.
        -11    1    4    4    0    0  0.69939742776E+02 -0.86227202839E+02  0.17428970806E+03  0.20664849495E+03  0.00000000000E+00 0.  1.
         11    1    4    4    0    0 -0.26327018723E+02 -0.10153960400E+02  0.42194109027E+02  0.50759803617E+02  0.00000000000E+00 0. -1.
</event>
<event>
 8    1  0.6185113E-009  0.8735999E+02  0.7561462E-02  0.1309374E+00
         -1   -1    0    0    0  501 -0.00000000000E+00  0.00000000000E+00  0.40068700258E+02  0.40068700258E+02  0.00000000000E+00 0.  1.
          1   -1    0    0  501    0  0.00000000000E+00 -0.00000000000E+00 -0.40258044200E+03  0.40258044200E+03  0.00000000000E+00 0. -1.
         25    2    1    2    0    0  0.19763332441E+02 -0.50953038899E+02 -0.26578320937E+03  0.29878755131E+03  0.12508591030E+03 0.  0.
         23    2    1    2    0    0 -0.19763332441E+02  0.50953038899E+02 -0.96728532374E+02  0.14386159095E+03  0.91394457665E+02 0.  0.
          5    1    3    3  502    0  0.52568062193E+02 -0.23013073030E+02 -0.42980788839E+02  0.71817987317E+02  0.41800000000E+01 0.  1.
         -5    1    3    3    0  502 -0.32804729752E+02 -0.27939965869E+02 -0.22280242053E+03  0.22696956400E+03  0.41800000000E+01 0.  1.
        -11    1    4    4    0    0 -0.19224479973E+01 -0.10101426278E+02  0.13275100549E+02  0.16791751360E+02  0.00000000000E+00 0.  1.
         11    1    4    4    0    0 -0.17840884444E+02  0.61054465177E+02 -0.11000363292E+03  0.12706983958E+03  0.00000000000E+00 0. -1.
</event>
<event>
 8    1  0.6185113E-009  0.1009925E+03  0.7561462E-02  0.1278223E+00
          1   -1    0    0  501    0  0.00000000000E+00  0.00000000000E+00  0.41405507697E+02  0.41405507697E+02  0.00000000000E+00 0. -1.
         -1   -1    0    0    0  501 -0.00000000000E+00 -0.00000000000E+00 -0.35897097922E+03  0.35897097922E+03  0.00000000000E+00 0.  1.
         25    2    1    2    0    0 -0.32519999781E+02  0.12782794907E+02 -0.10599363152E+03  0.16763791917E+03  0.12508745656E+03 0.  0.
         23    2    1    2    0    0  0.32519999781E+02 -0.12782794907E+02 -0.21157184001E+03  0.23273856775E+03  0.90463513101E+02 0.  0.
          5    1    3    3  502    0 -0.55374589110E+02  0.42710805532E+02 -0.10906347156E+03  0.12962588961E+03  0.41800000000E+01 0. -1.
         -5    1    3    3    0  502  0.22854589329E+02 -0.29928010625E+02  0.30698400429E+01  0.38012029560E+02  0.41800000000E+01 0. -1.
        -11    1    4    4    0    0 -0.13614208666E+02 -0.38769284250E+02 -0.65030022094E+02  0.76924039496E+02  0.00000000000E+00 0. -1.
         11    1    4    4    0    0  0.46134208447E+02  0.25986489343E+02 -0.14654181792E+03  0.15581452826E+03  0.00000000000E+00 0.  1.
</event>
<event>
 8    1  0.6185113E-009  0.8879002E+02  0.7561462E-02  0.1305809E+00
          2   -1    0    0  501    0  0.00000000000E+00  0.00000000000E+00  0.65313944143E+03  0.65313944143E+03  0.00000000000E+00 0. -1.
         -2   -1    0    0    0  501 -0.00000000000E+00 -0.00000000000E+00 -0.24678319907E+02  0.24678319907E+02  0.00000000000E+00 0.  1.
         25    2    1    2    0    0  0.58244425675E+02  0.30090350971E+02  0.34654950337E+03  0.37422622608E+03  0.12510342782E+03 0.  0.
         23    2    1    2    0    0 -0.58244425675E+02 -0.30090350971E+02  0.28191161815E+03  0.30359153526E+03  0.91628693600E+02 0.  0.
          5    1    3    3  502    0  0.10300142252E+02 -0.22356823983E+02  0.26419706544E+03  0.26537423065E+03  0.41800000000E+01 0.  1.
         -5    1    3    3    0  502  0.47944283423E+02  0.52447174954E+02  0.82352437935E+02  0.10885199542E+03  0.41800000000E+01 0.  1.
        -11    1    4    4    0    0 -0.48214093041E+02 -0.43327881981E+02  0.27936759693E+03  0.28678939718E+03  0.00000000000E+00 0. -1.
         11    1    4    4    0    0 -0.10030332634E+02  0.13237531010E+02  0.25440212238E+01  0.16802138078E+02  0.00000000000E+00 0.  1.
</event>
<event>
 8    1  0.6185113E-009  0.1311862E+03  0.7561462E-02  0.1225706E+00
         -1   -1    0    0    0  501 -0.00000000000E+00  0.00000000000E+00  0.40921761796E+02  0.40921761796E+02  0.00000000000E+00 0.  1.
          1   -1    0    0  501    0  0.00000000000E+00 -0.00000000000E+00 -0.74754940516E+03  0.74754940516E+03  0.00000000000E+00 0. -1.
         25    2    1    2    0    0 -0.60808747775E+02 -0.10802401619E+03 -0.51388004630E+03  0.54321917296E+03  0.12508987173E+03 0.  0.
         23    2    1    2    0    0  0.60808747775E+02  0.10802401619E+03 -0.19274759707E+03  0.24525199400E+03  0.87349942782E+02 0.  0.
          5    1    3    3  502    0 -0.53970532413E+02 -0.61243990628E+02 -0.11258734973E+03  0.13912953848E+03  0.41800000000E+01 0. -1.
         -5    1    3    3    0  502 -0.68382153619E+01 -0.46780025565E+02 -0.40129269656E+03  0.40408963448E+03  0.41800000000E+01 0. -1.
        -11    1    4    4    0    0  0.50157858615E+02  0.39549442782E+02 -0.34727363297E+02  0.72704600727E+02  0.00000000000E+00 0.  1.
         11    1    4    4    0    0  0.10650889161E+02  0.68474573410E+02 -0.15802023377E+03  0.17254739327E+03  0.00000000000E+00 0. -1.
</event>
<event>
 8    1  0.6185113E-009  0.1863250E+03  0.7561462E-02  0.1161818E+00
         -1   -1    0    0    0  501 -0.00000000000E+00  0.00000000000E+00  0.76608715418E+02  0.76608715418E+02  0.00000000000E+00 0.  1.
          1   -1    0    0  501    0  0.00000000000E+00 -0.00000000000E+00 -0.52134458413E+03  0.52134458413E+03  0.00000000000E+00 0. -1.
         25    2    1    2    0    0  0.15683594067E+03 -0.57292696304E+02 -0.24097357091E+03  0.31874048267E+03  0.12508904060E+03 0.  0.
         23    2    1    2    0    0 -0.15683594067E+03  0.57292696304E+02 -0.20376229780E+03  0.27921281688E+03  0.92524363125E+02 0.  0.
          5    1    3    3  502    0  0.53444541199E+02 -0.64875630346E+02 -0.17923002046E+03  0.19800514900E+03  0.41800000000E+01 0. -1.
         -5    1    3    3    0  502  0.10339139947E+03  0.75829340412E+01 -0.61743550452E+02  0.12073533367E+03  0.41800000000E+01 0. -1.
        -11    1    4    4    0    0 -0.12720138117E+03  0.82895273634E+01 -0.17084475603E+03  0.21315918534E+03  0.00000000000E+00 0.  1.
         11    1    4    4    0    0 -0.29634559499E+02  0.49003168941E+02 -0.32917541776E+02  0.66053631539E+02  0.00000000000E+00 0. -1.
</event>
<event>
 8    1  0.6185113E-009  0.1400154E+03  0.7561462E-02  0.1213308E+00
          2   -1    0    0  501    0  0.00000000000E+00  0.00000000000E+00  0.11789014135E+04  0.11789014135E+04  0.00000000000E+00 0. -1.
         -2   -1    0    0    0  501 -0.00000000000E+00 -0.00000000000E+00 -0.22711846558E+02  0.22711846558E+02  0.00000000000E+00 0.  1.
         25    2    1    2    0    0 -0.30881326029E+02  0.10258500985E+03  0.83391914755E+03  0.85002813397E+03  0.12509733545E+03 0.  0.
         23    2    1    2    0    0  0.30881326029E+02 -0.10258500985E+03  0.32227041943E+03  0.35158512614E+03  0.90975475459E+02 0.  0.
          5    1    3    3  502    0 -0.46292001961E+02  0.11660356920E+03  0.80147513838E+03  0.81124546941E+03  0.41800000000E+01 0. -1.
         -5    1    3    3    0  502  0.15410675932E+02 -0.14018559351E+02  0.32444009171E+02  0.38782664556E+02  0.41800000000E+01 0. -1.
        -11    1    4    4    0    0  0.31047933826E+02 -0.37892623928E+00  0.35592882434E+02  0.47233156363E+02  0.00000000000E+00 0.  1.
         11    1    4    4    0    0 -0.16660779711E+00 -0.10220608361E+03  0.28667753700E+03  0.30435196977E+03  0.00000000000E+00 0. -1.
</event>
<event>
 8    1  0.6185113E-009  0.1049673E+03  0.7561462E-02  0.1270184E+00
         -1   -1    0    0    0  501 -0.00000000000E+00  0.00000000000E+00  0.46363134182E+03  0.46363134182E+03  0.00000000000E+00 0.  1.
          1   -1    0    0  501    0  0.00000000000E+00 -0.00000000000E+00 -0.42260151813E+02  0.42260151813E+02  0.00000000000E+00 0. -1.
         25    2    1    2    0    0 -0.19500778358E+02  0.86699862489E+02  0.23330963054E+03  0.27927222709E+03  0.12514969680E+03 0.  0.
         23    2    1    2    0    0  0.19500778358E+02 -0.86699862489E+02  0.18806155947E+03  0.22661926654E+03  0.89955518494E+02 0.  0.
          5    1    3    3  502    0  0.89741434568E+01  0.63238915338E+02  0.26703304646E+02  0.69355854425E+02  0.41800000000E+01 0.  1.
         -5    1    3    3    0  502 -0.28474921815E+02  0.23460947150E+02  0.20660632589E+03  0.20991637267E+03  0.41800000000E+01 0.  1.
        -11    1    4    4    0    0 -0.18587741647E+00  0.10055200575E+02 -0.38728926547E+01  0.10776869051E+02  0.00000000000E+00 0. -1.
         11    1    4    4    0    0  0.19686655775E+02 -0.96755063064E+02  0.19193445212E+03  0.21584239749E+03  0.00000000000E+00 0.  1.
</event>
<event>
 8    1  0.6185113E-009  0.1103544E+03  0.7561462E-02  0.1259915E+00
         -1   -1    0    0    0  501 -0.00000000000E+00  0.00000000000E+00  0.25802485601E+02  0.25802485601E+02  0.00000000000E+00 0.  1.
          1   -1    0    0  501    0  0.00000000000E+00 -0.00000000000E+00 -0.57136983454E+03  0.57136983454E+03  0.00000000000E+00 0. -1.
         25    2    1    2    0    0  0.47574497306E+02 -0.22287174943E+02 -0.23129991591E+03  0.26815515327E+03  0.12508990432E+03 0.  0.
         23    2    1    2    0    0 -0.47574497306E+02  0.22287174943E+02 -0.31426743303E+03  0.32901716687E+03  0.82025762257E+02 0.  0.
          5    1    3    3  502    0  0.38549782197E+02  0.45978994700E+02 -0.14951857314E+03  0.16116274314E+03  0.41800000000E+01 0. -1.
         -5    1    3    3    0  502  0.90247151088E+01 -0.68266169643E+02 -0.81781342766E+02  0.10699241013E+03  0.41800000000E+01 0. -1.
        -11    1    4    4    0    0 -0.38242587416E+02  0.49646600024E+02 -0.26092960546E+03  0.26834965883E+03  0.00000000000E+00 0. -1.
         11    1    4    4    0    0 -0.93319098899E+01 -0.27359425081E+02 -0.53337827570E+02  0.60667508049E+02  0.00000000000E+00 0.  1.
</event>
<event>
 8    1  0.6185113E-009  0.2048037E+03  0.7561462E-02  0.1145748E+00
         -2   -1    0    0    0  501 -0.00000000000E+00  0.00000000000E+00  0.24422665352E+03  0.24422665352E+03  0.00000000000E+00 0.  1.
          2   -1    0    0  501    0  0.00000000000E+00 -0.00000000000E+00 -0.44051442133E+03  0.44051442133E+03  0.00000000000E+00 0. -1.
         25    2    1    2    0    0  0.10713453291E+03  0.15063391232E+03  0.15904507819E+03  0.27406454741E+03  0.12509058945E+03 0.  0.
         23    2    1    2    0    0 -0.10713453291E+03 -0.15063391232E+03 -0.35533284600E+03  0.41067652743E+03  0.90693963727E+02 0.  0.
          5    1    3    3  502    0  0.16918906635E+02  0.12846691697E+03  0.10210375151E+03  0.16502316998E+03  0.41800000000E+01 0.  1.
         -5    1    3    3    0  502  0.90215626280E+02  0.22166995343E+02  0.56941326673E+02  0.10904137743E+03  0.41800000000E+01 0.  1.
        -11    1    4    4    0    0 -0.15769178724E+02 -0.42927632517E+02 -0.17901634968E+03  0.18476553273E+03  0.00000000000E+00 0. -1.
         11    1    4    4    0    0 -0.91365354191E+02 -0.10770627980E+03 -0.17631649631E+03  0.22591099470E+03  0.00000000000E+00 0.  1.
</event>
<event>
 8    1  0.6185113E-009  0.9928370E+02  0.7561462E-02  0.1281809E+00
          3   -1    0    0  501    0  0.00000000000E+00  0.00000000000E+00  0.25626782228E+03  0.25626782228E+03  0.00000000000E+00 0. -1.
         -3   -1    0    0    0  501 -0.00000000000E+00 -0.00000000000E+00 -0.55882833160E+02  0.55882833160E+02  0.00000000000E+00 0.  1.
         25    2    1    2    0    0  0.26001426345E+02 -0.39924361840E+02  0.14255908693E+03  0.19555065706E+03  0.12508771871E+03 0.  0.
         23    2    1    2    0    0 -0.26001426345E+02  0.39924361840E+02  0.57825902191E+02  0.11659999838E+03  0.89340337012E+02 0.  0.
          5    1    3    3  502    0  0.58939959725E+02 -0.60999712829E+02  0.59630468816E+02  0.10376969225E+03  0.41800000000E+01 0.  1.
         -5    1    3    3    0  502 -0.32938533380E+02  0.21075350989E+02  0.82928618111E+02  0.91780964814E+02  0.41800000000E+01 0.  1.
        -11    1    4    4    0    0  0.15349396912E+02  0.26883146236E+02 -0.12984514195E+02  0.33569407888E+02  0.00000000000E+00 0.  1.
         11    1    4    4    0    0 -0.41350823257E+02  0.13041215604E+02  0.70810416386E+02  0.83030590491E+02  0.00000000000E+00 0. -1.
</event>
<event>
 8    1  0.6185113E-009  0.2997990E+03  0.7561462E-02  0.1085341E+00
          2   -1    0    0  501    0  0.00000000000E+00  0.00000000000E+00  0.12063475789E+04  0.12063475789E+04  0.00000000000E+00 0.  1.
         -2   -1    0    0    0  501 -0.00000000000E+00 -0.00000000000E+00 -0.79179623977E+02  0.79179623977E+02  0.00000000000E+00 0. -1.
         25    2    1    2    0    0  0.45443739370E+02  0.28543710446E+03  0.55327197692E+03  0.63662954364E+03  0.12509125204E+03 0.  0.
         23    2    1    2    0    0 -0.45443739370E+02 -0.28543710446E+03  0.57389597801E+03  0.64889765924E+03  0.90399693308E+02 0.  0.
          5    1    3    3  502    0 -0.29073452640E+02  0.14138744691E+03  0.18891668663E+03  0.23778701116E+03  0.41800000000E+01 0. -1.
         -5    1    3    3    0  502  0.74517192009E+02  0.14404965755E+03  0.36435529030E+03  0.39884253248E+03  0.41800000000E+01 0. -1.
        -11    1    4    4    0    0  0.10156617574E+02 -0.52647447221E+02  0.51779090672E+02  0.74538478723E+02  0.00000000000E+00 0. -1.
         11    1    4    4    0    0 -0.55600356944E+02 -0.23278965724E+03  0.52211688733E+03  0.57435918052E+03  0.00000000000E+00 0.  1.
</event>
<event>
 7    1  0.6185113E-009  0.7223873E+02  0.7561462E-02  0.1352641E+00
          1   -1    0    0  501    0  0.00000000000E+00  0.00000000000E+00  0.17004193543E+03  0.17004193543E+03  0.00000000000E+00 0. -1.
         -1   -1    0    0    0  501 -0.00000000000E+00 -0.00000000000E+00 -0.74340367110E+02  0.74340367110E+02  0.00000000000E+00 0.  1.
         23    2    1    2    0    0  0.27888004529E+02 -0.17634566603E+02  0.48026826665E+02  0.10631071119E+03  0.88919471988E+02 0.  0.
          5    1    1    2  502    0 -0.20022031605E+02  0.28840644178E+02 -0.37594578632E+02  0.51609003563E+02  0.41800000000E+01 0.  1.
         -5    1    1    2    0  502 -0.78659729232E+01 -0.11206077575E+02  0.85269320287E+02  0.86462587787E+02  0.41800000000E+01 0.  1.
        -11    1    3    3    0    0  0.57420856515E+02 -0.27502234544E+02  0.33677053290E+02  0.72025492613E+02  0.00000000000E+00 0.  1.
         11    1    3    3    0    0 -0.29532851986E+02  0.98676679409E+01  0.14349773375E+02  0.34285218578E+02  0.00000000000E+00 0. -1.
</event>
<event>
 8    1  0.6185113E-009  0.9273167E+02  0.7561462E-02  0.1296368E+00
         -2   -1    0    0    0  501 -0.00000000000E+00  0.00000000000E+00  0.84611047720E+02  0.84611047720E+02  0.00000000000E+00 0.  1.
          2   -1    0    0  501    0  0.00000000000E+00 -0.00000000000E+00 -0.16708196011E+03  0.16708196011E+03  0.00000000000E+00 0. -1.
         25    2    1    2    0    0 -0.19835494473E+02  0.23732763638E+02 -0.88898019458E+02  0.15654789834E+03  0.12509074985E+03 0.  0.
         23    2    1    2    0    0  0.19835494473E+02 -0.23732763638E+02  0.64271070674E+01  0.95145109496E+02  0.89747385727E+02 0.  0.
          5    1    3    3  502    0 -0.48788194978E+01 -0.47601887140E+02 -0.62699760819E+02  0.78984017027E+02  0.41800000000E+01 0. -1.
         -5    1    3    3    0  502 -0.14956674975E+02  0.71334650778E+02 -0.26198258639E+02  0.77563881308E+02  0.41800000000E+01 0. -1.
        -11    1    4    4    0    0 -0.17855991995E+02  0.31453506601E+01  0.35933012182E+02  0.40248118532E+02  0.00000000000E+00 0.  1.
         11    1    4    4    0    0  0.37691486468E+02 -0.26878114298E+02 -0.29505905114E+02  0.54896990965E+02  0.00000000000E+00 0. -1.
</event>
<event>
 8    1  0.6185113E-009  0.1185582E+03  0.7561462E-02  0.1245495E+00
         -1   -1    0    0    0  501 -0.00000000000E+00  0.00000000000E+00  0.63244032642E+03  0.63244032642E+03  0.00000000000E+00 0.  1.
          1   -1    0    0  501    0  0.00000000000E+00 -0.00000000000E+00 -0.25462113856E+02  0.25462113856E+02  0.00000000000E+00 0. -1.
         25    2    1    2    0    0  0.58857039319E+02  0.20775374606E+02  0.28041000917E+03  0.31332422622E+03  0.12508609126E+03 0.  0.
         23    2    1    2    0    0 -0.58857039319E+02 -0.20775374606E+02  0.32656820340E+03  0.34457821406E+03  0.90507385697E+02 0.  0.
          5    1    3    3  502    0  0.72723237602E+02 -0.32592782244E+02  0.20358468858E+03  0.21866677061E+03  0.41800000000E+01 0.  1.
         -5    1    3    3    0  502 -0.13866198283E+02  0.53368156850E+02  0.76825320582E+02  0.94657455612E+02  0.41800000000E+01 0.  1.
        -11    1    4    4    0    0 -0.95192993393E+01  0.29846399053E+02  0.49064892357E+02  0.58213299669E+02  0.00000000000E+00 0. -1.
         11    1    4    4    0    0 -0.49337739980E+02 -0.50621773659E+02  0.27750331105E+03  0.28636491439E+03  0.00000000000E+00 0.  1.
</event>
<event>
 8    1  0.6185113E-009  0.1675922E+03  0.7561462E-02  0.1180382E+00
         -1   -1    0    0    0  501 -0.00000000000E+00  0.00000000000E+00  0.18203662930E+03  0.18203662930E+03  0.00000000000E+00 0.  1.
          1   -1    0    0  501    0  0.00000000000E+00 -0.00000000000E+00 -0.22289442255E+03  0.22289442255E+03  0.00000000000E+00 0. -1.
         25    2    1    2    0    0 -0.12521330995E+03  0.10197004118E+03 -0.70087862655E+02  0.21598413586E+03  0.12514222375E+03 0.  0.
         23    2    1    2    0    0  0.12521330995E+03 -0.10197004118E+03  0.29230069414E+02  0.18894691599E+03  0.93649761437E+02 0.  0.
          5    1    3    3  502    0 -0.12352463668E+03  0.10365808918E+03 -0.16467410683E+02  0.16214802908E+03  0.41800000000E+01 0.  1.
         -5    1    3    3    0  502 -0.16886732706E+01 -0.16880480047E+01 -0.53620451972E+02  0.53836106780E+02  0.41800000000E+01 0.  1.
        -11    1    4    4    0    0  0.27636260070E+02 -0.53256139304E+02 -0.27513389808E+02  0.66007316739E+02  0.00000000000E+00 0. -1.
         11    1    4    4    0    0  0.97577049883E+02 -0.48713901871E+02  0.56743459223E+02  0.12293959925E+03  0.00000000000E+00 0.  1.
</event>
<event>
 8    1  0.6185113E-009  0.1000071E+03  0.7561462E-02  0.1280281E+00
         -4   -1    0    0    0  501 -0.00000000000E+00  0.00000000000E+00  0.15104882856E+03  0.15104882856E+03  0.00000000000E+00 0.  1.
          4   -1    0    0  501    0  0.00000000000E+00 -0.00000000000E+00 -0.82626414672E+02  0.82626414672E+02  0.00000000000E+00 0. -1.
         25    2    1    2    0    0 -0.37707583397E+02  0.65146417121E+01  0.36879038925E+02  0.13591072742E+03  0.12508940768E+03 0.  0.
         23    2    1    2    0    0  0.37707583397E+02 -0.65146417121E+01  0.31543374966E+02  0.97764515815E+02  0.84253270833E+02 0.  0.
          5    1    3    3  502    0 -0.46923193737E+02 -0.38998453293E+02 -0.18142815154E+02  0.63791062159E+02  0.41800000000E+01 0.  1.
         -5    1    3    3    0  502  0.92156103396E+01  0.45513095005E+02  0.55021854079E+02  0.72119665259E+02  0.41800000000E+01 0.  1.
        -11    1    4    4    0    0 -0.19562170900E+02  0.20997338423E+02  0.61924859958E+01  0.29358365655E+02  0.00000000000E+00 0.  1.
         11    1    4    4    0    0  0.57269754297E+02 -0.27511980135E+02  0.25350888970E+02  0.68406150160E+02  0.00000000000E+00 0. -1.
</event>
<event>
 8    1  0.6185113E-009  0.2510904E+03  0.7561462E-02  0.1112618E+00
          1   -1    0    0  501    0  0.00000000000E+00  0.00000000000E+00  0.11703323695E+03  0.11703323695E+03  0.00000000000E+00 0. -1.
         -1   -1    0    0    0  501 -0.00000000000E+00 -0.00000000000E+00 -0.54302779314E+03  0.54302779314E+03  0.00000000000E+00 0.  1.
         25    2    1    2    0    0  0.18978052546E+03  0.12453545472E+03 -0.23829051501E+03  0.35207114064E+03  0.12508393663E+03 0.  0.
         23    2    1    2    0    0 -0.18978052546E+03 -0.12453545472E+03 -0.18770404118E+03  0.30798988945E+03  0.89995764360E+02 0.  0.
          5    1    3    3  502    0 -0.42632710507E+01 -0.17255598912E+02 -0.11345431080E+02  0.21497031894E+02  0.41800000000E+01 0.  1.
         -5    1    3    3    0  502  0.19404379651E+03  0.14179105364E+03 -0.22694508393E+03  0.33057410875E+03  0.41800000000E+01 0.  1.
        -11    1    4    4    0    0 -0.76477604937E+02 -0.17712916315E+01 -0.69363636000E+02  0.10326313732E+03  0.00000000000E+00 0.  1.
         11    1    4    4    0    0 -0.11330292052E+03 -0.12276416309E+03 -0.11834040518E+03  0.20472675213E+03  0.00000000000E+00 0. -1.
</event>
<event>
 8    1  0.6185113E-009  0.8697355E+02  0.7561462E-02  0.1310351E+00
          1   -1    0    0  501    0  0.00000000000E+00  0.00000000000E+00  0.12158027706E+03  0.12158027706E+03  0.00000000000E+00 0. -1.
         -1   -1    0    0    0  501 -0.00000000000E+00 -0.00000000000E+00 -0.14945198090E+03  0.14945198090E+03  0.00000000000E+00 0.  1.
         25    2    1    2    0    0 -0.25468495315E+02  0.69970419857E+02  0.11198905005E+02  0.14599904379E+03  0.12508317795E+03 0.  0.
         23    2    1    2    0    0  0.25468495315E+02 -0.69970419857E+02 -0.39070608841E+02  0.12503321417E+03  0.92532633501E+02 0.  0.
          5    1    3    3  502    0 -0.19694477485E+02  0.71356380693E+02 -0.46714762434E+02  0.87631883115E+02  0.41800000000E+01 0. -1.
         -5    1    3    3    0  502 -0.57740178303E+01 -0.13859608364E+01  0.57913667439E+02  0.58367160678E+02  0.41800000000E+01 0. -1.
        -11    1    4    4    0    0  0.38906756006E+02 -0.68818987381E+02 -0.60612342334E+02  0.99617492090E+02  0.00000000000E+00 0.  1.
         11    1    4    4    0    0 -0.13438260690E+02 -0.11514324757E+01  0.21541733493E+02  0.25415722083E+02  0.00000000000E+00 0. -1.
</event>
<event>
 8    1  0.6185113E-009  0.1078386E+03  0.7561462E-02  0.1264626E+00
         -2   -1    0    0    0  501 -0.00000000000E+00  0.00000000000E+00  0.12354376424E+02  0.12354376424E+02  0.00000000000E+00 0.  1.
          2   -1    0    0  501    0  0.00000000000E+00 -0.00000000000E+00 -0.12075420577E+04  0.12075420577E+04  0.00000000000E+00 0. -1.
         25    2    1    2    0    0 -0.13963581559E+02 -0.50758249605E+02 -0.71056106936E+03  0.72340570466E+03  0.12508956279E+03 0.  0.
         23    2    1    2    0    0  0.13963581559E+02  0.50758249605E+02 -0.48462661192E+03  0.49649072948E+03  0.94173828430E+02 0.  0.
          5    1    3    3  502    0 -0.40094234139E+02  0.10422571389E+02 -0.51727751345E+03  0.51895055248E+03  0.41800000000E+01 0. -1.
         -5    1    3    3    0  502  0.26130652580E+02 -0.61180820993E+02 -0.19328355592E+03  0.20445515217E+03  0.41800000000E+01 0. -1.
        -11    1    4    4    0    0  0.39112710517E+02 -0.11057454538E+02 -0.20733590159E+03  0.21128238808E+03  0.00000000000E+00 0.  1.
         11    1    4    4    0    0 -0.25149128958E+02  0.61815704143E+02 -0.27729071034E+03  0.28520834140E+03  0.00000000000E+00 0. -1.
</event>
<event>
 8    1  0.6185113E-009  0.7006343E+02  0.7561462E-02  0.1359877E+00
          1   -1    0    0  501    0  0.00000000000E+00  0.00000000000E+00  0.87371056440E+03  0.87371056440E+03  0.00000000000E+00 0. -1.
         -1   -1    0    0    0  501 -0.00000000000E+00 -0.00000000000E+00 -0.15019855675E+02  0.15019855675E+02  0.00000000000E+00 0.  1.
         25    2    1    2    0    0 -0.31386107082E+02 -0.18259592666E+02  0.51304445677E+03  0.52932090345E+03  0.12508998270E+03 0.  0.
         23    2    1    2    0    0  0.31386107082E+02  0.18259592666E+02  0.34564625196E+03  0.35940951662E+03  0.91571658845E+02 0.  0.
          5    1    3    3  502    0 -0.33793410308E+02 -0.15148021912E+02  0.34636307690E+02  0.50878319139E+02  0.41800000000E+01 0. -1.
         -5    1    3    3    0  502  0.24073032253E+01 -0.31115707540E+01  0.47840814908E+03  0.47844258431E+03  0.41800000000E+01 0. -1.
        -11    1    4    4    0    0  0.56117890455E+02  0.36008324576E+02  0.20752636172E+03  0.21797478725E+03  0.00000000000E+00 0. -1.
         11    1    4    4    0    0 -0.24731783373E+02 -0.17748731909E+02  0.13811989024E+03  0.14143472937E+03  0.00000000000E+00 0.  1.
</event>
<event>
 8    1  0.6185113E-009  0.1463393E+03  0.7561462E-02  0.1205045E+00
          2   -1    0    0  501    0  0.00000000000E+00  0.00000000000E+00  0.56448013093E+03  0.56448013093E+03  0.00000000000E+00 0. -1.
         -2   -1    0    0    0  501 -0.00000000000E+00 -0.00000000000E+00 -0.50658948527E+02  0.50658948527E+02  0.00000000000E+00 0.  1.
         25    2    1    2    0    0 -0.10971888914E+03 -0.34382340386E+02  0.38194496591E+03  0.41803103997E+03  0.12509042102E+03 0.  0.
         23    2    1    2    0    0  0.10971888914E+03  0.34382340386E+02  0.13187621650E+03  0.19710803949E+03  0.90773689959E+02 0.  0.
          5    1    3    3  502    0 -0.20225983991E+02 -0.51740304607E+02  0.53851857840E+02  0.77483188771E+02  0.41800000000E+01 0. -1.
         -5    1    3    3    0  502 -0.89492905152E+02  0.17357964222E+02  0.32809310807E+03  0.34054785120E+03  0.41800000000E+01 0. -1.
        -11    1    4    4    0    0  0.10679039392E+02 -0.27108265134E+02  0.34945182270E+02  0.45497974513E+02  0.00000000000E+00 0. -1.
         11    1    4    4    0    0  0.99039849751E+02  0.61490605520E+02  0.96931034228E+02  0.15161006498E+03  0.00000000000E+00 0.  1.
</event>
<event>
 8    1  0.6185113E-009  0.1816496E+03  0.7561462E-02  0.1166216E+00
         -2   -1    0    0    0  501 -0.00000000000E+00  0.00000000000E+00  0.28336454622E+02  0.28336454622E+02  0.00000000000E+00 0.  1.
          2   -1    0    0  501    0  0.00000000000E+00 -0.00000000000E+00 -0.14789734219E+04  0.14789734219E+04  0.00000000000E+00 0. -1.
         25    2    1    2    0    0 -0.48957676904E+02  0.15794582710E+03 -0.94087992634E+03  0.96345508929E+03  0.12508770867E+03 0.  0.
         23    2    1    2    0    0  0.48957676904E+02 -0.15794582710E+03 -0.50975704096E+03  0.54385478726E+03  0.92639356576E+02 0.  0.
          5    1    3    3  502    0 -0.39692722875E+02  0.24460338786E+01 -0.35354281577E+03  0.35579697907E+03  0.41800000000E+01 0. -1.
         -5    1    3    3    0  502 -0.92649540292E+01  0.15549979322E+03 -0.58733711057E+03  0.60765811022E+03  0.41800000000E+01 0. -1.
        -11    1    4    4    0    0 -0.13770693544E+00 -0.36308856933E+02 -0.31933914297E+02  0.48354182211E+02  0.00000000000E+00 0.  1.
         11    1    4    4    0    0  0.49095383839E+02 -0.12163697017E+03 -0.47782312666E+03  0.49550060505E+03  0.00000000000E+00 0. -1.
</event>
<event>
 8    1  0.6185113E-009  0.1639571E+03  0.7561462E-02  0.1184300E+00
         -2   -1    0    0    0  501 -0.00000000000E+00  0.00000000000E+00  0.14488030744E+03  0.14488030744E+03  0.00000000000E+00 0.  1.
          2   -1    0    0  501    0  0.00000000000E+00 -0.00000000000E+00 -0.21456134563E+03  0.21456134563E+03  0.00000000000E+00 0. -1.
         25    2    1    2    0    0 -0.10878892213E+03  0.80285419430E+02 -0.29892254615E+01  0.18421972291E+03  0.12508873926E+03 0.  0.
         23    2    1    2    0    0  0.10878892213E+03 -0.80285419430E+02 -0.66691812731E+02  0.17522193016E+03  0.89298089414E+02 0.  0.
          5    1    3    3  502    0 -0.12147514882E+02  0.80691554250E+02 -0.24145210283E+02  0.85200660940E+02  0.41800000000E+01 0. -1.
         -5    1    3    3    0  502 -0.96641407248E+02 -0.40613481970E+00  0.21155984822E+02  0.99019061974E+02  0.41800000000E+01 0. -1.
        -11    1    4    4    0    0  0.61384377563E+02 -0.81527815485E+02 -0.75557620862E+02  0.12697944943E+03  0.00000000000E+00 0. -1.
         11    1    4    4    0    0  0.47404544567E+02  0.12423960547E+01  0.88658081316E+01  0.48242480734E+02  0.00000000000E+00 0.  1.
</event>
<event>
 8    1  0.6185113E-009  0.1553676E+03  0.7561462E-02  0.1194028E+00
         -4   -1    0    0    0  501 -0.00000000000E+00  0.00000000000E+00  0.92227439806E+02  0.92227439806E+02  0.00000000000E+00 0.  1.
          4   -1    0    0  501    0  0.00000000000E+00 -0.00000000000E+00 -0.32281495083E+03  0.32281495083E+03  0.00000000000E+00 0. -1.
         25    2    1    2    0    0  0.43583443157E+02  0.10614806413E+03 -0.38852863443E+02  0.17413816574E+03  0.12509047818E+03 0.  0.
         23    2    1    2    0    0 -0.43583443157E+02 -0.10614806413E+03 -0.19173464758E+03  0.24090422490E+03  0.90031896882E+02 0.  0.
          5    1    3    3  502    0  0.70584104339E+02  0.11638715626E+03 -0.16085639412E+02  0.13712879392E+03  0.41800000000E+01 0.  1.
         -5    1    3    3    0  502 -0.27000661182E+02 -0.10239092129E+02 -0.22767224031E+02  0.37009371813E+02  0.41800000000E+01 0.  1.
        -11    1    4    4    0    0 -0.71397964617E+02 -0.73148772273E+02 -0.12566756829E+03  0.16198996869E+03  0.00000000000E+00 0.  1.
         11    1    4    4    0    0  0.27814521461E+02 -0.32999291856E+02 -0.66067079294E+02  0.78914256213E+02  0.00000000000E+00 0. -1.
</event>
<event>
 8    1  0.6185113E-009  0.1224253E+03  0.7561462E-02  0.1239149E+00
         -2   -1    0    0    0  501 -0.00000000000E+00  0.00000000000E+00  0.46291462117E+02  0.46291462117E+02  0.00000000000E+00 0. -1.
          2   -1    0    0  501    0  0.00000000000E+00 -0.00000000000E+00 -0.42272212519E+03  0.42272212519E+03  0.00000000000E+00 0.  1.
         25    2    1    2    0    0  0.82176989959E+02  0.17827850245E+02 -0.21918496803E+03  0.26600728863E+03  0.12508771910E+03 0.  0.
         23    2    1    2    0    0 -0.82176989959E+02 -0.17827850245E+02 -0.15724569504E+03  0.20300629868E+03  0.97028133915E+02 0.  0.
          5    1    3    3  502    0 -0.16657277003E+02 -0.33775301404E+02 -0.71439575178E+02  0.80866069298E+02  0.41800000000E+01 0.  1.
         -5    1    3    3    0  502  0.98834266962E+02  0.51603151649E+02 -0.14774539286E+03  0.18514121933E+03  0.41800000000E+01 0.  1.
        -11    1    4    4    0    0 -0.68778397240E+02  0.49542940344E+01 -0.16207888460E+03  0.17613795102E+03  0.00000000000E+00 0.  1.
         11    1    4    4    0    0 -0.13398592720E+02 -0.22782144279E+02  0.48331895548E+01  0.26868347662E+02  0.00000000000E+00 0. -1.
</event>
<event>
 8    1  0.6185113E-009  0.1010387E+03  0.7561462E-02  0.1278127E+00
         -1   -1    0    0    0  501 -0.00000000000E+00  0.00000000000E+00  0.30727887388E+02  0.30727887388E+02  0.00000000000E+00 0.  1.
          1   -1    0    0  501    0  0.00000000000E+00 -0.00000000000E+00 -0.49102083235E+03  0.49102083235E+03  0.00000000000E+00 0. -1.
         25    2    1    2    0    0  0.48003756681E+02  0.28672572949E+02 -0.28489609038E+03  0.31613317288E+03  0.12509166073E+03 0.  0.
         23    2    1    2    0    0 -0.48003756681E+02 -0.28672572949E+02 -0.17539685458E+03  0.20561554686E+03  0.91581763573E+02 0.  0.
          5    1    3    3  502    0  0.90328239332E+02  0.11534767462E+02 -0.19121823759E+03  0.21183514456E+03  0.41800000000E+01 0.  1.
         -5    1    3    3    0  502 -0.42324482651E+02  0.17137805486E+02 -0.93677852789E+02  0.10429802832E+03  0.41800000000E+01 0.  1.
        -11    1    4    4    0    0 -0.23963659700E+02  0.42126541170E+01  0.12202251469E+01  0.24361699250E+02  0.00000000000E+00 0.  1.
         11    1    4    4    0    0 -0.24040096981E+02 -0.32885227066E+02 -0.17661707973E+03  0.18125384761E+03  0.00000000000E+00 0. -1.
</event>
<event>
 8    1  0.6185113E-009  0.1449942E+03  0.7561462E-02  0.1206763E+00
         -2   -1    0    0    0  501 -0.00000000000E+00  0.00000000000E+00  0.24505640237E+03  0.24505640237E+03  0.00000000000E+00 0. -1.
          2   -1    0    0  501    0  0.00000000000E+00 -0.00000000000E+00 -0.92016406382E+02  0.92016406382E+02  0.00000000000E+00 0.  1.
         25    2    1    2    0    0  0.44537590782E+02 -0.92676385793E+02  0.67620368731E+02  0.17547899917E+03  0.12509138821E+03 0.  0.
         23    2    1    2    0    0 -0.44537590782E+02  0.92676385793E+02  0.85419627257E+02  0.16159380959E+03  0.90793926558E+02 0.  0.
          5    1    3    3  502    0 -0.25586205063E+02  0.13216902370E+02 -0.43729746625E+01  0.29426785506E+02  0.41800000000E+01 0. -1.
         -5    1    3    3    0  502  0.70123795845E+02 -0.10589328816E+03  0.71993343394E+02  0.14605221366E+03  0.41800000000E+01 0. -1.
        -11    1    4    4    0    0 -0.68327136294E+02  0.84475431251E+02  0.53967675424E+02  0.12131449225E+03  0.00000000000E+00 0. -1.
         11    1    4    4    0    0  0.23789545512E+02  0.82009545425E+01  0.31451951833E+02  0.40279317337E+02  0.00000000000E+00 0.  1.
</event>
<event>
 8    1  0.6185113E-009  0.1179731E+03  0.7561462E-02  0.1246479E+00
         -2   -1    0    0    0  501 -0.00000000000E+00  0.00000000000E+00  0.64177833801E+02  0.64177833801E+02  0.00000000000E+00 0.  1.
          2   -1    0    0  501    0  0.00000000000E+00 -0.00000000000E+00 -0.24888931313E+03  0.24888931313E+03  0.00000000000E+00 0. -1.
         25    2    1    2    0    0  0.14120992132E+02 -0.39835063269E+02 -0.12577372038E+03  0.18235299896E+03  0.12508937928E+03 0.  0.
         23    2    1    2    0    0 -0.14120992132E+02  0.39835063269E+02 -0.58937758955E+02  0.13071414797E+03  0.10874876719E+03 0.  0.
          5    1    3    3  502    0  0.51501720412E+02 -0.67738913829E+02 -0.81974925061E+02  0.11823006551E+03  0.41800000000E+01 0. -1.
         -5    1    3    3    0  502 -0.37380728280E+02  0.27903850560E+02 -0.43798795316E+02  0.64122933447E+02  0.41800000000E+01 0. -1.
        -11    1    4    4    0    0  0.40671439199E+02  0.11693671557E+02 -0.54439624720E+02  0.68953467357E+02  0.00000000000E+00 0. -1.
         11    1    4    4    0    0 -0.54792431331E+02  0.28141391713E+02 -0.44981342350E+01  0.61760680617E+02  0.00000000000E+00 0.  1.
</event>
<event>
 8    1  0.6185113E-009  0.9168048E+02  0.7561462E-02  0.1298832E+00
         -1   -1    0    0    0  501 -0.00000000000E+00  0.00000000000E+00  0.24516358907E+02  0.24516358907E+02  0.00000000000E+00 0.  1.
          1   -1    0    0  501    0  0.00000000000E+00 -0.00000000000E+00 -0.63339618282E+03  0.63339618282E+03  0.00000000000E+00 0. -1.
         25    2    1    2    0    0  0.14534980677E+02 -0.58082601300E+02 -0.40037228311E+03  0.42370953234E+03  0.12508776308E+03 0.  0.
         23    2    1    2    0    0 -0.14534980677E+02  0.58082601300E+02 -0.20850754080E+03  0.23420300938E+03  0.88265513078E+02 0.  0.
          5    1    3    3  502    0  0.26928752350E+02  0.70845790705E+01 -0.13603369345E+02  0.31270961310E+02  0.41800000000E+01 0. -1.
         -5    1    3    3    0  502 -0.12393771672E+02 -0.65167180370E+02 -0.38676891377E+03  0.39243857103E+03  0.41800000000E+01 0. -1.
        -11    1    4    4    0    0  0.22233188995E+02  0.44123073611E+02 -0.17712707783E+03  0.18388899374E+03  0.00000000000E+00 0.  1.
         11    1    4    4    0    0 -0.36768169673E+02  0.13959527689E+02 -0.31380462965E+02  0.50314015644E+02  0.00000000000E+00 0. -1.
</event>
<event>
 8    1  0.6185113E-009  0.2474770E+03  0.7561462E-02  0.1114910E+00
         -1   -1    0    0    0  501 -0.00000000000E+00  0.00000000000E+00  0.28205367695E+03  0.28205367695E+03  0.00000000000E+00 0.  1.
          1   -1    0    0  501    0  0.00000000000E+00 -0.00000000000E+00 -0.24934946270E+03  0.24934946270E+03  0.00000000000E+00 0. -1.
         25    2    1    2    0    0 -0.13799308810E+03 -0.19046050985E+03 -0.38706579464E+02  0.26918904014E+03  0.12508893582E+03 0.  0.
         23    2    1    2    0    0  0.13799308810E+03  0.19046050985E+03  0.71410793721E+02  0.26221409951E+03  0.91320503435E+02 0.  0.
          5    1    3    3  502    0 -0.89241457072E+02 -0.49720753330E+02  0.27892695492E+02  0.10597955385E+03  0.41800000000E+01 0.  1.
         -5    1    3    3    0  502 -0.48751631027E+02 -0.14073975652E+03 -0.66599274956E+02  0.16320948629E+03  0.41800000000E+01 0.  1.
        -11    1    4    4    0    0  0.92835384151E+02  0.73745327013E+02  0.88760471332E+00  0.11856462225E+03  0.00000000000E+00 0. -1.
         11    1    4    4    0    0  0.45157703948E+02  0.11671518283E+03  0.70523189007E+02  0.14364947726E+03  0.00000000000E+00 0.  1.
</event>
<event>
 8    1  0.6185113E-009  0.9687130E+02  0.7561462E-02  0.1287016E+00
         -1   -1    0    0    0  501 -0.00000000000E+00  0.00000000000E+00  0.31956490649E+02  0.31956490649E+02  0.00000000000E+00 0.  1.
          1   -1    0    0  501    0  0.00000000000E+00 -0.00000000000E+00 -0.64472681965E+03  0.64472681965E+03  0.00000000000E+00 0. -1.
         25    2    1    2    0    0  0.11930983602E+02  0.62657425121E+02 -0.49042437182E+03  0.51012930127E+03  0.12509012051E+03 0.  0.
         23    2    1    2    0    0 -0.11930983602E+02 -0.62657425121E+02 -0.12234595719E+03  0.16655400904E+03  0.93292032846E+02 0.  0.
          5    1    3    3  502    0  0.31024788863E+02  0.77972315237E+02 -0.47144926263E+03  0.47887795846E+03  0.41800000000E+01 0.  1.
         -5    1    3    3    0  502 -0.19093805260E+02 -0.15314890116E+02 -0.18975109190E+02  0.31251342809E+02  0.41800000000E+01 0.  1.
        -11    1    4    4    0    0  0.22293299371E+02 -0.31610850250E+02 -0.11296392809E+03  0.11940304058E+03  0.00000000000E+00 0. -1.
         11    1    4    4    0    0 -0.34224282974E+02 -0.31046574871E+02 -0.93820291008E+01  0.47150968456E+02  0.00000000000E+00 0.  1.
</event>
<event>
 8    1  0.6185113E-009  0.1947006E+03  0.7561462E-02  0.1154289E+00
          2   -1    0    0  501    0  0.00000000000E+00  0.00000000000E+00  0.73466205864E+03  0.73466205864E+03  0.00000000000E+00 0.  1.
         -2   -1    0    0    0  501 -0.00000000000E+00 -0.00000000000E+00 -0.64964439046E+02  0.64964439046E+02  0.00000000000E+00 0. -1.
         25    2    1    2    0    0  0.52690700894E+01  0.17256652341E+03  0.20632963994E+03  0.29669180270E+03  0.12508851814E+03 0.  0.
         23    2    1    2    0    0 -0.52690700894E+01 -0.17256652341E+03  0.46336797965E+03  0.50293469498E+03  0.91795722935E+02 0.  0.
          5    1    3    3  502    0 -0.26508912646E+02  0.17776065090E+03  0.18426324402E+03  0.25743346122E+03  0.41800000000E+01 0. -1.
         -5    1    3    3    0  502  0.31777982735E+02 -0.51941274904E+01  0.22066395929E+02  0.39258341488E+02  0.41800000000E+01 0. -1.
        -11    1    4    4    0    0 -0.18115715875E+02 -0.39326861127E+02  0.22879752796E+03  0.23285851921E+03  0.00000000000E+00 0.  1.
         11    1    4    4    0    0  0.12846645786E+02 -0.13323966228E+03  0.23457045169E+03  0.27007617577E+03  0.00000000000E+00 0. -1.
</event>
<event>
 7    1  0.6185113E-009  0.1176890E+03  0.7561462E-02  0.1246959E+00
         -2   -1    0    0    0  501 -0.00000000000E+00  0.00000000000E+00  0.16348553570E+02  0.16348553570E+02  0.00000000000E+00 0. -1.
          2   -1    0    0  501    0  0.00000000000E+00 -0.00000000000E+00 -0.12665460603E+04  0.12665460603E+04  0.00000000000E+00 0.  1.
         25    2    1    2    0    0 -0.11492483414E+02  0.54754282884E+02 -0.77491345779E+03  0.78693633822E+03  0.12509126540E+03 0.  0.
          5    1    3    3  502    0  0.47053982932E+02  0.19836456463E+02 -0.53628414888E+03  0.53872601854E+03  0.41800000000E+01 0.  1.
         -5    1    3    3    0  502 -0.58546466347E+02  0.34917826421E+02 -0.23862930891E+03  0.24821031968E+03  0.41800000000E+01 0.  1.
        -11    1    1    2    0    0  0.53104337213E+02 -0.51712851412E+02 -0.42108881277E+03  0.42756295194E+03  0.00000000000E+00 0.  1.
         11    1    1    2    0    0 -0.41611853799E+02 -0.30414314723E+01 -0.54195236174E+02  0.68395323713E+02  0.00000000000E+00 0. -1.
</event>
<event>
 7    1  0.6185113E-009  0.1672493E+03  0.7561462E-02  0.1180747E+00
         -2   -1    0    0    0  501 -0.00000000000E+00  0.00000000000E+00  0.21144535326E+02  0.21144535326E+02  0.00000000000E+00 0.  1.
          2   -1    0    0  501    0  0.00000000000E+00 -0.00000000000E+00 -0.18371614884E+04  0.18371614884E+04  0.00000000000E+00 0. -1.
         23    2    1    2    0    0  0.10390668023E+03 -0.11961519405E+03 -0.64603470732E+03  0.67105136395E+03  0.88570294991E+02 0.  0.
          5    1    1    2  502    0 -0.82427008608E+02  0.66693845356E+02 -0.10376647840E+04  0.10430761991E+04  0.41800000000E+01 0.  1.
         -5    1    1    2    0  502 -0.21479671624E+02  0.52921348697E+02 -0.13231746180E+03  0.14417846073E+03  0.41800000000E+01 0.  1.
        -11    1    3    3    0    0  0.56812446579E+02 -0.18791980323E+02 -0.12937504949E+03  0.14254366363E+03  0.00000000000E+00 0.  1.
         11    1    3    3    0    0  0.47094233653E+02 -0.10082321373E+03 -0.51665965783E+03  0.52850770032E+03  0.00000000000E+00 0. -1.
</event>
<event>
 8    1  0.6185113E-009  0.1173136E+03  0.7561462E-02  0.1247596E+00
          1   -1    0    0  501    0  0.00000000000E+00  0.00000000000E+00  0.63130447425E+03  0.63130447425E+03  0.00000000000E+00 0. -1.
         -1   -1    0    0    0  501 -0.00000000000E+00 -0.00000000000E+00 -0.28270356640E+02  0.28270356640E+02  0.00000000000E+00 0.  1.
         25    2    1    2    0    0  0.11984173525E+02  0.50100451097E+02  0.19376154562E+03  0.23631504278E+03  0.12509031645E+03 0.  0.
         23    2    1    2    0    0 -0.11984173525E+02 -0.50100451097E+02  0.40927257199E+03  0.42325978811E+03  0.94821592644E+02 0.  0.
          5    1    3    3  502    0 -0.12589601283E+01  0.87105651422E+02  0.90208498942E+02  0.12547519744E+03  0.41800000000E+01 0.  1.
         -5    1    3    3    0  502  0.13243133653E+02 -0.37005200325E+02  0.10355304668E+03  0.11083984535E+03  0.41800000000E+01 0.  1.
        -11    1    4    4    0    0 -0.53668175350E+02 -0.31616738552E+02  0.23186487882E+03  0.24008584554E+03  0.00000000000E+00 0. -1.
         11    1    4    4    0    0  0.41684001825E+02 -0.18483712545E+02  0.17740769317E+03  0.18317394256E+03  0.00000000000E+00 0.  1.
</event>
<event>
 8    1  0.6185113E-009  0.1518362E+03  0.7561462E-02  0.1198235E+00
          1   -1    0    0  501    0  0.00000000000E+00  0.00000000000E+00  0.57346942172E+03  0.57346942172E+03  0.00000000000E+00 0. -1.
         -1   -1    0    0    0  501 -0.00000000000E+00 -0.00000000000E+00 -0.72502111203E+02  0.72502111203E+02  0.00000000000E+00 0.  1.
         25    2    1    2    0    0 -0.71486192855E+02 -0.10299382899E+03  0.44820244342E+03  0.48192782575E+03  0.12510393424E+03 0.  0.
         23    2    1    2    0    0  0.71486192855E+02  0.10299382899E+03  0.52764867096E+02  0.16404370718E+03  0.91696249024E+02 0.  0.
          5    1    3    3  502    0 -0.85928593140E+02 -0.11180565965E+03  0.44109817923E+03  0.46310830781E+03  0.41800000000E+01 0. -1.
         -5    1    3    3    0  502  0.14442400286E+02  0.88118306608E+01  0.71042641975E+01  0.18819517938E+02  0.41800000000E+01 0. -1.
        -11    1    4    4    0    0 -0.10154055710E+02  0.42142476270E+02 -0.99238062853E+01  0.44469934616E+02  0.00000000000E+00 0. -1.
         11    1    4    4    0    0  0.81640248565E+02  0.60851352721E+02  0.62688673382E+02  0.11957377256E+03  0.00000000000E+00 0.  1.
</event>
<event>
 8    1  0.6185113E-009  0.1004125E+03  0.7561462E-02  0.1279431E+00
          1   -1    0    0  501    0  0.00000000000E+00  0.00000000000E+00  0.16668746273E+03  0.16668746273E+03  0.00000000000E+00 0. -1.
         -1   -1    0    0    0  501 -0.00000000000E+00 -0.00000000000E+00 -0.10170434217E+03  0.10170434217E+03  0.00000000000E+00 0.  1.
         25    2    1    2    0    0  0.22957253823E+02  0.29557656052E+02 -0.28893239628E+02  0.13372761856E+03  0.12509023198E+03 0.  0.
         23    2    1    2    0    0 -0.22957253823E+02 -0.29557656052E+02  0.93876360191E+02  0.13466418633E+03  0.88999896313E+02 0.  0.
          5    1    3    3  502    0 -0.40833508223E+02  0.82095754517E+01  0.23821106043E+02  0.48163160362E+02  0.41800000000E+01 0. -1.
         -5    1    3    3    0  502  0.63790762046E+02  0.21348080600E+02 -0.52714345671E+02  0.85564458201E+02  0.41800000000E+01 0. -1.
        -11    1    4    4    0    0 -0.47815714327E+02  0.59906303460E+01  0.27834587106E+02  0.55650646249E+02  0.00000000000E+00 0. -1.
         11    1    4    4    0    0  0.24858460504E+02 -0.35548286397E+02  0.66041773086E+02  0.79013540085E+02  0.00000000000E+00 0.  1.
</event>
<event>
 8    1  0.6185113E-009  0.1500976E+03  0.7561462E-02  0.1200353E+00
          1   -1    0    0  501    0  0.00000000000E+00  0.00000000000E+00  0.25097314958E+03  0.25097314958E+03  0.00000000000E+00 0. -1.
         -1   -1    0    0    0  501 -0.00000000000E+00 -0.00000000000E+00 -0.15476751635E+03  0.15476751635E+03  0.00000000000E+00 0.  1.
         25    2    1    2    0    0 -0.12740638850E+02  0.12856908266E+03 -0.53719532400E+02  0.18768064322E+03  0.12508358320E+03 0.  0.
         23    2    1    2    0    0  0.12740638850E+02 -0.12856908266E+03  0.14992516562E+03  0.21806002271E+03  0.91543898341E+02 0.  0.
          5    1    3    3  502    0 -0.59814875898E+02  0.51798477745E+02  0.61282017893E+01  0.79472818829E+02  0.41800000000E+01 0.  1.
         -5    1    3    3    0  502  0.47074237048E+02  0.76770604912E+02 -0.59847734189E+02  0.10820782439E+03  0.41800000000E+01 0.  1.
        -11    1    4    4    0    0  0.17943772827E+02 -0.11237711131E+03  0.16144211230E+03  0.19751999836E+03  0.00000000000E+00 0. -1.
         11    1    4    4    0    0 -0.52031339764E+01 -0.16191971350E+02 -0.11516946678E+02  0.20540024347E+02  0.00000000000E+00 0.  1.
</event>
<event>
 8    1  0.6185113E-009  0.1070178E+03  0.7561462E-02  0.1266194E+00
         -3   -1    0    0    0  501 -0.00000000000E+00  0.00000000000E+00  0.60137608810E+03  0.60137608810E+03  0.00000000000E+00 0.  1.
          3   -1    0    0  501    0  0.00000000000E+00 -0.00000000000E+00 -0.29665125496E+02  0.29665125496E+02  0.00000000000E+00 0. -1.
         25    2    1    2    0    0 -0.51428625073E+02 -0.55821490629E+02  0.36900404232E+03  0.39695438567E+03  0.12509140165E+03 0.  0.
         23    2    1    2    0    0  0.51428625073E+02  0.55821490629E+02  0.20270692028E+03  0.23408682792E+03  0.89138124174E+02 0.  0.
          5    1    3    3  502    0  0.26838699404E+02  0.13187291573E+02  0.31374739088E+02  0.43543852581E+02  0.41800000000E+01 0. -1.
         -5    1    3    3    0  502 -0.78267324478E+02 -0.69008782203E+02  0.33762930323E+03  0.35341053309E+03  0.41800000000E+01 0. -1.
        -11    1    4    4    0    0  0.32606232082E+02  0.18192470112E+02  0.18450361749E+03  0.18824377070E+03  0.00000000000E+00 0.  1.
         11    1    4    4    0    0  0.18822392992E+02  0.37629020517E+02  0.18203302797E+02  0.45843057225E+02  0.00000000000E+00 0. -1.
</event>
<event>
 8    1  0.6185113E-009  0.3109953E+03  0.7561462E-02  0.1079870E+00
          1   -1    0    0  501    0  0.00000000000E+00  0.00000000000E+00  0.25291938591E+03  0.25291938591E+03  0.00000000000E+00 0. -1.
         -1   -1    0    0    0  501 -0.00000000000E+00 -0.00000000000E+00 -0.47622976903E+03  0.47622976903E+03  0.00000000000E+00 0.  1.
         25    2    1    2    0    0 -0.58564164979E+02  0.29496405781E+03 -0.25405140620E+03  0.41306233291E+03  0.12507924309E+03 0.  0.
         23    2    1    2    0    0  0.58564164979E+02 -0.29496405781E+03  0.30741023080E+02  0.31608682203E+03  0.92370513378E+02 0.  0.
          5    1    3    3  502    0  0.33118613116E+01  0.14553973550E+03 -0.18920988103E+03  0.23876899823E+03  0.41800000000E+01 0. -1.
         -5    1    3    3    0  502 -0.61876026290E+02  0.14942432231E+03 -0.64841525175E+02  0.17429333468E+03  0.41800000000E+01 0. -1.
        -11    1    4    4    0    0 -0.23373787056E+00 -0.21660036210E+03  0.22741853489E+02  0.21779110036E+03  0.00000000000E+00 0. -1.
         11    1    4    4    0    0  0.58797902849E+02 -0.78363695710E+02  0.79991695914E+01  0.98295721672E+02  0.00000000000E+00 0.  1.
</event>
<event>
 8    1  0.6185113E-009  0.7021535E+02  0.7561462E-02  0.1359362E+00
         -2   -1    0    0    0  501 -0.00000000000E+00  0.00000000000E+00  0.24340717713E+02  0.24340717713E+02  0.00000000000E+00 0.  1.
          2   -1    0    0  501    0  0.00000000000E+00 -0.00000000000E+00 -0.63660729109E+03  0.63660729109E+03  0.00000000000E+00 0. -1.
         25    2    1    2    0    0  0.15424826812E+02  0.15827034099E+02 -0.48415443277E+03  0.50054042881E+03  0.12508711288E+03 0.  0.
         23    2    1    2    0    0 -0.15424826812E+02 -0.15827034099E+02 -0.12811214061E+03  0.16040757999E+03  0.93965157683E+02 0.  0.
          5    1    3    3  502    0  0.19194962636E+02 -0.17019497989E+02 -0.14613574307E+02  0.29818431488E+02  0.41800000000E+01 0. -1.
         -5    1    3    3    0  502 -0.37701358237E+01  0.32846532088E+02 -0.46954085846E+03  0.47072199732E+03  0.41800000000E+01 0. -1.
        -11    1    4    4    0    0  0.14864157921E+02  0.25714830147E+02 -0.95839424234E+01  0.31209736182E+02  0.00000000000E+00 0.  1.
         11    1    4    4    0    0 -0.30288984733E+02 -0.41541864246E+02 -0.11852819818E+03  0.12919784381E+03  0.00000000000E+00 0. -1.
</event>
<event>
 8    1  0.6185113E-009  0.1267008E+03  0.7561462E-02  0.1232435E+00
         -2   -1    0    0    0  501 -0.00000000000E+00  0.00000000000E+00  0.69686508206E+02  0.69686508206E+02  0.00000000000E+00 0.  1.
          2   -1    0    0  501    0  0.00000000000E+00 -0.00000000000E+00 -0.24126490243E+03  0.24126490243E+03  0.00000000000E+00 0. -1.
         25    2    1    2    0    0  0.13550461561E+02 -0.65686488237E+02 -0.84893901617E+02  0.16538560483E+03  0.12508834481E+03 0.  0.
         23    2    1    2    0    0 -0.13550461561E+02  0.65686488237E+02 -0.86684492604E+02  0.14556580581E+03  0.95795995829E+02 0.  0.
          5    1    3    3  502    0  0.84893817526E+01  0.36667962365E+02 -0.12629212784E+02  0.39919650325E+02  0.41800000000E+01 0. -1.
         -5    1    3    3    0  502  0.50610798081E+01 -0.10235445060E+03 -0.72264688834E+02  0.12546595450E+03  0.41800000000E+01 0. -1.
        -11    1    4    4    0    0 -0.20327938129E+02  0.87653027250E+02 -0.51908944738E+02  0.10387885636E+03  0.00000000000E+00 0.  1.
         11    1    4    4    0    0  0.67774765686E+01 -0.21966539013E+02 -0.34775547866E+02  0.41686949448E+02  0.00000000000E+00 0. -1.
</event>
<event>
 8    1  0.6185113E-009  0.7371069E+02  0.7561462E-02  0.1347911E+00
         -1   -1    0    0    0  501 -0.00000000000E+00  0.00000000000E+00  0.14659550681E+03  0.14659550681E+03  0.00000000000E+00 0.  1.
          1   -1    0    0  501    0  0.00000000000E+00 -0.00000000000E+00 -0.10372653154E+03  0.10372653154E+03  0.00000000000E+00 0. -1.
         25    2    1    2    0    0  0.39997497539E+02  0.35979468554E+02  0.12486058516E+01  0.13617661186E+03  0.12509272015E+03 0.  0.
         23    2    1    2    0    0 -0.39997497539E+02 -0.35979468554E+02  0.41620369418E+02  0.11414542649E+03  0.91665703899E+02 0.  0.
          5    1    3    3  502    0  0.37777191786E+02  0.15648295861E+02  0.60620770161E+02  0.73241624487E+02  0.41800000000E+01 0. -1.
         -5    1    3    3    0  502  0.22203057532E+01  0.20331172693E+02 -0.59372164310E+02  0.62934987372E+02  0.41800000000E+01 0. -1.
        -11    1    4    4    0    0 -0.51368741414E+02 -0.40251320273E+01  0.57057908369E+02  0.76880128705E+02  0.00000000000E+00 0.  1.
         11    1    4    4    0    0  0.11371243875E+02 -0.31954336526E+02 -0.15437538951E+02  0.37265297785E+02  0.00000000000E+00 0. -1.
</event>
<event>
 8    1  0.6185113E-009  0.7908779E+02  0.7561462E-02  0.1331660E+00
          1   -1    0    0  501    0  0.00000000000E+00  0.00000000000E+00  0.15180660264E+03  0.15180660264E+03  0.00000000000E+00 0. -1.
         -1   -1    0    0    0  501 -0.00000000000E+00 -0.00000000000E+00 -0.59166869585E+02  0.59166869585E+02  0.00000000000E+00 0.  1.
         25    2    1    2    0    0  0.78378416422E+01 -0.18192805604E+02  0.42461291422E+02  0.13357351113E+03  0.12508601708E+03 0.  0.
         23    2    1    2    0    0 -0.78378416422E+01  0.18192805604E+02  0.50178441637E+02  0.77399961097E+02  0.55501964248E+02 0.  0.
          5    1    3    3  502    0 -0.34528317836E+02  0.24863249003E+02 -0.19455162213E+02  0.46971923745E+02  0.41800000000E+01 0.  1.
         -5    1    3    3    0  502  0.42366159478E+02 -0.43056054607E+02  0.61916453634E+02  0.86601587387E+02  0.41800000000E+01 0.  1.
        -11    1    4    4    0    0 -0.29640630117E+02  0.74260810157E+01  0.13529863547E+02  0.33418121440E+02  0.00000000000E+00 0.  1.
         11    1    4    4    0    0  0.21802788475E+02  0.10766724588E+02  0.36648578090E+02  0.43981839657E+02  0.00000000000E+00 0. -1.
</event>
<event>
 8    1  0.6185113E-009  0.8413930E+02  0.7561462E-02  0.1317699E+00
          1   -1    0    0  501    0  0.00000000000E+00  0.00000000000E+00  0.58762764177E+03  0.58762764177E+03  0.00000000000E+00 0. -1.
         -1   -1    0    0    0  501 -0.00000000000E+00 -0.00000000000E+00 -0.38577807881E+02  0.38577807881E+02  0.00000000000E+00 0.  1.
         25    2    1    2    0    0 -0.49688460542E+02 -0.98154086642E+01  0.48471529846E+03  0.50315213129E+03  0.12509141179E+03 0.  0.
         23    2    1    2    0    0  0.49688460542E+02  0.98154086642E+01  0.64334535435E+02  0.12305331837E+03  0.91858050018E+02 0.  0.
          5    1    3    3  502    0 -0.12006178447E+01  0.21902599285E+02  0.39889545579E+03  0.39951998998E+03  0.41800000000E+01 0. -1.
         -5    1    3    3    0  502 -0.48487842697E+02 -0.31718007950E+02  0.85819842661E+02  0.10363214131E+03  0.41800000000E+01 0. -1.
        -11    1    4    4    0    0 -0.17601544896E+02 -0.62461743413E+01 -0.10266195916E+02  0.21312528128E+02  0.00000000000E+00 0.  1.
         11    1    4    4    0    0  0.67290005438E+02  0.16061583005E+02  0.74600731350E+02  0.10174079024E+03  0.00000000000E+00 0. -1.
</event>
<event>
 8    1  0.6185113E-009  0.1177402E+03  0.7561462E-02  0.1246872E+00
         -2   -1    0    0    0  501 -0.00000000000E+00  0.00000000000E+00  0.19636919828E+02  0.19636919828E+02  0.00000000000E+00 0.  1.
          2   -1    0    0  501    0  0.00000000000E+00 -0.00000000000E+00 -0.75431246077E+03  0.75431246077E+03  0.00000000000E+00 0. -1.
         25    2    1    2    0    0  0.32683523789E+02 -0.47352918696E+02 -0.43750925934E+03  0.45866401359E+03  0.12509122161E+03 0.  0.
         23    2    1    2    0    0 -0.32683523789E+02  0.47352918696E+02 -0.29716628160E+03  0.31528536700E+03  0.88241442011E+02 0.  0.
          5    1    3    3  502    0 -0.44806350627E+02  0.23460349750E+01 -0.16207066675E+03  0.16821856722E+03  0.41800000000E+01 0.  1.
         -5    1    3    3    0  502  0.77489874416E+02 -0.49698953671E+02 -0.27543859259E+03  0.29044544637E+03  0.41800000000E+01 0.  1.
        -11    1    4    4    0    0 -0.58986778585E+02  0.26345388475E+02 -0.24359224704E+03  0.25201329798E+03  0.00000000000E+00 0. -1.
         11    1    4    4    0    0  0.26303254796E+02  0.21007530221E+02 -0.53574034562E+02  0.63272069020E+02  0.00000000000E+00 0.  1.
</event>
<event>
 8    1  0.6185113E-009  0.1009076E+03  0.7561462E-02  0.1278399E+00
          1   -1    0    0  501    0  0.00000000000E+00  0.00000000000E+00  0.27441401389E+02  0.27441401389E+02  0.00000000000E+00 0. -1.
         -1   -1    0    0    0  501 -0.00000000000E+00 -0.00000000000E+00 -0.73534829423E+03  0.73534829423E+03  0.00000000000E+00 0.  1.
         25    2    1    2    0    0  0.81612229333E+02 -0.12664536378E+02 -0.28804032332E+03  0.32470827705E+03  0.12508913169E+03 0.  0.
         23    2    1    2    0    0 -0.81612229333E+02  0.12664536378E+02 -0.41986656951E+03  0.43808141857E+03  0.93842669602E+02 0.  0.
          5    1    3    3  502    0  0.88516154597E+02 -0.10829548489E+02 -0.90946271358E+02  0.12744051718E+03  0.41800000000E+01 0.  1.
         -5    1    3    3    0  502 -0.69039252636E+01 -0.18349878887E+01 -0.19709405197E+03  0.19726775987E+03  0.41800000000E+01 0.  1.
        -11    1    4    4    0    0  0.10657225339E+02  0.47136284155E+01 -0.44613960371E+01  0.12477932496E+02  0.00000000000E+00 0.  1.
         11    1    4    4    0    0 -0.92269454672E+02  0.79509079623E+01 -0.41540517348E+03  0.42560348607E+03  0.00000000000E+00 0. -1.
</event>
<event>
 8    1  0.6185113E-009  0.1283855E+03  0.7561462E-02  0.1229871E+00
          2   -1    0    0  501    0  0.00000000000E+00  0.00000000000E+00  0.35241982283E+03  0.35241982283E+03  0.00000000000E+00 0. -1.
         -2   -1    0    0    0  501 -0.00000000000E+00 -0.00000000000E+00 -0.69434177062E+02  0.69434177062E+02  0.00000000000E+00 0.  1.
         25    2    1    2    0    0 -0.69604343129E+02  0.66088739341E+02  0.72001380173E+02  0.17333285296E+03  0.12509033983E+03 0.  0.
         23    2    1    2    0    0  0.69604343129E+02 -0.66088739341E+02  0.21098426560E+03  0.24852114693E+03  0.89643260167E+02 0.  0.
          5    1    3    3  502    0 -0.21385289129E+02 -0.32064281505E+02 -0.56059838740E+01  0.39170756882E+02  0.41800000000E+01 0. -1.
         -5    1    3    3    0  502 -0.48219054000E+02  0.98153020846E+02  0.77607364047E+02  0.13416209608E+03  0.41800000000E+01 0. -1.
        -11    1    4    4    0    0  0.64743499412E+01  0.86042086052E+01 -0.46627540042E+01  0.11734176059E+02  0.00000000000E+00 0.  1.
         11    1    4    4    0    0  0.63129993188E+02 -0.74692947946E+02  0.21564701960E+03  0.23678697088E+03  0.00000000000E+00 0. -1.
</event>
<event>
 8    1  0.6185113E-009  0.1054793E+03  0.7561462E-02  0.1269178E+00
          2   -1    0    0  501    0  0.00000000000E+00  0.00000000000E+00  0.12520428022E+03  0.12520428022E+03  0.00000000000E+00 0. -1.
         -2   -1    0    0    0  501 -0.00000000000E+00 -0.00000000000E+00 -0.10372644742E+03  0.10372644742E+03  0.00000000000E+00 0.  1.
         25    2    1    2    0    0 -0.82429101637E+01  0.35034118439E+02  0.63351296959E+01  0.13031708274E+03  0.12508826149E+03 0.  0.
         23    2    1    2    0    0  0.82429101637E+01 -0.35034118439E+02  0.15142703100E+02  0.98613644904E+02  0.90553931341E+02 0.  0.
          5    1    3    3  502    0 -0.43344459209E+02  0.63270360507E+02 -0.18080974200E+02  0.78906746802E+02  0.41800000000E+01 0.  1.
         -5    1    3    3    0  502  0.35101549045E+02 -0.28236242068E+02  0.24416103896E+02  0.51410335935E+02  0.41800000000E+01 0.  1.
        -11    1    4    4    0    0  0.16597434116E+02  0.24058736123E+02  0.24582007882E+02  0.38191264899E+02  0.00000000000E+00 0.  1.
         11    1    4    4    0    0 -0.83545239522E+01 -0.59092854562E+02 -0.94393047826E+01  0.60422380005E+02  0.00000000000E+00 0. -1.
</event>
<event>
 8    1  0.6185113E-009  0.7317926E+02  0.7561462E-02  0.1349604E+00
          2   -1    0    0  501    0  0.00000000000E+00  0.00000000000E+00  0.29021728503E+03  0.29021728503E+03  0.00000000000E+00 0.  1.
         -2   -1    0    0    0  501 -0.00000000000E+00 -0.00000000000E+00 -0.54303186725E+02  0.54303186725E+02  0.00000000000E+00 0. -1.
         25    2    1    2    0    0 -0.52973759258E+02  0.26875607342E+02  0.14811978378E+03  0.20277045384E+03  0.12509144320E+03 0.  0.
         23    2    1    2    0    0  0.52973759258E+02 -0.26875607342E+02  0.87794314522E+02  0.14175001792E+03  0.94110087012E+02 0.  0.
          5    1    3    3  502    0 -0.65392640790E+02  0.17880302966E+02  0.16108568329E+02  0.69805881395E+02  0.41800000000E+01 0. -1.
         -5    1    3    3    0  502  0.12418881533E+02  0.89953043760E+01  0.13201121545E+03  0.13296457244E+03  0.41800000000E+01 0. -1.
        -11    1    4    4    0    0  0.34922774523E+02 -0.68606357981E+01 -0.12635291449E+02  0.37766639961E+02  0.00000000000E+00 0. -1.
         11    1    4    4    0    0  0.18050984735E+02 -0.20014971543E+02  0.10042960597E+03  0.10398337796E+03  0.00000000000E+00 0.  1.
</event>
<event>
 8    1  0.6185113E-009  0.1076782E+03  0.7561462E-02  0.1264931E+00
          2   -1    0    0  501    0  0.00000000000E+00  0.00000000000E+00  0.76546754067E+02  0.76546754067E+02  0.00000000000E+00 0.  1.
         -2   -1    0    0    0  501 -0.00000000000E+00 -0.00000000000E+00 -0.16736914770E+03  0.16736914770E+03  0.00000000000E+00 0. -1.
         25    2    1    2    0    0  0.11549343507E+02 -0.23691863315E+01 -0.17337586789E+02  0.12683521142E+03  0.12509028164E+03 0.  0.
         23    2    1    2    0    0 -0.11549343507E+02  0.23691863315E+01 -0.73484806841E+02  0.11708069035E+03  0.90381805891E+02 0.  0.
          5    1    3    3  502    0  0.57797946466E+02 -0.34792650823E+02  0.44452460549E-01  0.67591460577E+02  0.41800000000E+01 0. -1.
         -5    1    3    3    0  502 -0.46248602959E+02  0.32423464491E+02 -0.17382039249E+02  0.59243750841E+02  0.41800000000E+01 0. -1.
        -11    1    4    4    0    0  0.38421621984E+02  0.11971366744E+02 -0.31268825182E+02  0.50963458339E+02  0.00000000000E+00 0. -1.
         11    1    4    4    0    0 -0.49970965492E+02 -0.96021804125E+01 -0.42215981659E+02  0.66117232007E+02  0.00000000000E+00 0.  1.
</event>
<event>
 7    1  0.6185113E-009  0.1225015E+03  0.7561462E-02  0.1239026E+00
          1   -1    0    0  501    0  0.00000000000E+00  0.00000000000E+00  0.52019735192E+03  0.52019735192E+03  0.00000000000E+00 0. -1.
         -1   -1    0    0    0  501 -0.00000000000E+00 -0.00000000000E+00 -0.54625921674E+02  0.54625921674E+02  0.00000000000E+00 0.  1.
         23    2    1    2    0    0  0.52690296974E+02 -0.85279027034E+02  0.81927205360E+02  0.15907349502E+03  0.92431217637E+02 0.  0.
          5    1    1    2  502    0 -0.66849097708E+02  0.10319633335E+02  0.27303851576E+03  0.28132330189E+03  0.41800000000E+01 0.  1.
         -5    1    1    2    0  502  0.14158800734E+02  0.74959393699E+02  0.11060570913E+03  0.13442647668E+03  0.41800000000E+01 0.  1.
        -11    1    3    3    0    0  0.30129854715E+02 -0.58620094114E+02  0.99987285182E+02  0.11975633919E+03  0.00000000000E+00 0. -1.
         11    1    3    3    0    0  0.22560442259E+02 -0.26658932920E+02 -0.18060079822E+02  0.39317155830E+02  0.00000000000E+00 0.  1.
</event>
<event>
 8    1  0.6185113E-009  0.1392544E+03  0.7561462E-02  0.1214336E+00
         -1   -1    0    0    0  501 -0.00000000000E+00  0.00000000000E+00  0.77779124619E+03  0.77779124619E+03  0.00000000000E+00 0.  1.
          1   -1    0    0  501    0  0.00000000000E+00 -0.00000000000E+00 -0.28543485332E+02  0.28543485332E+02  0.00000000000E+00 0. -1.
         25    2    1    2    0    0  0.76284893645E+02  0.56295809160E+02  0.50140382703E+03  0.52539773981E+03  0.12509350148E+03 0.  0.
         23    2    1    2    0    0 -0.76284893645E+02 -0.56295809160E+02  0.24784393383E+03  0.28093699171E+03  0.92251691840E+02 0.  0.
          5    1    3    3  502    0  0.15389869213E+02  0.86998495565E+02  0.29556814559E+03  0.30851837448E+03  0.41800000000E+01 0. -1.
         -5    1    3    3    0  502  0.60895024432E+02 -0.30702686405E+02  0.20583568143E+03  0.21687936533E+03  0.41800000000E+01 0. -1.
        -11    1    4    4    0    0 -0.40066466401E+02  0.14176908998E+02  0.14505764876E+03  0.15115564145E+03  0.00000000000E+00 0.  1.
         11    1    4    4    0    0 -0.36218427244E+02 -0.70472718158E+02  0.10278628507E+03  0.12978135026E+03  0.00000000000E+00 0. -1.
</event>
<event>
 8    1  0.6185113E-009  0.1082694E+03  0.7561462E-02  0.1263809E+00
          2   -1    0    0  501    0  0.00000000000E+00  0.00000000000E+00  0.19855522303E+03  0.19855522303E+03  0.00000000000E+00 0. -1.
         -2   -1    0    0    0  501 -0.00000000000E+00 -0.00000000000E+00 -0.11040661806E+03  0.11040661806E+03  0.00000000000E+00 0.  1.
         25    2    1    2    0    0  0.50834419507E+02  0.65984049875E+02  0.10786003554E+03  0.18499484894E+03  0.12510505116E+03 0.  0.
         23    2    1    2    0    0 -0.50834419507E+02 -0.65984049875E+02 -0.19711430567E+02  0.12396699216E+03  0.89672970312E+02 0.  0.
          5    1    3    3  502    0  0.54184540850E+02 -0.63043347477E+01  0.97460009516E+02  0.11176598301E+03  0.41800000000E+01 0.  1.
         -5    1    3    3    0  502 -0.33501213434E+01  0.72288384623E+02  0.10400026021E+02  0.73228865932E+02  0.41800000000E+01 0.  1.
        -11    1    4    4    0    0 -0.19919541837E+02 -0.51469287594E+02  0.30640944316E+02  0.63124822226E+02  0.00000000000E+00 0. -1.
         11    1    4    4    0    0 -0.30914877670E+02 -0.14514762281E+02 -0.50352374883E+02  0.60842169930E+02  0.00000000000E+00 0.  1.
</event>
<event>
 7    1  0.6185113E-009  0.1285083E+03  0.7561462E-02  0.1229686E+00
         -1   -1    0    0    0  501 -0.00000000000E+00  0.00000000000E+00  0.91825231637E+02  0.91825231637E+02  0.00000000000E+00 0.  1.
          1   -1    0    0  501    0  0.00000000000E+00 -0.00000000000E+00 -0.34967808475E+03  0.34967808475E+03  0.00000000000E+00 0. -1.
         25    2    1    2    0    0 -0.78735235578E+02 -0.10137342070E+02 -0.24266740697E+03  0.28432092341E+03  0.12509561967E+03 0.  0.
          5    1    3    3  502    0 -0.33109085401E+02  0.54553781466E+02 -0.14539180454E+03  0.15883505859E+03  0.41800000000E+01 0. -1.
         -5    1    3    3    0  502 -0.45626150177E+02 -0.64691123536E+02 -0.97275602425E+02  0.12548586483E+03  0.41800000000E+01 0. -1.
        -11    1    1    2    0    0  0.51959106559E+02 -0.34052334433E+02  0.45851913857E+02  0.77212099046E+02  0.00000000000E+00 0.  1.
         11    1    1    2    0    0  0.26776129019E+02  0.44189676503E+02 -0.61037360001E+02  0.79970293926E+02  0.00000000000E+00 0. -1.
</event>
<event>
 8    1  0.6185113E-009  0.1311785E+03  0.7561462E-02  0.1225718E+00
          1   -1    0    0  501    0  0.00000000000E+00  0.00000000000E+00  0.22380794107E+03  0.22380794107E+03  0.00000000000E+00 0. -1.
         -1   -1    0    0    0  501 -0.00000000000E+00 -0.00000000000E+00 -0.13475013533E+03  0.13475013533E+03  0.00000000000E+00 0.  1.
         25    2    1    2    0    0  0.11355987713E+01 -0.11952268533E+03 -0.18704778831E+02  0.17402892199E+03  0.12509690262E+03 0.  0.
         23    2    1    2    0    0 -0.11355987713E+01  0.11952268533E+03  0.10776258457E+03  0.18452915441E+03  0.90284396777E+02 0.  0.
          5    1    3    3  502    0 -0.39993808395E+01 -0.65640855276E+02 -0.72244008800E+02  0.97782340614E+02  0.41800000000E+01 0.  1.
         -5    1    3    3    0  502  0.51349796108E+01 -0.53881830056E+02  0.53539229969E+02  0.76246581375E+02  0.41800000000E+01 0.  1.
        -11    1    4    4    0    0  0.37393048118E+02  0.70708080310E+02  0.88803793154E+02  0.11951563223E+03  0.00000000000E+00 0. -1.
         11    1    4    4    0    0 -0.38528646889E+02  0.48814605021E+02  0.18958791413E+02  0.65013522181E+02  0.00000000000E+00 0.  1.
</event>
<event>
 8    1  0.6185113E-009  0.1351973E+03  0.7561462E-02  0.1219941E+00
          2   -1    0    0  501    0  0.00000000000E+00  0.00000000000E+00  0.54354101855E+03  0.54354101855E+03  0.00000000000E+00 0. -1.
         -2   -1    0    0    0  501 -0.00000000000E+00 -0.00000000000E+00 -0.46639692469E+02  0.46639692469E+02  0.00000000000E+00 0.  1.
         25    2    1    2    0    0  0.36995641354E+02 -0.81788536153E+02  0.41269768375E+03  0.44048102553E+03  0.12508442571E+03 0.  0.
         23    2    1    2    0    0 -0.36995641354E+02  0.81788536153E+02  0.84203642336E+02  0.14969968549E+03  0.85215610825E+02 0.  0.
          5    1    3    3  502    0 -0.30974687906E+02 -0.76349204878E+02  0.18085767041E+03  0.19878531566E+03  0.41800000000E+01 0. -1.
         -5    1    3    3    0  502  0.67970329261E+02 -0.54393312747E+01  0.23184001334E+03  0.24169570987E+03  0.41800000000E+01 0. -1.
        -11    1    4    4    0    0  0.28835855062E+01  0.79587714208E+02  0.36851594403E+02  0.87752830884E+02  0.00000000000E+00 0.  1.
         11    1    4    4    0    0 -0.39879226861E+02  0.22008219455E+01  0.47352047933E+02  0.61946854607E+02  0.00000000000E+00 0. -1.
</event>
<event>
 8    1  0.6185113E-009  0.1301159E+03  0.7561462E-02  0.1227284E+00
          1   -1    0    0  501    0  0.00000000000E+00  0.00000000000E+00  0.27458591572E+03  0.27458591572E+03  0.00000000000E+00 0. -1.
         -1   -1    0    0    0  501 -0.00000000000E+00 -0.00000000000E+00 -0.68737798106E+02  0.68737798106E+02  0.00000000000E+00 0.  1.
         25    2    1    2    0    0  0.82925176289E+02 -0.11295490461E+02  0.10576331290E+03  0.18395019697E+03  0.12509046183E+03 0.  0.
         23    2    1    2    0    0 -0.82925176289E+02  0.11295490461E+02  0.10008480471E+03  0.15937351686E+03  0.91535658488E+02 0.  0.
          5    1    3    3  502    0  0.56021773745E+02  0.53010500990E+02  0.35916510189E+02  0.85182277810E+02  0.41800000000E+01 0. -1.
         -5    1    3    3    0  502  0.26903402545E+02 -0.64305991452E+02  0.69846802713E+02  0.98767919156E+02  0.41800000000E+01 0. -1.
        -11    1    4    4    0    0 -0.85350438659E+02 -0.15080335606E+02  0.43675004774E+02  0.97054726538E+02  0.00000000000E+00 0.  1.
         11    1    4    4    0    0  0.24252623698E+01  0.26375826067E+02  0.56409799937E+02  0.62318790322E+02  0.00000000000E+00 0. -1.
</event>
<event>
 8    1  0.6185113E-009  0.9764343E+02  0.7561462E-02  0.1285331E+00
         -2   -1    0    0    0  501 -0.00000000000E+00  0.00000000000E+00  0.39542784900E+02  0.39542784900E+02  0.00000000000E+00 0.  1.
          2   -1    0    0  501    0  0.00000000000E+00 -0.00000000000E+00 -0.89510146914E+03  0.89510146914E+03  0.00000000000E+00 0. -1.
         25    2    1    2    0    0 -0.68215448140E+02  0.30823350556E+02 -0.77885513127E+03  0.79238045787E+03  0.12509215884E+03 0.  0.
         23    2    1    2    0    0  0.68215448140E+02 -0.30823350556E+02 -0.76703552967E+02  0.14226379617E+03  0.93552799837E+02 0.  0.
          5    1    3    3  502    0 -0.29966011990E+02  0.47244979116E+02 -0.70708730718E+03  0.70930951093E+03  0.41800000000E+01 0.  1.
         -5    1    3    3    0  502 -0.38249436150E+02 -0.16421628561E+02 -0.71767824095E+02  0.83070946941E+02  0.41800000000E+01 0.  1.
        -11    1    4    4    0    0  0.59725398219E+02  0.55644102110E+01 -0.84956119473E+02  0.10399821195E+03  0.00000000000E+00 0. -1.
         11    1    4    4    0    0  0.84900499210E+01 -0.36387760767E+02  0.82525665060E+01  0.38265584214E+02  0.00000000000E+00 0.  1.
</event>
<event>
 8    1  0.6185113E-009  0.9874104E+02  0.7561462E-02  0.1282966E+00
          1   -1    0    0  501    0  0.00000000000E+00  0.00000000000E+00  0.21972330836E+03  0.21972330836E+03  0.00000000000E+00 0. -1.
         -1   -1    0    0    0  501 -0.00000000000E+00 -0.00000000000E+00 -0.95468886769E+02  0.95468886769E+02  0.00000000000E+00 0.  1.
         25    2    1    2    0    0  0.55953156930E+02 -0.41666134228E+02 -0.17307961485E+00  0.14320391215E+03  0.12506201656E+03 0.  0.
         23    2    1    2    0    0 -0.55953156930E+02  0.41666134228E+02  0.12442750121E+03  0.17198828298E+03  0.96077801361E+02 0.  0.
          5    1    3    3  502    0 -0.30048086702E+01  0.10271564680E+02  0.49059894070E+02  0.50387295246E+02  0.41800000000E+01 0. -1.
         -5    1    3    3    0  502  0.58957965600E+02 -0.51937698908E+02 -0.49232973684E+02  0.92816616904E+02  0.41800000000E+01 0. -1.
        -11    1    4    4    0    0 -0.29642416744E+02  0.65445312914E+02  0.44407672450E+02  0.84461844790E+02  0.00000000000E+00 0.  1.
         11    1    4    4    0    0 -0.26310740186E+02 -0.23779178686E+02  0.80019828760E+02  0.87526438194E+02  0.00000000000E+00 0. -1.
</event>
<event>
 8    1  0.6185113E-009  0.1165137E+03  0.7561462E-02  0.1248962E+00
         -2   -1    0    0    0  501 -0.00000000000E+00  0.00000000000E+00  0.10131231843E+03  0.10131231843E+03  0.00000000000E+00 0.  1.
          2   -1    0    0  501    0  0.00000000000E+00 -0.00000000000E+00 -0.17899614591E+03  0.17899614591E+03  0.00000000000E+00 0. -1.
         25    2    1    2    0    0 -0.75954597406E+02 -0.12281214647E+02 -0.62859453065E+02  0.15974591860E+03  0.12509004184E+03 0.  0.
         23    2    1    2    0    0  0.75954597406E+02  0.12281214647E+02 -0.14824374412E+02  0.12056254575E+03  0.91627704655E+02 0.  0.
          5    1    3    3  502    0  0.16923895739E+02 -0.26029055237E+02 -0.57657613246E+02  0.65618615719E+02  0.41800000000E+01 0. -1.
         -5    1    3    3    0  502 -0.92878493146E+02  0.13747840591E+02 -0.52018398190E+01  0.94127302880E+02  0.41800000000E+01 0. -1.
        -11    1    4    4    0    0  0.62069745835E+02 -0.25773460146E+02 -0.34480430623E+02  0.75536909467E+02  0.00000000000E+00 0.  1.
         11    1    4    4    0    0  0.13884851572E+02  0.38054674793E+02  0.19656056212E+02  0.45025636281E+02  0.00000000000E+00 0. -1.
</event>
<event>
 8    1  0.6185113E-009  0.1084564E+03  0.7561462E-02  0.1263455E+00
          2   -1    0    0  501    0  0.00000000000E+00  0.00000000000E+00  0.11765627715E+03  0.11765627715E+03  0.00000000000E+00 0.  1.
         -2   -1    0    0    0  501 -0.00000000000E+00 -0.00000000000E+00 -0.13571017086E+03  0.13571017086E+03  0.00000000000E+00 0. -1.
         25    2    1    2    0    0 -0.57757978260E+02  0.10532768822E+02 -0.34872108015E+02  0.14251671540E+03  0.12509207401E+03 0.  0.
         23    2    1    2    0    0  0.57757978260E+02 -0.10532768822E+02  0.16818214313E+02  0.11084973261E+03  0.92508851549E+02 0.  0.
          5    1    3    3  502    0  0.22563935385E+02 -0.29426973305E+02 -0.37179412640E+02  0.52676931025E+02  0.41800000000E+01 0.  1.
         -5    1    3    3    0  502 -0.80321913645E+02  0.39959742127E+02  0.23073046246E+01  0.89839784378E+02  0.41800000000E+01 0.  1.
        -11    1    4    4    0    0  0.45349759643E+02  0.25255171450E+02  0.40795650610E+02  0.66020523274E+02  0.00000000000E+00 0.  1.
         11    1    4    4    0    0  0.12408218617E+02 -0.35787940272E+02 -0.23977436297E+02  0.44829209335E+02  0.00000000000E+00 0. -1.
</event>
<event>
 8    1  0.6185113E-009  0.1006316E+03  0.7561462E-02  0.1278973E+00
         -3   -1    0    0    0  501 -0.00000000000E+00  0.00000000000E+00  0.34484609641E+02  0.34484609641E+02  0.00000000000E+00 0.  1.
          3   -1    0    0  501    0  0.00000000000E+00 -0.00000000000E+00 -0.43999261018E+03  0.43999261018E+03  0.00000000000E+00 0. -1.
         25    2    1    2    0    0  0.82559431253E+01 -0.27218306798E+02 -0.31980161343E+03  0.34456851687E+03  0.12508154956E+03 0.  0.
         23    2    1    2    0    0 -0.82559431253E+01  0.27218306798E+02 -0.85706387103E+02  0.12990870295E+03  0.93389986029E+02 0.  0.
          5    1    3    3  502    0  0.11819288605E+01  0.37881436894E+02 -0.23115827580E+03  0.23428192650E+03  0.41800000000E+01 0. -1.
         -5    1    3    3    0  502  0.70740142647E+01 -0.65099743693E+02 -0.88643337639E+02  0.11028659037E+03  0.41800000000E+01 0. -1.
        -11    1    4    4    0    0 -0.73955445185E+01  0.62143260956E+02 -0.57903394282E+02  0.85260084625E+02  0.00000000000E+00 0. -1.
         11    1    4    4    0    0 -0.86039860682E+00 -0.34924954157E+02 -0.27802992821E+02  0.44648618327E+02  0.00000000000E+00 0.  1.
</event>
<event>
 8    1  0.6185113E-009  0.1119780E+03  0.7561462E-02  0.1256950E+00
         -2   -1    0    0    0  501 -0.00000000000E+00  0.00000000000E+00  0.15426342582E+03  0.15426342582E+03  0.00000000000E+00 0.  1.
          2   -1    0    0  501    0  0.00000000000E+00 -0.00000000000E+00 -0.81336608733E+02  0.81336608733E+02  0.00000000000E+00 0. -1.
         25    2    1    2    0    0 -0.19579296889E+02 -0.21065172130E+02  0.40314590670E+02  0.13450074940E+03  0.12505236913E+03 0.  0.
         23    2    1    2    0    0  0.19579296889E+02  0.21065172130E+02  0.32612226416E+02  0.10109928515E+03  0.91271122504E+02 0.  0.
          5    1    3    3  502    0 -0.71077189107E+02  0.30764596740E+01  0.21179676619E+02  0.74347041079E+02  0.41800000000E+01 0. -1.
         -5    1    3    3    0  502  0.51497892218E+02 -0.24141631804E+02  0.19134914051E+02  0.60153708321E+02  0.41800000000E+01 0. -1.
        -11    1    4    4    0    0 -0.29634844982E+02 -0.16343369181E+02  0.10244381626E+02  0.35359257744E+02  0.00000000000E+00 0.  1.
         11    1    4    4    0    0  0.49214141871E+02  0.37408541312E+02  0.22367844790E+02  0.65740027409E+02  0.00000000000E+00 0. -1.
</event>
<event>
 8    1  0.6185113E-009  0.1209922E+03  0.7561462E-02  0.1241469E+00
          2   -1    0    0  501    0  0.00000000000E+00  0.00000000000E+00  0.72018220614E+03  0.72018220614E+03  0.00000000000E+00 0. -1.
         -2   -1    0    0    0  501 -0.00000000000E+00 -0.00000000000E+00 -0.25256319060E+02  0.25256319060E+02  0.00000000000E+00 0.  1.
         25    2    1    2    0    0  0.38509738747E+01  0.71355631267E+02  0.47925143178E+03  0.50043615629E+03  0.12509178846E+03 0.  0.
         23    2    1    2    0    0 -0.38509738747E+01 -0.71355631267E+02  0.21567445530E+03  0.24500236891E+03  0.91674609305E+02 0.  0.
          5    1    3    3  502    0 -0.44129770224E+02  0.80194852355E+02  0.36099524322E+03  0.37244286675E+03  0.41800000000E+01 0.  1.
         -5    1    3    3    0  502  0.47980744098E+02 -0.88392210881E+01  0.11825618856E+03  0.12799328954E+03  0.41800000000E+01 0.  1.
        -11    1    4    4    0    0  0.90474268243E+01 -0.83310663841E+02  0.11218133273E+03  0.14002561928E+03  0.00000000000E+00 0.  1.
         11    1    4    4    0    0 -0.12898400699E+02  0.11955032573E+02  0.10349312257E+03  0.10497674963E+03  0.00000000000E+00 0. -1.
</event>
<event>
 8    1  0.6185113E-009  0.1024329E+03  0.7561462E-02  0.1275262E+00
         -2   -1    0    0    0  501 -0.00000000000E+00  0.00000000000E+00  0.17707098104E+02  0.17707098104E+02  0.00000000000E+00 0. -1.
          2   -1    0    0  501    0  0.00000000000E+00 -0.00000000000E+00 -0.87928804842E+03  0.87928804842E+03  0.00000000000E+00 0.  1.
         25    2    1    2    0    0 -0.34343563468E+02 -0.38830030089E+02 -0.59602761864E+03  0.61121366393E+03  0.12508384866E+03 0.  0.
         23    2    1    2    0    0  0.34343563468E+02  0.38830030089E+02 -0.26555333168E+03  0.28578148260E+03  0.92006696743E+02 0.  0.
          5    1    3    3  502    0 -0.41484018817E+02 -0.66982692345E+02 -0.55606759208E+03  0.56163711082E+03  0.41800000000E+01 0.  1.
         -5    1    3    3    0  502  0.71404553492E+01  0.28152662257E+02 -0.39960026566E+02  0.49576553106E+02  0.41800000000E+01 0.  1.
        -11    1    4    4    0    0 -0.33530046719E+01  0.55360216831E+02 -0.20636264265E+03  0.21368560206E+03  0.00000000000E+00 0.  1.
         11    1    4    4    0    0  0.37696568140E+02 -0.16530186742E+02 -0.59190689029E+02  0.72095880541E+02  0.00000000000E+00 0. -1.
</event>
<event>
 8    1  0.6185113E-009  0.9430246E+02  0.7561462E-02  0.1292755E+00
          2   -1    0    0  501    0  0.00000000000E+00  0.00000000000E+00  0.41909338502E+03  0.41909338502E+03  0.00000000000E+00 0. -1.
         -2   -1    0    0    0  501 -0.00000000000E+00 -0.00000000000E+00 -0.61187691379E+02  0.61187691379E+02  0.00000000000E+00 0.  1.
         25    2    1    2    0    0  0.35978444266E+02 -0.80068321571E+02  0.74874439311E+02  0.17017425990E+03  0.12509081701E+03 0.  0.
         23    2    1    2    0    0 -0.35978444266E+02  0.80068321571E+02  0.28303125433E+03  0.31010681650E+03  0.91401105796E+02 0.  0.
          5    1    3    3  502    0  0.32612713854E+02 -0.46645341441E+02  0.10841667250E+03  0.12251948522E+03  0.41800000000E+01 0. -1.
         -5    1    3    3    0  502  0.33657304116E+01 -0.33422980130E+02 -0.33542233191E+02  0.47654774676E+02  0.41800000000E+01 0. -1.
        -11    1    4    4    0    0 -0.43502737643E+02  0.48148734579E+02  0.26469772686E+03  0.27253564066E+03  0.00000000000E+00 0. -1.
         11    1    4    4    0    0  0.75242933769E+01  0.31919586992E+02  0.18333527468E+02  0.37571175839E+02  0.00000000000E+00 0.  1.
</event>
<event>
 8    1  0.6185113E-009  0.1290164E+03  0.7561462E-02  0.1228922E+00
          1   -1    0    0  501    0  0.00000000000E+00  0.00000000000E+00  0.26950148740E+02  0.26950148740E+02  0.00000000000E+00 0. -1.
         -1   -1    0    0    0  501 -0.00000000000E+00 -0.00000000000E+00 -0.10796957876E+04  0.10796957876E+04  0.00000000000E+00 0.  1.
         25    2    1    2    0    0  0.12077633306E+03 -0.20573730955E+02 -0.71229451020E+03  0.73349959668E+03  0.12509191837E+03 0.  0.
         23    2    1    2    0    0 -0.12077633306E+03  0.20573730955E+02 -0.34045112865E+03  0.37314633964E+03  0.91219618280E+02 0.  0.
          5    1    3    3  502    0  0.36124109018E+02 -0.14316350430E+02 -0.53972703139E+03  0.54114013893E+03  0.41800000000E+01 0.  1.
         -5    1    3    3    0  502  0.84652224044E+02 -0.62573805253E+01 -0.17256747881E+03  0.19235945776E+03  0.41800000000E+01 0.  1.
        -11    1    4    4    0    0 -0.50046801773E+02 -0.18262601640E+02 -0.23160419047E+03  0.23765249005E+03  0.00000000000E+00 0.  1.
         11    1    4    4    0    0 -0.70729531289E+02  0.38836332596E+02 -0.10884693818E+03  0.13549384959E+03  0.00000000000E+00 0. -1.
</event>
<event>
 8    1  0.6185113E-009  0.1082494E+03  0.7561462E-02  0.1263847E+00
         -1   -1    0    0    0  501 -0.00000000000E+00  0.00000000000E+00  0.64697182287E+02  0.64697182287E+02  0.00000000000E+00 0.  1.
          1   -1    0    0  501    0  0.00000000000E+00 -0.00000000000E+00 -0.34059727326E+03  0.34059727326E+03  0.00000000000E+00 0. -1.
         25    2    1    2    0    0  0.38402856606E+02 -0.82193202758E+02 -0.88558757804E+02  0.17810199525E+03  0.12508862919E+03 0.  0.
         23    2    1    2    0    0 -0.38402856606E+02  0.82193202758E+02 -0.18734133317E+03  0.22719246031E+03  0.91044697425E+02 0.  0.
          5    1    3    3  502    0  0.43476888723E+02 -0.63063234065E+00 -0.85740354968E+02  0.96226391496E+02  0.41800000000E+01 0. -1.
         -5    1    3    3    0  502 -0.50740321170E+01 -0.81562570417E+02 -0.28184028356E+01  0.81875603751E+02  0.41800000000E+01 0. -1.
        -11    1    4    4    0    0 -0.22653567913E+02  0.40248967126E+02 -0.14157954837E+02  0.48307465045E+02  0.00000000000E+00 0.  1.
         11    1    4    4    0    0 -0.15749288693E+02  0.41944235632E+02 -0.17318337834E+03  0.17888499526E+03  0.00000000000E+00 0. -1.
</event>
<event>
 8    1  0.6185113E-009  0.1153311E+03  0.7561462E-02  0.1251004E+00
          2   -1    0    0  501    0  0.00000000000E+00  0.00000000000E+00  0.71667826290E+02  0.71667826290E+02  0.00000000000E+00 0. -1.
         -2   -1    0    0    0  501 -0.00000000000E+00 -0.00000000000E+00 -0.28391866793E+03  0.28391866793E+03  0.00000000000E+00 0.  1.
         25    2    1    2    0    0  0.43011276308E+02  0.26624156707E+01 -0.14310731678E+02  0.13307556949E+03  0.12508897556E+03 0.  0.
         23    2    1    2    0    0 -0.43011276308E+02 -0.26624156707E+01 -0.19794010997E+03  0.22251092474E+03  0.92053061588E+02 0.  0.
          5    1    3    3  502    0  0.44829699039E+02  0.58564797943E+02 -0.20457224897E+02  0.76651861846E+02  0.41800000000E+01 0. -1.
         -5    1    3    3    0  502 -0.18184227309E+01 -0.55902382272E+02  0.61464932190E+01  0.56423707640E+02  0.41800000000E+01 0. -1.
        -11    1    4    4    0    0  0.15843907112E+02  0.29608275059E+02 -0.80846901794E+02  0.87543708365E+02  0.00000000000E+00 0.  1.
         11    1    4    4    0    0 -0.58855183420E+02 -0.32270690730E+02 -0.11709320817E+03  0.13496721637E+03  0.00000000000E+00 0. -1.
</event>
<event>
 8    1  0.6185113E-009  0.1279014E+03  0.7561462E-02  0.1230603E+00
          1   -1    0    0  501    0  0.00000000000E+00  0.00000000000E+00  0.28468113160E+03  0.28468113160E+03  0.00000000000E+00 0. -1.
         -1   -1    0    0    0  501 -0.00000000000E+00 -0.00000000000E+00 -0.67225419898E+02  0.67225419898E+02  0.00000000000E+00 0.  1.
         25    2    1    2    0    0  0.12047119656E+02 -0.83794756417E+02  0.12364082515E+03  0.19519377265E+03  0.12508741321E+03 0.  0.
         23    2    1    2    0    0 -0.12047119656E+02  0.83794756417E+02  0.93814886552E+02  0.15671277885E+03  0.92687473912E+02 0.  0.
          5    1    3    3  502    0 -0.50747356484E+02 -0.80745996713E+01  0.53554710382E+02  0.74337559511E+02  0.41800000000E+01 0.  1.
         -5    1    3    3    0  502  0.62794476140E+02 -0.75720156746E+02  0.70086114767E+02  0.12085621314E+03  0.41800000000E+01 0.  1.
        -11    1    4    4    0    0 -0.38235852373E+02  0.53213864348E+02  0.96181459940E+02  0.11638113679E+03  0.00000000000E+00 0. -1.
         11    1    4    4    0    0  0.26188732716E+02  0.30580892069E+02 -0.23665733877E+01  0.40331642052E+02  0.00000000000E+00 0.  1.
</event>
<event>
 8    1  0.6185113E-009  0.8274353E+02  0.7561462E-02  0.1321441E+00
         -1   -1    0    0    0  501 -0.00000000000E+00  0.00000000000E+00  0.65391899698E+03  0.65391899698E+03  0.00000000000E+00 0.  1.
          1   -1    0    0  501    0  0.00000000000E+00 -0.00000000000E+00 -0.22275995895E+02  0.22275995895E+02  0.00000000000E+00 0. -1.
         25    2    1    2    0    0  0.27456910931E+02 -0.26322421962E+02  0.45942963686E+03  0.47767238213E+03  0.12509421076E+03 0.  0.
         23    2    1    2    0    0 -0.27456910931E+02  0.26322421962E+02  0.17221336422E+03  0.19852261074E+03  0.91142922404E+02 0.  0.
          5    1    3    3  502    0 -0.91028399933E+01 -0.39112391190E+02  0.42106376676E+03  0.42299504597E+03  0.41800000000E+01 0. -1.
         -5    1    3    3    0  502  0.36559750924E+02  0.12789969227E+02  0.38365870105E+02  0.54677336159E+02  0.41800000000E+01 0. -1.
        -11    1    4    4    0    0 -0.51151476633E+02  0.56188701209E+00  0.14626532792E+03  0.15495268772E+03  0.00000000000E+00 0.  1.
         11    1    4    4    0    0  0.23694565702E+02  0.25760534950E+02  0.25948036298E+02  0.43569923025E+02  0.00000000000E+00 0. -1.
</event>
<event>
 8    1  0.6185113E-009  0.1425099E+03  0.7561462E-02  0.1209991E+00
         -1   -1    0    0    0  501 -0.00000000000E+00  0.00000000000E+00  0.22172445677E+04  0.22172445677E+04  0.00000000000E+00 0.  1.
          1   -1    0    0  501    0  0.00000000000E+00 -0.00000000000E+00 -0.20434379360E+02  0.20434379360E+02  0.00000000000E+00 0. -1.
         25    2    1    2    0    0  0.41026532229E+02 -0.88018378467E+02  0.19644754958E+04  0.19708474128E+04  0.12508053238E+03 0.  0.
         23    2    1    2    0    0 -0.41026532229E+02  0.88018378467E+02  0.23233469247E+03  0.26683153420E+03  0.88256710945E+02 0.  0.
          5    1    3    3  502    0  0.49351360257E+02 -0.11695191251E+03  0.16632804725E+04  0.16681225103E+04  0.41800000000E+01 0. -1.
         -5    1    3    3    0  502 -0.83248280283E+01  0.28933534042E+02  0.30119502327E+03  0.30272490251E+03  0.41800000000E+01 0. -1.
        -11    1    4    4    0    0  0.24283744754E+02  0.39060451035E+02  0.11539208558E+03  0.12422058005E+03  0.00000000000E+00 0.  1.
         11    1    4    4    0    0 -0.65310276982E+02  0.48957927432E+02  0.11694260689E+03  0.14261095415E+03  0.00000000000E+00 0. -1.
</event>
<event>
 8    1  0.6185113E-009  0.1294540E+03  0.7561462E-02  0.1228268E+00
          2   -1    0    0  501    0  0.00000000000E+00  0.00000000000E+00  0.11054664099E+03  0.11054664099E+03  0.00000000000E+00 0.  1.
         -2   -1    0    0    0  501 -0.00000000000E+00 -0.00000000000E+00 -0.17538232256E+03  0.17538232256E+03  0.00000000000E+00 0. -1.
         25    2    1    2    0    0  0.64219737462E+02 -0.39807249751E+02  0.74217562463E+01  0.14632501626E+03  0.12508851308E+03 0.  0.
         23    2    1    2    0    0 -0.64219737462E+02  0.39807249751E+02 -0.72257437816E+02  0.13960394730E+03  0.92516663193E+02 0.  0.
          5    1    3    3  502    0  0.57984749712E+02  0.35521209595E+02  0.16452558983E+02  0.70086707922E+02  0.41800000000E+01 0.  1.
         -5    1    3    3    0  502  0.62349877495E+01 -0.75328459346E+02 -0.90308027371E+01  0.76238308334E+02  0.41800000000E+01 0.  1.
        -11    1    4    4    0    0 -0.34676023009E+02 -0.25736809704E+02 -0.45923964532E+02  0.63038246040E+02  0.00000000000E+00 0. -1.
         11    1    4    4    0    0 -0.29543714453E+02  0.65544059455E+02 -0.26333473284E+02  0.76565701255E+02  0.00000000000E+00 0.  1.
</event>
<event>
 8    1  0.6185113E-009  0.1480182E+03  0.7561462E-02  0.1202930E+00
         -2   -1    0    0    0  501 -0.00000000000E+00  0.00000000000E+00  0.43389270305E+02  0.43389270305E+02  0.00000000000E+00 0.  1.
          2   -1    0    0  501    0  0.00000000000E+00 -0.00000000000E+00 -0.64728490747E+03  0.64728490747E+03  0.00000000000E+00 0. -1.
         25    2    1    2    0    0  0.12388089078E+03 -0.25488718808E+01 -0.38397380320E+03  0.42241772601E+03  0.12509149395E+03 0.  0.
         23    2    1    2    0    0 -0.12388089078E+03  0.25488718808E+01 -0.21992183396E+03  0.26825645176E+03  0.90790632828E+02 0.  0.
          5    1    3    3  502    0  0.10454945955E+03 -0.50103900372E+02 -0.31942425410E+03  0.33983866295E+03  0.41800000000E+01 0. -1.
         -5    1    3    3    0  502  0.19331431226E+02  0.47555028491E+02 -0.64549549100E+02  0.82579063067E+02  0.41800000000E+01 0. -1.
        -11    1    4    4    0    0 -0.10126891938E+03  0.15523539664E+02 -0.91972774325E+02  0.13767848610E+03  0.00000000000E+00 0.  1.
         11    1    4    4    0    0 -0.22611971393E+02 -0.12974667784E+02 -0.12794905963E+03  0.13057796566E+03  0.00000000000E+00 0. -1.
</event>
<event>
 8    1  0.6185113E-009  0.1111840E+03  0.7561462E-02  0.1258393E+00
          2   -1    0    0  501    0  0.00000000000E+00  0.00000000000E+00  0.73211276805E+03  0.73211276805E+03  0.00000000000E+00 0. -1.
         -2   -1    0    0    0  501 -0.00000000000E+00 -0.00000000000E+00 -0.19082868774E+02  0.19082868774E+02  0.00000000000E+00 0.  1.
         25    2    1    2    0    0 -0.44998699756E+02  0.23077898698E+02  0.47847437236E+03  0.49713440841E+03  0.12508965837E+03 0.  0.
         23    2    1    2    0    0  0.44998699756E+02 -0.23077898698E+02  0.23455552692E+03  0.25406122842E+03  0.83506527825E+02 0.  0.
          5    1    3    3  502    0 -0.88288102522E+02  0.21673011376E+02  0.34124251432E+03  0.35316913009E+03  0.41800000000E+01 0.  1.
         -5    1    3    3    0  502  0.43289402766E+02  0.14048873224E+01  0.13723185804E+03  0.14396527832E+03  0.41800000000E+01 0.  1.
        -11    1    4    4    0    0 -0.84642175711E+01 -0.32480938201E+02  0.14902902828E+03  0.15276225186E+03  0.00000000000E+00 0. -1.
         11    1    4    4    0    0  0.53462917327E+02  0.94030395029E+01  0.85526498640E+02  0.10129897655E+03  0.00000000000E+00 0.  1.
</event>
<event>
 8    1  0.6185113E-009  0.1536849E+03  0.7561462E-02  0.1196017E+00
          2   -1    0    0  501    0  0.00000000000E+00  0.00000000000E+00  0.22999912389E+03  0.22999912389E+03  0.00000000000E+00 0. -1.
         -2   -1    0    0    0  501 -0.00000000000E+00 -0.00000000000E+00 -0.14361166226E+03  0.14361166226E+03  0.00000000000E+00 0.  1.
         25    2    1    2    0    0  0.39549231548E+02 -0.13673994439E+03  0.13935205727E+02  0.19000951209E+03  0.12508985018E+03 0.  0.
         23    2    1    2    0    0 -0.39549231548E+02  0.13673994439E+03  0.72452255907E+02  0.18360127406E+03  0.90543604645E+02 0.  0.
          5    1    3    3  502    0 -0.28240414233E+01 -0.43974767734E+02  0.62811199406E+02  0.76840578981E+02  0.41800000000E+01 0.  1.
         -5    1    3    3    0  502  0.42373272972E+02 -0.92765176661E+02 -0.48875993679E+02  0.11316893311E+03  0.41800000000E+01 0.  1.
        -11    1    4    4    0    0  0.11856439786E+02  0.92377406262E+02  0.68447401593E+02  0.11558203639E+03  0.00000000000E+00 0. -1.
         11    1    4    4    0    0 -0.51405671334E+02  0.44362538133E+02  0.40048543134E+01  0.68019237669E+02  0.00000000000E+00 0.  1.
</event>
<event>
 8    1  0.6185113E-009  0.1985449E+03  0.7561462E-02  0.1150973E+00
          1   -1    0    0  501    0  0.00000000000E+00  0.00000000000E+00  0.33820630063E+03  0.33820630063E+03  0.00000000000E+00 0. -1.
         -1   -1    0    0    0  501 -0.00000000000E+00 -0.00000000000E+00 -0.14144674047E+03  0.14144674047E+03  0.00000000000E+00 0.  1.
         25    2    1    2    0    0  0.18533340512E+03  0.94243160856E+01  0.60856774572E+02  0.23192087803E+03  0.12508580202E+03 0.  0.
         23    2    1    2    0    0 -0.18533340512E+03 -0.94243160856E+01  0.13590278558E+03  0.24773216307E+03  0.92002003810E+02 0.  0.
          5    1    3    3  502    0  0.46000697608E+02 -0.20745815833E+02  0.72933510811E+02  0.88787512941E+02  0.41800000000E+01 0.  1.
         -5    1    3    3    0  502  0.13933270751E+03  0.30170131918E+02 -0.12076736240E+02  0.14313336509E+03  0.41800000000E+01 0.  1.
        -11    1    4    4    0    0 -0.17154357230E+02  0.26776767297E+02  0.64814509472E+01  0.32454220762E+02  0.00000000000E+00 0.  1.
         11    1    4    4    0    0 -0.16817904789E+03 -0.36201083383E+02  0.12942133464E+03  0.21527794231E+03  0.00000000000E+00 0. -1.
</event>
<event>
 8    1  0.6185113E-009  0.8050966E+02  0.7561462E-02  0.1327611E+00
          1   -1    0    0  501    0  0.00000000000E+00  0.00000000000E+00  0.52225118610E+02  0.52225118610E+02  0.00000000000E+00 0. -1.
         -1   -1    0    0    0  501 -0.00000000000E+00 -0.00000000000E+00 -0.31285776038E+03  0.31285776038E+03  0.00000000000E+00 0.  1.
         25    2    1    2    0    0 -0.62993461410E+01  0.17072444006E+02 -0.24020852069E+03  0.27143769624E+03  0.12508852633E+03 0.  0.
         23    2    1    2    0    0  0.62993461410E+01 -0.17072444006E+02 -0.20424121081E+02  0.93645182753E+02  0.89560735955E+02 0.  0.
          5    1    3    3  502    0 -0.20394870025E+01 -0.52275511588E+02 -0.69541638537E+02  0.87122904620E+02  0.41800000000E+01 0. -1.
         -5    1    3    3    0  502 -0.42598591385E+01  0.69347955594E+02 -0.17066688216E+03  0.18431479162E+03  0.41800000000E+01 0. -1.
        -11    1    4    4    0    0 -0.13866275794E+02 -0.25908768556E+01 -0.51770633746E+02  0.53658035425E+02  0.00000000000E+00 0.  1.
         11    1    4    4    0    0  0.20165621935E+02 -0.14481567151E+02  0.31346512665E+02  0.39987147328E+02  0.00000000000E+00 0. -1.
</event>
<event>
 8    1  0.6185113E-009  0.1234945E+03  0.7561462E-02  0.1237441E+00
          2   -1    0    0  501    0  0.00000000000E+00  0.00000000000E+00  0.85098198559E+03  0.85098198559E+03  0.00000000000E+00 0. -1.
         -2   -1    0    0    0  501 -0.00000000000E+00 -0.00000000000E+00 -0.26624661129E+02  0.26624661129E+02  0.00000000000E+00 0.  1.
         25    2    1    2    0    0 -0.93807688042E+02 -0.47335168954E+02  0.43451716476E+03  0.46421287013E+03  0.12509165346E+03 0.  0.
         23    2    1    2    0    0  0.93807688042E+02  0.47335168954E+02  0.38984015970E+03  0.41339377659E+03  0.88761274509E+02 0.  0.
          5    1    3    3  502    0 -0.29409823942E+02 -0.42151324631E+02  0.36724652530E+03  0.37084923440E+03  0.41800000000E+01 0.  1.
         -5    1    3    3    0  502 -0.64397864099E+02 -0.51838443234E+01  0.67270639461E+02  0.93363635726E+02  0.41800000000E+01 0.  1.
        -11    1    4    4    0    0  0.69399237853E+02  0.69132044331E+02  0.33952234540E+03  0.35337079222E+03  0.00000000000E+00 0. -1.
         11    1    4    4    0    0  0.24408450188E+02 -0.21796875377E+02  0.50317814304E+02  0.60022984374E+02  0.00000000000E+00 0.  1.
</event>
<event>
 8    1  0.6185113E-009  0.1787739E+03  0.7561462E-02  0.1168995E+00
          2   -1    0    0  501    0  0.00000000000E+00  0.00000000000E+00  0.14165111108E+04  0.14165111108E+04  0.00000000000E+00 0. -1.
         -2   -1    0    0    0  501 -0.00000000000E+00 -0.00000000000E+00 -0.27017172017E+02  0.27017172017E+02  0.00000000000E+00 0.  1.
         25    2    1    2    0    0  0.14614200660E+03 -0.67514257806E+02  0.68680062707E+03  0.71642047369E+03  0.12509009820E+03 0.  0.
         23    2    1    2    0    0 -0.14614200660E+03  0.67514257806E+02  0.70269331169E+03  0.72710780911E+03  0.94827288657E+02 0.  0.
          5    1    3    3  502    0  0.81464799381E+02 -0.69392877788E+02  0.59173527683E+03  0.60134848073E+03  0.41800000000E+01 0. -1.
         -5    1    3    3    0  502  0.64677207221E+02  0.18786199817E+01  0.95065350240E+02  0.11507199296E+03  0.41800000000E+01 0. -1.
        -11    1    4    4    0    0 -0.44073717728E+02 -0.22534477055E+02  0.22633810713E+03  0.23168779422E+03  0.00000000000E+00 0.  1.
         11    1    4    4    0    0 -0.10206828887E+03  0.90048734862E+02  0.47635520456E+03  0.49542001489E+03  0.00000000000E+00 0. -1.
</event>
<event>
 8    1  0.6185113E-009  0.1199765E+03  0.7561462E-02  0.1243136E+00
         -1   -1    0    0    0  501 -0.00000000000E+00  0.00000000000E+00  0.29410827568E+02  0.29410827568E+02  0.00000000000E+00 0.  1.
          1   -1    0    0  501    0  0.00000000000E+00 -0.00000000000E+00 -0.63481291961E+03  0.63481291961E+03  0.00000000000E+00 0. -1.
         25    2    1    2    0    0  0.53032741055E+02 -0.65858700249E+01 -0.17958124222E+03  0.22528305755E+03  0.12508872113E+03 0.  0.
         23    2    1    2    0    0 -0.53032741055E+02  0.65858700249E+01 -0.42582084982E+03  0.43894068963E+03  0.92139500545E+02 0.  0.
          5    1    3    3  502    0 -0.29070504781E+02  0.32122320570E+02 -0.75236578818E+02  0.86919232160E+02  0.41800000000E+01 0. -1.
         -5    1    3    3    0  502  0.82103245836E+02 -0.38708190595E+02 -0.10434466340E+03  0.13836382539E+03  0.41800000000E+01 0. -1.
        -11    1    4    4    0    0 -0.78534539245E+02 -0.22657924270E+01 -0.28943309460E+03  0.29990719218E+03  0.00000000000E+00 0.  1.
         11    1    4    4    0    0  0.25501798190E+02  0.88516624519E+01 -0.13638775522E+03  0.13903349745E+03  0.00000000000E+00 0. -1.
</event>
<event>
 7    1  0.6185113E-009  0.2336686E+03  0.7561462E-02  0.1124084E+00
         -2   -1    0    0    0  501 -0.00000000000E+00  0.00000000000E+00  0.22188976755E+03  0.22188976755E+03  0.00000000000E+00 0.  1.
          2   -1    0    0  501    0  0.00000000000E+00 -0.00000000000E+00 -0.33546965412E+03  0.33546965412E+03  0.00000000000E+00 0. -1.
         25    2    1    2    0    0 -0.49632563145E+02  0.33537737633E+02 -0.14031180956E+03  0.19728985159E+03  0.12509080888E+03 0.  0.
          5    1    3    3  502    0 -0.12246840903E+02 -0.30982319968E+02  0.49631983269E+01  0.33941051845E+02  0.41800000000E+01 0. -1.
         -5    1    3    3    0  502 -0.37385722242E+02  0.64520057602E+02 -0.14527500789E+03  0.16334879974E+03  0.41800000000E+01 0. -1.
        -11    1    1    2    0    0  0.10721901736E+03 -0.17562200325E+03  0.15708345902E+02  0.20636316977E+03  0.00000000000E+00 0. -1.
         11    1    1    2    0    0 -0.57586454213E+02  0.14208426561E+03  0.11023577092E+02  0.15370640031E+03  0.00000000000E+00 0.  1.
</event>
<event>
 8    1  0.6185113E-009  0.1339292E+03  0.7561462E-02  0.1221739E+00
         -1   -1    0    0    0  501 -0.00000000000E+00  0.00000000000E+00  0.41544425390E+02  0.41544425390E+02  0.00000000000E+00 0.  1.
          1   -1    0    0  501    0  0.00000000000E+00 -0.00000000000E+00 -0.51494423958E+03  0.51494423958E+03  0.00000000000E+00 0. -1.
         25    2    1    2    0    0  0.81559572951E+02  0.34098825552E+02 -0.34378193755E+03  0.37635932442E+03  0.12508247938E+03 0.  0.
         23    2    1    2    0    0 -0.81559572951E+02 -0.34098825552E+02 -0.12961787664E+03  0.18012934055E+03  0.88493454779E+02 0.  0.
          5    1    3    3  502    0  0.78986030186E+02 -0.32016725561E+02 -0.16663030625E+03  0.18720842674E+03  0.41800000000E+01 0.  1.
         -5    1    3    3    0  502  0.25735427649E+01  0.66115551113E+02 -0.17715163130E+03  0.18915089768E+03  0.41800000000E+01 0.  1.
        -11    1    4    4    0    0 -0.81155328538E+02 -0.53255861121E+02 -0.76281268187E+02  0.12345527923E+03  0.00000000000E+00 0.  1.
         11    1    4    4    0    0 -0.40424441285E+00  0.19157035569E+02 -0.53336608448E+02  0.56674061316E+02  0.00000000000E+00 0. -1.
</event>
<event>
 8    1  0.6185113E-009  0.1427815E+03  0.7561462E-02  0.1209634E+00
         -2   -1    0    0    0  501 -0.00000000000E+00  0.00000000000E+00  0.10342814403E+03  0.10342814403E+03  0.00000000000E+00 0.  1.
          2   -1    0    0  501    0  0.00000000000E+00 -0.00000000000E+00 -0.29686850221E+03  0.29686850221E+03  0.00000000000E+00 0. -1.
         25    2    1    2    0    0 -0.17888466053E+02  0.11582026922E+03 -0.17850045862E+03  0.24747651699E+03  0.12509148953E+03 0.  0.
         23    2    1    2    0    0  0.17888466053E+02 -0.11582026922E+03 -0.14939899552E+02  0.15282012925E+03  0.96935335804E+02 0.  0.
          5    1    3    3  502    0 -0.65860619232E+02  0.95119004300E+02 -0.99411057825E+02  0.15259514069E+03  0.41800000000E+01 0. -1.
         -5    1    3    3    0  502  0.47972153179E+02  0.20701264916E+02 -0.79089400796E+02  0.94881376297E+02  0.41800000000E+01 0. -1.
        -11    1    4    4    0    0  0.13447727648E+02 -0.65756296580E+02 -0.56398370749E+02  0.87667029959E+02  0.00000000000E+00 0. -1.
         11    1    4    4    0    0  0.44407384051E+01 -0.50063972636E+02  0.41458471197E+02  0.65153099294E+02  0.00000000000E+00 0.  1.
</event>
<event>
 8    1  0.6185113E-009  0.1147032E+03  0.7561462E-02  0.1252100E+00
         -1   -1    0    0    0  501 -0.00000000000E+00  0.00000000000E+00  0.54063222168E+02  0.54063222168E+02  0.00000000000E+00 0.  1.
          1   -1    0    0  501    0  0.00000000000E+00 -0.00000000000E+00 -0.25494457285E+03  0.25494457285E+03  0.00000000000E+00 0. -1.
         25    2    1    2    0    0 -0.34421682750E+02 -0.12132762345E+02 -0.83830223285E+02  0.15494037517E+03  0.12508779859E+03 0.  0.
         23    2    1    2    0    0  0.34421682750E+02  0.12132762345E+02 -0.11705112740E+03  0.15406741985E+03  0.93293875830E+02 0.  0.
          5    1    3    3  502    0 -0.64487857548E+02 -0.49279579470E+02 -0.42993488983E+02  0.91940596142E+02  0.41800000000E+01 0. -1.
         -5    1    3    3    0  502  0.30066174798E+02  0.37146817125E+02 -0.40836734302E+02  0.62999779031E+02  0.41800000000E+01 0. -1.
        -11    1    4    4    0    0  0.58205601772E+02  0.34377842577E+02 -0.77805751445E+02  0.10307018529E+03  0.00000000000E+00 0.  1.
         11    1    4    4    0    0 -0.23783919022E+02 -0.22245080232E+02 -0.39245375955E+02  0.50997234556E+02  0.00000000000E+00 0. -1.
</event>
<event>
 8    1  0.6185113E-009  0.8185312E+02  0.7561462E-02  0.1323873E+00
          4   -1    0    0  501    0  0.00000000000E+00  0.00000000000E+00  0.86015373318E+02  0.86015373318E+02  0.00000000000E+00 0. -1.
         -4   -1    0    0    0  501 -0.00000000000E+00 -0.00000000000E+00 -0.22673761709E+03  0.22673761709E+03  0.00000000000E+00 0.  1.
         25    2    1    2    0    0  0.46991267517E+02 -0.22513400436E+02 -0.15772056614E+03  0.20794110604E+03  0.12509474080E+03 0.  0.
         23    2    1    2    0    0 -0.46991267517E+02  0.22513400436E+02  0.16998322367E+02  0.10481188437E+03  0.89339552939E+02 0.  0.
          5    1    3    3  502    0  0.40829596775E+02  0.89301040214E+01  0.47659167793E+01  0.42272793773E+02  0.41800000000E+01 0. -1.
         -5    1    3    3    0  502  0.61616707420E+01 -0.31443504457E+02 -0.16248648292E+03  0.16566831227E+03  0.41800000000E+01 0. -1.
        -11    1    4    4    0    0 -0.64426680498E+02  0.29175748820E+02 -0.10579104289E+02  0.71511809701E+02  0.00000000000E+00 0.  1.
         11    1    4    4    0    0  0.17435412981E+02 -0.66623483844E+01  0.27577426656E+02  0.33300074666E+02  0.00000000000E+00 0. -1.
</event>
<event>
 8    1  0.6185113E-009  0.1286733E+03  0.7561462E-02  0.1229438E+00
          1   -1    0    0  501    0  0.00000000000E+00  0.00000000000E+00  0.97245822055E+03  0.97245822055E+03  0.00000000000E+00 0. -1.
         -1   -1    0    0    0  501 -0.00000000000E+00 -0.00000000000E+00 -0.19276892223E+02  0.19276892223E+02  0.00000000000E+00 0.  1.
         25    2    1    2    0    0  0.52040177408E+02  0.60767647884E+02  0.44188998904E+03  0.46617042730E+03  0.12508883954E+03 0.  0.
         23    2    1    2    0    0 -0.52040177408E+02 -0.60767647884E+02  0.51129133928E+03  0.52556468547E+03  0.91643428007E+02 0.  0.
          5    1    3    3  502    0 -0.11691251957E+02  0.71609990946E+02  0.14380717817E+03  0.16112930543E+03  0.41800000000E+01 0. -1.
         -5    1    3    3    0  502  0.63731429365E+02 -0.10842343061E+02  0.29808281088E+03  0.30504112187E+03  0.41800000000E+01 0. -1.
        -11    1    4    4    0    0 -0.20610543965E+02 -0.80285733610E+02  0.30935836457E+03  0.32027049704E+03  0.00000000000E+00 0.  1.
         11    1    4    4    0    0 -0.31429633442E+02  0.19518085725E+02  0.20193297471E+03  0.20529418844E+03  0.00000000000E+00 0. -1.
</event>
<event>
 8    1  0.6185113E-009  0.1439013E+03  0.7561462E-02  0.1208174E+00
         -2   -1    0    0    0  501 -0.00000000000E+00  0.00000000000E+00  0.11247322619E+03  0.11247322619E+03  0.00000000000E+00 0.  1.
          2   -1    0    0  501    0  0.00000000000E+00 -0.00000000000E+00 -0.44707041303E+03  0.44707041303E+03  0.00000000000E+00 0. -1.
         25    2    1    2    0    0 -0.94338964116E+02 -0.59561096338E+02 -0.37426771510E+03  0.41008443179E+03  0.12508219011E+03 0.  0.
         23    2    1    2    0    0  0.94338964116E+02  0.59561096338E+02  0.39670528260E+02  0.14945920742E+03  0.91197256115E+02 0.  0.
          5    1    3    3  502    0 -0.10276199897E+03 -0.11504228700E+02 -0.16194047886E+03  0.19218367985E+03  0.41800000000E+01 0. -1.
         -5    1    3    3    0  502  0.84230348538E+01 -0.48056867639E+02 -0.21232723625E+03  0.21790075194E+03  0.41800000000E+01 0. -1.
        -11    1    4    4    0    0  0.12568973212E+02  0.51692053194E+02  0.41216813516E+02  0.67296903104E+02  0.00000000000E+00 0.  1.
         11    1    4    4    0    0  0.81769990904E+02  0.78690431444E+01 -0.15462852561E+01  0.82162304317E+02  0.00000000000E+00 0. -1.
</event>
<event>
 8    1  0.6185113E-009  0.1193183E+03  0.7561462E-02  0.1244226E+00
         -2   -1    0    0    0  501 -0.00000000000E+00  0.00000000000E+00  0.27260534972E+02  0.27260534972E+02  0.00000000000E+00 0.  1.
          2   -1    0    0  501    0  0.00000000000E+00 -0.00000000000E+00 -0.54568976257E+03  0.54568976257E+03  0.00000000000E+00 0. -1.
         25    2    1    2    0    0  0.20963582372E+02 -0.48958223746E+02 -0.30089735163E+03  0.33018566784E+03  0.12508788740E+03 0.  0.
         23    2    1    2    0    0 -0.20963582372E+02  0.48958223746E+02 -0.21753187597E+03  0.24276462969E+03  0.93691882842E+02 0.  0.
          5    1    3    3  502    0 -0.51354003906E+02 -0.73175929978E+01 -0.12732737466E+03  0.13755185794E+03  0.41800000000E+01 0.  1.
         -5    1    3    3    0  502  0.72317586279E+02 -0.41640630748E+02 -0.17356997697E+03  0.19263380991E+03  0.41800000000E+01 0.  1.
        -11    1    4    4    0    0 -0.31500473336E+02  0.71515040476E+02 -0.19106638215E+03  0.20642926930E+03  0.00000000000E+00 0.  1.
         11    1    4    4    0    0  0.10536890964E+02 -0.22556816730E+02 -0.26465493818E+02  0.36335360398E+02  0.00000000000E+00 0. -1.
</event>
<event>
 8    1  0.6185113E-009  0.1280426E+03  0.7561462E-02  0.1230389E+00
          2   -1    0    0  501    0  0.00000000000E+00  0.00000000000E+00  0.26033177000E+03  0.26033177000E+03  0.00000000000E+00 0.  1.
         -2   -1    0    0    0  501 -0.00000000000E+00 -0.00000000000E+00 -0.96186736590E+02  0.96186736590E+02  0.00000000000E+00 0. -1.
         25    2    1    2    0    0 -0.83620218168E+02 -0.80714271360E+02  0.67353018093E+02  0.18355119850E+03  0.12508988343E+03 0.  0.
         23    2    1    2    0    0  0.83620218168E+02  0.80714271360E+02  0.96792015319E+02  0.17296730809E+03  0.83915796793E+02 0.  0.
          5    1    3    3  502    0 -0.33732505806E+02 -0.78955894860E+02  0.93528407506E+02  0.12703129808E+03  0.41800000000E+01 0.  1.
         -5    1    3    3    0  502 -0.49887712363E+02 -0.17583765007E+01 -0.26175389412E+02  0.56519900421E+02  0.41800000000E+01 0.  1.
        -11    1    4    4    0    0  0.57752623497E+02  0.72908210086E+02  0.10902373328E+03  0.14330787500E+03  0.00000000000E+00 0.  1.
         11    1    4    4    0    0  0.25867594672E+02  0.78060612748E+01 -0.12231717966E+02  0.29659433089E+02  0.00000000000E+00 0. -1.
</event>
<event>
 7    1  0.6185113E-009  0.1085149E+03  0.7561462E-02  0.1263345E+00
         -1   -1    0    0    0  501 -0.00000000000E+00  0.00000000000E+00  0.96281565429E+02  0.96281565429E+02  0.00000000000E+00 0.  1.
          1   -1    0    0  501    0  0.00000000000E+00 -0.00000000000E+00 -0.19647862848E+03  0.19647862848E+03  0.00000000000E+00 0. -1.
         25    2    1    2    0    0 -0.11599797477E+02  0.73974063341E+02  0.21755130517E+02  0.14740428926E+03  0.12509205187E+03 0.  0.
          5    1    3    3  502    0  0.64083720863E+01 -0.31134613201E+02 -0.13814810769E+02  0.34910639761E+02  0.41800000000E+01 0. -1.
         -5    1    3    3    0  502 -0.18008169563E+02  0.10510867654E+03  0.35569941286E+02  0.11249364950E+03  0.41800000000E+01 0. -1.
        -11    1    1    2    0    0  0.10360988809E+02 -0.10467661108E+02 -0.15411336873E+02  0.21317394831E+02  0.00000000000E+00 0.  1.
         11    1    1    2    0    0  0.12388086682E+01 -0.63506402233E+02 -0.10654085670E+03  0.12403850982E+03  0.00000000000E+00 0. -1.
</event>
<event>
 8    1  0.6185113E-009  0.1002525E+03  0.7561462E-02  0.1279766E+00
         -4   -1    0    0    0  501 -0.00000000000E+00  0.00000000000E+00  0.18815253729E+03  0.18815253729E+03  0.00000000000E+00 0.  1.
          4   -1    0    0  501    0  0.00000000000E+00 -0.00000000000E+00 -0.87639328199E+02  0.87639328199E+02  0.00000000000E+00 0. -1.
         25    2    1    2    0    0 -0.27633580656E+02 -0.57342259437E+02  0.90039349035E+02  0.16675315652E+03  0.12509109216E+03 0.  0.
         23    2    1    2    0    0  0.27633580656E+02  0.57342259437E+02  0.10473860053E+02  0.10903870896E+03  0.87908980264E+02 0.  0.
          5    1    3    3  502    0  0.21485348932E+02 -0.77539039573E+02  0.28745314807E+02  0.85543488355E+02  0.41800000000E+01 0. -1.
         -5    1    3    3    0  502 -0.49118929589E+02  0.20196780135E+02  0.61294034228E+02  0.81209668166E+02  0.41800000000E+01 0. -1.
        -11    1    4    4    0    0  0.43894155445E+01  0.31900858186E+02  0.48184429847E+02  0.57954042150E+02  0.00000000000E+00 0.  1.
         11    1    4    4    0    0  0.23244165112E+02  0.25441401251E+02 -0.37710569794E+02  0.51084666815E+02  0.00000000000E+00 0. -1.
</event>
<event>
 8    1  0.6185113E-009  0.9012233E+02  0.7561462E-02  0.1302556E+00
          1   -1    0    0  501    0  0.00000000000E+00  0.00000000000E+00  0.32337461489E+03  0.32337461489E+03  0.00000000000E+00 0. -1.
         -1   -1    0    0    0  501 -0.00000000000E+00 -0.00000000000E+00 -0.46385942226E+02  0.46385942226E+02  0.00000000000E+00 0.  1.
         25    2    1    2    0    0  0.60053632468E+02 -0.48020212649E+01  0.14314154840E+03  0.19941301825E+03  0.12508617345E+03 0.  0.
         23    2    1    2    0    0 -0.60053632468E+02  0.48020212649E+01  0.13384712426E+03  0.17034753886E+03  0.86450755598E+02 0.  0.
          5    1    3    3  502    0  0.67233039775E+02  0.30714017811E+02  0.14508912488E+03  0.16288633794E+03  0.41800000000E+01 0.  1.
         -5    1    3    3    0  502 -0.71794073064E+01 -0.35516039076E+02 -0.19475764752E+01  0.36526680318E+02  0.41800000000E+01 0.  1.
        -11    1    4    4    0    0 -0.88260207549E+01  0.15093190168E+02 -0.79668472895E+01  0.19213893087E+02  0.00000000000E+00 0.  1.
         11    1    4    4    0    0 -0.51227611713E+02 -0.10291168903E+02  0.14181397155E+03  0.15113364578E+03  0.00000000000E+00 0. -1.
</event>
<event>
 8    1  0.6185113E-009  0.1307750E+03  0.7561462E-02  0.1226310E+00
         -1   -1    0    0    0  501 -0.00000000000E+00  0.00000000000E+00  0.40675080244E+03  0.40675080244E+03  0.00000000000E+00 0.  1.
          1   -1    0    0  501    0  0.00000000000E+00 -0.00000000000E+00 -0.54822058866E+02  0.54822058866E+02  0.00000000000E+00 0. -1.
         25    2    1    2    0    0 -0.93396512186E+02  0.22859559463E+02  0.12683313004E+03  0.20243390186E+03  0.12508946318E+03 0.  0.
         23    2    1    2    0    0  0.93396512186E+02 -0.22859559463E+02  0.22509561354E+03  0.25913895945E+03  0.85085234463E+02 0.  0.
          5    1    3    3  502    0 -0.91940404360E+01 -0.36757728633E+02  0.80882265830E+02  0.89415179470E+02  0.41800000000E+01 0.  1.
         -5    1    3    3    0  502 -0.84202471750E+02  0.59617288096E+02  0.45950864207E+02  0.11301872239E+03  0.41800000000E+01 0.  1.
        -11    1    4    4    0    0  0.96427069510E+02 -0.38805793512E+02  0.15119987823E+03  0.18348153183E+03  0.00000000000E+00 0. -1.
         11    1    4    4    0    0 -0.30305573241E+01  0.15946234049E+02  0.73895735310E+02  0.75657427626E+02  0.00000000000E+00 0.  1.
</event>
<event>
 8    1  0.6185113E-009  0.9942522E+02  0.7561462E-02  0.1281509E+00
          2   -1    0    0  501    0  0.00000000000E+00  0.00000000000E+00  0.11667502815E+03  0.11667502815E+03  0.00000000000E+00 0. -1.
         -2   -1    0    0    0  501 -0.00000000000E+00 -0.00000000000E+00 -0.20755796238E+03  0.20755796238E+03  0.00000000000E+00 0.  1.
         25    2    1    2    0    0 -0.47092212414E+02 -0.26821030777E+02  0.51897422334E+02  0.14586787462E+03  0.12508816986E+03 0.  0.
         23    2    1    2    0    0  0.47092212414E+02  0.26821030777E+02 -0.14278035656E+03  0.17836511592E+03  0.92145755169E+02 0.  0.
          5    1    3    3  502    0 -0.29999287681E+02 -0.53222734926E+02  0.81858016373E+02  0.10222927183E+03  0.41800000000E+01 0. -1.
         -5    1    3    3    0  502 -0.17092924733E+02  0.26401704149E+02 -0.29960594039E+02  0.43638602785E+02  0.41800000000E+01 0. -1.
        -11    1    4    4    0    0  0.62361806723E+02  0.48755072064E+02 -0.11676810538E+03  0.14107034566E+03  0.00000000000E+00 0.  1.
         11    1    4    4    0    0 -0.15269594309E+02 -0.21934041287E+02 -0.26012251183E+02  0.37294770265E+02  0.00000000000E+00 0. -1.
</event>
<event>
 8    1  0.6185113E-009  0.9353145E+02  0.7561462E-02  0.1294518E+00
         -3   -1    0    0    0  501 -0.00000000000E+00  0.00000000000E+00  0.27523198402E+02  0.27523198402E+02  0.00000000000E+00 0.  1.
          3   -1    0    0  501    0  0.00000000000E+00 -0.00000000000E+00 -0.54474666709E+03  0.54474666709E+03  0.00000000000E+00 0. -1.
         25    2    1    2    0    0 -0.32511699498E+02 -0.31529589965E+02 -0.20869897864E+03  0.24749421737E+03  0.12508796224E+03 0.  0.
         23    2    1    2    0    0  0.32511699498E+02  0.31529589965E+02 -0.30852449004E+03  0.32477564812E+03  0.90778494203E+02 0.  0.
          5    1    3    3  502    0 -0.48602636173E+02  0.77563228631E+01 -0.18781931147E+02  0.52845152331E+02  0.41800000000E+01 0. -1.
         -5    1    3    3    0  502  0.16090936674E+02 -0.39285912828E+02 -0.18991704750E+03  0.19464906504E+03  0.41800000000E+01 0. -1.
        -11    1    4    4    0    0 -0.25311687876E+02 -0.60789170795E+01 -0.14468390603E+03  0.14700703194E+03  0.00000000000E+00 0. -1.
         11    1    4    4    0    0  0.57823387374E+02  0.37608507044E+02 -0.16384058401E+03  0.17776861618E+03  0.00000000000E+00 0.  1.
</event>
<event>
 8    1  0.6185113E-009  0.1855091E+03  0.7561462E-02  0.1162575E+00
         -2   -1    0    0    0  501 -0.00000000000E+00  0.00000000000E+00  0.31880607085E+02  0.31880607085E+02  0.00000000000E+00 0. -1.
          2   -1    0    0  501    0  0.00000000000E+00 -0.00000000000E+00 -0.11275300434E+04  0.11275300434E+04  0.00000000000E+00 0.  1.
         25    2    1    2    0    0 -0.74300489457E+02 -0.13140813558E+03 -0.67618095518E+03  0.70402960052E+03  0.12509329889E+03 0.  0.
         23    2    1    2    0    0  0.74300489457E+02  0.13140813558E+03 -0.41946848115E+03  0.45538104998E+03  0.92894742448E+02 0.  0.
          5    1    3    3  502    0 -0.53341645236E+02 -0.15379660049E+03 -0.60236960957E+03  0.62399146178E+03  0.41800000000E+01 0. -1.
         -5    1    3    3    0  502 -0.20958844220E+02  0.22388464911E+02 -0.73811345610E+02  0.80038138739E+02  0.41800000000E+01 0. -1.
        -11    1    4    4    0    0  0.40162707730E+02 -0.13164260854E+01 -0.98190936912E+02  0.10609541065E+03  0.00000000000E+00 0.  1.
         11    1    4    4    0    0  0.34137781727E+02  0.13272456166E+03 -0.32127754424E+03  0.34928563933E+03  0.00000000000E+00 0. -1.
</event>
<event>
 8    1  0.6185113E-009  0.1065285E+03  0.7561462E-02  0.1267137E+00
          4   -1    0    0  501    0  0.00000000000E+00  0.00000000000E+00  0.18500803943E+03  0.18500803943E+03  0.00000000000E+00 0.  1.
         -4   -1    0    0    0  501 -0.00000000000E+00 -0.00000000000E+00 -0.92926901212E+02  0.92926901212E+02  0.00000000000E+00 0. -1.
         25    2    1    2    0    0 -0.75219833737E+01  0.67411664755E+02  0.25212989779E+02  0.14451590896E+03  0.12509292670E+03 0.  0.
         23    2    1    2    0    0  0.75219833737E+01 -0.67411664755E+02  0.66868148443E+02  0.13341903169E+03  0.93425777821E+02 0.  0.
          5    1    3    3  502    0  0.26273160047E+02  0.55717911093E+02  0.65819153318E+02  0.90246317925E+02  0.41800000000E+01 0.  1.
         -5    1    3    3    0  502 -0.33795143420E+02  0.11693753662E+02 -0.40606163539E+02  0.54269591033E+02  0.41800000000E+01 0.  1.
        -11    1    4    4    0    0 -0.32972181506E+02  0.40013941357E+01  0.22307007275E+02  0.40009729840E+02  0.00000000000E+00 0.  1.
         11    1    4    4    0    0  0.40494164880E+02 -0.71413058891E+02  0.44561141168E+02  0.93409301848E+02  0.00000000000E+00 0. -1.
</event>
<event>
 8    1  0.6185113E-009  0.1029313E+03  0.7561462E-02  0.1274250E+00
          1   -1    0    0  501    0  0.00000000000E+00  0.00000000000E+00  0.42528288615E+03  0.42528288615E+03  0.00000000000E+00 0. -1.
         -1   -1    0    0    0  501 -0.00000000000E+00 -0.00000000000E+00 -0.29677923147E+02  0.29677923147E+02  0.00000000000E+00 0.  1.
         25    2    1    2    0    0 -0.26690194632E+02 -0.14331605518E+02  0.25553675290E+03  0.28611878750E+03  0.12508863684E+03 0.  0.
         23    2    1    2    0    0  0.26690194632E+02  0.14331605518E+02  0.14006821010E+03  0.16884202180E+03  0.89279132161E+02 0.  0.
          5    1    3    3  502    0 -0.41143974775E+02 -0.56602056301E+02  0.21320203530E+03  0.22443083499E+03  0.41800000000E+01 0. -1.
         -5    1    3    3    0  502  0.14453780143E+02  0.42270450784E+02  0.42334717605E+02  0.61687952508E+02  0.41800000000E+01 0. -1.
        -11    1    4    4    0    0 -0.27839389243E+02  0.22449147221E+02  0.78105469644E+02  0.85903784507E+02  0.00000000000E+00 0.  1.
         11    1    4    4    0    0  0.54529583875E+02 -0.81175417028E+01  0.61962740459E+02  0.82938237297E+02  0.00000000000E+00 0. -1.
</event>
<event>
 8    1  0.6185113E-009  0.1233466E+03  0.7561462E-02  0.1237676E+00
          1   -1    0    0  501    0  0.00000000000E+00  0.00000000000E+00  0.38375946270E+03  0.38375946270E+03  0.00000000000E+00 0. -1.
         -1   -1    0    0    0  501 -0.00000000000E+00 -0.00000000000E+00 -0.10909684471E+03  0.10909684471E+03  0.00000000000E+00 0.  1.
         25    2    1    2    0    0  0.73685350826E+02  0.64619077948E+02  0.31582638668E+03  0.35355083715E+03  0.12508689687E+03 0.  0.
         23    2    1    2    0    0 -0.73685350826E+02 -0.64619077948E+02 -0.41163768685E+02  0.13930547026E+03  0.90035559810E+02 0.  0.
          5    1    3    3  502    0  0.82235035050E+02  0.23413005786E+01  0.10467223766E+03  0.13319847001E+03  0.41800000000E+01 0. -1.
         -5    1    3    3    0  502 -0.85496842239E+01  0.62277777369E+02  0.21115414902E+03  0.22035236714E+03  0.41800000000E+01 0. -1.
        -11    1    4    4    0    0 -0.14655090243E+01 -0.11684503259E+02 -0.48075808339E+02  0.49497057292E+02  0.00000000000E+00 0.  1.
         11    1    4    4    0    0 -0.72219841802E+02 -0.52934574689E+02  0.69120396536E+01  0.89808412967E+02  0.00000000000E+00 0. -1.
</event>
<event>
 8    1  0.6185113E-009  0.1187717E+03  0.7561462E-02  0.1245137E+00
         -2   -1    0    0    0  501 -0.00000000000E+00  0.00000000000E+00  0.23176544478E+02  0.23176544478E+02  0.00000000000E+00 0.  1.
          2   -1    0    0  501    0  0.00000000000E+00 -0.00000000000E+00 -0.10613897705E+04  0.10613897705E+04  0.00000000000E+00 0. -1.
         25    2    1    2    0    0  0.98966649768E+02  0.38459857176E+02 -0.70583602258E+03  0.72465382603E+03  0.12508044780E+03 0.  0.
         23    2    1    2    0    0 -0.98966649768E+02 -0.38459857176E+02 -0.33237720342E+03  0.35991248893E+03  0.88254382071E+02 0.  0.
          5    1    3    3  502    0  0.38764905917E+02  0.22668095428E+02 -0.56334672408E+02  0.72163898152E+02  0.41800000000E+01 0.  1.
         -5    1    3    3    0  502  0.60201743851E+02  0.15791761747E+02 -0.64950135017E+03  0.65248992788E+03  0.41800000000E+01 0.  1.
        -11    1    4    4    0    0 -0.58100268427E+02  0.17584390388E+02 -0.21662636925E+03  0.22497074439E+03  0.00000000000E+00 0. -1.
         11    1    4    4    0    0 -0.40866381340E+02 -0.56044247564E+02 -0.11575083417E+03  0.13494174454E+03  0.00000000000E+00 0.  1.
</event>
<event>
 8    1  0.6185113E-009  0.1104766E+03  0.7561462E-02  0.1259690E+00
          2   -1    0    0  501    0  0.00000000000E+00  0.00000000000E+00  0.48276865242E+03  0.48276865242E+03  0.00000000000E+00 0. -1.
         -2   -1    0    0    0  501 -0.00000000000E+00 -0.00000000000E+00 -0.41858330298E+02  0.41858330298E+02  0.00000000000E+00 0.  1.
         25    2    1    2    0    0  0.70460278480E+02 -0.55202434583E+02  0.26148183575E+03  0.30336853131E+03  0.12509098983E+03 0.  0.
         23    2    1    2    0    0 -0.70460278480E+02  0.55202434583E+02  0.17942848637E+03  0.22125845140E+03  0.93534811533E+02 0.  0.
          5    1    3    3  502    0  0.58804530160E+02 -0.36144078324E+02  0.38332273645E+02  0.79064548112E+02  0.41800000000E+01 0.  1.
         -5    1    3    3    0  502  0.11655748319E+02 -0.19058356259E+02  0.22314956211E+03  0.22430398320E+03  0.41800000000E+01 0.  1.
        -11    1    4    4    0    0 -0.35147161444E+02 -0.23862354918E+02  0.67291024254E+02  0.79578997763E+02  0.00000000000E+00 0.  1.
         11    1    4    4    0    0 -0.35313117035E+02  0.79064789501E+02  0.11213746211E+03  0.14167945364E+03  0.00000000000E+00 0. -1.
</event>
<event>
 8    1  0.6185113E-009  0.1249527E+03  0.7561462E-02  0.1235143E+00
          2   -1    0    0  501    0  0.00000000000E+00  0.00000000000E+00  0.56267170738E+03  0.56267170738E+03  0.00000000000E+00 0.  1.
         -2   -1    0    0    0  501 -0.00000000000E+00 -0.00000000000E+00 -0.37053784884E+02  0.37053784884E+02  0.00000000000E+00 0. -1.
         25    2    1    2    0    0  0.84714201417E+02  0.71114030790E+01  0.37880365089E+03  0.40787866796E+03  0.12508290799E+03 0.  0.
         23    2    1    2    0    0 -0.84714201417E+02 -0.71114030790E+01  0.14681427160E+03  0.19184682430E+03  0.89575139820E+02 0.  0.
          5    1    3    3  502    0  0.18869551375E+02  0.46566138285E+02  0.53087015880E+02  0.73213174080E+02  0.41800000000E+01 0.  1.
         -5    1    3    3    0  502  0.65844650043E+02 -0.39454735206E+02  0.32571663501E+03  0.33466549388E+03  0.41800000000E+01 0.  1.
        -11    1    4    4    0    0 -0.30688368522E+02 -0.46527865483E+02  0.78221251417E+02  0.96047813105E+02  0.00000000000E+00 0. -1.
         11    1    4    4    0    0 -0.54025832896E+02  0.39416462404E+02  0.68593020186E+02  0.95799011199E+02  0.00000000000E+00 0.  1.
</event>
<event>
 8    1  0.6185113E-009  0.2722026E+03  0.7561462E-02  0.1100026E+00
          1   -1    0    0  501    0  0.00000000000E+00  0.00000000000E+00  0.16025819053E+04  0.16025819053E+04  0.00000000000E+00 0. -1.
         -1   -1    0    0    0  501 -0.00000000000E+00 -0.00000000000E+00 -0.59623407676E+02  0.59623407676E+02  0.00000000000E+00 0.  1.
         25    2    1    2    0    0 -0.13360520763E+03 -0.21524502505E+03  0.11619892114E+04  0.11958463124E+04  0.12509477639E+03 0.  0.
         23    2    1    2    0    0  0.13360520763E+03  0.21524502505E+03  0.38096928621E+03  0.46635900059E+03  0.90401040285E+02 0.  0.
          5    1    3    3  502    0 -0.15555629855E+03 -0.16122684747E+03  0.92544478761E+03  0.95218558363E+03  0.41800000000E+01 0. -1.
         -5    1    3    3    0  502  0.21951090920E+02 -0.54018177583E+02  0.23654442382E+03  0.24366072876E+03  0.41800000000E+01 0. -1.
        -11    1    4    4    0    0  0.87982786809E+02  0.19081358642E+03  0.34272497176E+03  0.40200895737E+03  0.00000000000E+00 0. -1.
         11    1    4    4    0    0  0.45622420822E+02  0.24431438634E+02  0.38244314446E+02  0.64350043223E+02  0.00000000000E+00 0.  1.
</event>
<event>
 8    1  0.6185113E-009  0.1185454E+03  0.7561462E-02  0.1245516E+00
         -1   -1    0    0    0  501 -0.00000000000E+00  0.00000000000E+00  0.13831021134E+03  0.13831021134E+03  0.00000000000E+00 0.  1.
          1   -1    0    0  501    0  0.00000000000E+00 -0.00000000000E+00 -0.23438050517E+03  0.23438050517E+03  0.00000000000E+00 0. -1.
         25    2    1    2    0    0  0.31410749088E+02  0.81288964427E+02  0.67720785430E+02  0.16680721209E+03  0.12507601820E+03 0.  0.
         23    2    1    2    0    0 -0.31410749088E+02 -0.81288964427E+02 -0.16379107926E+03  0.20588350442E+03  0.89252276448E+02 0.  0.
          5    1    3    3  502    0 -0.10931063516E+02 -0.18034656091E+02 -0.18662037673E+02  0.28468948348E+02  0.41800000000E+01 0. -1.
         -5    1    3    3    0  502  0.42341812604E+02  0.99323620517E+02  0.86382823103E+02  0.13833826374E+03  0.41800000000E+01 0. -1.
        -11    1    4    4    0    0 -0.20166344117E+02  0.47906727974E+01 -0.88738442862E+02  0.91127071842E+02  0.00000000000E+00 0.  1.
         11    1    4    4    0    0 -0.11244404971E+02 -0.86079637224E+02 -0.75052636399E+02  0.11475643258E+03  0.00000000000E+00 0. -1.
</event>
<event>
 8    1  0.6185113E-009  0.1792813E+03  0.7561462E-02  0.1168500E+00
          2   -1    0    0  501    0  0.00000000000E+00  0.00000000000E+00  0.17192749385E+03  0.17192749385E+03  0.00000000000E+00 0. -1.
         -2   -1    0    0    0  501 -0.00000000000E+00 -0.00000000000E+00 -0.21907410824E+03  0.21907410824E+03  0.00000000000E+00 0.  1.
         25    2    1    2    0    0  0.22451785071E+02 -0.14830635087E+03 -0.81148282919E+02  0.21149704697E+03  0.12508837153E+03 0.  0.
         23    2    1    2    0    0 -0.22451785071E+02  0.14830635087E+03  0.34001668528E+02  0.17950455513E+03  0.92557633331E+02 0.  0.
          5    1    3    3  502    0 -0.38997194687E+02 -0.19182998782E+02 -0.47530360307E+02  0.64539725647E+02  0.41800000000E+01 0.  1.
         -5    1    3    3    0  502  0.61448979758E+02 -0.12912335209E+03 -0.33617922612E+02  0.14695732132E+03  0.41800000000E+01 0.  1.
        -11    1    4    4    0    0 -0.45685968546E+02  0.38924638092E+02 -0.69480326209E+01  0.60420280783E+02  0.00000000000E+00 0.  1.
         11    1    4    4    0    0  0.23234183476E+02  0.10938171278E+03  0.40949701149E+02  0.11908427435E+03  0.00000000000E+00 0. -1.
</event>
<event>
 8    1  0.6185113E-009  0.8505577E+02  0.7561462E-02  0.1315287E+00
          1   -1    0    0  501    0  0.00000000000E+00  0.00000000000E+00  0.11000624312E+03  0.11000624312E+03  0.00000000000E+00 0. -1.
         -1   -1    0    0    0  501 -0.00000000000E+00 -0.00000000000E+00 -0.19363474909E+03  0.19363474909E+03  0.00000000000E+00 0.  1.
         25    2    1    2    0    0  0.11641754347E+02  0.14475310714E+02  0.56926187192E+02  0.13868001572E+03  0.12508593409E+03 0.  0.
         23    2    1    2    0    0 -0.11641754347E+02 -0.14475310714E+02 -0.14055469316E+03  0.16496097649E+03  0.84329336129E+02 0.  0.
          5    1    3    3  502    0 -0.43777115037E+02 -0.77759548751E+01 -0.13111718330E+02  0.46543429534E+02  0.41800000000E+01 0.  1.
         -5    1    3    3    0  502  0.55418869384E+02  0.22251265589E+02  0.70037905522E+02  0.92136586186E+02  0.41800000000E+01 0.  1.
        -11    1    4    4    0    0 -0.26755912685E+02  0.16279915889E+02 -0.14836436524E+02  0.34655942833E+02  0.00000000000E+00 0. -1.
         11    1    4    4    0    0  0.15114158338E+02 -0.30755226602E+02 -0.12571825664E+03  0.13030503366E+03  0.00000000000E+00 0.  1.
</event>
<event>
 8    1  0.6185113E-009  0.9948814E+02  0.7561462E-02  0.1281376E+00
          1   -1    0    0  501    0  0.00000000000E+00  0.00000000000E+00  0.12630803350E+03  0.12630803350E+03  0.00000000000E+00 0. -1.
         -1   -1    0    0    0  501 -0.00000000000E+00 -0.00000000000E+00 -0.10337999872E+03  0.10337999872E+03  0.00000000000E+00 0.  1.
         25    2    1    2    0    0 -0.15584904290E+02  0.25751468582E+02 -0.54204799117E+01  0.12878998171E+03  0.12510575691E+03 0.  0.
         23    2    1    2    0    0  0.15584904290E+02 -0.25751468582E+02  0.28348514696E+02  0.10089805051E+03  0.92036682552E+02 0.  0.
          5    1    3    3  502    0  0.40842939606E+02 -0.92698096334E-01 -0.40252162118E+02  0.57496636978E+02  0.41800000000E+01 0.  1.
         -5    1    3    3    0  502 -0.56427843896E+02  0.25844166678E+02  0.34831682207E+02  0.71293344734E+02  0.41800000000E+01 0.  1.
        -11    1    4    4    0    0  0.52262014552E+02 -0.25686944245E+01  0.23082276660E+02  0.57190102744E+02  0.00000000000E+00 0.  1.
         11    1    4    4    0    0 -0.36677110261E+02 -0.23182774157E+02  0.52662380356E+01  0.43707947765E+02  0.00000000000E+00 0. -1.
</event>
<event>
 8    1  0.6185113E-009  0.8125127E+02  0.7561462E-02  0.1325538E+00
         -1   -1    0    0    0  501 -0.00000000000E+00  0.00000000000E+00  0.10367876761E+03  0.10367876761E+03  0.00000000000E+00 0.  1.
          1   -1    0    0  501    0  0.00000000000E+00 -0.00000000000E+00 -0.17860558869E+03  0.17860558869E+03  0.00000000000E+00 0. -1.
         25    2    1    2    0    0 -0.30581056108E+01 -0.36860207350E+02 -0.11685854492E+03  0.17513370037E+03  0.12509143291E+03 0.  0.
         23    2    1    2    0    0  0.30581056108E+01  0.36860207350E+02  0.41931723839E+02  0.10715065594E+03  0.91405506987E+02 0.  0.
          5    1    3    3  502    0 -0.38133940646E+02 -0.53004208622E+02 -0.16436848394E+02  0.67463219208E+02  0.41800000000E+01 0. -1.
         -5    1    3    3    0  502  0.35075835035E+02  0.16144001272E+02 -0.10042169652E+03  0.10767048116E+03  0.41800000000E+01 0. -1.
        -11    1    4    4    0    0  0.24069532973E+02  0.19371736580E+02  0.64618934231E+02  0.71625507027E+02  0.00000000000E+00 0.  1.
         11    1    4    4    0    0 -0.21011427362E+02  0.17488470769E+02 -0.22687210392E+02  0.35525148909E+02  0.00000000000E+00 0. -1.
</event>
<event>
 8    1  0.6185113E-009  0.1287253E+03  0.7561462E-02  0.1229360E+00
          2   -1    0    0  501    0  0.00000000000E+00  0.00000000000E+00  0.10724935321E+03  0.10724935321E+03  0.00000000000E+00 0. -1.
         -2   -1    0    0    0  501 -0.00000000000E+00 -0.00000000000E+00 -0.16322209479E+03  0.16322209479E+03  0.00000000000E+00 0.  1.
         25    2    1    2    0    0  0.80846761434E+02 -0.39748187265E+02 -0.15548086869E+02  0.15493329086E+03  0.12508582808E+03 0.  0.
         23    2    1    2    0    0 -0.80846761434E+02  0.39748187265E+02 -0.40424654714E+02  0.11553815715E+03  0.59989964349E+02 0.  0.
          5    1    3    3  502    0  0.97532825271E+02  0.10554149074E+02 -0.24054857916E+02  0.10109476078E+03  0.41800000000E+01 0. -1.
         -5    1    3    3    0  502 -0.16686063837E+02 -0.50302336340E+02  0.85067710474E+01  0.53838530081E+02  0.41800000000E+01 0. -1.
        -11    1    4    4    0    0 -0.55171145465E+02 -0.40588460590E+01 -0.96277914720E+01  0.56151793310E+02  0.00000000000E+00 0.  1.
         11    1    4    4    0    0 -0.25675615969E+02  0.43807033324E+02 -0.30796863242E+02  0.59386363836E+02  0.00000000000E+00 0. -1.
</event>
<event>
 8    1  0.6185113E-009  0.1291011E+03  0.7561462E-02  0.1228796E+00
         -3   -1    0    0    0  501 -0.00000000000E+00  0.00000000000E+00  0.32498584349E+03  0.32498584349E+03  0.00000000000E+00 0.  1.
          3   -1    0    0  501    0  0.00000000000E+00 -0.00000000000E+00 -0.68207256879E+02  0.68207256879E+02  0.00000000000E+00 0. -1.
         25    2    1    2    0    0  0.77470839019E+02  0.64858541595E+02  0.12606498852E+03  0.20432421233E+03  0.12509053160E+03 0.  0.
         23    2    1    2    0    0 -0.77470839019E+02 -0.64858541595E+02  0.13071359809E+03  0.18886888804E+03  0.91526230268E+02 0.  0.
          5    1    3    3  502    0  0.62142532476E+02 -0.14853215844E+02  0.10041691343E+03  0.11909383388E+03  0.41800000000E+01 0. -1.
         -5    1    3    3    0  502  0.15328306543E+02  0.79711757439E+02  0.25648075082E+02  0.85230378451E+02  0.41800000000E+01 0. -1.
        -11    1    4    4    0    0 -0.63690436020E+02 -0.73006825203E+02  0.14008082774E+03  0.17032059907E+03  0.00000000000E+00 0.  1.
         11    1    4    4    0    0 -0.13780403000E+02  0.81482836079E+01 -0.93672296463E+01  0.18548288973E+02  0.00000000000E+00 0. -1.
</event>
<event>
 8    1  0.6185113E-009  0.6805001E+02  0.7561462E-02  0.1366852E+00
         -2   -1    0    0    0  501 -0.00000000000E+00  0.00000000000E+00  0.18116407869E+03  0.18116407869E+03  0.00000000000E+00 0.  1.
          2   -1    0    0  501    0  0.00000000000E+00 -0.00000000000E+00 -0.79662155351E+02  0.79662155351E+02  0.00000000000E+00 0. -1.
         25    2    1    2    0    0 -0.29745954082E+02 -0.40527039039E+02  0.40719096831E+02  0.14083183108E+03  0.12509315377E+03 0.  0.
         23    2    1    2    0    0  0.29745954082E+02  0.40527039039E+02  0.60782826503E+02  0.11999440295E+03  0.90425892670E+02 0.  0.
          5    1    3    3  502    0 -0.16623534410E+02 -0.57713746817E+02  0.77393072700E+02  0.98052937589E+02  0.41800000000E+01 0. -1.
         -5    1    3    3    0  502 -0.13122419672E+02  0.17186707779E+02 -0.36673975869E+02  0.42778893492E+02  0.41800000000E+01 0. -1.
        -11    1    4    4    0    0  0.12449055931E+02  0.32498565713E+02 -0.17829148854E+02  0.39102612648E+02  0.00000000000E+00 0. -1.
         11    1    4    4    0    0  0.17296898151E+02  0.80284733250E+01  0.78611975357E+02  0.80891790307E+02  0.00000000000E+00 0.  1.
</event>
<event>
 8    1  0.6185113E-009  0.1218507E+03  0.7561462E-02  0.1240075E+00
         -2   -1    0    0    0  501 -0.00000000000E+00  0.00000000000E+00  0.10562982729E+02  0.10562982729E+02  0.00000000000E+00 0.  1.
          2   -1    0    0  501    0  0.00000000000E+00 -0.00000000000E+00 -0.17392431376E+04  0.17392431376E+04  0.00000000000E+00 0. -1.
         25    2    1    2    0    0  0.72803841928E+02 -0.13556031658E+02 -0.11629196384E+04  0.11719690047E+04  0.12508036384E+03 0.  0.
         23    2    1    2    0    0 -0.72803841928E+02  0.13556031658E+02 -0.56576051656E+03  0.57783711563E+03  0.91250231262E+02 0.  0.
          5    1    3    3  502    0 -0.50227319920E+01 -0.42766134191E+02 -0.16476291733E+03  0.17034805957E+03  0.41800000000E+01 0. -1.
         -5    1    3    3    0  502  0.77826573920E+02  0.29210102532E+02 -0.99815672103E+03  0.10016209452E+04  0.41800000000E+01 0. -1.
        -11    1    4    4    0    0 -0.78554698984E+02 -0.21690021837E+02 -0.37338265983E+03  0.38217261602E+03  0.00000000000E+00 0.  1.
         11    1    4    4    0    0  0.57508570555E+01  0.35246053495E+02 -0.19237785673E+03  0.19566449960E+03  0.00000000000E+00 0. -1.
</event>
<event>
 8    1  0.6185113E-009  0.8813101E+02  0.7561462E-02  0.1307442E+00
         -1   -1    0    0    0  501 -0.00000000000E+00  0.00000000000E+00  0.37270562584E+02  0.37270562584E+02  0.00000000000E+00 0.  1.
          1   -1    0    0  501    0  0.00000000000E+00 -0.00000000000E+00 -0.33823739205E+03  0.33823739205E+03  0.00000000000E+00 0. -1.
         25    2    1    2    0    0 -0.22229729470E+02 -0.82924732937E+01 -0.14311791084E+03  0.19156088161E+03  0.12509959622E+03 0.  0.
         23    2    1    2    0    0  0.22229729470E+02  0.82924732937E+01 -0.15784891862E+03  0.18394707302E+03  0.91418371106E+02 0.  0.
          5    1    3    3  502    0  0.41462338725E+02  0.29545410354E+02 -0.75586760751E+02  0.91229861374E+02  0.41800000000E+01 0.  1.
         -5    1    3    3    0  502 -0.63692068194E+02 -0.37837883648E+02 -0.67531150088E+02  0.10033102024E+03  0.41800000000E+01 0.  1.
        -11    1    4    4    0    0 -0.12544790278E+02 -0.53291153260E+01  0.67180270348E+01  0.15195496719E+02  0.00000000000E+00 0.  1.
         11    1    4    4    0    0  0.34774519748E+02  0.13621588620E+02 -0.16456694566E+03  0.16875157630E+03  0.00000000000E+00 0. -1.
</event>
<event>
 8    1  0.6185113E-009  0.1335738E+03  0.7561462E-02  0.1222247E+00
         -1   -1    0    0    0  501 -0.00000000000E+00  0.00000000000E+00  0.29103239801E+03  0.29103239801E+03  0.00000000000E+00 0.  1.
          1   -1    0    0  501    0  0.00000000000E+00 -0.00000000000E+00 -0.82540574973E+02  0.82540574973E+02  0.00000000000E+00 0. -1.
         25    2    1    2    0    0  0.66306217127E+02 -0.50060445388E+02  0.19680834596E+03  0.24755122056E+03  0.12508204961E+03 0.  0.
         23    2    1    2    0    0 -0.66306217127E+02  0.50060445388E+02  0.11683477068E+02  0.12602175242E+03  0.94034120539E+02 0.  0.
          5    1    3    3  502    0 -0.34380322618E+02 -0.32295641817E+02  0.71678747192E+02  0.85908848570E+02  0.41800000000E+01 0.  1.
         -5    1    3    3    0  502  0.10068653974E+03 -0.17764803571E+02  0.12512959877E+03  0.16164237198E+03  0.41800000000E+01 0.  1.
        -11    1    4    4    0    0 -0.65166919541E+02  0.71070403208E+02 -0.85855158668E+01  0.96806201750E+02  0.00000000000E+00 0.  1.
         11    1    4    4    0    0 -0.11392975856E+01 -0.21009957820E+02  0.20268992934E+02  0.29215550674E+02  0.00000000000E+00 0. -1.
</event>
<event>
 8    1  0.6185113E-009  0.1016981E+03  0.7561462E-02  0.1276765E+00
          3   -1    0    0  501    0  0.00000000000E+00  0.00000000000E+00  0.49066396493E+02  0.49066396493E+02  0.00000000000E+00 0. -1.
         -3   -1    0    0    0  501 -0.00000000000E+00 -0.00000000000E+00 -0.24826053383E+03  0.24826053383E+03  0.00000000000E+00 0.  1.
         25    2    1    2    0    0  0.16574786515E+02  0.11568072737E+02 -0.12103940066E+03  0.17523110503E+03  0.12508740864E+03 0.  0.
         23    2    1    2    0    0 -0.16574786515E+02 -0.11568072737E+02 -0.78154736673E+02  0.12209582530E+03  0.91600675955E+02 0.  0.
          5    1    3    3  502    0 -0.26325606009E+02  0.48343513205E+02 -0.18758846210E+02  0.58305227140E+02  0.41800000000E+01 0.  1.
         -5    1    3    3    0  502  0.42900392524E+02 -0.36775440468E+02 -0.10228055445E+03  0.11692587789E+03  0.41800000000E+01 0.  1.
        -11    1    4    4    0    0 -0.49170198095E+02 -0.26299122291E+02 -0.60254656838E+02  0.82097356137E+02  0.00000000000E+00 0.  1.
         11    1    4    4    0    0  0.32595411580E+02  0.14731049554E+02 -0.17900079835E+02  0.39998469159E+02  0.00000000000E+00 0. -1.
</event>
<event>
 8    1  0.6185113E-009  0.1173127E+03  0.7561462E-02  0.1247597E+00
          1   -1    0    0  501    0  0.00000000000E+00  0.00000000000E+00  0.33759924948E+03  0.33759924948E+03  0.00000000000E+00 0. -1.
         -1   -1    0    0    0  501 -0.00000000000E+00 -0.00000000000E+00 -0.87387680944E+02  0.87387680944E+02  0.00000000000E+00 0.  1.
         25    2    1    2    0    0 -0.29134567890E+02  0.11344798543E+03  0.61406480654E+02  0.18203855643E+03  0.12509201300E+03 0.  0.
         23    2    1    2    0    0  0.29134567890E+02 -0.11344798543E+03  0.18880508788E+03  0.24294837399E+03  0.98271474860E+02 0.  0.
          5    1    3    3  502    0 -0.90657269020E+01  0.37996999217E+02  0.90464786614E+02  0.98627122896E+02  0.41800000000E+01 0.  1.
         -5    1    3    3    0  502 -0.20068840988E+02  0.75450986214E+02 -0.29058305959E+02  0.83411433536E+02  0.41800000000E+01 0.  1.
        -11    1    4    4    0    0  0.22666471208E+02 -0.91959535513E+02  0.59810075573E+02  0.11201593739E+03  0.00000000000E+00 0.  1.
         11    1    4    4    0    0  0.64680966826E+01 -0.21488449917E+02  0.12899501231E+03  0.13093243661E+03  0.00000000000E+00 0. -1.
</event>
<event>
 8    1  0.6185113E-009  0.1345098E+03  0.7561462E-02  0.1220913E+00
         -2   -1    0    0    0  501 -0.00000000000E+00  0.00000000000E+00  0.30916749183E+03  0.30916749183E+03  0.00000000000E+00 0.  1.
          2   -1    0    0  501    0  0.00000000000E+00 -0.00000000000E+00 -0.80525373837E+02  0.80525373837E+02  0.00000000000E+00 0. -1.
         25    2    1    2    0    0  0.13980431860E+02  0.11667206469E+03  0.11664712818E+03  0.20751268730E+03  0.12508852755E+03 0.  0.
         23    2    1    2    0    0 -0.13980431860E+02 -0.11667206469E+03  0.11199498982E+03  0.18218017836E+03  0.82697741748E+02 0.  0.
          5    1    3    3  502    0 -0.17445668031E+02  0.10155479768E+03  0.20491541271E+02  0.10514325432E+03  0.41800000000E+01 0.  1.
         -5    1    3    3    0  502  0.31426099891E+02  0.15117267015E+02  0.96155586907E+02  0.10236943299E+03  0.41800000000E+01 0.  1.
        -11    1    4    4    0    0 -0.33463265138E+02 -0.98866998483E+02  0.51949309344E+02  0.11658989769E+03  0.00000000000E+00 0. -1.
         11    1    4    4    0    0  0.19482833278E+02 -0.17805066211E+02  0.60045680471E+02  0.65590280672E+02  0.00000000000E+00 0.  1.
</event>
<event>
 8    1  0.6185113E-009  0.1502321E+03  0.7561462E-02  0.1200188E+00
         -1   -1    0    0    0  501 -0.00000000000E+00  0.00000000000E+00  0.44285969436E+02  0.44285969436E+02  0.00000000000E+00 0.  1.
          1   -1    0    0  501    0  0.00000000000E+00 -0.00000000000E+00 -0.72012626068E+03  0.72012626068E+03  0.00000000000E+00 0. -1.
         25    2    1    2    0    0 -0.11654615522E+03 -0.50543036932E+02 -0.49588544703E+03  0.52695937771E+03  0.12508478842E+03 0.  0.
         23    2    1    2    0    0  0.11654615522E+03  0.50543036932E+02 -0.17995484421E+03  0.23745285241E+03  0.88670774686E+02 0.  0.
          5    1    3    3  502    0 -0.55270527592E+02 -0.62902828111E+02 -0.12305156379E+03  0.14889847802E+03  0.41800000000E+01 0. -1.
         -5    1    3    3    0  502 -0.61275627629E+02  0.12359791179E+02 -0.37283388324E+03  0.37806089969E+03  0.41800000000E+01 0. -1.
        -11    1    4    4    0    0  0.19075565963E+02 -0.24437621722E+02 -0.26351789656E+02  0.40687730218E+02  0.00000000000E+00 0.  1.
         11    1    4    4    0    0  0.97470589258E+02  0.74980658654E+02 -0.15360305455E+03  0.19676512219E+03  0.00000000000E+00 0. -1.
</event>
<event>
 8    1  0.6185113E-009  0.1213643E+03  0.7561462E-02  0.1240863E+00
         -1   -1    0    0    0  501 -0.00000000000E+00  0.00000000000E+00  0.20397194798E+03  0.20397194798E+03  0.00000000000E+00 0.  1.
          1   -1    0    0  501    0  0.00000000000E+00 -0.00000000000E+00 -0.10755975015E+03  0.10755975015E+03  0.00000000000E+00 0. -1.
         25    2    1    2    0    0  0.20284282848E+02  0.90809072888E+02  0.92842862945E+02  0.18146885527E+03  0.12511358193E+03 0.  0.
         23    2    1    2    0    0 -0.20284282848E+02 -0.90809072888E+02  0.35693348876E+01  0.13006284286E+03  0.90806734834E+02 0.  0.
          5    1    3    3  502    0  0.16266487389E+02 -0.21237195029E+02  0.57964559543E+02  0.63976398989E+02  0.41800000000E+01 0.  1.
         -5    1    3    3    0  502  0.40177954588E+01  0.11204626792E+03  0.34878303403E+02  0.11749245628E+03  0.41800000000E+01 0.  1.
        -11    1    4    4    0    0 -0.34418377037E+02 -0.54096462320E+02  0.40719187115E+02  0.75954618771E+02  0.00000000000E+00 0.  1.
         11    1    4    4    0    0  0.14134094189E+02 -0.36712610568E+02 -0.37149852227E+02  0.54108224086E+02  0.00000000000E+00 0. -1.
</event>
<event>
 7    1  0.6185113E-009  0.1775138E+03  0.7561462E-02  0.1170231E+00
         -1   -1    0    0    0  501 -0.00000000000E+00  0.00000000000E+00  0.82402507460E+02  0.82402507460E+02  0.00000000000E+00 0.  1.
          1   -1    0    0  501    0  0.00000000000E+00 -0.00000000000E+00 -0.49457888107E+03  0.49457888107E+03  0.00000000000E+00 0. -1.
         23    2    1    2    0    0  0.42965489178E+02  0.14107089442E+03 -0.80154667117E+02  0.19282362684E+03  0.94916541733E+02 0.  0.
          5    1    1    2  502    0 -0.19797537741E+02 -0.16005734913E+03 -0.29610661609E+03  0.33720453438E+03  0.41800000000E+01 0.  1.
         -5    1    1    2    0  502 -0.23167951438E+02  0.18986454719E+02 -0.35915090407E+02  0.46953227318E+02  0.41800000000E+01 0.  1.
        -11    1    3    3    0    0 -0.17779321840E+02  0.14075107968E+02 -0.40753819064E+02  0.46637824968E+02  0.00000000000E+00 0. -1.
         11    1    3    3    0    0  0.60744811018E+02  0.12699578645E+03 -0.39400848053E+02  0.14618580187E+03  0.00000000000E+00 0.  1.
</event>
<event>
 8    1  0.6185113E-009  0.9741484E+02  0.7561462E-02  0.1285828E+00
         -2   -1    0    0    0  501 -0.00000000000E+00  0.00000000000E+00  0.64529893987E+02  0.64529893987E+02  0.00000000000E+00 0.  1.
          2   -1    0    0  501    0  0.00000000000E+00 -0.00000000000E+00 -0.22693482619E+03  0.22693482619E+03  0.00000000000E+00 0. -1.
         25    2    1    2    0    0  0.34079166051E+02 -0.38647033832E+02 -0.10009029903E+03  0.16828212896E+03  0.12508326900E+03 0.  0.
         23    2    1    2    0    0 -0.34079166051E+02  0.38647033832E+02 -0.62314633166E+02  0.12318259121E+03  0.92929298331E+02 0.  0.
          5    1    3    3  502    0  0.25482739983E+02  0.18369504354E+02  0.18254016206E+02  0.36571713590E+02  0.41800000000E+01 0. -1.
         -5    1    3    3    0  502  0.85964260680E+01 -0.57016538186E+02 -0.11834431524E+03  0.13171041537E+03  0.41800000000E+01 0. -1.
        -11    1    4    4    0    0 -0.13144840460E+01  0.63928817769E+02 -0.29762476707E+02  0.70529615265E+02  0.00000000000E+00 0. -1.
         11    1    4    4    0    0 -0.32764682005E+02 -0.25281783937E+02 -0.32552156459E+02  0.52652975947E+02  0.00000000000E+00 0.  1.
</event>
<event>
 8    1  0.6185113E-009  0.7382204E+02  0.7561462E-02  0.1347558E+00
          3   -1    0    0  501    0  0.00000000000E+00  0.00000000000E+00  0.21417925926E+03  0.21417925926E+03  0.00000000000E+00 0. -1.
         -3   -1    0    0    0  501 -0.00000000000E+00 -0.00000000000E+00 -0.52055859399E+02  0.52055859399E+02  0.00000000000E+00 0.  1.
         25    2    1    2    0    0 -0.23521233312E+02 -0.68594965096E+01  0.14116218047E+03  0.19019698850E+03  0.12509129518E+03 0.  0.
         23    2    1    2    0    0  0.23521233312E+02  0.68594965096E+01  0.20961219388E+02  0.76038130157E+02  0.68863077267E+02 0.  0.
          5    1    3    3  502    0 -0.29718656742E+02  0.27479003728E+02  0.14877483436E+03  0.15423915827E+03  0.41800000000E+01 0.  1.
         -5    1    3    3    0  502  0.61974234301E+01 -0.34338500238E+02 -0.76126538888E+01  0.35957830232E+02  0.41800000000E+01 0.  1.
        -11    1    4    4    0    0  0.78217503294E+01 -0.30393720246E+02  0.21726886559E+01  0.31459157405E+02  0.00000000000E+00 0. -1.
         11    1    4    4    0    0  0.15699482983E+02  0.37253216756E+02  0.18788530732E+02  0.44578972753E+02  0.00000000000E+00 0.  1.
</event>
<event>
 8    1  0.6185113E-009  0.9648226E+02  0.7561462E-02  0.1287872E+00
         -2   -1    0    0    0  501 -0.00000000000E+00  0.00000000000E+00  0.43246814613E+02  0.43246814613E+02  0.00000000000E+00 0.  1.
          2   -1    0    0  501    0  0.00000000000E+00 -0.00000000000E+00 -0.30928112093E+03  0.30928112093E+03  0.00000000000E+00 0. -1.
         25    2    1    2    0    0 -0.28124140239E+02  0.60290226362E+01 -0.11480509466E+03  0.17220546355E+03  0.12508875064E+03 0.  0.
         23    2    1    2    0    0  0.28124140239E+02 -0.60290226362E+01 -0.15122921166E+03  0.18032247200E+03  0.93907417548E+02 0.  0.
          5    1    3    3  502    0  0.27298829317E+02  0.24957533269E+02 -0.10660958396E+03  0.11292112443E+03  0.41800000000E+01 0. -1.
         -5    1    3    3    0  502 -0.55422969556E+02 -0.18928510633E+02 -0.81955106954E+01  0.59284339118E+02  0.41800000000E+01 0. -1.
        -11    1    4    4    0    0  0.50937167230E+02  0.26403570657E+02 -0.75344075696E+02  0.94702023692E+02  0.00000000000E+00 0.  1.
         11    1    4    4    0    0 -0.22813026991E+02 -0.32432593293E+02 -0.75885135960E+02  0.85620448305E+02  0.00000000000E+00 0. -1.
</event>
<event>
 8    1  0.6185113E-009  0.1039943E+03  0.7561462E-02  0.1272114E+00
         -1   -1    0    0    0  501 -0.00000000000E+00  0.00000000000E+00  0.25787131023E+03  0.25787131023E+03  0.00000000000E+00 0.  1.
          1   -1    0    0  501    0  0.00000000000E+00 -0.00000000000E+00 -0.61312394199E+02  0.61312394199E+02  0.00000000000E+00 0. -1.
         25    2    1    2    0    0  0.25882098308E+02 -0.23616058617E+02  0.41675689840E+02  0.13642806209E+03  0.12509257278E+03 0.  0.
         23    2    1    2    0    0 -0.25882098308E+02  0.23616058617E+02  0.15488322619E+03  0.18275564235E+03  0.90461095588E+02 0.  0.
          5    1    3    3  502    0  0.22734156649E+02  0.40874332829E+02  0.52926548989E+02  0.70754822809E+02  0.41800000000E+01 0. -1.
         -5    1    3    3    0  502  0.31479416586E+01 -0.64490391447E+02 -0.11250859150E+02  0.65673239278E+02  0.41800000000E+01 0. -1.
        -11    1    4    4    0    0 -0.36972250325E+02 -0.26186259003E+02  0.62122882766E+02  0.76889011034E+02  0.00000000000E+00 0.  1.
         11    1    4    4    0    0  0.11090152017E+02  0.49802317620E+02  0.92760343429E+02  0.10586663131E+03  0.00000000000E+00 0. -1.
</event>
<event>
 8    1  0.6185113E-009  0.1028912E+03  0.7561462E-02  0.1274331E+00
         -2   -1    0    0    0  501 -0.00000000000E+00  0.00000000000E+00  0.40047337970E+03  0.40047337970E+03  0.00000000000E+00 0. -1.
          2   -1    0    0  501    0  0.00000000000E+00 -0.00000000000E+00 -0.50563519995E+02  0.50563519995E+02  0.00000000000E+00 0.  1.
         25    2    1    2    0    0 -0.26514171646E+02 -0.59530724263E+02  0.29311097703E+03  0.32527810318E+03  0.12507953921E+03 0.  0.
         23    2    1    2    0    0  0.26514171646E+02  0.59530724263E+02  0.56798882676E+02  0.12575879651E+03  0.91335937050E+02 0.  0.
          5    1    3    3  502    0 -0.75604784448E+02 -0.47306388096E+02  0.20483592202E+03  0.22344843954E+03  0.41800000000E+01 0. -1.
         -5    1    3    3    0  502  0.49090612802E+02 -0.12224336167E+02  0.88275055008E+02  0.10182966364E+03  0.41800000000E+01 0. -1.
        -11    1    4    4    0    0  0.14494501855E+02  0.42410427691E+02 -0.17843774623E+02  0.48240390274E+02  0.00000000000E+00 0.  1.
         11    1    4    4    0    0  0.12019669791E+02  0.17120296572E+02  0.74642657299E+02  0.77518406235E+02  0.00000000000E+00 0. -1.
</event>
<event>
 8    1  0.6185113E-009  0.1047834E+03  0.7561462E-02  0.1270547E+00
         -2   -1    0    0    0  501 -0.00000000000E+00  0.00000000000E+00  0.42974397845E+02  0.42974397845E+02  0.00000000000E+00 0.  1.
          2   -1    0    0  501    0  0.00000000000E+00 -0.00000000000E+00 -0.38574713597E+03  0.38574713597E+03  0.00000000000E+00 0. -1.
         25    2    1    2    0    0 -0.49880435448E+02  0.35775331171E+02 -0.17309672131E+03  0.22219867557E+03  0.12506735918E+03 0.  0.
         23    2    1    2    0    0  0.49880435448E+02 -0.35775331171E+02 -0.16967601681E+03  0.20652285825E+03  0.10046794582E+03 0.  0.
          5    1    3    3  502    0 -0.67591965690E+02  0.31980450658E+02 -0.18536708699E+03  0.19992461677E+03  0.41800000000E+01 0. -1.
         -5    1    3    3    0  502  0.17711530242E+02  0.37948805132E+01  0.12270365676E+02  0.22274058801E+02  0.41800000000E+01 0. -1.
        -11    1    4    4    0    0 -0.27817450097E+02  0.51149609152E+01 -0.57422611548E+02  0.64010387220E+02  0.00000000000E+00 0. -1.
         11    1    4    4    0    0  0.77697885545E+02 -0.40890292086E+02 -0.11225340526E+03  0.14251247103E+03  0.00000000000E+00 0.  1.
</event>
<event>
 8    1  0.6185113E-009  0.1407524E+03  0.7561462E-02  0.1212320E+00
         -1   -1    0    0    0  501 -0.00000000000E+00  0.00000000000E+00  0.22671714703E+02  0.22671714703E+02  0.00000000000E+00 0.  1.
          1   -1    0    0  501    0  0.00000000000E+00 -0.00000000000E+00 -0.13761558945E+04  0.13761558945E+04  0.00000000000E+00 0. -1.
         25    2    1    2    0    0  0.10538199193E+03 -0.28262757286E+02 -0.10630892619E+04  0.10759693452E+04  0.12508838992E+03 0.  0.
         23    2    1    2    0    0 -0.10538199193E+03  0.28262757286E+02 -0.29039491783E+03  0.32285826398E+03  0.89465650631E+02 0.  0.
          5    1    3    3  502    0 -0.18634622667E+02  0.10472914774E+02 -0.37984601665E+03  0.38046997237E+03  0.41800000000E+01 0. -1.
         -5    1    3    3    0  502  0.12401661459E+03 -0.38735672060E+02 -0.68324324528E+03  0.69549937283E+03  0.41800000000E+01 0. -1.
        -11    1    4    4    0    0 -0.10888400661E+03  0.41132227604E+02 -0.28606145061E+03  0.30883448733E+03  0.00000000000E+00 0. -1.
         11    1    4    4    0    0  0.35020146858E+01 -0.12869470317E+02 -0.43334672259E+01  0.14023776642E+02  0.00000000000E+00 0.  1.
</event>
<event>
 7    1  0.6185113E-009  0.2843117E+03  0.7561462E-02  0.1093357E+00
         -1   -1    0    0    0  501 -0.00000000000E+00  0.00000000000E+00  0.45610400926E+02  0.45610400926E+02  0.00000000000E+00 0.  1.
          1   -1    0    0  501    0  0.00000000000E+00 -0.00000000000E+00 -0.24100598379E+04  0.24100598379E+04  0.00000000000E+00 0. -1.
         23    2    1    2    0    0  0.13038361058E+03 -0.25136022991E+03 -0.67147170120E+03  0.73461730518E+03  0.92771161857E+02 0.  0.
          5    1    1    2  502    0 -0.46415209526E+01  0.16843691140E+02 -0.42830553632E+03  0.42868211823E+03  0.41800000000E+01 0. -1.
         -5    1    1    2    0  502 -0.12574208963E+03  0.23451653877E+03 -0.12646721995E+04  0.12923708154E+04  0.41800000000E+01 0. -1.
        -11    1    3    3    0    0  0.41819104028E+02 -0.54790555404E+02 -0.82965952582E+02  0.10786191038E+03  0.00000000000E+00 0.  1.
         11    1    3    3    0    0  0.88564506556E+02 -0.19656967451E+03 -0.58850574862E+03  0.62675539480E+03  0.00000000000E+00 0. -1.
</event>
<event>
 8    1  0.6185113E-009  0.1914707E+03  0.7561462E-02  0.1157142E+00
          1   -1    0    0  501    0  0.00000000000E+00  0.00000000000E+00  0.19316602881E+04  0.19316602881E+04  0.00000000000E+00 0. -1.
         -1   -1    0    0    0  501 -0.00000000000E+00 -0.00000000000E+00 -0.32580052832E+02  0.32580052832E+02  0.00000000000E+00 0.  1.
         25    2    1    2    0    0 -0.94693613377E+02 -0.12866587556E+03  0.16013159231E+04  0.16141196190E+04  0.12509065062E+03 0.  0.
         23    2    1    2    0    0  0.94693613377E+02  0.12866587556E+03  0.29776431217E+03  0.35012072195E+03  0.91646856948E+02 0.  0.
          5    1    3    3  502    0 -0.81000683451E+02 -0.10086884798E+02  0.75644268842E+03  0.76084549629E+03  0.41800000000E+01 0. -1.
         -5    1    3    3    0  502 -0.13692929926E+02 -0.11857899076E+03  0.84487323469E+03  0.85327412270E+03  0.41800000000E+01 0. -1.
        -11    1    4    4    0    0  0.80232977052E+02  0.35928832073E+02  0.11593396678E+03  0.14549534781E+03  0.00000000000E+00 0.  1.
         11    1    4    4    0    0  0.14460636325E+02  0.92737043483E+02  0.18183034539E+03  0.20462537414E+03  0.00000000000E+00 0. -1.
</event>
<event>
 8    1  0.6185113E-009  0.1548111E+03  0.7561462E-02  0.1194683E+00
         -1   -1    0    0    0  501 -0.00000000000E+00  0.00000000000E+00  0.84946889206E+03  0.84946889206E+03  0.00000000000E+00 0.  1.
          1   -1    0    0  501    0  0.00000000000E+00 -0.00000000000E+00 -0.12181140590E+03  0.12181140590E+03  0.00000000000E+00 0. -1.
         25    2    1    2    0    0 -0.13304877024E+02 -0.13221814086E+03  0.77959655736E+03  0.80067228386E+03  0.12508659949E+03 0.  0.
         23    2    1    2    0    0  0.13304877024E+02  0.13221814086E+03 -0.51939071197E+02  0.17060801411E+03  0.93545554871E+02 0.  0.
          5    1    3    3  502    0  0.13285277016E+02  0.18532627888E+02  0.19415738274E+03  0.19553648906E+03  0.41800000000E+01 0.  1.
         -5    1    3    3    0  502 -0.26590154040E+02 -0.15075076875E+03  0.58543917462E+03  0.60513579480E+03  0.41800000000E+01 0.  1.
        -11    1    4    4    0    0  0.15001175753E+02  0.10941691301E+03 -0.78548489072E+02  0.13552476254E+03  0.00000000000E+00 0. -1.
         11    1    4    4    0    0 -0.16962987289E+01  0.22801227853E+02  0.26609417875E+02  0.35083251569E+02  0.00000000000E+00 0.  1.
</event>
<event>
 8    1  0.6185113E-009  0.1145020E+03  0.7561462E-02  0.1252453E+00
         -1   -1    0    0    0  501 -0.00000000000E+00  0.00000000000E+00  0.10840252604E+02  0.10840252604E+02  0.00000000000E+00 0.  1.
          1   -1    0    0  501    0  0.00000000000E+00 -0.00000000000E+00 -0.20939788703E+04  0.20939788703E+04  0.00000000000E+00 0. -1.
         25    2    1    2    0    0  0.36139176720E+02 -0.32183104133E+02 -0.17848687268E+04  0.17899010519E+04  0.12509041334E+03 0.  0.
         23    2    1    2    0    0 -0.36139176720E+02  0.32183104133E+02 -0.29826989097E+03  0.31491807105E+03  0.88694257575E+02 0.  0.
          5    1    3    3  502    0  0.79857339841E+02 -0.74258886468E+00 -0.10244602932E+04  0.10275768151E+04  0.41800000000E+01 0.  1.
         -5    1    3    3    0  502 -0.43718163121E+02 -0.31440515268E+02 -0.76040843357E+03  0.76232423681E+03  0.41800000000E+01 0.  1.
        -11    1    4    4    0    0 -0.27365172626E+02 -0.25062822927E+02 -0.67882743922E+02  0.77363199833E+02  0.00000000000E+00 0.  1.
         11    1    4    4    0    0 -0.87740040942E+01  0.57245927060E+02 -0.23038714705E+03  0.23755487121E+03  0.00000000000E+00 0. -1.
</event>
<event>
 8    1  0.6185113E-009  0.1931907E+03  0.7561462E-02  0.1155615E+00
         -2   -1    0    0    0  501 -0.00000000000E+00  0.00000000000E+00  0.11628194019E+03  0.11628194019E+03  0.00000000000E+00 0. -1.
          2   -1    0    0  501    0  0.00000000000E+00 -0.00000000000E+00 -0.42061529088E+03  0.42061529088E+03  0.00000000000E+00 0.  1.
         25    2    1    2    0    0  0.17365294586E+03 -0.63107229808E+01 -0.57428068751E+02  0.22167695391E+03  0.12509003951E+03 0.  0.
         23    2    1    2    0    0 -0.17365294586E+03  0.63107229808E+01 -0.24690528193E+03  0.31522027716E+03  0.90589370552E+02 0.  0.
          5    1    3    3  502    0  0.21438829464E+02  0.46545286540E+02 -0.28175021158E+01  0.51492696822E+02  0.41800000000E+01 0.  1.
         -5    1    3    3    0  502  0.15221411640E+03 -0.52856009520E+02 -0.54610566635E+02  0.17018425709E+03  0.41800000000E+01 0.  1.
        -11    1    4    4    0    0 -0.14651536925E+03  0.61260117441E+01 -0.13249032464E+03  0.19763088718E+03  0.00000000000E+00 0. -1.
         11    1    4    4    0    0 -0.27137576610E+02  0.18471123671E+00 -0.11441495730E+03  0.11758938998E+03  0.00000000000E+00 0.  1.
</event>
<event>
 8    1  0.6185113E-009  0.7670035E+02  0.7561462E-02  0.1338685E+00
          1   -1    0    0  501    0  0.00000000000E+00  0.00000000000E+00  0.14310431327E+03  0.14310431327E+03  0.00000000000E+00 0. -1.
         -1   -1    0    0    0  501 -0.00000000000E+00 -0.00000000000E+00 -0.10731853493E+03  0.10731853493E+03  0.00000000000E+00 0.  1.
         25    2    1    2    0    0 -0.20319988770E+01 -0.13986640263E+02  0.79443983903E+02  0.14885807993E+03  0.12509047228E+03 0.  0.
         23    2    1    2    0    0  0.20319988770E+01  0.13986640263E+02 -0.43658205560E+02  0.10156476827E+03  0.90606887794E+02 0.  0.
          5    1    3    3  502    0 -0.40297639810E+01  0.23641294647E+02 -0.26708782081E+02  0.36138362589E+02  0.41800000000E+01 0. -1.
         -5    1    3    3    0  502  0.19977651040E+01 -0.37627934911E+02  0.10615276598E+03  0.11271971734E+03  0.41800000000E+01 0. -1.
        -11    1    4    4    0    0  0.21756126264E+02  0.47507104425E+02 -0.19456864289E+02  0.55756825311E+02  0.00000000000E+00 0.  1.
         11    1    4    4    0    0 -0.19724127387E+02 -0.33520464162E+02 -0.24201341272E+02  0.45807942959E+02  0.00000000000E+00 0. -1.
</event>
<event>
 8    1  0.6185113E-009  0.2240150E+03  0.7561462E-02  0.1130925E+00
         -1   -1    0    0    0  501 -0.00000000000E+00  0.00000000000E+00  0.60487551551E+03  0.60487551551E+03  0.00000000000E+00 0.  1.
          1   -1    0    0  501    0  0.00000000000E+00 -0.00000000000E+00 -0.11885829612E+03  0.11885829612E+03  0.00000000000E+00 0. -1.
         25    2    1    2    0    0  0.15486621647E+03 -0.13742082955E+03  0.42634920838E+03  0.49019225437E+03  0.12508704709E+03 0.  0.
         23    2    1    2    0    0 -0.15486621647E+03  0.13742082955E+03  0.59668011003E+02  0.23354155726E+03  0.90074180715E+02 0.  0.
          5    1    3    3  502    0 -0.66682200681E+01 -0.60690250036E+02  0.13645608854E+03  0.14955102176E+03  0.41800000000E+01 0. -1.
         -5    1    3    3    0  502  0.16153443654E+03 -0.76730579515E+02  0.28989311984E+03  0.34064123261E+03  0.41800000000E+01 0. -1.
        -11    1    4    4    0    0 -0.66217098895E+02  0.46137772687E+02 -0.20345288687E+02  0.83230577472E+02  0.00000000000E+00 0. -1.
         11    1    4    4    0    0 -0.88649117578E+02  0.91283056864E+02  0.80013299690E+02  0.15031097979E+03  0.00000000000E+00 0.  1.
</event>
<event>
 8    1  0.6185113E-009  0.1147724E+03  0.7561462E-02  0.1251979E+00
          2   -1    0    0  501    0  0.00000000000E+00  0.00000000000E+00  0.25966965399E+03  0.25966965399E+03  0.00000000000E+00 0. -1.
         -2   -1    0    0    0  501 -0.00000000000E+00 -0.00000000000E+00 -0.62226691617E+02  0.62226691617E+02  0.00000000000E+00 0.  1.
         25    2    1    2    0    0 -0.55889487403E+02  0.15671631071E+01  0.17661585654E+03  0.22353468209E+03  0.12509397472E+03 0.  0.
         23    2    1    2    0    0  0.55889487403E+02 -0.15671631071E+01  0.20827105827E+02  0.98361663517E+02  0.78199473850E+02 0.  0.
          5    1    3    3  502    0 -0.11033467272E+01  0.57146158857E+02  0.58420076894E+02  0.81836902620E+02  0.41800000000E+01 0. -1.
         -5    1    3    3    0  502 -0.54786140676E+02 -0.55578995750E+02  0.11819577965E+03  0.14169777947E+03  0.41800000000E+01 0. -1.
        -11    1    4    4    0    0 -0.21610139730E+01 -0.29556723561E+02 -0.26934866205E+01  0.29757768049E+02  0.00000000000E+00 0.  1.
         11    1    4    4    0    0  0.58050501376E+02  0.27989560454E+02  0.23520592447E+02  0.68603895469E+02  0.00000000000E+00 0. -1.
</event>
<event>
 8    1  0.6185113E-009  0.1517455E+03  0.7561462E-02  0.1198344E+00
          2   -1    0    0  501    0  0.00000000000E+00  0.00000000000E+00  0.77178097715E+03  0.77178097715E+03  0.00000000000E+00 0. -1.
         -2   -1    0    0    0  501 -0.00000000000E+00 -0.00000000000E+00 -0.41083801436E+02  0.41083801436E+02  0.00000000000E+00 0.  1.
         25    2    1    2    0    0  0.89728171104E+02 -0.88564276240E+02  0.53187619415E+03  0.56074545892E+03  0.12509359728E+03 0.  0.
         23    2    1    2    0    0 -0.89728171104E+02  0.88564276240E+02  0.19882098157E+03  0.25211931967E+03  0.90219692548E+02 0.  0.
          5    1    3    3  502    0  0.27854636134E+02 -0.96447458593E+02  0.20930323792E+03  0.23217086559E+03  0.41800000000E+01 0.  1.
         -5    1    3    3    0  502  0.61873534970E+02  0.78831823526E+01  0.32257295623E+03  0.32857459333E+03  0.41800000000E+01 0.  1.
        -11    1    4    4    0    0 -0.87592345131E+02  0.48002466632E+02  0.84616877279E+02  0.13090711076E+03  0.00000000000E+00 0.  1.
         11    1    4    4    0    0 -0.21358259734E+01  0.40561809608E+02  0.11420410429E+03  0.12121220891E+03  0.00000000000E+00 0. -1.
</event>
<event>
 8    1  0.6185113E-009  0.1180495E+03  0.7561462E-02  0.1246350E+00
         -1   -1    0    0    0  501 -0.00000000000E+00  0.00000000000E+00  0.24028149242E+03  0.24028149242E+03  0.00000000000E+00 0.  1.
          1   -1    0    0  501    0  0.00000000000E+00 -0.00000000000E+00 -0.79252624176E+02  0.79252624176E+02  0.00000000000E+00 0. -1.
         25    2    1    2    0    0 -0.83513930120E+02 -0.10404215785E+02  0.70605812695E+02  0.16648083782E+03  0.12509142395E+03 0.  0.
         23    2    1    2    0    0  0.83513930120E+02  0.10404215785E+02  0.90423055553E+02  0.15305327878E+03  0.90366768997E+02 0.  0.
          5    1    3    3  502    0 -0.59965345456E+02 -0.64104872148E+02  0.60852550519E+02  0.10689145239E+03  0.41800000000E+01 0.  1.
         -5    1    3    3    0  502 -0.23548584665E+02  0.53700656363E+02  0.97532621755E+01  0.59589385435E+02  0.41800000000E+01 0.  1.
        -11    1    4    4    0    0  0.15951522970E+02  0.14758204408E+02  0.81997651919E+02  0.84828477545E+02  0.00000000000E+00 0.  1.
         11    1    4    4    0    0  0.67562407151E+02 -0.43539886230E+01  0.84254036346E+01  0.68224801234E+02  0.00000000000E+00 0. -1.
</event>
<event>
 8    1  0.6185113E-009  0.2391029E+03  0.7561462E-02  0.1120392E+00
          2   -1    0    0  501    0  0.00000000000E+00  0.00000000000E+00  0.21011704678E+03  0.21011704678E+03  0.00000000000E+00 0.  1.
         -2   -1    0    0    0  501 -0.00000000000E+00 -0.00000000000E+00 -0.29384444164E+03  0.29384444164E+03  0.00000000000E+00 0. -1.
         25    2    1    2    0    0  0.37568142374E+02  0.21900559944E+03 -0.18896165141E+02  0.25569386334E+03  0.12508984285E+03 0.  0.
         23    2    1    2    0    0 -0.37568142374E+02 -0.21900559944E+03 -0.64831229726E+02  0.24826762508E+03  0.89771417532E+02 0.  0.
          5    1    3    3  502    0  0.76045498693E+02  0.83441021300E+02 -0.19884110090E+02  0.11470907611E+03  0.41800000000E+01 0. -1.
         -5    1    3    3    0  502 -0.38477356319E+02  0.13556457814E+03  0.98794494974E+00  0.14098478724E+03  0.41800000000E+01 0. -1.
        -11    1    4    4    0    0 -0.31325109511E+02 -0.93833214910E+02 -0.72589859465E+02  0.12269972455E+03  0.00000000000E+00 0. -1.
         11    1    4    4    0    0 -0.62430328631E+01 -0.12517238453E+03  0.77586297397E+01  0.12556790054E+03  0.00000000000E+00 0.  1.
</event>
<event>
 8    1  0.6185113E-009  0.2242812E+03  0.7561462E-02  0.1130731E+00
         -1   -1    0    0    0  501 -0.00000000000E+00  0.00000000000E+00  0.15719642096E+03  0.15719642096E+03  0.00000000000E+00 0.  1.
          1   -1    0    0  501    0  0.00000000000E+00 -0.00000000000E+00 -0.34083208790E+03  0.34083208790E+03  0.00000000000E+00 0. -1.
         25    2    1    2    0    0 -0.15176624289E+03 -0.14096963269E+03 -0.12635050211E+03  0.27297796791E+03  0.12508833583E+03 0.  0.
         23    2    1    2    0    0  0.15176624289E+03  0.14096963269E+03 -0.57285164825E+02  0.22505054094E+03  0.66788667068E+02 0.  0.
          5    1    3    3  502    0 -0.10982460583E+01 -0.77430089878E+02 -0.51506772810E+02  0.93096965623E+02  0.41800000000E+01 0. -1.
         -5    1    3    3    0  502 -0.15066799683E+03 -0.63539542807E+02 -0.74843729304E+02  0.17988100229E+03  0.41800000000E+01 0. -1.
        -11    1    4    4    0    0  0.12777977715E+03  0.11282903642E+03 -0.18502171804E+02  0.17146542878E+03  0.00000000000E+00 0.  1.
         11    1    4    4    0    0  0.23986465739E+02  0.28140596268E+02 -0.38782993021E+02  0.53585112155E+02  0.00000000000E+00 0. -1.
</event>
<event>
 8    1  0.6185113E-009  0.1069541E+03  0.7561462E-02  0.1266317E+00
         -2   -1    0    0    0  501 -0.00000000000E+00  0.00000000000E+00  0.26692701897E+02  0.26692701897E+02  0.00000000000E+00 0.  1.
          2   -1    0    0  501    0  0.00000000000E+00 -0.00000000000E+00 -0.63174817735E+03  0.63174817735E+03  0.00000000000E+00 0. -1.
         25    2    1    2    0    0 -0.18900361187E+02  0.20926817237E+02 -0.50240016788E+03  0.51850605892E+03  0.12508976425E+03 0.  0.
         23    2    1    2    0    0  0.18900361187E+02 -0.20926817237E+02 -0.10265530758E+03  0.13993482033E+03  0.90821178333E+02 0.  0.
          5    1    3    3  502    0  0.48964919292E+01 -0.50867774517E+02 -0.16890599904E+03  0.17651689729E+03  0.41800000000E+01 0.  1.
         -5    1    3    3    0  502 -0.23796853116E+02  0.71794591755E+02 -0.33349416884E+03  0.34198916163E+03  0.41800000000E+01 0.  1.
        -11    1    4    4    0    0  0.51166886310E+02 -0.66411590311E+01 -0.87394615891E+02  0.10148878822E+03  0.00000000000E+00 0. -1.
         11    1    4    4    0    0 -0.32266525124E+02 -0.14285658206E+02 -0.15260691685E+02  0.38446032105E+02  0.00000000000E+00 0.  1.
</event>
<event>
 8    1  0.6185113E-009  0.1746775E+03  0.7561462E-02  0.1173056E+00
          2   -1    0    0  501    0  0.00000000000E+00  0.00000000000E+00  0.13845267689E+04  0.13845267689E+04  0.00000000000E+00 0. -1.
         -2   -1    0    0    0  501 -0.00000000000E+00 -0.00000000000E+00 -0.24325815596E+02  0.24325815596E+02  0.00000000000E+00 0.  1.
         25    2    1    2    0    0  0.40641633289E+02 -0.14056651773E+03  0.79551893475E+03  0.81847945428E+03  0.12509018051E+03 0.  0.
         23    2    1    2    0    0 -0.40641633289E+02  0.14056651773E+03  0.56468201851E+03  0.59037313018E+03  0.90906339392E+02 0.  0.
          5    1    3    3  502    0 -0.38911334885E+02 -0.60724239070E+02  0.20683592759E+03  0.21908924788E+03  0.41800000000E+01 0.  1.
         -5    1    3    3    0  502  0.79552968175E+02 -0.79842278663E+02  0.58868300716E+03  0.59939020640E+03  0.41800000000E+01 0.  1.
        -11    1    4    4    0    0  0.85955318340E+01  0.10044258194E+03  0.42712380632E+03  0.43885913612E+03  0.00000000000E+00 0. -1.
         11    1    4    4    0    0 -0.49237165123E+02  0.40123935789E+02  0.13755821219E+03  0.15151399406E+03  0.00000000000E+00 0.  1.
</event>
<event>
 8    1  0.6185113E-009  0.4403941E+02  0.7561462E-02  0.1480429E+00
          1   -1    0    0  501    0  0.00000000000E+00  0.00000000000E+00  0.14840800880E+03  0.14840800880E+03  0.00000000000E+00 0. -1.
         -1   -1    0    0    0  501 -0.00000000000E+00 -0.00000000000E+00 -0.81964004325E+02  0.81964004325E+02  0.00000000000E+00 0.  1.
         25    2    1    2    0    0  0.14596983726E+02 -0.81753957047E+01  0.35944220966E+02  0.13121397201E+03  0.12508081548E+03 0.  0.
         23    2    1    2    0    0 -0.14596983726E+02  0.81753957047E+01  0.30499783512E+02  0.99158041118E+02  0.92855647622E+02 0.  0.
          5    1    3    3  502    0 -0.15401864288E+02 -0.12334791352E+02  0.77241378276E+02  0.79831493905E+02  0.41800000000E+01 0.  1.
         -5    1    3    3    0  502  0.29998848015E+02  0.41593956477E+01 -0.41297157309E+02  0.51382478105E+02  0.41800000000E+01 0.  1.
        -11    1    4    4    0    0 -0.23483244234E+02  0.13389934353E+02 -0.28490819758E+02  0.39274418038E+02  0.00000000000E+00 0.  1.
         11    1    4    4    0    0  0.88862605074E+01 -0.52145386486E+01  0.58990603270E+02  0.59883623080E+02  0.00000000000E+00 0. -1.
</event>
<event>
 8    1  0.6185113E-009  0.1570760E+03  0.7561462E-02  0.1192038E+00
         -1   -1    0    0    0  501 -0.00000000000E+00  0.00000000000E+00  0.59858397935E+02  0.59858397935E+02  0.00000000000E+00 0.  1.
          1   -1    0    0  501    0  0.00000000000E+00 -0.00000000000E+00 -0.52288256104E+03  0.52288256104E+03  0.00000000000E+00 0. -1.
         25    2    1    2    0    0  0.11099681203E+03 -0.72324532789E+02 -0.31381930155E+03  0.36287796332E+03  0.12508689747E+03 0.  0.
         23    2    1    2    0    0 -0.11099681203E+03  0.72324532789E+02 -0.14920486155E+03  0.21986299565E+03  0.92339134823E+02 0.  0.
          5    1    3    3  502    0  0.43996168991E+02  0.16727605353E+02 -0.25397768245E+02  0.53646944913E+02  0.41800000000E+01 0.  1.
         -5    1    3    3    0  502  0.67000643038E+02 -0.89052138142E+02 -0.28842153330E+03  0.30923101841E+03  0.41800000000E+01 0.  1.
        -11    1    4    4    0    0 -0.88816889268E+02  0.10186243255E+02 -0.11464597272E+03  0.14538190545E+03  0.00000000000E+00 0. -1.
         11    1    4    4    0    0 -0.22179922761E+02  0.62138289533E+02 -0.34558888836E+02  0.74481090200E+02  0.00000000000E+00 0.  1.
</event>
<event>
 8    1  0.6185113E-009  0.1010714E+03  0.7561462E-02  0.1278059E+00
          1   -1    0    0  501    0  0.00000000000E+00  0.00000000000E+00  0.43310479975E+03  0.43310479975E+03  0.00000000000E+00 0. -1.
         -1   -1    0    0    0  501 -0.00000000000E+00 -0.00000000000E+00 -0.32722835119E+02  0.32722835119E+02  0.00000000000E+00 0.  1.
         25    2    1    2    0    0 -0.22439962457E+02  0.27826948817E+02  0.15988832196E+03  0.20612887310E+03  0.12508775253E+03 0.  0.
         23    2    1    2    0    0  0.22439962457E+02 -0.27826948817E+02  0.24049364267E+03  0.25969876176E+03  0.91259869064E+02 0.  0.
          5    1    3    3  502    0 -0.45275945965E+02  0.61694914872E+02  0.14195583283E+03  0.16132298249E+03  0.41800000000E+01 0. -1.
         -5    1    3    3    0  502  0.22835983508E+02 -0.33867966055E+02  0.17932489128E+02  0.44805890615E+02  0.41800000000E+01 0. -1.
        -11    1    4    4    0    0  0.50719197827E+02 -0.23253114585E+02  0.21228396438E+03  0.21949402247E+03  0.00000000000E+00 0.  1.
         11    1    4    4    0    0 -0.28279235370E+02 -0.45738342322E+01  0.28209678290E+02  0.40204739297E+02  0.00000000000E+00 0. -1.
</event>
<event>
 8    1  0.6185113E-009  0.9165837E+02  0.7561462E-02  0.1298885E+00
          1   -1    0    0  501    0  0.00000000000E+00  0.00000000000E+00  0.17424565586E+04  0.17424565586E+04  0.00000000000E+00 0. -1.
         -1   -1    0    0    0  501 -0.00000000000E+00 -0.00000000000E+00 -0.13574516035E+02  0.13574516035E+02  0.00000000000E+00 0.  1.
         25    2    1    2    0    0  0.65691850211E+02 -0.46477870982E+02  0.13502164867E+04  0.13583842856E+04  0.12509074536E+03 0.  0.
         23    2    1    2    0    0 -0.65691850211E+02  0.46477870982E+02  0.37866555584E+03  0.39764678907E+03  0.90883188775E+02 0.  0.
          5    1    3    3  502    0  0.85914264897E+01 -0.13620205175E+02  0.17916185988E+02  0.24449636368E+02  0.41800000000E+01 0. -1.
         -5    1    3    3    0  502  0.57100423721E+02 -0.32857665807E+02  0.13323003007E+04  0.13339346492E+04  0.41800000000E+01 0. -1.
        -11    1    4    4    0    0 -0.55856503348E+02  0.61266786427E+02  0.36734593270E+03  0.37658545160E+03  0.00000000000E+00 0. -1.
         11    1    4    4    0    0 -0.98353468625E+01 -0.14788915445E+02  0.11319623140E+02  0.21061337469E+02  0.00000000000E+00 0.  1.
</event>
<event>
 8    1  0.6185113E-009  0.1774373E+03  0.7561462E-02  0.1170307E+00
          2   -1    0    0  501    0  0.00000000000E+00  0.00000000000E+00  0.13262341306E+04  0.13262341306E+04  0.00000000000E+00 0. -1.
         -2   -1    0    0    0  501 -0.00000000000E+00 -0.00000000000E+00 -0.29717950941E+02  0.29717950941E+02  0.00000000000E+00 0.  1.
         25    2    1    2    0    0  0.69165845835E+01  0.16496603775E+03  0.73001910969E+03  0.75884140361E+03  0.12510292791E+03 0.  0.
         23    2    1    2    0    0 -0.69165845835E+01 -0.16496603775E+03  0.56649706994E+03  0.59711067790E+03  0.91436309285E+02 0.  0.
          5    1    3    3  502    0 -0.27891549083E+02  0.10019634716E+02  0.35731410243E+02  0.46610488820E+02  0.41800000000E+01 0. -1.
         -5    1    3    3    0  502  0.34808133666E+02  0.15494640304E+03  0.69428769944E+03  0.71223091479E+03  0.41800000000E+01 0. -1.
        -11    1    4    4    0    0 -0.11076849455E+02 -0.58810523334E+02  0.84504234586E+02  0.10354873206E+03  0.00000000000E+00 0.  1.
         11    1    4    4    0    0  0.41602648715E+01 -0.10615551442E+03  0.48199283535E+03  0.49356194584E+03  0.00000000000E+00 0. -1.
</event>
<event>
 8    1  0.6185113E-009  0.1386096E+03  0.7561462E-02  0.1215212E+00
         -2   -1    0    0    0  501 -0.00000000000E+00  0.00000000000E+00  0.23851165459E+02  0.23851165459E+02  0.00000000000E+00 0.  1.
          2   -1    0    0  501    0  0.00000000000E+00 -0.00000000000E+00 -0.98556769303E+03  0.98556769303E+03  0.00000000000E+00 0. -1.
         25    2    1    2    0    0  0.26400993877E+00  0.92454844592E+02 -0.70395459446E+03  0.72093345056E+03  0.12507997876E+03 0.  0.
         23    2    1    2    0    0 -0.26400993877E+00 -0.92454844592E+02 -0.25776193311E+03  0.28848540792E+03  0.90744963694E+02 0.  0.
          5    1    3    3  502    0 -0.55099302841E+02  0.81296797941E+02 -0.47666157938E+03  0.48669172603E+03  0.41800000000E+01 0. -1.
         -5    1    3    3    0  502  0.55363312780E+02  0.11158046651E+02 -0.22729301508E+03  0.23424172453E+03  0.41800000000E+01 0. -1.
        -11    1    4    4    0    0  0.32981505687E+02 -0.11760800891E+02 -0.12336145033E+03  0.12823472066E+03  0.00000000000E+00 0. -1.
         11    1    4    4    0    0 -0.33245515626E+02 -0.80694043701E+02 -0.13440048278E+03  0.16025068727E+03  0.00000000000E+00 0.  1.
</event>
<event>
 8    1  0.6185113E-009  0.1489610E+03  0.7561462E-02  0.1201756E+00
          2   -1    0    0  501    0  0.00000000000E+00  0.00000000000E+00  0.12715543726E+04  0.12715543726E+04  0.00000000000E+00 0.  1.
         -2   -1    0    0    0  501 -0.00000000000E+00 -0.00000000000E+00 -0.32141875133E+02  0.32141875133E+02  0.00000000000E+00 0. -1.
         25    2    1    2    0    0 -0.10139649264E+03 -0.10376523366E+03  0.92405737684E+03  0.94370384692E+03  0.12508574089E+03 0.  0.
         23    2    1    2    0    0  0.10139649264E+03  0.10376523366E+03  0.31535512063E+03  0.35999240081E+03  0.95379264514E+02 0.  0.
          5    1    3    3  502    0 -0.99779616104E+02 -0.87293457053E+02  0.91464028434E+03  0.92420800774E+03  0.41800000000E+01 0.  1.
         -5    1    3    3    0  502 -0.16168765320E+01 -0.16471776606E+02  0.94170924963E+01  0.19495839181E+02  0.41800000000E+01 0.  1.
        -11    1    4    4    0    0  0.66102428203E+02  0.86651344246E+02  0.12590111967E+03  0.16652050447E+03  0.00000000000E+00 0. -1.
         11    1    4    4    0    0  0.35294064433E+02  0.17113889413E+02  0.18945400096E+03  0.19347189635E+03  0.00000000000E+00 0.  1.
</event>
<event>
 8    1  0.6185113E-009  0.1462441E+03  0.7561462E-02  0.1205166E+00
         -2   -1    0    0    0  501 -0.00000000000E+00  0.00000000000E+00  0.26342869907E+03  0.26342869907E+03  0.00000000000E+00 0. -1.
          2   -1    0    0  501    0  0.00000000000E+00 -0.00000000000E+00 -0.17969205234E+03  0.17969205234E+03  0.00000000000E+00 0.  1.
         25    2    1    2    0    0 -0.10411366586E+03  0.42430547264E+02  0.19733444802E+03  0.25928480097E+03  0.12509083452E+03 0.  0.
         23    2    1    2    0    0  0.10411366586E+03 -0.42430547264E+02 -0.11359780129E+03  0.18383595044E+03  0.90836058121E+02 0.  0.
          5    1    3    3  502    0 -0.10027636265E+03 -0.14583242915E+02  0.16449279052E+03  0.19324432828E+03  0.41800000000E+01 0. -1.
         -5    1    3    3    0  502 -0.38373032157E+01  0.57013790179E+02  0.32841657500E+02  0.66040472696E+02  0.41800000000E+01 0. -1.
        -11    1    4    4    0    0  0.73228568119E+02 -0.63056524731E+02 -0.11015795722E+03  0.14653779048E+03  0.00000000000E+00 0.  1.
         11    1    4    4    0    0  0.30885097744E+02  0.20625977468E+02 -0.34398440736E+01  0.37298159960E+02  0.00000000000E+00 0. -1.
</event>
<event>
 8    1  0.6185113E-009  0.6909605E+02  0.7561462E-02  0.1363194E+00
         -1   -1    0    0    0  501 -0.00000000000E+00  0.00000000000E+00  0.74537885390E+02  0.74537885390E+02  0.00000000000E+00 0.  1.
          1   -1    0    0  501    0  0.00000000000E+00 -0.00000000000E+00 -0.19807234703E+03  0.19807234703E+03  0.00000000000E+00 0. -1.
         25    2    1    2    0    0  0.79628307954E+01 -0.46855724612E+02 -0.10421394148E+03  0.16960412362E+03  0.12508456159E+03 0.  0.
         23    2    1    2    0    0 -0.79628307954E+01  0.46855724612E+02 -0.19320520158E+02  0.10300610880E+03  0.89320268400E+02 0.  0.
          5    1    3    3  502    0  0.24879903998E+02 -0.23744557618E+02 -0.12770848031E+03  0.13232438167E+03  0.41800000000E+01 0.  1.
         -5    1    3    3    0  502 -0.16917073203E+02 -0.23111166994E+02  0.23494538831E+02  0.37279741958E+02  0.41800000000E+01 0.  1.
        -11    1    4    4    0    0  0.19326311249E+02  0.42868472502E+02 -0.45172116139E+02  0.65205308968E+02  0.00000000000E+00 0. -1.
         11    1    4    4    0    0 -0.27289142045E+02  0.39872521100E+01  0.25851595980E+02  0.37800799828E+02  0.00000000000E+00 0.  1.
</event>
<event>
 8    1  0.6185113E-009  0.5705676E+03  0.7561462E-02  0.9968423E-01
          1   -1    0    0  501    0  0.00000000000E+00  0.00000000000E+00  0.71656530391E+03  0.71656530391E+03  0.00000000000E+00 0. -1.
         -1   -1    0    0    0  501 -0.00000000000E+00 -0.00000000000E+00 -0.46640921429E+03  0.46640921429E+03  0.00000000000E+00 0.  1.
         25    2    1    2    0    0 -0.47756209914E+03 -0.29999942667E+03  0.59427480614E+02  0.58072720440E+03  0.12508895207E+03 0.  0.
         23    2    1    2    0    0  0.47756209914E+03  0.29999942667E+03  0.19072860900E+03  0.60224731380E+03  0.90880196686E+02 0.  0.
          5    1    3    3  502    0 -0.53383767174E+02  0.91078983344E+00  0.26089303836E+02  0.59571640152E+02  0.41800000000E+01 0.  1.
         -5    1    3    3    0  502 -0.42417833197E+03 -0.30091021651E+03  0.33338176779E+02  0.52115556424E+03  0.41800000000E+01 0.  1.
        -11    1    4    4    0    0  0.76905984554E+02  0.77580458195E+02  0.10191260183E+02  0.10971380833E+03  0.00000000000E+00 0.  1.
         11    1    4    4    0    0  0.40065611459E+03  0.22241896848E+03  0.18053734882E+03  0.49253350547E+03  0.00000000000E+00 0. -1.
</event>
<event>
 8    1  0.6185113E-009  0.1289328E+03  0.7561462E-02  0.1229048E+00
          1   -1    0    0  501    0  0.00000000000E+00  0.00000000000E+00  0.61787550313E+03  0.61787550313E+03  0.00000000000E+00 0. -1.
         -1   -1    0    0    0  501 -0.00000000000E+00 -0.00000000000E+00 -0.33644476442E+02  0.33644476442E+02  0.00000000000E+00 0.  1.
         25    2    1    2    0    0 -0.88434952581E+02 -0.23927006423E+02  0.37652875219E+03  0.40720369670E+03  0.12509079464E+03 0.  0.
         23    2    1    2    0    0  0.88434952581E+02  0.23927006423E+02  0.20770227449E+03  0.24431628286E+03  0.90315938629E+02 0.  0.
          5    1    3    3  502    0 -0.38758885773E+02 -0.59043993036E+02  0.30551998731E+03  0.31360545178E+03  0.41800000000E+01 0. -1.
         -5    1    3    3    0  502 -0.49676066808E+02  0.35116986613E+02  0.71008764886E+02  0.93598244925E+02  0.41800000000E+01 0. -1.
        -11    1    4    4    0    0  0.24349209797E+02 -0.32594206767E+02  0.90946681263E+02  0.99632149256E+02  0.00000000000E+00 0.  1.
         11    1    4    4    0    0  0.64085742784E+02  0.56521213190E+02  0.11675559323E+03  0.14468413361E+03  0.00000000000E+00 0. -1.
</event>
<event>
 8    1  0.6185113E-009  0.1070190E+03  0.7561462E-02  0.1266192E+00
         -2   -1    0    0    0  501 -0.00000000000E+00  0.00000000000E+00  0.10289773112E+02  0.10289773112E+02  0.00000000000E+00 0. -1.
          2   -1    0    0  501    0  0.00000000000E+00 -0.00000000000E+00 -0.12347741326E+04  0.12347741326E+04  0.00000000000E+00 0.  1.
         25    2    1    2    0    0 -0.10731862933E+02 -0.24465398808E+02 -0.64861092105E+03  0.66110291264E+03  0.12508879079E+03 0.  0.
         23    2    1    2    0    0  0.10731862933E+02  0.24465398808E+02 -0.57587343847E+03  0.58396099310E+03  0.93094015402E+02 0.  0.
          5    1    3    3  502    0  0.51105914886E+02 -0.21786763189E+01 -0.42215211083E+03  0.42526043578E+03  0.41800000000E+01 0.  1.
         -5    1    3    3    0  502 -0.61837777819E+02 -0.22286722489E+02 -0.22645881022E+03  0.23584247686E+03  0.41800000000E+01 0.  1.
        -11    1    4    4    0    0  0.71802878182E+01  0.60357827533E+02 -0.36225135069E+03  0.36731548423E+03  0.00000000000E+00 0. -1.
         11    1    4    4    0    0  0.35515751151E+01 -0.35892428725E+02 -0.21362208778E+03  0.21664550887E+03  0.00000000000E+00 0.  1.
</event>
<event>
 8    1  0.6185113E-009  0.1217171E+03  0.7561462E-02  0.1240291E+00
          2   -1    0    0  501    0  0.00000000000E+00  0.00000000000E+00  0.14935626226E+03  0.14935626226E+03  0.00000000000E+00 0. -1.
         -2   -1    0    0    0  501 -0.00000000000E+00 -0.00000000000E+00 -0.23689576292E+03  0.23689576292E+03  0.00000000000E+00 0.  1.
         25    2    1    2    0    0  0.19070651857E+02  0.76986994235E+02 -0.18072904694E+03  0.23366895089E+03  0.12508998026E+03 0.  0.
         23    2    1    2    0    0 -0.19070651857E+02 -0.76986994235E+02  0.93189546279E+02  0.15258307429E+03  0.91140638467E+02 0.  0.
          5    1    3    3  502    0  0.44609587697E+02 -0.16012447191E+02 -0.35845388959E+02  0.59571621508E+02  0.41800000000E+01 0. -1.
         -5    1    3    3    0  502 -0.25538935840E+02  0.92999441427E+02 -0.14488365798E+03  0.17409732939E+03  0.41800000000E+01 0. -1.
        -11    1    4    4    0    0 -0.40583147553E+02 -0.43250790105E+02  0.95595373574E+02  0.11249932515E+03  0.00000000000E+00 0. -1.
         11    1    4    4    0    0  0.21512495696E+02 -0.33736204130E+02 -0.24058272953E+01  0.40083749141E+02  0.00000000000E+00 0.  1.
</event>
<event>
 8    1  0.6185113E-009  0.1006847E+03  0.7561462E-02  0.1278863E+00
         -2   -1    0    0    0  501 -0.00000000000E+00  0.00000000000E+00  0.18812215719E+02  0.18812215719E+02  0.00000000000E+00 0.  1.
          2   -1    0    0  501    0  0.00000000000E+00 -0.00000000000E+00 -0.91147481389E+03  0.91147481389E+03  0.00000000000E+00 0. -1.
         25    2    1    2    0    0 -0.72045126355E+02 -0.75303045010E+01 -0.51526503239E+03  0.53515686717E+03  0.12509041993E+03 0.  0.
         23    2    1    2    0    0  0.72045126355E+02  0.75303045010E+01 -0.37739756578E+03  0.39513016244E+03  0.91933219754E+02 0.  0.
          5    1    3    3  502    0 -0.56774626594E+02 -0.26433238766E+02 -0.50426668161E+03  0.50815788188E+03  0.41800000000E+01 0. -1.
         -5    1    3    3    0  502 -0.15270499761E+02  0.18902934265E+02 -0.10998350781E+02  0.26998985290E+02  0.41800000000E+01 0. -1.
        -11    1    4    4    0    0 -0.20062309960E+02 -0.57888690168E+01 -0.39865677404E+02  0.45003105674E+02  0.00000000000E+00 0.  1.
         11    1    4    4    0    0  0.92107436315E+02  0.13319173518E+02 -0.33753188837E+03  0.35012705676E+03  0.00000000000E+00 0. -1.
</event>
<event>
 8    1  0.6185113E-009  0.3897771E+03  0.7561462E-02  0.1047378E+00
          1   -1    0    0  501    0  0.00000000000E+00  0.00000000000E+00  0.10761835026E+04  0.10761835026E+04  0.00000000000E+00 0. -1.
         -1   -1    0    0    0  501 -0.00000000000E+00 -0.00000000000E+00 -0.15064939139E+03  0.15064939139E+03  0.00000000000E+00 0.  1.
         25    2    1    2    0    0  0.18023950568E+03  0.33021482105E+03  0.60570063726E+03  0.72391257173E+03  0.12509213436E+03 0.  0.
         23    2    1    2    0    0 -0.18023950568E+03 -0.33021482105E+03  0.31983347391E+03  0.50292032222E+03  0.95432133089E+02 0.  0.
          5    1    3    3  502    0  0.12325515649E+03  0.30499064577E+03  0.54636008951E+03  0.63776010178E+03  0.41800000000E+01 0.  1.
         -5    1    3    3    0  502  0.56984349191E+02  0.25224175271E+02  0.59340547756E+02  0.86152469952E+02  0.41800000000E+01 0.  1.
        -11    1    4    4    0    0 -0.17046744692E+03 -0.22417680108E+03  0.23285500596E+03  0.36542556342E+03  0.00000000000E+00 0. -1.
         11    1    4    4    0    0 -0.97720587601E+01 -0.10603801997E+03  0.86978467946E+02  0.13749475880E+03  0.00000000000E+00 0.  1.
</event>
<event>
 8    1  0.6185113E-009  0.9414164E+02  0.7561462E-02  0.1293121E+00
          1   -1    0    0  501    0  0.00000000000E+00  0.00000000000E+00  0.90148886531E+03  0.90148886531E+03  0.00000000000E+00 0. -1.
         -1   -1    0    0    0  501 -0.00000000000E+00 -0.00000000000E+00 -0.14455804342E+02  0.14455804342E+02  0.00000000000E+00 0.  1.
         25    2    1    2    0    0 -0.25308578646E+02 -0.22693968295E+01  0.60602332442E+03  0.61931985986E+03  0.12508854771E+03 0.  0.
         23    2    1    2    0    0  0.25308578646E+02  0.22693968295E+01  0.28100973655E+03  0.29662480979E+03  0.91510280461E+02 0.  0.
          5    1    3    3  502    0  0.41097197385E+02 -0.12421102265E+02  0.10092815374E+03  0.10975986530E+03  0.41800000000E+01 0. -1.
         -5    1    3    3    0  502 -0.66405776030E+02  0.10151705436E+02  0.50509517068E+03  0.50955999456E+03  0.41800000000E+01 0. -1.
        -11    1    4    4    0    0  0.43871440195E+02 -0.20531568844E+02  0.24683568109E+03  0.25154343968E+03  0.00000000000E+00 0. -1.
         11    1    4    4    0    0 -0.18562861549E+02  0.22800965674E+02  0.34174055457E+02  0.45081370109E+02  0.00000000000E+00 0.  1.
</event>
<event>
 8    1  0.6185113E-009  0.2009124E+03  0.7561462E-02  0.1148972E+00
          2   -1    0    0  501    0  0.00000000000E+00  0.00000000000E+00  0.25773058357E+04  0.25773058357E+04  0.00000000000E+00 0.  1.
         -2   -1    0    0    0  501 -0.00000000000E+00 -0.00000000000E+00 -0.19594718517E+02  0.19594718517E+02  0.00000000000E+00 0. -1.
         25    2    1    2    0    0  0.99345810149E+01  0.16422917104E+03  0.18749210878E+04  0.18862783478E+04  0.12508798256E+03 0.  0.
         23    2    1    2    0    0 -0.99345810149E+01 -0.16422917104E+03  0.68279002944E+03  0.71062220648E+03  0.10822097538E+03 0.  0.
          5    1    3    3  502    0 -0.52595560802E+02  0.11573912479E+03  0.11101651372E+04  0.11174282716E+04  0.41800000000E+01 0. -1.
         -5    1    3    3    0  502  0.62530141817E+02  0.48490046254E+02  0.76475595058E+03  0.76885007613E+03  0.41800000000E+01 0. -1.
        -11    1    4    4    0    0 -0.29431281306E+02  0.57281027456E+00  0.13858041067E+03  0.14167236376E+03  0.00000000000E+00 0.  1.
         11    1    4    4    0    0  0.19496700291E+02 -0.16480198131E+03  0.54420961877E+03  0.56894984272E+03  0.00000000000E+00 0. -1.
</event>
<event>
 8    1  0.6185113E-009  0.1310083E+03  0.7561462E-02  0.1225967E+00
          2   -1    0    0  501    0  0.00000000000E+00  0.00000000000E+00  0.10012139228E+04  0.10012139228E+04  0.00000000000E+00 0. -1.
         -2   -1    0    0    0  501 -0.00000000000E+00 -0.00000000000E+00 -0.19691646390E+02  0.19691646390E+02  0.00000000000E+00 0.  1.
         25    2    1    2    0    0 -0.63884953241E+02  0.34922031155E+02  0.69345296495E+03  0.70839687453E+03  0.12509309228E+03 0.  0.
         23    2    1    2    0    0  0.63884953241E+02 -0.34922031155E+02  0.28806931150E+03  0.31250869470E+03  0.96834500689E+02 0.  0.
          5    1    3    3  502    0 -0.52282383428E+02 -0.41446771077E+02  0.35188065907E+03  0.35817419377E+03  0.41800000000E+01 0. -1.
         -5    1    3    3    0  502 -0.11602569813E+02  0.76368802232E+02  0.34157230588E+03  0.35022268077E+03  0.41800000000E+01 0. -1.
        -11    1    4    4    0    0  0.67067930700E+02 -0.61527219079E+02  0.18737241966E+03  0.20830777630E+03  0.00000000000E+00 0.  1.
         11    1    4    4    0    0 -0.31829774587E+01  0.26605187923E+02  0.10069689184E+03  0.10420091840E+03  0.00000000000E+00 0. -1.
</event>
<event>
 8    1  0.6185113E-009  0.1391854E+03  0.7561462E-02  0.1214429E+00
          2   -1    0    0  501    0  0.00000000000E+00  0.00000000000E+00  0.13766363920E+03  0.13766363920E+03  0.00000000000E+00 0.  1.
         -2   -1    0    0    0  501 -0.00000000000E+00 -0.00000000000E+00 -0.17013804863E+03  0.17013804863E+03  0.00000000000E+00 0. -1.
         25    2    1    2    0    0  0.85914500698E+02  0.65567973900E+02 -0.17914774364E+02  0.16628766486E+03  0.12510071028E+03 0.  0.
         23    2    1    2    0    0 -0.85914500698E+02 -0.65567973900E+02 -0.14559635072E+02  0.14151402297E+03  0.90187444201E+02 0.  0.
          5    1    3    3  502    0  0.75112169523E+02 -0.13427362961E+02  0.18362234910E+02  0.78592468834E+02  0.41800000000E+01 0. -1.
         -5    1    3    3    0  502  0.10802331175E+02  0.78995336861E+02 -0.36277009274E+02  0.87695196028E+02  0.41800000000E+01 0. -1.
        -11    1    4    4    0    0 -0.69434588056E+02 -0.17939634538E+02  0.26553748156E+02  0.76472832085E+02  0.00000000000E+00 0.  1.
         11    1    4    4    0    0 -0.16479912642E+02 -0.47628339362E+02 -0.41113383228E+02  0.65041190883E+02  0.00000000000E+00 0. -1.
</event>
<event>
 8    1  0.6185113E-009  0.1384118E+03  0.7561462E-02  0.1215482E+00
          1   -1    0    0  501    0  0.00000000000E+00  0.00000000000E+00  0.91814110538E+02  0.91814110538E+02  0.00000000000E+00 0. -1.
         -1   -1    0    0    0  501 -0.00000000000E+00 -0.00000000000E+00 -0.21784598029E+03  0.21784598029E+03  0.00000000000E+00 0.  1.
         25    2    1    2    0    0 -0.48884467855E+02 -0.72654372424E+02 -0.45257144964E+02  0.15925919386E+03  0.12508769975E+03 0.  0.
         23    2    1    2    0    0  0.48884467855E+02  0.72654372424E+02 -0.80774724789E+02  0.15040089697E+03  0.91801550172E+02 0.  0.
          5    1    3    3  502    0  0.26997198508E+02  0.18413292848E+02 -0.18054588365E+02  0.37567787289E+02  0.41800000000E+01 0.  1.
         -5    1    3    3    0  502 -0.75881666363E+02 -0.91067665272E+02 -0.27202556599E+02  0.12169140657E+03  0.41800000000E+01 0.  1.
        -11    1    4    4    0    0  0.74214571686E+02  0.41209122516E+02 -0.65536332576E+02  0.10724274016E+03  0.00000000000E+00 0.  1.
         11    1    4    4    0    0 -0.25330103831E+02  0.31445249909E+02 -0.15238392213E+02  0.43158156809E+02  0.00000000000E+00 0. -1.
</event>
<event>
 8    1  0.6185113E-009  0.2916427E+03  0.7561462E-02  0.1089495E+00
          2   -1    0    0  501    0  0.00000000000E+00  0.00000000000E+00  0.22394058159E+04  0.22394058159E+04  0.00000000000E+00 0. -1.
         -2   -1    0    0    0  501 -0.00000000000E+00 -0.00000000000E+00 -0.39768260935E+02  0.39768260935E+02  0.00000000000E+00 0.  1.
         25    2    1    2    0    0  0.24418219143E+03 -0.13330561850E+03  0.11159457443E+04  0.11568829852E+04  0.12509199327E+03 0.  0.
         23    2    1    2    0    0 -0.24418219143E+03  0.13330561850E+03  0.10836918107E+04  0.11222910916E+04  0.88056931819E+02 0.  0.
          5    1    3    3  502    0  0.53150027275E+02 -0.95870201078E+02  0.43824758569E+03  0.45176812595E+03  0.41800000000E+01 0. -1.
         -5    1    3    3    0  502  0.19103216415E+03 -0.37435417426E+02  0.67769815861E+03  0.70511485930E+03  0.41800000000E+01 0. -1.
        -11    1    4    4    0    0 -0.17028082260E+03  0.82629058787E+02  0.87394167147E+03  0.89420197105E+03  0.00000000000E+00 0.  1.
         11    1    4    4    0    0 -0.73901368829E+02  0.50676559717E+02  0.20975013922E+03  0.22808912057E+03  0.00000000000E+00 0. -1.
</event>
<event>
 8    1  0.6185113E-009  0.1345278E+03  0.7561462E-02  0.1220888E+00
          2   -1    0    0  501    0  0.00000000000E+00  0.00000000000E+00  0.17251117566E+02  0.17251117566E+02  0.00000000000E+00 0. -1.
         -2   -1    0    0    0  501 -0.00000000000E+00 -0.00000000000E+00 -0.19547679334E+04  0.19547679334E+04  0.00000000000E+00 0.  1.
         25    2    1    2    0    0 -0.60262784719E+02 -0.74475360640E+02 -0.16217748551E+04  0.16294103510E+04  0.12508488575E+03 0.  0.
         23    2    1    2    0    0  0.60262784719E+02  0.74475360640E+02 -0.31574196070E+03  0.34260869996E+03  0.92247238332E+02 0.  0.
          5    1    3    3  502    0 -0.92565459991E+02 -0.59269986367E+02 -0.89287353610E+03  0.89962320976E+03  0.41800000000E+01 0.  1.
         -5    1    3    3    0  502  0.32302675272E+02 -0.15205374274E+02 -0.72890131900E+03  0.72978714121E+03  0.41800000000E+01 0.  1.
        -11    1    4    4    0    0  0.67051431767E+02  0.86416613213E+02 -0.30799111318E+03  0.32683673499E+03  0.00000000000E+00 0.  1.
         11    1    4    4    0    0 -0.67886470477E+01 -0.11941252573E+02 -0.77508475121E+01  0.15771964966E+02  0.00000000000E+00 0. -1.
</event>
<event>
 8    1  0.6185113E-009  0.1702844E+03  0.7561462E-02  0.1177552E+00
          1   -1    0    0  501    0  0.00000000000E+00  0.00000000000E+00  0.12937240807E+03  0.12937240807E+03  0.00000000000E+00 0.  1.
         -1   -1    0    0    0  501 -0.00000000000E+00 -0.00000000000E+00 -0.39830535372E+03  0.39830535372E+03  0.00000000000E+00 0. -1.
         25    2    1    2    0    0  0.14816010069E+03  0.35993953625E+01 -0.29417737797E+03  0.35235220611E+03  0.12508947342E+03 0.  0.
         23    2    1    2    0    0 -0.14816010069E+03 -0.35993953625E+01  0.25244432319E+02  0.17532555567E+03  0.90207527533E+02 0.  0.
          5    1    3    3  502    0  0.16836912819E+03  0.13121035453E+02 -0.23897998264E+03  0.29265889599E+03  0.41800000000E+01 0.  1.
         -5    1    3    3    0  502 -0.20209027499E+02 -0.95216400902E+01 -0.55197395330E+02  0.59693310125E+02  0.41800000000E+01 0.  1.
        -11    1    4    4    0    0 -0.12427390109E+03  0.23418055550E+01  0.55667457771E+02  0.13619233606E+03  0.00000000000E+00 0.  1.
         11    1    4    4    0    0 -0.23886199604E+02 -0.59412009175E+01 -0.30423025452E+02  0.39133219616E+02  0.00000000000E+00 0. -1.
</event>
<event>
 8    1  0.6185113E-009  0.9113165E+02  0.7561462E-02  0.1300134E+00
         -2   -1    0    0    0  501 -0.00000000000E+00  0.00000000000E+00  0.13540506505E+03  0.13540506505E+03  0.00000000000E+00 0.  1.
          2   -1    0    0  501    0  0.00000000000E+00 -0.00000000000E+00 -0.11259168593E+03  0.11259168593E+03  0.00000000000E+00 0. -1.
         25    2    1    2    0    0 -0.70155986141E+02  0.19476133308E+02  0.27681789456E+02  0.14732044099E+03  0.12504338730E+03 0.  0.
         23    2    1    2    0    0  0.70155986141E+02 -0.19476133308E+02 -0.48684103360E+01  0.10067630999E+03  0.69360188973E+02 0.  0.
          5    1    3    3  502    0 -0.32725746873E+02 -0.23319512618E+02  0.66880365952E+02  0.78135970763E+02  0.41800000000E+01 0. -1.
         -5    1    3    3    0  502 -0.37430239267E+02  0.42795645926E+02 -0.39198576495E+02  0.69184470231E+02  0.41800000000E+01 0. -1.
        -11    1    4    4    0    0  0.40983541842E+01  0.11269478961E+02  0.20310428919E+02  0.23586249934E+02  0.00000000000E+00 0.  1.
         11    1    4    4    0    0  0.66057631956E+02 -0.30745612269E+02 -0.25178839255E+02  0.77090060058E+02  0.00000000000E+00 0. -1.
</event>
<event>
 8    1  0.6185113E-009  0.1395458E+03  0.7561462E-02  0.1213941E+00
          4   -1    0    0  501    0  0.00000000000E+00  0.00000000000E+00  0.58248548281E+03  0.58248548281E+03  0.00000000000E+00 0. -1.
         -4   -1    0    0    0  501 -0.00000000000E+00 -0.00000000000E+00 -0.51502773305E+02  0.51502773305E+02  0.00000000000E+00 0.  1.
         25    2    1    2    0    0  0.88708460595E+02 -0.49808050208E+02  0.11983831235E+03  0.20089605918E+03  0.12509185682E+03 0.  0.
         23    2    1    2    0    0 -0.88708460595E+02  0.49808050208E+02  0.41114439716E+03  0.43309219693E+03  0.90438392748E+02 0.  0.
          5    1    3    3  502    0  0.41438460280E+01  0.33943234517E+02  0.38663881613E+01  0.34666063907E+02  0.41800000000E+01 0.  1.
         -5    1    3    3    0  502  0.84564614567E+02 -0.83751284725E+02  0.11597192419E+03  0.16622999528E+03  0.41800000000E+01 0.  1.
        -11    1    4    4    0    0 -0.13955296257E+02  0.48835452387E+02  0.25454958788E+03  0.25956722519E+03  0.00000000000E+00 0. -1.
         11    1    4    4    0    0 -0.74753164338E+02  0.97259782160E+00  0.15659480927E+03  0.17352497174E+03  0.00000000000E+00 0.  1.
</event>
<event>
 8    1  0.6185113E-009  0.1101070E+03  0.7561462E-02  0.1260372E+00
         -3   -1    0    0    0  501 -0.00000000000E+00  0.00000000000E+00  0.38867855205E+03  0.38867855205E+03  0.00000000000E+00 0.  1.
          3   -1    0    0  501    0  0.00000000000E+00 -0.00000000000E+00 -0.39558582525E+02  0.39558582525E+02  0.00000000000E+00 0. -1.
         25    2    1    2    0    0 -0.13717628995E+02  0.46999288133E+02  0.25329571810E+03  0.28671146339E+03  0.12509051123E+03 0.  0.
         23    2    1    2    0    0  0.13717628995E+02 -0.46999288133E+02  0.95824251422E+02  0.14152567118E+03  0.91924545218E+02 0.  0.
          5    1    3    3  502    0 -0.45701186660E+02 -0.27240749986E+02  0.98329617151E+02  0.11187869740E+03  0.41800000000E+01 0. -1.
         -5    1    3    3    0  502  0.31983557665E+02  0.74240038118E+02  0.15496610095E+03  0.17483276599E+03  0.41800000000E+01 0. -1.
        -11    1    4    4    0    0 -0.27165710197E+02 -0.32876250227E+02  0.76704285573E+01  0.43331964112E+02  0.00000000000E+00 0. -1.
         11    1    4    4    0    0  0.40883339192E+02 -0.14123037906E+02  0.88153822864E+02  0.98193707073E+02  0.00000000000E+00 0.  1.
</event>
<event>
 8    1  0.6185113E-009  0.6687872E+02  0.7561462E-02  0.1371041E+00
          1   -1    0    0  501    0  0.00000000000E+00  0.00000000000E+00  0.48273167948E+03  0.48273167948E+03  0.00000000000E+00 0. -1.
         -1   -1    0    0    0  501 -0.00000000000E+00 -0.00000000000E+00 -0.27263937896E+02  0.27263937896E+02  0.00000000000E+00 0.  1.
         25    2    1    2    0    0 -0.26799371236E+01 -0.56166928910E+01  0.34169464211E+03  0.36392590722E+03  0.12509239864E+03 0.  0.
         23    2    1    2    0    0  0.26799371236E+01  0.56166928910E+01  0.11377309947E+03  0.14606971015E+03  0.91396459224E+02 0.  0.
          5    1    3    3  502    0 -0.22969052357E+02 -0.29546680048E+02  0.23991944070E+02  0.44650525734E+02  0.41800000000E+01 0. -1.
         -5    1    3    3    0  502  0.20289115234E+02  0.23929987157E+02  0.31770269804E+03  0.31927538149E+03  0.41800000000E+01 0. -1.
        -11    1    4    4    0    0 -0.26219613069E+02 -0.13803543327E+02  0.28007280442E+01  0.29763232275E+02  0.00000000000E+00 0.  1.
         11    1    4    4    0    0  0.28899550193E+02  0.19420236218E+02  0.11097237143E+03  0.11630647788E+03  0.00000000000E+00 0. -1.
</event>
<event>
 8    1  0.6185113E-009  0.1054349E+03  0.7561462E-02  0.1269265E+00
         -4   -1    0    0    0  501 -0.00000000000E+00  0.00000000000E+00  0.77639479573E+02  0.77639479573E+02  0.00000000000E+00 0.  1.
          4   -1    0    0  501    0  0.00000000000E+00 -0.00000000000E+00 -0.23546725658E+03  0.23546725658E+03  0.00000000000E+00 0. -1.
         25    2    1    2    0    0 -0.42713375802E+02 -0.37604639665E+02 -0.20266312305E+02  0.13891200371E+03  0.12508908811E+03 0.  0.
         23    2    1    2    0    0  0.42713375802E+02  0.37604639665E+02 -0.13756146470E+03  0.17419473244E+03  0.90454998990E+02 0.  0.
          5    1    3    3  502    0  0.33409166657E+02  0.15784044690E+02 -0.26452017381E+02  0.45634308442E+02  0.41800000000E+01 0.  1.
         -5    1    3    3    0  502 -0.76122542459E+02 -0.53388684355E+02  0.61857050763E+01  0.93277695270E+02  0.41800000000E+01 0.  1.
        -11    1    4    4    0    0  0.10719882361E+02  0.46245635430E+02 -0.19074662960E+02  0.51160702118E+02  0.00000000000E+00 0.  1.
         11    1    4    4    0    0  0.31993493441E+02 -0.86409957650E+01 -0.11848680174E+03  0.12303403032E+03  0.00000000000E+00 0. -1.
</event>
<event>
 8    1  0.6185113E-009  0.1288310E+03  0.7561462E-02  0.1229201E+00
          1   -1    0    0  501    0  0.00000000000E+00  0.00000000000E+00  0.18923952563E+04  0.18923952563E+04  0.00000000000E+00 0. -1.
         -1   -1    0    0    0  501 -0.00000000000E+00 -0.00000000000E+00 -0.10288156071E+02  0.10288156071E+02  0.00000000000E+00 0.  1.
         25    2    1    2    0    0 -0.15927435938E+02  0.66549788712E+02  0.13817690614E+04  0.13891060714E+04  0.12508949181E+03 0.  0.
         23    2    1    2    0    0  0.15927435938E+02 -0.66549788712E+02  0.50033803882E+03  0.51357734097E+03  0.93493178719E+02 0.  0.
          5    1    3    3  502    0  0.55916119756E+01  0.10120515788E+03  0.10104209108E+04  0.10155006841E+04  0.41800000000E+01 0.  1.
         -5    1    3    3    0  502 -0.21519047913E+02 -0.34655369165E+02  0.37134815066E+03  0.37360538732E+03  0.41800000000E+01 0.  1.
        -11    1    4    4    0    0 -0.38962013639E+02 -0.24012932780E+02  0.17274279188E+03  0.17870291434E+03  0.00000000000E+00 0.  1.
         11    1    4    4    0    0  0.54889449577E+02 -0.42536855932E+02  0.32759524695E+03  0.33487442663E+03  0.00000000000E+00 0. -1.
</event>
<event>
 8    1  0.6185113E-009  0.7717574E+02  0.7561462E-02  0.1337263E+00
         -1   -1    0    0    0  501 -0.00000000000E+00  0.00000000000E+00  0.83229732531E+02  0.83229732531E+02  0.00000000000E+00 0.  1.
          1   -1    0    0  501    0  0.00000000000E+00 -0.00000000000E+00 -0.16532520523E+03  0.16532520523E+03  0.00000000000E+00 0. -1.
         25    2    1    2    0    0 -0.14891762168E+02  0.65209659859E+01 -0.34173731967E+01  0.12618641956E+03  0.12508815477E+03 0.  0.
         23    2    1    2    0    0  0.14891762168E+02 -0.65209659859E+01 -0.78678099500E+02  0.12236851820E+03  0.92301263949E+02 0.  0.
          5    1    3    3  502    0  0.38341252664E+02  0.32826835431E+02  0.29045636477E+02  0.58384708431E+02  0.41800000000E+01 0. -1.
         -5    1    3    3    0  502 -0.53233014832E+02 -0.26305869445E+02 -0.32463009674E+02  0.67801711132E+02  0.41800000000E+01 0. -1.
        -11    1    4    4    0    0  0.24349354528E+02  0.90370912142E+01 -0.94649936714E+02  0.98148716770E+02  0.00000000000E+00 0. -1.
         11    1    4    4    0    0 -0.94575923605E+01 -0.15558057200E+02  0.15971837214E+02  0.24219801426E+02  0.00000000000E+00 0.  1.
</event>
<event>
 8    1  0.6185113E-009  0.1066440E+03  0.7561462E-02  0.1266914E+00
         -1   -1    0    0    0  501 -0.00000000000E+00  0.00000000000E+00  0.20432553679E+03  0.20432553679E+03  0.00000000000E+00 0.  1.
          1   -1    0    0  501    0  0.00000000000E+00 -0.00000000000E+00 -0.56693692221E+02  0.56693692221E+02  0.00000000000E+00 0. -1.
         25    2    1    2    0    0  0.44831852926E+01 -0.87879048888E+01  0.76289061979E+02  0.14684501601E+03  0.12508441760E+03 0.  0.
         23    2    1    2    0    0 -0.44831852926E+01  0.87879048888E+01  0.71342782586E+02  0.11417421300E+03  0.88592505684E+02 0.  0.
          5    1    3    3  502    0 -0.32105836846E+02  0.47351491235E+02  0.44279401618E+02  0.72464379453E+02  0.41800000000E+01 0. -1.
         -5    1    3    3    0  502  0.36589022139E+02 -0.56139396124E+02  0.32009660360E+02  0.74380636557E+02  0.41800000000E+01 0. -1.
        -11    1    4    4    0    0 -0.42554149002E+02 -0.13531843863E+02  0.30790153096E+02  0.54240205782E+02  0.00000000000E+00 0. -1.
         11    1    4    4    0    0  0.38070963710E+02  0.22319748751E+02  0.40552629490E+02  0.59934007214E+02  0.00000000000E+00 0.  1.
</event>
<event>
 8    1  0.6185113E-009  0.2807526E+03  0.7561462E-02  0.1095279E+00
         -4   -1    0    0    0  501 -0.00000000000E+00  0.00000000000E+00  0.10426295333E+04  0.10426295333E+04  0.00000000000E+00 0.  1.
          4   -1    0    0  501    0  0.00000000000E+00 -0.00000000000E+00 -0.87541918839E+02  0.87541918839E+02  0.00000000000E+00 0. -1.
         25    2    1    2    0    0  0.20677696567E+03  0.18291813074E+03  0.38172051407E+03  0.48741550901E+03  0.12509025332E+03 0.  0.
         23    2    1    2    0    0 -0.20677696567E+03 -0.18291813074E+03  0.57336710038E+03  0.64275594312E+03  0.90385920009E+02 0.  0.
          5    1    3    3  502    0  0.14932081877E+03  0.12031329455E+03  0.34503982650E+03  0.39476822318E+03  0.41800000000E+01 0. -1.
         -5    1    3    3    0  502  0.57456146898E+02  0.62604836188E+02  0.36680687574E+02  0.92647285828E+02  0.41800000000E+01 0. -1.
        -11    1    4    4    0    0 -0.52650081584E+02 -0.91097307808E+02  0.27709115794E+03  0.29639544597E+03  0.00000000000E+00 0.  1.
         11    1    4    4    0    0 -0.15412688408E+03 -0.91820822931E+02  0.29627594243E+03  0.34636049715E+03  0.00000000000E+00 0. -1.
</event>
<event>
 8    1  0.6185113E-009  0.8622083E+02  0.7561462E-02  0.1312270E+00
         -1   -1    0    0    0  501 -0.00000000000E+00  0.00000000000E+00  0.65710223525E+02  0.65710223525E+02  0.00000000000E+00 0.  1.
          1   -1    0    0  501    0  0.00000000000E+00 -0.00000000000E+00 -0.12627717314E+03  0.12627717314E+03  0.00000000000E+00 0. -1.
         25    2    1    2    0    0 -0.87968960219E+01  0.13016079217E+02 -0.42179951598E+02  0.13293471507E+03  0.12508271845E+03 0.  0.
         23    2    1    2    0    0  0.87968960219E+01 -0.13016079217E+02 -0.18386998014E+02  0.59052681596E+02  0.53873312594E+02 0.  0.
          5    1    3    3  502    0 -0.17519551731E+02  0.64238606213E+02 -0.13659694298E+01  0.66729839604E+02  0.41800000000E+01 0.  1.
         -5    1    3    3    0  502  0.87226557088E+01 -0.51222526996E+02 -0.40813982168E+02  0.66204875462E+02  0.41800000000E+01 0.  1.
        -11    1    4    4    0    0 -0.19004620647E+02 -0.17017278470E+02 -0.52066965729E-01  0.25510117276E+02  0.00000000000E+00 0. -1.
         11    1    4    4    0    0  0.27801516669E+02  0.40011992532E+01 -0.18334931048E+02  0.33542564319E+02  0.00000000000E+00 0.  1.
</event>
<event>
 8    1  0.6185113E-009  0.8533708E+02  0.7561462E-02  0.1314553E+00
         -4   -1    0    0    0  501 -0.00000000000E+00  0.00000000000E+00  0.32445725389E+02  0.32445725389E+02  0.00000000000E+00 0.  1.
          4   -1    0    0  501    0  0.00000000000E+00 -0.00000000000E+00 -0.42678290672E+03  0.42678290672E+03  0.00000000000E+00 0. -1.
         25    2    1    2    0    0  0.44981762954E+02 -0.69063020317E+01 -0.23960552237E+03  0.27409982723E+03  0.12509537534E+03 0.  0.
         23    2    1    2    0    0 -0.44981762954E+02  0.69063020317E+01 -0.15473165896E+03  0.18512880488E+03  0.90883068309E+02 0.  0.
          5    1    3    3  502    0  0.24577843356E+02 -0.36304971438E+02 -0.14853257848E+02  0.46478091655E+02  0.41800000000E+01 0. -1.
         -5    1    3    3    0  502  0.20403919597E+02  0.29398669407E+02 -0.22475226452E+03  0.22762173557E+03  0.41800000000E+01 0. -1.
        -11    1    4    4    0    0 -0.42771409540E+02  0.39330090213E+02 -0.54145644475E+02  0.79422920406E+02  0.00000000000E+00 0. -1.
         11    1    4    4    0    0 -0.22103534139E+01 -0.32423788181E+02 -0.10058601449E+03  0.10570588447E+03  0.00000000000E+00 0.  1.
</event>
<event>
 8    1  0.6185113E-009  0.1189407E+03  0.7561462E-02  0.1244855E+00
          4   -1    0    0  501    0  0.00000000000E+00  0.00000000000E+00  0.27114765518E+03  0.27114765518E+03  0.00000000000E+00 0. -1.
         -4   -1    0    0    0  501 -0.00000000000E+00 -0.00000000000E+00 -0.55350831759E+02  0.55350831759E+02  0.00000000000E+00 0.  1.
         25    2    1    2    0    0  0.32160191256E+02  0.16139198714E+02  0.13599588417E+03  0.18824427591E+03  0.12508507211E+03 0.  0.
         23    2    1    2    0    0 -0.32160191256E+02 -0.16139198714E+02  0.79800939258E+02  0.13825421103E+03  0.10701067856E+03 0.  0.
          5    1    3    3  502    0  0.73953502189E+02  0.36722544268E+02  0.77223873950E+02  0.11313118426E+03  0.41800000000E+01 0. -1.
         -5    1    3    3    0  502 -0.41793310933E+02 -0.20583345553E+02  0.58772010218E+02  0.75113091655E+02  0.41800000000E+01 0. -1.
        -11    1    4    4    0    0 -0.46877955472E+01 -0.58094155683E+02  0.61861952503E+02  0.84992985116E+02  0.00000000000E+00 0. -1.
         11    1    4    4    0    0 -0.27472395709E+02  0.41954956968E+02  0.17938986755E+02  0.53261225915E+02  0.00000000000E+00 0.  1.
</event>
<event>
 8    1  0.6185113E-009  0.1539262E+03  0.7561462E-02  0.1195730E+00
          2   -1    0    0  501    0  0.00000000000E+00  0.00000000000E+00  0.15174634516E+03  0.15174634516E+03  0.00000000000E+00 0. -1.
         -2   -1    0    0    0  501 -0.00000000000E+00 -0.00000000000E+00 -0.17399108089E+03  0.17399108089E+03  0.00000000000E+00 0.  1.
         25    2    1    2    0    0  0.11947480171E+03  0.17259622322E+02 -0.72190717812E+01  0.17399090359E+03  0.12509435131E+03 0.  0.
         23    2    1    2    0    0 -0.11947480171E+03 -0.17259622322E+02 -0.15025663952E+02  0.15174652245E+03  0.90714462431E+02 0.  0.
          5    1    3    3  502    0  0.12646226371E+03 -0.12766192936E+02  0.24554913404E+02  0.12952256945E+03  0.41800000000E+01 0. -1.
         -5    1    3    3    0  502 -0.69874620001E+01  0.30025815258E+02 -0.31773985185E+02  0.44468334145E+02  0.41800000000E+01 0. -1.
        -11    1    4    4    0    0 -0.51724259092E+02  0.36311162188E+02  0.39315679207E+01  0.63319481239E+02  0.00000000000E+00 0.  1.
         11    1    4    4    0    0 -0.67750542614E+02 -0.53570784511E+02 -0.18957231873E+02  0.88427041214E+02  0.00000000000E+00 0. -1.
</event>
<event>
 8    1  0.6185113E-009  0.1032693E+03  0.7561462E-02  0.1273567E+00
         -2   -1    0    0    0  501 -0.00000000000E+00  0.00000000000E+00  0.34220631793E+02  0.34220631793E+02  0.00000000000E+00 0.  1.
          2   -1    0    0  501    0  0.00000000000E+00 -0.00000000000E+00 -0.38975749216E+03  0.38975749216E+03  0.00000000000E+00 0. -1.
         25    2    1    2    0    0 -0.31136657887E+02  0.22937178932E+02 -0.20714959831E+03  0.24505886901E+03  0.12508911847E+03 0.  0.
         23    2    1    2    0    0  0.31136657887E+02 -0.22937178932E+02 -0.14838726206E+03  0.17891925494E+03  0.92183049449E+02 0.  0.
          5    1    3    3  502    0 -0.36580544805E+02  0.68512118284E+02 -0.88770429065E+02  0.11802418433E+03  0.41800000000E+01 0. -1.
         -5    1    3    3    0  502  0.54438869187E+01 -0.45574939352E+02 -0.11837916924E+03  0.12703468468E+03  0.41800000000E+01 0. -1.
        -11    1    4    4    0    0 -0.23793009394E+02 -0.19649916923E+01 -0.56316093746E+01  0.24529237912E+02  0.00000000000E+00 0.  1.
         11    1    4    4    0    0  0.54929667281E+02 -0.20972187240E+02 -0.14275565268E+03  0.15439001703E+03  0.00000000000E+00 0. -1.
</event>
<event>
 8    1  0.6185113E-009  0.1001961E+03  0.7561462E-02  0.1279884E+00
         -3   -1    0    0    0  501 -0.00000000000E+00  0.00000000000E+00  0.89257522193E+02  0.89257522193E+02  0.00000000000E+00 0.  1.
          3   -1    0    0  501    0  0.00000000000E+00 -0.00000000000E+00 -0.21173106909E+03  0.21173106909E+03  0.00000000000E+00 0. -1.
         25    2    1    2    0    0 -0.40453314364E+02  0.63516700234E+00 -0.14807260780E+03  0.19801581735E+03  0.12509153713E+03 0.  0.
         23    2    1    2    0    0  0.40453314364E+02 -0.63516700234E+00  0.25599060902E+02  0.10297277393E+03  0.91165816901E+02 0.  0.
          5    1    3    3  502    0 -0.18838374181E+02  0.60320127689E+02 -0.99631424465E+02  0.11805632252E+03  0.41800000000E+01 0. -1.
         -5    1    3    3    0  502 -0.21614940183E+02 -0.59684960687E+02 -0.48441183333E+02  0.79959494833E+02  0.41800000000E+01 0. -1.
        -11    1    4    4    0    0  0.49976581222E+02  0.17507641717E+02 -0.17070874470E+02  0.55638035051E+02  0.00000000000E+00 0. -1.
         11    1    4    4    0    0 -0.95232668581E+01 -0.18142808719E+02  0.42669935373E+02  0.47334738877E+02  0.00000000000E+00 0.  1.
</event>
<event>
 8    1  0.6185113E-009  0.1836648E+03  0.7561462E-02  0.1164303E+00
         -2   -1    0    0    0  501 -0.00000000000E+00  0.00000000000E+00  0.31196913503E+02  0.31196913503E+02  0.00000000000E+00 0. -1.
          2   -1    0    0  501    0  0.00000000000E+00 -0.00000000000E+00 -0.14963219691E+04  0.14963219691E+04  0.00000000000E+00 0.  1.
         25    2    1    2    0    0  0.17163056533E+03 -0.40046277876E+01 -0.10172622177E+04  0.10392042490E+04  0.12509981460E+03 0.  0.
         23    2    1    2    0    0 -0.17163056533E+03  0.40046277876E+01 -0.44786283788E+03  0.48831463357E+03  0.91634992254E+02 0.  0.
          5    1    3    3  502    0  0.12628530589E+03  0.30784202691E+02 -0.89231736003E+03  0.90174463626E+03  0.41800000000E+01 0.  1.
         -5    1    3    3    0  502  0.45345259442E+02 -0.34788830478E+02 -0.12494485767E+03  0.13745961276E+03  0.41800000000E+01 0.  1.
        -11    1    4    4    0    0 -0.11719205016E+03 -0.22648507538E+02 -0.37499226270E+03  0.39353034013E+03  0.00000000000E+00 0.  1.
         11    1    4    4    0    0 -0.54438515168E+02  0.26653135325E+02 -0.72870575173E+02  0.94784293438E+02  0.00000000000E+00 0. -1.
</event>
<event>
 8    1  0.6185113E-009  0.6207567E+02  0.7561462E-02  0.1389322E+00
          2   -1    0    0  501    0  0.00000000000E+00  0.00000000000E+00  0.43013298120E+03  0.43013298120E+03  0.00000000000E+00 0. -1.
         -2   -1    0    0    0  501 -0.00000000000E+00 -0.00000000000E+00 -0.48733242371E+02  0.48733242371E+02  0.00000000000E+00 0.  1.
         25    2    1    2    0    0 -0.14328622268E+02 -0.16487733231E+02  0.36194799298E+03  0.38357647899E+03  0.12508961128E+03 0.  0.
         23    2    1    2    0    0  0.14328622268E+02  0.16487733231E+02  0.19451745857E+02  0.95289744586E+02  0.90689636912E+02 0.  0.
          5    1    3    3  502    0 -0.41398054366E+02 -0.26325208891E+01  0.32925363692E+02  0.53125145136E+02  0.41800000000E+01 0. -1.
         -5    1    3    3    0  502  0.27069432098E+02 -0.13855212342E+02  0.32902262928E+03  0.33045133385E+03  0.41800000000E+01 0. -1.
        -11    1    4    4    0    0  0.31408054554E+02  0.14420505736E+02 -0.28213902959E+02  0.44614360880E+02  0.00000000000E+00 0.  1.
         11    1    4    4    0    0 -0.17079432286E+02  0.20672274950E+01  0.47665648816E+02  0.50675383706E+02  0.00000000000E+00 0. -1.
</event>
<event>
 8    1  0.6185113E-009  0.9003860E+02  0.7561462E-02  0.1302758E+00
          1   -1    0    0  501    0  0.00000000000E+00  0.00000000000E+00  0.15690697282E+03  0.15690697282E+03  0.00000000000E+00 0. -1.
         -1   -1    0    0    0  501 -0.00000000000E+00 -0.00000000000E+00 -0.10066328459E+03  0.10066328459E+03  0.00000000000E+00 0.  1.
         25    2    1    2    0    0  0.33003838612E+02 -0.44960864377E+01  0.91094364024E+02  0.15828812213E+03  0.12508988086E+03 0.  0.
         23    2    1    2    0    0 -0.33003838612E+02  0.44960864377E+01 -0.34850675794E+02  0.99282135277E+02  0.86792307409E+02 0.  0.
          5    1    3    3  502    0  0.29590951870E+02 -0.40708652325E+02 -0.93682003592E+01  0.51361993581E+02  0.41800000000E+01 0.  1.
         -5    1    3    3    0  502  0.34128867427E+01  0.36212565887E+02  0.10046256438E+03  0.10692612855E+03  0.41800000000E+01 0.  1.
        -11    1    4    4    0    0  0.11435084610E+02 -0.32933841262E+02 -0.13054649513E+02  0.37226642801E+02  0.00000000000E+00 0.  1.
         11    1    4    4    0    0 -0.44438923223E+02  0.37429927700E+02 -0.21796026281E+02  0.62055492476E+02  0.00000000000E+00 0. -1.
</event>
<event>
 8    1  0.6185113E-009  0.1339643E+03  0.7561462E-02  0.1221689E+00
          2   -1    0    0  501    0  0.00000000000E+00  0.00000000000E+00  0.35838890736E+03  0.35838890736E+03  0.00000000000E+00 0.  1.
         -2   -1    0    0    0  501 -0.00000000000E+00 -0.00000000000E+00 -0.66274183002E+02  0.66274183002E+02  0.00000000000E+00 0. -1.
         25    2    1    2    0    0 -0.80657775986E+02 -0.41418316676E+02  0.24133231765E+03  0.28655133229E+03  0.12509686132E+03 0.  0.
         23    2    1    2    0    0  0.80657775986E+02  0.41418316676E+02  0.50782406706E+02  0.13811175807E+03  0.90966208577E+02 0.  0.
          5    1    3    3  502    0 -0.94753956849E+02 -0.71674618205E+02  0.20545095621E+03  0.23736708079E+03  0.41800000000E+01 0.  1.
         -5    1    3    3    0  502  0.14096180863E+02  0.30256301530E+02  0.35881361433E+02  0.49184251498E+02  0.41800000000E+01 0.  1.
        -11    1    4    4    0    0  0.93937842906E+02  0.32462131702E+02  0.17146901204E+02  0.10085695090E+03  0.00000000000E+00 0. -1.
         11    1    4    4    0    0 -0.13280066920E+02  0.89561849732E+01  0.33635505502E+02  0.37254807167E+02  0.00000000000E+00 0.  1.
</event>
<event>
 8    1  0.6185113E-009  0.6816183E+02  0.7561462E-02  0.1366458E+00
         -1   -1    0    0    0  501 -0.00000000000E+00  0.00000000000E+00  0.19309931652E+03  0.19309931652E+03  0.00000000000E+00 0.  1.
          1   -1    0    0  501    0  0.00000000000E+00 -0.00000000000E+00 -0.63447245766E+02  0.63447245766E+02  0.00000000000E+00 0. -1.
         25    2    1    2    0    0 -0.90542000298E+01 -0.18827907826E+02  0.84330232716E+02  0.15230781209E+03  0.12509841256E+03 0.  0.
         23    2    1    2    0    0  0.90542000298E+01  0.18827907826E+02  0.45321838038E+02  0.10423875019E+03  0.91516006180E+02 0.  0.
          5    1    3    3  502    0 -0.28789327434E+02  0.34307393228E+01  0.10935481997E+03  0.11321017797E+03  0.41800000000E+01 0.  1.
         -5    1    3    3    0  502  0.19735127404E+02 -0.22258647149E+02 -0.25024587254E+02  0.39097634120E+02  0.41800000000E+01 0.  1.
        -11    1    4    4    0    0  0.31272475004E+02 -0.16422813506E+02 -0.83448565611E+01  0.36294808545E+02  0.00000000000E+00 0. -1.
         11    1    4    4    0    0 -0.22218274974E+02  0.35250721332E+02  0.53666694599E+02  0.67943941647E+02  0.00000000000E+00 0.  1.
</event>
<event>
 8    1  0.6185113E-009  0.1357740E+03  0.7561462E-02  0.1219131E+00
          1   -1    0    0  501    0  0.00000000000E+00  0.00000000000E+00  0.44096526627E+03  0.44096526627E+03  0.00000000000E+00 0. -1.
         -1   -1    0    0    0  501 -0.00000000000E+00 -0.00000000000E+00 -0.44917169308E+02  0.44917169308E+02  0.00000000000E+00 0.  1.
         25    2    1    2    0    0  0.86269406565E+02 -0.17717473547E+02  0.23535385712E+03  0.28070482048E+03  0.12508972302E+03 0.  0.
         23    2    1    2    0    0 -0.86269406565E+02  0.17717473547E+02  0.16069423985E+03  0.20517761510E+03  0.92297863671E+02 0.  0.
          5    1    3    3  502    0  0.81551705482E+02 -0.59932194646E+02  0.20393621465E+03  0.22770595220E+03  0.41800000000E+01 0.  1.
         -5    1    3    3    0  502  0.47177010832E+01  0.42214721099E+02  0.31417642463E+02  0.52998868279E+02  0.41800000000E+01 0.  1.
        -11    1    4    4    0    0 -0.50065332026E+01  0.42361230453E+02  0.54087705479E+02  0.68884099066E+02  0.00000000000E+00 0.  1.
         11    1    4    4    0    0 -0.81262873362E+02 -0.24643756906E+02  0.10660653437E+03  0.13629351603E+03  0.00000000000E+00 0. -1.
</event>
<event>
 8    1  0.6185113E-009  0.9175903E+02  0.7561462E-02  0.1298647E+00
         -2   -1    0    0    0  501 -0.00000000000E+00  0.00000000000E+00  0.15440966552E+03  0.15440966552E+03  0.00000000000E+00 0.  1.
          2   -1    0    0  501    0  0.00000000000E+00 -0.00000000000E+00 -0.85272747156E+02  0.85272747156E+02  0.00000000000E+00 0. -1.
         25    2    1    2    0    0  0.36336464926E+02  0.42774981819E+01  0.51066216405E+02  0.13998367711E+03  0.12509610595E+03 0.  0.
         23    2    1    2    0    0 -0.36336464926E+02 -0.42774981819E+01  0.18070701954E+02  0.99698735563E+02  0.90965113806E+02 0.  0.
          5    1    3    3  502    0  0.10743373550E+02  0.39884983675E+02  0.77993642224E+02  0.88355603248E+02  0.41800000000E+01 0. -1.
         -5    1    3    3    0  502  0.25593091376E+02 -0.35607485493E+02 -0.26927425819E+02  0.51628073861E+02  0.41800000000E+01 0. -1.
        -11    1    4    4    0    0  0.29295539425E+02  0.96757830923E+01  0.36441270578E+01  0.31066526530E+02  0.00000000000E+00 0. -1.
         11    1    4    4    0    0 -0.65632004351E+02 -0.13953281274E+02  0.14426574896E+02  0.68632209032E+02  0.00000000000E+00 0.  1.
</event>
<event>
 8    1  0.6185113E-009  0.1172733E+03  0.7561462E-02  0.1247664E+00
          2   -1    0    0  501    0  0.00000000000E+00  0.00000000000E+00  0.37989842828E+03  0.37989842828E+03  0.00000000000E+00 0. -1.
         -2   -1    0    0    0  501 -0.00000000000E+00 -0.00000000000E+00 -0.42653348854E+02  0.42653348854E+02  0.00000000000E+00 0.  1.
         25    2    1    2    0    0  0.95897079655E+00 -0.66284138513E+02  0.17173678177E+03  0.22256643173E+03  0.12509111749E+03 0.  0.
         23    2    1    2    0    0 -0.95897079655E+00  0.66284138513E+02  0.16550829765E+03  0.19998534541E+03  0.90590480412E+02 0.  0.
          5    1    3    3  502    0  0.12549843189E+01  0.32281461784E+02  0.85639535021E+02  0.91625706650E+02  0.41800000000E+01 0. -1.
         -5    1    3    3    0  502 -0.29601352236E+00 -0.98565600297E+02  0.86097246751E+02  0.13094072508E+03  0.41800000000E+01 0. -1.
        -11    1    4    4    0    0 -0.15914574985E+02 -0.14276509608E+02  0.87431534923E+01  0.23098379955E+02  0.00000000000E+00 0.  1.
         11    1    4    4    0    0  0.14955604188E+02  0.80560648121E+02  0.15676514416E+03  0.17688696545E+03  0.00000000000E+00 0. -1.
</event>
<event>
 8    1  0.6185113E-009  0.8766721E+02  0.7561462E-02  0.1308601E+00
          2   -1    0    0  501    0  0.00000000000E+00  0.00000000000E+00  0.37542321414E+02  0.37542321414E+02  0.00000000000E+00 0. -1.
         -2   -1    0    0    0  501 -0.00000000000E+00 -0.00000000000E+00 -0.33268653970E+03  0.33268653970E+03  0.00000000000E+00 0.  1.
         25    2    1    2    0    0 -0.46728195216E+01  0.28446402874E+02 -0.16504525701E+03  0.20908965876E+03  0.12509002942E+03 0.  0.
         23    2    1    2    0    0  0.46728195216E+01 -0.28446402874E+02 -0.13009896128E+03  0.16113920235E+03  0.90603916757E+02 0.  0.
          5    1    3    3  502    0 -0.59783914253E+02 -0.88155523769E+01 -0.92515372998E+02  0.11058208267E+03  0.41800000000E+01 0. -1.
         -5    1    3    3    0  502  0.55111094731E+02  0.37261955251E+02 -0.72529884011E+02  0.98507576086E+02  0.41800000000E+01 0. -1.
        -11    1    4    4    0    0  0.21660936242E+02 -0.17964019706E+02 -0.13712057069E+03  0.13997840215E+03  0.00000000000E+00 0.  1.
         11    1    4    4    0    0 -0.16988116720E+02 -0.10482383168E+02  0.70216094113E+01  0.21160800205E+02  0.00000000000E+00 0. -1.
</event>
<event>
 8    1  0.6185113E-009  0.1384208E+03  0.7561462E-02  0.1215470E+00
          2   -1    0    0  501    0  0.00000000000E+00  0.00000000000E+00  0.21739619675E+04  0.21739619675E+04  0.00000000000E+00 0.  1.
         -2   -1    0    0    0  501 -0.00000000000E+00 -0.00000000000E+00 -0.11995332372E+02  0.11995332372E+02  0.00000000000E+00 0. -1.
         25    2    1    2    0    0 -0.43138339788E+02 -0.56934179614E+02  0.16251765869E+04  0.16315482042E+04  0.12509271333E+03 0.  0.
         23    2    1    2    0    0  0.43138339788E+02  0.56934179614E+02  0.53679004823E+03  0.55440909565E+03  0.11884221596E+03 0.  0.
          5    1    3    3  502    0  0.43028122545E+02 -0.58715381542E+01  0.45654006540E+03  0.45861988400E+03  0.41800000000E+01 0.  1.
         -5    1    3    3    0  502 -0.86166462333E+02 -0.51062641459E+02  0.11686365215E+04  0.11729283202E+04  0.41800000000E+01 0.  1.
        -11    1    4    4    0    0  0.47692073832E+02 -0.22968293755E+02  0.29518054854E+03  0.29988936737E+03  0.00000000000E+00 0.  1.
         11    1    4    4    0    0 -0.45537340434E+01  0.79902473369E+02  0.24160949969E+03  0.25451972828E+03  0.00000000000E+00 0. -1.
</event>
<event>
 8    1  0.6185113E-009  0.7150295E+02  0.7561462E-02  0.1355056E+00
         -1   -1    0    0    0  501 -0.00000000000E+00  0.00000000000E+00  0.10102577648E+03  0.10102577648E+03  0.00000000000E+00 0. -1.
          1   -1    0    0  501    0  0.00000000000E+00 -0.00000000000E+00 -0.14853405656E+03  0.14853405656E+03  0.00000000000E+00 0.  1.
         25    2    1    2    0    0  0.34157208447E+02  0.45233331895E+02 -0.82932687944E+01  0.13758243285E+03  0.12508948124E+03 0.  0.
         23    2    1    2    0    0 -0.34157208447E+02 -0.45233331895E+02 -0.39215011289E+02  0.11197740019E+03  0.88251639309E+02 0.  0.
          5    1    3    3  502    0 -0.53046417367E+01  0.28507321394E+02  0.54245524155E+02  0.61651081806E+02  0.41800000000E+01 0. -1.
         -5    1    3    3    0  502  0.39461850183E+02  0.16726010501E+02 -0.62538792949E+02  0.75931351040E+02  0.41800000000E+01 0. -1.
        -11    1    4    4    0    0 -0.36591945700E+02 -0.13783269076E+02 -0.61835207186E+02  0.73161067818E+02  0.00000000000E+00 0. -1.
         11    1    4    4    0    0  0.24347372533E+01 -0.31450062819E+02  0.22620195897E+02  0.38816332377E+02  0.00000000000E+00 0.  1.
</event>
<event>
 8    1  0.6185113E-009  0.1135991E+03  0.7561462E-02  0.1254046E+00
          1   -1    0    0  501    0  0.00000000000E+00  0.00000000000E+00  0.22799481665E+03  0.22799481665E+03  0.00000000000E+00 0. -1.
         -1   -1    0    0    0  501 -0.00000000000E+00 -0.00000000000E+00 -0.83727711334E+02  0.83727711334E+02  0.00000000000E+00 0.  1.
         25    2    1    2    0    0 -0.91551001849E+01  0.49747219389E+02  0.16803387071E+01  0.13493864552E+03  0.12508802030E+03 0.  0.
         23    2    1    2    0    0  0.91551001849E+01 -0.49747219389E+02  0.14258676661E+03  0.17678388246E+03  0.91449184736E+02 0.  0.
          5    1    3    3  502    0 -0.60034448941E+02  0.15515123939E+01  0.18052030230E+02  0.62848153877E+02  0.41800000000E+01 0.  1.
         -5    1    3    3    0  502  0.50879348756E+02  0.48195706996E+02 -0.16371691523E+02  0.72090491647E+02  0.41800000000E+01 0.  1.
        -11    1    4    4    0    0  0.23832693407E+02 -0.68759564137E+02  0.72615976105E+02  0.10280542262E+03  0.00000000000E+00 0.  1.
         11    1    4    4    0    0 -0.14677593222E+02  0.19012344748E+02  0.69970790507E+02  0.73978459836E+02  0.00000000000E+00 0. -1.
</event>
<event>
 8    1  0.6185113E-009  0.1364964E+03  0.7561462E-02  0.1218123E+00
          2   -1    0    0  501    0  0.00000000000E+00  0.00000000000E+00  0.48362527749E+03  0.48362527749E+03  0.00000000000E+00 0. -1.
         -2   -1    0    0    0  501 -0.00000000000E+00 -0.00000000000E+00 -0.60358209717E+02  0.60358209717E+02  0.00000000000E+00 0.  1.
         25    2    1    2    0    0 -0.67737644613E+02  0.92028907395E+02  0.13593210779E+03  0.21721594148E+03  0.12509004361E+03 0.  0.
         23    2    1    2    0    0  0.67737644613E+02 -0.92028907395E+02  0.28733495998E+03  0.32676754573E+03  0.10563115742E+03 0.  0.
          5    1    3    3  502    0 -0.22610965909E+02  0.77914237177E+01  0.11727110639E+03  0.11975786762E+03  0.41800000000E+01 0. -1.
         -5    1    3    3    0  502 -0.45126678703E+02  0.84237483677E+02  0.18661001399E+02  0.97458073859E+02  0.41800000000E+01 0. -1.
        -11    1    4    4    0    0  0.79173571146E+02 -0.10769337444E+03  0.22742250158E+03  0.26379407024E+03  0.00000000000E+00 0. -1.
         11    1    4    4    0    0 -0.11435926533E+02  0.15664467048E+02  0.59912458404E+02  0.62973475492E+02  0.00000000000E+00 0.  1.
</event>
<event>
 8    1  0.6185113E-009  0.7164710E+02  0.7561462E-02  0.1354580E+00
         -1   -1    0    0    0  501 -0.00000000000E+00  0.00000000000E+00  0.58900896529E+02  0.58900896529E+02  0.00000000000E+00 0.  1.
          1   -1    0    0  501    0  0.00000000000E+00 -0.00000000000E+00 -0.22327100468E+03  0.22327100468E+03  0.00000000000E+00 0. -1.
         25    2    1    2    0    0  0.15552523968E+02  0.25015931979E+02 -0.69017033481E+02  0.14586044646E+03  0.12507694063E+03 0.  0.
         23    2    1    2    0    0 -0.15552523968E+02 -0.25015931979E+02 -0.95353074666E+02  0.13631145474E+03  0.92848941786E+02 0.  0.
          5    1    3    3  502    0 -0.67620523872E+01 -0.48926691272E+01  0.34501623258E+02  0.35742103619E+02  0.41800000000E+01 0.  1.
         -5    1    3    3    0  502  0.22314576355E+02  0.29908601107E+02 -0.10351865674E+03  0.11011834285E+03  0.41800000000E+01 0.  1.
        -11    1    4    4    0    0 -0.14949875554E+02 -0.59790215472E+02 -0.70043119236E+02  0.93297412599E+02  0.00000000000E+00 0. -1.
         11    1    4    4    0    0 -0.60264841415E+00  0.34774283493E+02 -0.25309955430E+02  0.43014042142E+02  0.00000000000E+00 0.  1.
</event>
<event>
 8    1  0.6185113E-009  0.1776942E+03  0.7561462E-02  0.1170053E+00
         -2   -1    0    0    0  501 -0.00000000000E+00  0.00000000000E+00  0.21981797702E+02  0.21981797702E+02  0.00000000000E+00 0.  1.
          2   -1    0    0  501    0  0.00000000000E+00 -0.00000000000E+00 -0.15866947064E+04  0.15866947064E+04  0.00000000000E+00 0. -1.
         25    2    1    2    0    0 -0.47526961987E+02  0.13922180842E+03 -0.65485600616E+03  0.68273363004E+03  0.12508915510E+03 0.  0.
         23    2    1    2    0    0  0.47526961987E+02 -0.13922180842E+03 -0.90985690253E+03  0.92594287406E+03  0.88820599427E+02 0.  0.
          5    1    3    3  502    0  0.18188532396E+02 -0.15379715666E+02 -0.10631960331E+03  0.10903526408E+03  0.41800000000E+01 0. -1.
         -5    1    3    3    0  502 -0.65715494382E+02  0.15460152408E+03 -0.54853640285E+03  0.57369836596E+03  0.41800000000E+01 0. -1.
        -11    1    4    4    0    0 -0.15467784731E+02 -0.75772135529E+01 -0.35131614144E+02  0.39126676860E+02  0.00000000000E+00 0.  1.
         11    1    4    4    0    0  0.62994746718E+02 -0.13164459486E+03 -0.87472528839E+03  0.88681619720E+03  0.00000000000E+00 0. -1.
</event>
<event>
 8    1  0.6185113E-009  0.8805339E+02  0.7561462E-02  0.1307635E+00
         -2   -1    0    0    0  501 -0.00000000000E+00  0.00000000000E+00  0.27272989170E+02  0.27272989170E+02  0.00000000000E+00 0.  1.
          2   -1    0    0  501    0  0.00000000000E+00 -0.00000000000E+00 -0.70569090087E+03  0.70569090087E+03  0.00000000000E+00 0. -1.
         25    2    1    2    0    0  0.40045941947E+02  0.28732101101E+02 -0.45240233083E+03  0.47195916365E+03  0.12509345352E+03 0.  0.
         23    2    1    2    0    0 -0.40045941947E+02 -0.28732101101E+02 -0.22601558087E+03  0.26100472639E+03  0.12087685180E+03 0.  0.
          5    1    3    3  502    0  0.39204993601E+02  0.22223964515E+02 -0.42827819727E+02  0.62310758819E+02  0.41800000000E+01 0.  1.
         -5    1    3    3    0  502  0.84094834612E+00  0.65081365857E+01 -0.40957451110E+03  0.40964840483E+03  0.41800000000E+01 0.  1.
        -11    1    4    4    0    0 -0.42709496925E+02  0.37466943438E+02 -0.61899951619E+02  0.84020693811E+02  0.00000000000E+00 0.  1.
         11    1    4    4    0    0  0.26635549781E+01 -0.66199044539E+02 -0.16411562925E+03  0.17698403258E+03  0.00000000000E+00 0. -1.
</event>
<event>
 8    1  0.6185113E-009  0.1143916E+03  0.7561462E-02  0.1252647E+00
         -1   -1    0    0    0  501 -0.00000000000E+00  0.00000000000E+00  0.17456842406E+03  0.17456842406E+03  0.00000000000E+00 0.  1.
          1   -1    0    0  501    0  0.00000000000E+00 -0.00000000000E+00 -0.13592403339E+03  0.13592403339E+03  0.00000000000E+00 0. -1.
         25    2    1    2    0    0  0.22478215924E+02  0.53500902037E+02 -0.71867684475E+02  0.15549632268E+03  0.12508607270E+03 0.  0.
         23    2    1    2    0    0 -0.22478215924E+02 -0.53500902037E+02  0.11051207515E+03  0.15499613478E+03  0.91887247929E+02 0.  0.
          5    1    3    3  502    0 -0.17118687998E+02  0.84080520360E+02 -0.33090459042E+02  0.92059949285E+02  0.41800000000E+01 0.  1.
         -5    1    3    3    0  502  0.39596903922E+02 -0.30579618322E+02 -0.38777225432E+02  0.63436373392E+02  0.41800000000E+01 0.  1.
        -11    1    4    4    0    0 -0.12077578550E+02 -0.71159714596E+02  0.42051452814E+02  0.83533810932E+02  0.00000000000E+00 0. -1.
         11    1    4    4    0    0 -0.10400637374E+02  0.17658812559E+02  0.68460622335E+02  0.71462323844E+02  0.00000000000E+00 0.  1.
</event>
<event>
 8    1  0.6185113E-009  0.1121679E+03  0.7561462E-02  0.1256607E+00
          2   -1    0    0  501    0  0.00000000000E+00  0.00000000000E+00  0.81724616961E+03  0.81724616961E+03  0.00000000000E+00 0. -1.
         -2   -1    0    0    0  501 -0.00000000000E+00 -0.00000000000E+00 -0.22001802465E+02  0.22001802465E+02  0.00000000000E+00 0.  1.
         25    2    1    2    0    0 -0.75036175315E+02 -0.55831814455E+01  0.56970342001E+03  0.58810826022E+03  0.12509092476E+03 0.  0.
         23    2    1    2    0    0  0.75036175315E+02  0.55831814455E+01  0.22554094714E+03  0.25113971185E+03  0.80875438242E+02 0.  0.
          5    1    3    3  502    0 -0.96199257095E+02  0.30174151628E+02  0.45457138570E+03  0.46563654666E+03  0.41800000000E+01 0.  1.
         -5    1    3    3    0  502  0.21163081780E+02 -0.35757333074E+02  0.11513203431E+03  0.12247171357E+03  0.41800000000E+01 0.  1.
        -11    1    4    4    0    0  0.35433121155E+02  0.18551771553E+02  0.26961402498E+02  0.48234754351E+02  0.00000000000E+00 0.  1.
         11    1    4    4    0    0  0.39603054160E+02 -0.12968590108E+02  0.19857954464E+03  0.20290495750E+03  0.00000000000E+00 0. -1.
</event>
<event>
 8    1  0.6185113E-009  0.1195011E+03  0.7561462E-02  0.1243922E+00
         -1   -1    0    0    0  501 -0.00000000000E+00  0.00000000000E+00  0.49190018475E+03  0.49190018475E+03  0.00000000000E+00 0.  1.
          1   -1    0    0  501    0  0.00000000000E+00 -0.00000000000E+00 -0.38680897663E+02  0.38680897663E+02  0.00000000000E+00 0. -1.
         25    2    1    2    0    0 -0.63611042256E+02 -0.53613410136E+02  0.21411207656E+03  0.26155904579E+03  0.12509352766E+03 0.  0.
         23    2    1    2    0    0  0.63611042256E+02  0.53613410136E+02  0.23910721052E+03  0.26902203662E+03  0.90993602088E+02 0.  0.
          5    1    3    3  502    0 -0.23022057916E+02 -0.76320468652E+02  0.58162445094E+02  0.98768271753E+02  0.41800000000E+01 0. -1.
         -5    1    3    3    0  502 -0.40588984341E+02  0.22707058515E+02  0.15594963147E+03  0.16279077404E+03  0.41800000000E+01 0. -1.
        -11    1    4    4    0    0  0.46718536460E+02 -0.90428088482E+01  0.15877963930E+03  0.16575695429E+03  0.00000000000E+00 0.  1.
         11    1    4    4    0    0  0.16892505797E+02  0.62656218984E+02  0.80327571222E+02  0.10326508233E+03  0.00000000000E+00 0. -1.
</event>
<event>
 8    1  0.6185113E-009  0.1223811E+03  0.7561462E-02  0.1239220E+00
          1   -1    0    0  501    0  0.00000000000E+00  0.00000000000E+00  0.97652694344E+02  0.97652694344E+02  0.00000000000E+00 0. -1.
         -1   -1    0    0    0  501 -0.00000000000E+00 -0.00000000000E+00 -0.19967106426E+03  0.19967106426E+03  0.00000000000E+00 0.  1.
         25    2    1    2    0    0 -0.27219387251E+02 -0.82210568219E+02 -0.66645857236E+02  0.16609709006E+03  0.12508837064E+03 0.  0.
         23    2    1    2    0    0  0.27219387251E+02  0.82210568219E+02 -0.35372512676E+02  0.13122666854E+03  0.92031251833E+02 0.  0.
          5    1    3    3  502    0 -0.51706371317E+02 -0.39963568273E+01 -0.65985398155E+02  0.84030142642E+02  0.41800000000E+01 0. -1.
         -5    1    3    3    0  502  0.24486984066E+02 -0.78214211392E+02 -0.66045908038E+00  0.82066947418E+02  0.41800000000E+01 0. -1.
        -11    1    4    4    0    0  0.49700944225E+02  0.44220860169E+02  0.10744382561E+02  0.67387759182E+02  0.00000000000E+00 0.  1.
         11    1    4    4    0    0 -0.22481556974E+02  0.37989708050E+02 -0.46116895237E+02  0.63838909358E+02  0.00000000000E+00 0. -1.
</event>
<event>
 8    1  0.6185113E-009  0.1048461E+03  0.7561462E-02  0.1270423E+00
         -2   -1    0    0    0  501 -0.00000000000E+00  0.00000000000E+00  0.99617331170E+01  0.99617331170E+01  0.00000000000E+00 0.  1.
          2   -1    0    0  501    0  0.00000000000E+00 -0.00000000000E+00 -0.20337312407E+04  0.20337312407E+04  0.00000000000E+00 0. -1.
         25    2    1    2    0    0 -0.24648643371E+02 -0.57789453039E+02 -0.15785687620E+04  0.15847629747E+04  0.12508866082E+03 0.  0.
         23    2    1    2    0    0  0.24648643371E+02  0.57789453039E+02 -0.44520074556E+03  0.45892999911E+03  0.92010128428E+02 0.  0.
          5    1    3    3  502    0 -0.29630089701E+02  0.10792056481E+02 -0.11696187669E+04  0.11700512565E+04  0.41800000000E+01 0. -1.
         -5    1    3    3    0  502  0.49814463301E+01 -0.68581509520E+02 -0.40894999514E+03  0.41471171816E+03  0.41800000000E+01 0. -1.
        -11    1    4    4    0    0  0.54956812875E+02  0.15753671151E+02 -0.18553171389E+03  0.19414027479E+03  0.00000000000E+00 0.  1.
         11    1    4    4    0    0 -0.30308169504E+02  0.42035781888E+02 -0.25966903167E+03  0.26478972432E+03  0.00000000000E+00 0. -1.
</event>
<event>
 8    1  0.6185113E-009  0.1180719E+03  0.7561462E-02  0.1246312E+00
         -1   -1    0    0    0  501 -0.00000000000E+00  0.00000000000E+00  0.19456986578E+02  0.19456986578E+02  0.00000000000E+00 0.  1.
          1   -1    0    0  501    0  0.00000000000E+00 -0.00000000000E+00 -0.88086703004E+03  0.88086703004E+03  0.00000000000E+00 0. -1.
         25    2    1    2    0    0  0.84147854453E+01  0.59611043389E+02 -0.60843593616E+03  0.62407219207E+03  0.12509007712E+03 0.  0.
         23    2    1    2    0    0 -0.84147854453E+01 -0.59611043389E+02 -0.25297410730E+03  0.27625182455E+03  0.93246375228E+02 0.  0.
          5    1    3    3  502    0  0.47162092849E+02 -0.96176134806E+01 -0.12246984608E+03  0.13165522052E+03  0.41800000000E+01 0. -1.
         -5    1    3    3    0  502 -0.38747307403E+02  0.69228656869E+02 -0.48596609008E+03  0.49241697155E+03  0.41800000000E+01 0. -1.
        -11    1    4    4    0    0 -0.84907520889E+01 -0.83783537951E+02 -0.16827390764E+03  0.18816982249E+03  0.00000000000E+00 0. -1.
         11    1    4    4    0    0  0.75966643618E-01  0.24172494562E+02 -0.84700199661E+02  0.88082002060E+02  0.00000000000E+00 0.  1.
</event>
<event>
 8    1  0.6185113E-009  0.1373531E+03  0.7561462E-02  0.1216936E+00
          2   -1    0    0  501    0  0.00000000000E+00  0.00000000000E+00  0.11766674153E+03  0.11766674153E+03  0.00000000000E+00 0.  1.
         -2   -1    0    0    0  501 -0.00000000000E+00 -0.00000000000E+00 -0.19040644683E+03  0.19040644683E+03  0.00000000000E+00 0. -1.
         25    2    1    2    0    0 -0.80011073107E+02  0.46506620033E+02  0.63111646336E+01  0.15571647980E+03  0.12507259394E+03 0.  0.
         23    2    1    2    0    0  0.80011073107E+02 -0.46506620033E+02 -0.79050869926E+02  0.15235670856E+03  0.91645453141E+02 0.  0.
          5    1    3    3  502    0  0.32514378809E+02  0.16638168922E+02  0.13086989141E+02  0.39022495809E+02  0.41800000000E+01 0. -1.
         -5    1    3    3    0  502 -0.11252545192E+03  0.29868451111E+02 -0.67758245070E+01  0.11669398399E+03  0.41800000000E+01 0. -1.
        -11    1    4    4    0    0  0.95720328465E+02 -0.34780259320E+02 -0.41455259534E+02  0.10995720196E+03  0.00000000000E+00 0.  1.
         11    1    4    4    0    0 -0.15709255358E+02 -0.11726360714E+02 -0.37595610391E+02  0.42399506603E+02  0.00000000000E+00 0. -1.
</event>
<event>
 8    1  0.6185113E-009  0.1344598E+03  0.7561462E-02  0.1220984E+00
          3   -1    0    0  501    0  0.00000000000E+00  0.00000000000E+00  0.35218479434E+03  0.35218479434E+03  0.00000000000E+00 0.  1.
         -3   -1    0    0    0  501 -0.00000000000E+00 -0.00000000000E+00 -0.85549928103E+02  0.85549928103E+02  0.00000000000E+00 0. -1.
         25    2    1    2    0    0  0.12611670375E+03 -0.46681812342E+01  0.80188503522E+02  0.19494898607E+03  0.12509075182E+03 0.  0.
         23    2    1    2    0    0 -0.12611670375E+03  0.46681812342E+01  0.18644636272E+03  0.24278573637E+03  0.90859521985E+02 0.  0.
          5    1    3    3  502    0  0.65906297988E+02  0.71036517579E+01  0.10852858239E+03  0.12724003921E+03  0.41800000000E+01 0. -1.
         -5    1    3    3    0  502  0.60210405766E+02 -0.11771832992E+02 -0.28340078867E+02  0.67708946859E+02  0.41800000000E+01 0. -1.
        -11    1    4    4    0    0 -0.10783506585E+03  0.27957004317E+02  0.18121806027E+03  0.21272042893E+03  0.00000000000E+00 0.  1.
         11    1    4    4    0    0 -0.18281637905E+02 -0.23288823082E+02  0.52283024427E+01  0.30065307440E+02  0.00000000000E+00 0. -1.
</event>
<event>
 8    1  0.6185113E-009  0.1816360E+03  0.7561462E-02  0.1166229E+00
         -2   -1    0    0    0  501 -0.00000000000E+00  0.00000000000E+00  0.44528155293E+03  0.44528155293E+03  0.00000000000E+00 0.  1.
          2   -1    0    0  501    0  0.00000000000E+00 -0.00000000000E+00 -0.21010379786E+03  0.21010379786E+03  0.00000000000E+00 0. -1.
         25    2    1    2    0    0 -0.14053172999E+03 -0.61431308445E+02 -0.13812682560E+03  0.24134996395E+03  0.12509121615E+03 0.  0.
         23    2    1    2    0    0  0.14053172999E+03  0.61431308445E+02  0.37330458067E+03  0.41403538685E+03  0.92444679788E+02 0.  0.
          5    1    3    3  502    0 -0.17377951492E+02 -0.58247593457E+02 -0.69149527380E+01  0.61319363279E+02  0.41800000000E+01 0.  1.
         -5    1    3    3    0  502 -0.12315377849E+03 -0.31837149887E+01 -0.13121187286E+03  0.18003060067E+03  0.41800000000E+01 0.  1.
        -11    1    4    4    0    0  0.61925523471E+02 -0.20794614805E+02  0.13645443891E+03  0.15128450139E+03  0.00000000000E+00 0. -1.
         11    1    4    4    0    0  0.78606206514E+02  0.82225923250E+02  0.23685014176E+03  0.26275088546E+03  0.00000000000E+00 0.  1.
</event>
<event>
 8    1  0.6185113E-009  0.2050932E+03  0.7561462E-02  0.1145512E+00
         -1   -1    0    0    0  501 -0.00000000000E+00  0.00000000000E+00  0.26080087525E+02  0.26080087525E+02  0.00000000000E+00 0.  1.
          1   -1    0    0  501    0  0.00000000000E+00 -0.00000000000E+00 -0.20432978521E+04  0.20432978521E+04  0.00000000000E+00 0. -1.
         25    2    1    2    0    0 -0.16163505597E+03 -0.81849371136E+02 -0.14283179986E+04  0.14451867441E+04  0.12508880598E+03 0.  0.
         23    2    1    2    0    0  0.16163505597E+03  0.81849371136E+02 -0.58889976604E+03  0.62419119557E+03  0.99932493779E+02 0.  0.
          5    1    3    3  502    0 -0.71605470650E+01 -0.43288468743E+02 -0.13298129321E+03  0.14009518801E+03  0.41800000000E+01 0.  1.
         -5    1    3    3    0  502 -0.15447450890E+03 -0.38560902393E+02 -0.12953367053E+04  0.13050915561E+04  0.41800000000E+01 0.  1.
        -11    1    4    4    0    0  0.72097026645E+02  0.91828000597E+02 -0.32441353290E+03  0.34478181981E+03  0.00000000000E+00 0. -1.
         11    1    4    4    0    0  0.89538029321E+02 -0.99786294612E+01 -0.26448623313E+03  0.27940937575E+03  0.00000000000E+00 0.  1.
</event>
<event>
 8    1  0.6185113E-009  0.1858258E+03  0.7561462E-02  0.1162281E+00
          1   -1    0    0  501    0  0.00000000000E+00  0.00000000000E+00  0.15892201420E+04  0.15892201420E+04  0.00000000000E+00 0. -1.
         -1   -1    0    0    0  501 -0.00000000000E+00 -0.00000000000E+00 -0.26407556546E+02  0.26407556546E+02  0.00000000000E+00 0.  1.
         25    2    1    2    0    0 -0.75960185524E+02  0.14924066365E+03  0.10187243552E+04  0.10399470976E+04  0.12509167968E+03 0.  0.
         23    2    1    2    0    0  0.75960185524E+02 -0.14924066365E+03  0.54408823016E+03  0.57568060092E+03  0.85635428429E+02 0.  0.
          5    1    3    3  502    0 -0.99356131900E+02  0.99058632696E+02  0.86891093315E+03  0.88017494614E+03  0.41800000000E+01 0.  1.
         -5    1    3    3    0  502  0.23395946376E+02  0.50182030952E+02  0.14981342209E+03  0.15977215144E+03  0.41800000000E+01 0.  1.
        -11    1    4    4    0    0  0.51584453611E+01 -0.67191336675E+02  0.11663893447E+03  0.13470681615E+03  0.00000000000E+00 0. -1.
         11    1    4    4    0    0  0.70801740163E+02 -0.82049326973E+02  0.42744929569E+03  0.44097378477E+03  0.00000000000E+00 0.  1.
</event>
<event>
 8    1  0.6185113E-009  0.8856036E+02  0.7561462E-02  0.1306376E+00
         -1   -1    0    0    0  501 -0.00000000000E+00  0.00000000000E+00  0.34369078640E+03  0.34369078640E+03  0.00000000000E+00 0. -1.
          1   -1    0    0  501    0  0.00000000000E+00 -0.00000000000E+00 -0.52069326913E+02  0.52069326913E+02  0.00000000000E+00 0.  1.
         25    2    1    2    0    0  0.77545613006E+01 -0.65468327906E+02  0.17508679568E+03  0.22505448479E+03  0.12509156614E+03 0.  0.
         23    2    1    2    0    0 -0.77545613006E+01  0.65468327906E+02  0.11653466381E+03  0.17070562853E+03  0.10589546054E+03 0.  0.
          5    1    3    3  502    0  0.26408894077E+02  0.12159691170E+02 -0.33140498262E+01  0.29559145826E+02  0.41800000000E+01 0.  1.
         -5    1    3    3    0  502 -0.18654332777E+02 -0.77628019076E+02  0.17840084551E+03  0.19549533896E+03  0.41800000000E+01 0.  1.
        -11    1    4    4    0    0 -0.12170972306E+02  0.35964097121E+02  0.13182413769E+03  0.13718291485E+03  0.00000000000E+00 0. -1.
         11    1    4    4    0    0  0.44164110054E+01  0.29504230785E+02 -0.15289473888E+02  0.33522713675E+02  0.00000000000E+00 0.  1.
</event>
<event>
 8    1  0.6185113E-009  0.1551833E+03  0.7561462E-02  0.1194245E+00
         -2   -1    0    0    0  501 -0.00000000000E+00  0.00000000000E+00  0.23079414120E+02  0.23079414120E+02  0.00000000000E+00 0.  1.
          2   -1    0    0  501    0  0.00000000000E+00 -0.00000000000E+00 -0.11862936018E+04  0.11862936018E+04  0.00000000000E+00 0. -1.
         25    2    1    2    0    0 -0.56487519964E+02 -0.10183745638E+03 -0.77714664285E+03  0.79571730110E+03  0.12508961325E+03 0.  0.
         23    2    1    2    0    0  0.56487519964E+02  0.10183745638E+03 -0.38606754487E+03  0.41365571486E+03  0.92201918630E+02 0.  0.
          5    1    3    3  502    0  0.35529755757E+02 -0.56424365121E+02 -0.25798535434E+03  0.26649575602E+03  0.41800000000E+01 0.  1.
         -5    1    3    3    0  502 -0.92017275720E+02 -0.45413091264E+02 -0.51916128851E+03  0.52922154508E+03  0.41800000000E+01 0.  1.
        -11    1    4    4    0    0  0.12639896539E+02  0.95761047835E+02 -0.19609182483E+03  0.21859082559E+03  0.00000000000E+00 0.  1.
         11    1    4    4    0    0  0.43847623424E+02  0.60764085499E+01 -0.18997572004E+03  0.19506488927E+03  0.00000000000E+00 0. -1.
</event>
<event>
 8    1  0.6185113E-009  0.1535097E+03  0.7561462E-02  0.1196225E+00
         -4   -1    0    0    0  501 -0.00000000000E+00  0.00000000000E+00  0.33454478369E+03  0.33454478369E+03  0.00000000000E+00 0.  1.
          4   -1    0    0  501    0  0.00000000000E+00 -0.00000000000E+00 -0.83734972721E+02  0.83734972721E+02  0.00000000000E+00 0. -1.
         25    2    1    2    0    0  0.69430541856E+02 -0.93606168280E+02  0.18883702852E+03  0.25473508746E+03  0.12509127292E+03 0.  0.
         23    2    1    2    0    0 -0.69430541856E+02  0.93606168280E+02  0.61972782447E+02  0.16354466895E+03  0.96558366262E+02 0.  0.
          5    1    3    3  502    0  0.59430208637E+02 -0.11714823497E+03  0.18724901691E+03  0.22876915305E+03  0.41800000000E+01 0. -1.
         -5    1    3    3    0  502  0.10000333219E+02  0.23542066693E+02  0.15880116125E+01  0.25965934405E+02  0.41800000000E+01 0. -1.
        -11    1    4    4    0    0  0.21997693332E+02  0.34125323246E+02  0.63084779831E+01  0.41088113768E+02  0.00000000000E+00 0. -1.
         11    1    4    4    0    0 -0.91428235188E+02  0.59480845034E+02  0.55664304464E+02  0.12245655518E+03  0.00000000000E+00 0.  1.
</event>
<event>
 8    1  0.6185113E-009  0.7381177E+02  0.7561462E-02  0.1347591E+00
         -2   -1    0    0    0  501 -0.00000000000E+00  0.00000000000E+00  0.24315365767E+02  0.24315365767E+02  0.00000000000E+00 0.  1.
          2   -1    0    0  501    0  0.00000000000E+00 -0.00000000000E+00 -0.72541858118E+03  0.72541858118E+03  0.00000000000E+00 0. -1.
         25    2    1    2    0    0  0.38037342805E+02 -0.64881139017E+01 -0.57579141805E+03  0.59048457480E+03  0.12508933170E+03 0.  0.
         23    2    1    2    0    0 -0.38037342805E+02  0.64881139017E+01 -0.12531179736E+03  0.15924937215E+03  0.90379095490E+02 0.  0.
          5    1    3    3  502    0  0.20069777175E+02  0.11646584944E+02 -0.55932126463E+03  0.55981799575E+03  0.41800000000E+01 0. -1.
         -5    1    3    3    0  502  0.17967565630E+02 -0.18134698846E+02 -0.16470153419E+02  0.30666579049E+02  0.41800000000E+01 0. -1.
        -11    1    4    4    0    0 -0.19412350885E+02  0.48489907677E+02 -0.70138909563E+02  0.87450426803E+02  0.00000000000E+00 0.  1.
         11    1    4    4    0    0 -0.18624991920E+02 -0.42001793776E+02 -0.55172887798E+02  0.71798945343E+02  0.00000000000E+00 0. -1.
</event>
<event>
 8    1  0.6185113E-009  0.2615865E+03  0.7561462E-02  0.1106194E+00
          2   -1    0    0  501    0  0.00000000000E+00  0.00000000000E+00  0.14185493195E+04  0.14185493195E+04  0.00000000000E+00 0.  1.
         -2   -1    0    0    0  501 -0.00000000000E+00 -0.00000000000E+00 -0.53104215812E+02  0.53104215812E+02  0.00000000000E+00 0. -1.
         25    2    1    2    0    0  0.22003054204E+03  0.12306376082E+03  0.72759480276E+03  0.78012867343E+03  0.12509365069E+03 0.  0.
         23    2    1    2    0    0 -0.22003054204E+03 -0.12306376082E+03  0.63785030089E+03  0.69152486184E+03  0.88292126203E+02 0.  0.
          5    1    3    3  502    0  0.13890941412E+02  0.25853874698E+02  0.17685032767E+02  0.34519760634E+02  0.41800000000E+01 0. -1.
         -5    1    3    3    0  502  0.20613960063E+03  0.97209886121E+02  0.70990976999E+03  0.74560891279E+03  0.41800000000E+01 0. -1.
        -11    1    4    4    0    0 -0.13038220568E+03 -0.11789656720E+03  0.45612053554E+03  0.48882007228E+03  0.00000000000E+00 0.  1.
         11    1    4    4    0    0 -0.89648336362E+02 -0.51671936214E+01  0.18172976534E+03  0.20270478957E+03  0.00000000000E+00 0. -1.
</event>
<event>
 8    1  0.6185113E-009  0.1254951E+03  0.7561462E-02  0.1234298E+00
         -1   -1    0    0    0  501 -0.00000000000E+00  0.00000000000E+00  0.49815732617E+02  0.49815732617E+02  0.00000000000E+00 0.  1.
          1   -1    0    0  501    0  0.00000000000E+00 -0.00000000000E+00 -0.52909330920E+03  0.52909330920E+03  0.00000000000E+00 0. -1.
         25    2    1    2    0    0  0.41690550645E+02  0.95592623651E+02 -0.15039574107E+03  0.22169151888E+03  0.12510874831E+03 0.  0.
         23    2    1    2    0    0 -0.41690550645E+02 -0.95592623651E+02 -0.32888183552E+03  0.35721752294E+03  0.92547529682E+02 0.  0.
          5    1    3    3  502    0 -0.27274946487E+02  0.48104290850E+02 -0.74236288695E+01  0.55951123042E+02  0.41800000000E+01 0. -1.
         -5    1    3    3    0  502  0.68965497132E+02  0.47488332800E+02 -0.14297211220E+03  0.16574039584E+03  0.41800000000E+01 0. -1.
        -11    1    4    4    0    0 -0.19022069355E+02 -0.84206218832E+02 -0.31818306166E+03  0.32968619495E+03  0.00000000000E+00 0. -1.
         11    1    4    4    0    0 -0.22668481290E+02 -0.11386404818E+02 -0.10698773857E+02  0.27531327987E+02  0.00000000000E+00 0.  1.
</event>
<event>
 8    1  0.6185113E-009  0.2268709E+03  0.7561462E-02  0.1128862E+00
         -2   -1    0    0    0  501 -0.00000000000E+00  0.00000000000E+00  0.66158639276E+02  0.66158639276E+02  0.00000000000E+00 0. -1.
          2   -1    0    0  501    0  0.00000000000E+00 -0.00000000000E+00 -0.82109751533E+03  0.82109751533E+03  0.00000000000E+00 0.  1.
         25    2    1    2    0    0  0.11859113669E+03  0.16154375729E+03 -0.30287166225E+03  0.38410710849E+03  0.12508710476E+03 0.  0.
         23    2    1    2    0    0 -0.11859113669E+03 -0.16154375729E+03 -0.45206721380E+03  0.50314904611E+03  0.92919070091E+02 0.  0.
          5    1    3    3  502    0 -0.13814317208E+02 -0.11395739218E+02 -0.23577280513E+02  0.29900815853E+02  0.41800000000E+01 0. -1.
         -5    1    3    3    0  502  0.13240545390E+03  0.17293949651E+03 -0.27929438173E+03  0.35420629264E+03  0.41800000000E+01 0. -1.
        -11    1    4    4    0    0 -0.13165804776E+03 -0.15321282181E+03 -0.39044479929E+03  0.43960795215E+03  0.00000000000E+00 0. -1.
         11    1    4    4    0    0  0.13066911065E+02 -0.83309354834E+01 -0.61622414517E+02  0.63541093961E+02  0.00000000000E+00 0.  1.
</event>
<event>
 8    1  0.6185113E-009  0.8914713E+02  0.7561462E-02  0.1304930E+00
          2   -1    0    0  501    0  0.00000000000E+00  0.00000000000E+00  0.68501600559E+02  0.68501600559E+02  0.00000000000E+00 0. -1.
         -2   -1    0    0    0  501 -0.00000000000E+00 -0.00000000000E+00 -0.21202283814E+03  0.21202283814E+03  0.00000000000E+00 0.  1.
         25    2    1    2    0    0 -0.25221904974E+02  0.19875197309E+02 -0.15587160580E+03  0.20242218228E+03  0.12509042500E+03 0.  0.
         23    2    1    2    0    0  0.25221904974E+02 -0.19875197309E+02  0.12350368216E+02  0.78102256417E+02  0.70116067372E+02 0.  0.
          5    1    3    3  502    0 -0.73254923257E+02  0.19372687673E+02 -0.12133322361E+03  0.14311117482E+03  0.41800000000E+01 0. -1.
         -5    1    3    3    0  502  0.48033018283E+02  0.50250963662E+00 -0.34538382192E+02  0.59311007459E+02  0.41800000000E+01 0. -1.
        -11    1    4    4    0    0  0.25756376230E+02  0.74860061018E+01 -0.21640733392E+02  0.34463786002E+02  0.00000000000E+00 0.  1.
         11    1    4    4    0    0 -0.53447125575E+00 -0.27361203411E+02  0.33991101608E+02  0.43638470415E+02  0.00000000000E+00 0. -1.
</event>
<event>
 8    1  0.6185113E-009  0.1054104E+03  0.7561462E-02  0.1269313E+00
         -2   -1    0    0    0  501 -0.00000000000E+00  0.00000000000E+00  0.51490765616E+02  0.51490765616E+02  0.00000000000E+00 0.  1.
          2   -1    0    0  501    0  0.00000000000E+00 -0.00000000000E+00 -0.26248899203E+03  0.26248899203E+03  0.00000000000E+00 0. -1.
         25    2    1    2    0    0 -0.40238966587E+01  0.43808990762E+02 -0.15209533778E+03  0.20178192939E+03  0.12509011088E+03 0.  0.
         23    2    1    2    0    0  0.40238966587E+01 -0.43808990762E+02 -0.58902888638E+02  0.11219782826E+03  0.84754840331E+02 0.  0.
          5    1    3    3  502    0  0.58450514430E+02  0.33920770742E+02 -0.93627809575E+02  0.11554531774E+03  0.41800000000E+01 0. -1.
         -5    1    3    3    0  502 -0.62474411088E+02  0.98882200195E+01 -0.58467528205E+02  0.86236611659E+02  0.41800000000E+01 0. -1.
        -11    1    4    4    0    0 -0.28774332346E+02 -0.55088544291E+01 -0.54127829108E+02  0.61547799011E+02  0.00000000000E+00 0. -1.
         11    1    4    4    0    0  0.32798229005E+02 -0.38300136333E+02 -0.47750595293E+01  0.50650029245E+02  0.00000000000E+00 0.  1.
</event>
<event>
 8    1  0.6185113E-009  0.1035021E+03  0.7561462E-02  0.1273099E+00
         -1   -1    0    0    0  501 -0.00000000000E+00  0.00000000000E+00  0.54219797328E+02  0.54219797328E+02  0.00000000000E+00 0.  1.
          1   -1    0    0  501    0  0.00000000000E+00 -0.00000000000E+00 -0.30679051180E+03  0.30679051180E+03  0.00000000000E+00 0. -1.
         25    2    1    2    0    0  0.39975323768E+01 -0.71119942873E+02 -0.13901172788E+03  0.20011345343E+03  0.12508839761E+03 0.  0.
         23    2    1    2    0    0 -0.39975323768E+01  0.71119942873E+02 -0.11355898659E+03  0.16089685570E+03  0.88983864817E+02 0.  0.
          5    1    3    3  502    0  0.31721209781E+02 -0.46735507858E+02 -0.43351137975E+00  0.56640119852E+02  0.41800000000E+01 0. -1.
         -5    1    3    3    0  502 -0.27723677404E+02 -0.24384435015E+02 -0.13857821650E+03  0.14347333358E+03  0.41800000000E+01 0. -1.
        -11    1    4    4    0    0 -0.44767130946E+02  0.23637049408E+02 -0.60174310058E+02  0.78636847017E+02  0.00000000000E+00 0.  1.
         11    1    4    4    0    0  0.40769598569E+02  0.47482893465E+02 -0.53384676532E+02  0.82260008678E+02  0.00000000000E+00 0. -1.
</event>
<event>
 8    1  0.6185113E-009  0.1010042E+03  0.7561462E-02  0.1278198E+00
         -1   -1    0    0    0  501 -0.00000000000E+00  0.00000000000E+00  0.15301579977E+03  0.15301579977E+03  0.00000000000E+00 0.  1.
          1   -1    0    0  501    0  0.00000000000E+00 -0.00000000000E+00 -0.12273139561E+03  0.12273139561E+03  0.00000000000E+00 0. -1.
         25    2    1    2    0    0 -0.53453221853E+02 -0.38284761845E+02 -0.36732370034E+02  0.14601746801E+03  0.12509541974E+03 0.  0.
         23    2    1    2    0    0  0.53453221853E+02  0.38284761845E+02  0.67016774198E+02  0.12972972736E+03  0.89529795163E+02 0.  0.
          5    1    3    3  502    0 -0.55789762127E+02 -0.77373693971E+02 -0.45351091304E+02  0.10570420975E+03  0.41800000000E+01 0. -1.
         -5    1    3    3    0  502  0.23365402739E+01  0.39088932126E+02  0.86187212691E+01  0.40313258260E+02  0.41800000000E+01 0. -1.
        -11    1    4    4    0    0  0.17294904881E+02  0.50071536838E+01  0.77431550654E+02  0.79497360708E+02  0.00000000000E+00 0.  1.
         11    1    4    4    0    0  0.36158316972E+02  0.33277608161E+02 -0.10414776456E+02  0.50232366655E+02  0.00000000000E+00 0. -1.
</event>
<event>
 8    1  0.6185113E-009  0.9173566E+02  0.7561462E-02  0.1298702E+00
         -1   -1    0    0    0  501 -0.00000000000E+00  0.00000000000E+00  0.17168042847E+02  0.17168042847E+02  0.00000000000E+00 0. -1.
          1   -1    0    0  501    0  0.00000000000E+00 -0.00000000000E+00 -0.87577516257E+03  0.87577516257E+03  0.00000000000E+00 0.  1.
         25    2    1    2    0    0 -0.27038433642E+02  0.55892402579E+01 -0.66547098827E+03  0.67768760926E+03  0.12508614237E+03 0.  0.
         23    2    1    2    0    0  0.27038433642E+02 -0.55892402579E+01 -0.19313613146E+03  0.21525559616E+03  0.90945532626E+02 0.  0.
          5    1    3    3  502    0 -0.51737981587E+02  0.45219155008E+02 -0.24112430315E+03  0.25075883372E+03  0.41800000000E+01 0. -1.
         -5    1    3    3    0  502  0.24699547946E+02 -0.39629914750E+02 -0.42434668511E+03  0.42692877553E+03  0.41800000000E+01 0. -1.
        -11    1    4    4    0    0  0.35514902402E+02  0.20021601427E+02 -0.18124525767E+03  0.18577410004E+03  0.00000000000E+00 0.  1.
         11    1    4    4    0    0 -0.84764687603E+01 -0.25610841685E+02 -0.11890873787E+02  0.29481496127E+02  0.00000000000E+00 0. -1.
</event>
<event>
 8    1  0.6185113E-009  0.1537915E+03  0.7561462E-02  0.1195890E+00
          2   -1    0    0  501    0  0.00000000000E+00  0.00000000000E+00  0.11765657701E+04  0.11765657701E+04  0.00000000000E+00 0. -1.
         -2   -1    0    0    0  501 -0.00000000000E+00 -0.00000000000E+00 -0.35051516663E+02  0.35051516663E+02  0.00000000000E+00 0.  1.
         25    2    1    2    0    0 -0.11743291139E+03  0.43224188364E+02  0.94719782163E+03  0.96358190402E+03  0.12509018073E+03 0.  0.
         23    2    1    2    0    0  0.11743291139E+03 -0.43224188364E+02  0.19431643186E+03  0.24803538279E+03  0.90021421290E+02 0.  0.
          5    1    3    3  502    0 -0.14423642318E+03  0.39021868208E+02  0.79764129179E+03  0.81152692792E+03  0.41800000000E+01 0.  1.
         -5    1    3    3    0  502  0.26803511790E+02  0.42023201558E+01  0.14955652984E+03  0.15205497610E+03  0.41800000000E+01 0. -1.
        -11    1    4    4    0    0  0.10980945408E+03 -0.49809284332E+02  0.20207819384E+03  0.23531824714E+03  0.00000000000E+00 0. -1.
         11    1    4    4    0    0  0.76234573104E+01  0.65850959676E+01 -0.77617619813E+01  0.12717135657E+02  0.00000000000E+00 0.  1.
</event>
<event>
 8    1  0.6185113E-009  0.1051484E+03  0.7561462E-02  0.1269828E+00
          3   -1    0    0  501    0  0.00000000000E+00  0.00000000000E+00  0.16531531173E+03  0.16531531173E+03  0.00000000000E+00 0. -1.
         -3   -1    0    0    0  501 -0.00000000000E+00 -0.00000000000E+00 -0.78990320982E+02  0.78990320982E+02  0.00000000000E+00 0.  1.
         25    2    1    2    0    0 -0.30350337238E+02 -0.28672262938E+02  0.54031473598E+02  0.14251356687E+03  0.12508986758E+03 0.  0.
         23    2    1    2    0    0  0.30350337238E+02  0.28672262938E+02  0.32293517152E+02  0.10179206584E+03  0.87037416010E+02 0.  0.
          5    1    3    3  502    0 -0.66750811240E+01  0.49398980788E+02  0.17110150680E+02  0.52868191450E+02  0.41800000000E+01 0.  1.
         -5    1    3    3    0  502 -0.23675256114E+02 -0.78071243725E+02  0.36921322918E+02  0.89645375424E+02  0.41800000000E+01 0.  1.
        -11    1    4    4    0    0  0.15488114244E+02  0.50138191220E+02 -0.86980280216E+01  0.53191875254E+02  0.00000000000E+00 0.  1.
         11    1    4    4    0    0  0.14862222994E+02 -0.21465928282E+02  0.40991545173E+02  0.48600190586E+02  0.00000000000E+00 0. -1.
</event>
<event>
 8    1  0.6185113E-009  0.9750029E+02  0.7561462E-02  0.1285642E+00
         -2   -1    0    0    0  501 -0.00000000000E+00  0.00000000000E+00  0.33188537967E+03  0.33188537967E+03  0.00000000000E+00 0.  1.
          2   -1    0    0  501    0  0.00000000000E+00 -0.00000000000E+00 -0.61115775374E+02  0.61115775374E+02  0.00000000000E+00 0. -1.
         25    2    1    2    0    0  0.10143454274E+02 -0.69526880674E+02  0.62766412819E+02  0.15659652230E+03  0.12508385754E+03 0.  0.
         23    2    1    2    0    0 -0.10143454274E+02  0.69526880674E+02  0.20800319148E+03  0.23640463274E+03  0.87663823305E+02 0.  0.
          5    1    3    3  502    0  0.30761070224E+02 -0.56110399805E+02  0.95749414795E+02  0.11523906994E+03  0.41800000000E+01 0. -1.
         -5    1    3    3    0  502 -0.20617615950E+02 -0.13416480869E+02 -0.32983001975E+02  0.41357452360E+02  0.41800000000E+01 0. -1.
        -11    1    4    4    0    0  0.11391276445E+02 -0.14921673133E+02  0.13064045184E+02  0.22871090588E+02  0.00000000000E+00 0.  1.
         11    1    4    4    0    0 -0.21534730720E+02  0.84448553807E+02  0.19493914629E+03  0.21353354215E+03  0.00000000000E+00 0. -1.
</event>
<event>
 8    1  0.6185113E-009  0.9370471E+02  0.7561462E-02  0.1294120E+00
          2   -1    0    0  501    0  0.00000000000E+00  0.00000000000E+00  0.69577252351E+03  0.69577252351E+03  0.00000000000E+00 0. -1.
         -2   -1    0    0    0  501 -0.00000000000E+00 -0.00000000000E+00 -0.26435775181E+02  0.26435775181E+02  0.00000000000E+00 0.  1.
         25    2    1    2    0    0  0.10276686953E+02 -0.66477478684E+02  0.24896658455E+03  0.28663286959E+03  0.12509666759E+03 0.  0.
         23    2    1    2    0    0 -0.10276686953E+02  0.66477478684E+02  0.42037016378E+03  0.43557542910E+03  0.92141273982E+02 0.  0.
          5    1    3    3  502    0  0.35954616634E+02 -0.36736936307E+02  0.24082988522E+03  0.24629016009E+03  0.41800000000E+01 0. -1.
         -5    1    3    3    0  502 -0.25677929681E+02 -0.29740542378E+02  0.81366993332E+01  0.40342709498E+02  0.41800000000E+01 0. -1.
        -11    1    4    4    0    0  0.26473143913E+02  0.87345386371E+01  0.38006655020E+02  0.47134120759E+02  0.00000000000E+00 0.  1.
         11    1    4    4    0    0 -0.36749830866E+02  0.57742940047E+02  0.38236350876E+03  0.38844130834E+03  0.00000000000E+00 0. -1.
</event>
<event>
 8    1  0.6185113E-009  0.9988146E+02  0.7561462E-02  0.1280545E+00
          2   -1    0    0  501    0  0.00000000000E+00  0.00000000000E+00  0.61221144380E+02  0.61221144380E+02  0.00000000000E+00 0. -1.
         -2   -1    0    0    0  501 -0.00000000000E+00 -0.00000000000E+00 -0.27845718125E+03  0.27845718125E+03  0.00000000000E+00 0.  1.
         25    2    1    2    0    0 -0.48736430594E+02 -0.54697547341E+02 -0.14437006468E+03  0.20459049124E+03  0.12508993636E+03 0.  0.
         23    2    1    2    0    0  0.48736430594E+02  0.54697547341E+02 -0.72865972187E+02  0.13508783438E+03  0.87018456341E+02 0.  0.
          5    1    3    3  502    0 -0.64172985145E+02 -0.42423074634E+02 -0.16098254837E+03  0.17846776338E+03  0.41800000000E+01 0.  1.
         -5    1    3    3    0  502  0.15436554551E+02 -0.12274472707E+02  0.16612483694E+02  0.26122727866E+02  0.41800000000E+01 0.  1.
        -11    1    4    4    0    0  0.10553506326E+02  0.62672486086E+02 -0.14997609790E+02  0.65300423485E+02  0.00000000000E+00 0. -1.
         11    1    4    4    0    0  0.38182924267E+02 -0.79749387449E+01 -0.57868362396E+02  0.69787410899E+02  0.00000000000E+00 0.  1.
</event>
<event>
 8    1  0.6185113E-009  0.2781475E+03  0.7561462E-02  0.1096705E+00
         -1   -1    0    0    0  501 -0.00000000000E+00  0.00000000000E+00  0.61539865598E+02  0.61539865598E+02  0.00000000000E+00 0.  1.
          1   -1    0    0  501    0  0.00000000000E+00 -0.00000000000E+00 -0.13991427545E+04  0.13991427545E+04  0.00000000000E+00 0. -1.
         25    2    1    2    0    0  0.11680768046E+03 -0.23294423636E+03 -0.48930922047E+03  0.56831025069E+03  0.12508387723E+03 0.  0.
         23    2    1    2    0    0 -0.11680768046E+03  0.23294423636E+03 -0.84829366839E+03  0.89237236936E+03  0.93910842285E+02 0.  0.
          5    1    3    3  502    0  0.65901218365E+02 -0.22115345102E+03 -0.34789613566E+03  0.41749372820E+03  0.41800000000E+01 0.  1.
         -5    1    3    3    0  502  0.50906462093E+02 -0.11790785335E+02 -0.14141308481E+03  0.15081652249E+03  0.41800000000E+01 0.  1.
        -11    1    4    4    0    0 -0.84543288946E+02  0.78748378864E+02 -0.28679037633E+03  0.30918860722E+03  0.00000000000E+00 0. -1.
         11    1    4    4    0    0 -0.32264391512E+02  0.15419585749E+03 -0.56150329206E+03  0.58318376214E+03  0.00000000000E+00 0.  1.
</event>
<event>
 8    1  0.6185113E-009  0.1311760E+03  0.7561462E-02  0.1225721E+00
          2   -1    0    0  501    0  0.00000000000E+00  0.00000000000E+00  0.35815581899E+03  0.35815581899E+03  0.00000000000E+00 0. -1.
         -2   -1    0    0    0  501 -0.00000000000E+00 -0.00000000000E+00 -0.70738152575E+02  0.70738152575E+02  0.00000000000E+00 0.  1.
         25    2    1    2    0    0 -0.80265729014E+02 -0.31839383468E+02  0.26348442817E+03  0.30418401084E+03  0.12509010739E+03 0.  0.
         23    2    1    2    0    0  0.80265729014E+02  0.31839383468E+02  0.23933238240E+02  0.12470996072E+03  0.86737770416E+02 0.  0.
          5    1    3    3  502    0 -0.79587275005E+02 -0.71677063552E+02  0.15425792716E+03  0.18784226434E+03  0.41800000000E+01 0. -1.
         -5    1    3    3    0  502 -0.67845400901E+00  0.39837680085E+02  0.10922650101E+03  0.11634174650E+03  0.41800000000E+01 0. -1.
        -11    1    4    4    0    0  0.56336211338E+02  0.57164890566E+02 -0.35421608111E+01  0.80337664421E+02  0.00000000000E+00 0.  1.
         11    1    4    4    0    0  0.23929517676E+02 -0.25325507098E+02  0.27475399051E+02  0.44372296300E+02  0.00000000000E+00 0. -1.
</event>
<event>
 8    1  0.6185113E-009  0.1608685E+03  0.7561462E-02  0.1187720E+00
          1   -1    0    0  501    0  0.00000000000E+00  0.00000000000E+00  0.87609920045E+02  0.87609920045E+02  0.00000000000E+00 0. -1.
         -1   -1    0    0    0  501 -0.00000000000E+00 -0.00000000000E+00 -0.43181778281E+03  0.43181778281E+03  0.00000000000E+00 0.  1.
         25    2    1    2    0    0 -0.15124166637E+03  0.36060560315E+02 -0.12431774856E+03  0.23511081109E+03  0.12509110771E+03 0.  0.
         23    2    1    2    0    0  0.15124166637E+03 -0.36060560315E+02 -0.21989011421E+03  0.28431689176E+03  0.91159349274E+02 0.  0.
          5    1    3    3  502    0 -0.10717013171E+03  0.16032020923E+02 -0.14602927116E+03  0.18189140513E+03  0.41800000000E+01 0. -1.
         -5    1    3    3    0  502 -0.44071534659E+02  0.20028539392E+02  0.21711522599E+02  0.53219405962E+02  0.41800000000E+01 0. -1.
        -11    1    4    4    0    0  0.10670347494E+03 -0.50273303332E+02 -0.20266962588E+03  0.23449523204E+03  0.00000000000E+00 0.  1.
         11    1    4    4    0    0  0.44538191430E+02  0.14212743017E+02 -0.17220488323E+02  0.49821659727E+02  0.00000000000E+00 0. -1.
</event>
<event>
 8    1  0.6185113E-009  0.1886442E+03  0.7561462E-02  0.1159690E+00
         -2   -1    0    0    0  501 -0.00000000000E+00  0.00000000000E+00  0.14527003118E+03  0.14527003118E+03  0.00000000000E+00 0.  1.
          2   -1    0    0  501    0  0.00000000000E+00 -0.00000000000E+00 -0.39076670835E+03  0.39076670835E+03  0.00000000000E+00 0. -1.
         25    2    1    2    0    0  0.38349670238E+00 -0.15901306165E+03 -0.28516775750E+03  0.34964770196E+03  0.12509022633E+03 0.  0.
         23    2    1    2    0    0 -0.38349670238E+00  0.15901306165E+03  0.39671080330E+02  0.18638903756E+03  0.88779377466E+02 0.  0.
          5    1    3    3  502    0 -0.43710134204E+02 -0.17305962647E+02 -0.11205708589E+03  0.12159085111E+03  0.41800000000E+01 0. -1.
         -5    1    3    3    0  502  0.44093630906E+02 -0.14170709900E+03 -0.17311067161E+03  0.22805685085E+03  0.41800000000E+01 0. -1.
        -11    1    4    4    0    0  0.88243498028E+01  0.16830867523E+03  0.40295954514E+02  0.17329005528E+03  0.00000000000E+00 0.  1.
         11    1    4    4    0    0 -0.92078465052E+01 -0.92956135818E+01 -0.62487418343E+00  0.13098982284E+02  0.00000000000E+00 0. -1.
</event>
<event>
 8    1  0.6185113E-009  0.1159598E+03  0.7561462E-02  0.1249915E+00
         -2   -1    0    0    0  501 -0.00000000000E+00  0.00000000000E+00  0.18012913109E+02  0.18012913109E+02  0.00000000000E+00 0.  1.
          2   -1    0    0  501    0  0.00000000000E+00 -0.00000000000E+00 -0.10077766559E+04  0.10077766559E+04  0.00000000000E+00 0. -1.
         25    2    1    2    0    0 -0.33589233314E+02 -0.71906500272E+02 -0.47848963637E+03  0.50089787246E+03  0.12509022800E+03 0.  0.
         23    2    1    2    0    0  0.33589233314E+02  0.71906500272E+02 -0.51127410646E+03  0.52489169659E+03  0.88381558244E+02 0.  0.
          5    1    3    3  502    0 -0.87234981910E+01 -0.89031024124E+02 -0.45115121052E+03  0.45995381271E+03  0.41800000000E+01 0.  1.
         -5    1    3    3    0  502 -0.24865735123E+02  0.17124523852E+02 -0.27338425857E+02  0.40944059748E+02  0.41800000000E+01 0.  1.
        -11    1    4    4    0    0 -0.16204940632E+02 -0.77362628326E+01 -0.33874035601E+02  0.38339276876E+02  0.00000000000E+00 0.  1.
         11    1    4    4    0    0  0.49794173946E+02  0.79642763105E+02 -0.47740007086E+03  0.48655241972E+03  0.00000000000E+00 0. -1.
</event>
<event>
 8    1  0.6185113E-009  0.9129311E+02  0.7561462E-02  0.1299750E+00
         -2   -1    0    0    0  501 -0.00000000000E+00  0.00000000000E+00  0.29602559055E+03  0.29602559055E+03  0.00000000000E+00 0.  1.
          2   -1    0    0  501    0  0.00000000000E+00 -0.00000000000E+00 -0.46698656735E+02  0.46698656735E+02  0.00000000000E+00 0. -1.
         25    2    1    2    0    0 -0.23909314750E+01 -0.44673617514E+02  0.12510778716E+03  0.18248337892E+03  0.12508707575E+03 0.  0.
         23    2    1    2    0    0  0.23909314750E+01  0.44673617514E+02  0.12421914666E+03  0.16024086837E+03  0.90803583873E+02 0.  0.
          5    1    3    3  502    0 -0.14722338756E+01 -0.74910695716E+02  0.27030273504E+02  0.79761443637E+02  0.41800000000E+01 0. -1.
         -5    1    3    3    0  502 -0.91869759941E+00  0.30237078203E+02  0.98077513653E+02  0.10272193528E+03  0.41800000000E+01 0. -1.
        -11    1    4    4    0    0 -0.21630425535E+02 -0.46675308279E+01 -0.23832898391E+01  0.22256262563E+02  0.00000000000E+00 0. -1.
         11    1    4    4    0    0  0.24021357010E+02  0.49341148342E+02  0.12660243650E+03  0.13798460581E+03  0.00000000000E+00 0.  1.
</event>
<event>
 8    1  0.6185113E-009  0.8638978E+02  0.7561462E-02  0.1311838E+00
         -1   -1    0    0    0  501 -0.00000000000E+00  0.00000000000E+00  0.54688041360E+02  0.54688041360E+02  0.00000000000E+00 0.  1.
          1   -1    0    0  501    0  0.00000000000E+00 -0.00000000000E+00 -0.34483173619E+03  0.34483173619E+03  0.00000000000E+00 0. -1.
         25    2    1    2    0    0 -0.18707445811E+02  0.39059301460E+02 -0.26173777276E+03  0.29330820733E+03  0.12508974874E+03 0.  0.
         23    2    1    2    0    0  0.18707445811E+02 -0.39059301460E+02 -0.28405922072E+02  0.10621157022E+03  0.92727577777E+02 0.  0.
          5    1    3    3  502    0  0.33132552307E+02 -0.28647812226E+02 -0.12037429088E+03  0.12816358871E+03  0.41800000000E+01 0.  1.
         -5    1    3    3    0  502 -0.51839998118E+02  0.67707113686E+02 -0.14136348188E+03  0.16514461862E+03  0.41800000000E+01 0.  1.
        -11    1    4    4    0    0  0.77536131207E+01 -0.19523622464E+02  0.33967713884E+02  0.39938652169E+02  0.00000000000E+00 0.  1.
         11    1    4    4    0    0  0.10953832690E+02 -0.19535678996E+02 -0.62373635957E+02  0.66272918050E+02  0.00000000000E+00 0. -1.
</event>
<event>
 8    1  0.6185113E-009  0.1024587E+03  0.7561462E-02  0.1275209E+00
          2   -1    0    0  501    0  0.00000000000E+00  0.00000000000E+00  0.36014796390E+03  0.36014796390E+03  0.00000000000E+00 0. -1.
         -2   -1    0    0    0  501 -0.00000000000E+00 -0.00000000000E+00 -0.40862027076E+02  0.40862027076E+02  0.00000000000E+00 0.  1.
         25    2    1    2    0    0  0.45405640740E+02  0.13159353724E+01  0.22671679904E+03  0.26288837111E+03  0.12508550997E+03 0.  0.
         23    2    1    2    0    0 -0.45405640740E+02 -0.13159353724E+01  0.92569137780E+02  0.13812161986E+03  0.91897403150E+02 0.  0.
          5    1    3    3  502    0 -0.29271013688E+02 -0.37518594109E+02  0.66775810678E+02  0.82103096397E+02  0.41800000000E+01 0. -1.
         -5    1    3    3    0  502  0.74676654428E+02  0.38834529482E+02  0.15994098836E+03  0.18078527472E+03  0.41800000000E+01 0. -1.
        -11    1    4    4    0    0 -0.41002568957E+02 -0.25504401300E+02  0.66369824301E+01  0.48741508825E+02  0.00000000000E+00 0.  1.
         11    1    4    4    0    0 -0.44030717830E+01  0.24188465928E+02  0.85932155350E+02  0.89380111032E+02  0.00000000000E+00 0. -1.
</event>
<event>
 8    1  0.6185113E-009  0.7252359E+02  0.7561462E-02  0.1351716E+00
         -1   -1    0    0    0  501 -0.00000000000E+00  0.00000000000E+00  0.23522938261E+02  0.23522938261E+02  0.00000000000E+00 0.  1.
          1   -1    0    0  501    0  0.00000000000E+00 -0.00000000000E+00 -0.52510332494E+03  0.52510332494E+03  0.00000000000E+00 0. -1.
         25    2    1    2    0    0 -0.30918797903E+02  0.13655076276E+02 -0.32699122104E+03  0.35173393539E+03  0.12510423453E+03 0.  0.
         23    2    1    2    0    0  0.30918797903E+02 -0.13655076276E+02 -0.17458916564E+03  0.19689232781E+03  0.84514962106E+02 0.  0.
          5    1    3    3  502    0 -0.80223370357E+01  0.49661622968E+02 -0.29217596258E+03  0.29650446911E+03  0.41800000000E+01 0. -1.
         -5    1    3    3    0  502 -0.22896460867E+02 -0.36006546692E+02 -0.34815258455E+02  0.55229466285E+02  0.41800000000E+01 0. -1.
        -11    1    4    4    0    0  0.14528090764E+02  0.13593424982E+02 -0.47837986913E+00  0.19901644939E+02  0.00000000000E+00 0.  1.
         11    1    4    4    0    0  0.16390707139E+02 -0.27248501258E+02 -0.17411078578E+03  0.17699068288E+03  0.00000000000E+00 0. -1.
</event>
<event>
 8    1  0.6185113E-009  0.1288535E+03  0.7561462E-02  0.1229167E+00
          1   -1    0    0  501    0  0.00000000000E+00  0.00000000000E+00  0.10803734297E+04  0.10803734297E+04  0.00000000000E+00 0.  1.
         -1   -1    0    0    0  501 -0.00000000000E+00 -0.00000000000E+00 -0.16731086581E+02  0.16731086581E+02  0.00000000000E+00 0. -1.
         25    2    1    2    0    0  0.27330831744E+02 -0.71304451068E+02  0.60319801632E+03  0.62074799327E+03  0.12509566399E+03 0.  0.
         23    2    1    2    0    0 -0.27330831744E+02  0.71304451068E+02  0.46044432682E+03  0.47635652304E+03  0.95264158154E+02 0.  0.
          5    1    3    3  502    0  0.71702830381E+02 -0.45253138349E+02  0.47534870872E+03  0.48286955764E+03  0.41800000000E+01 0.  1.
         -5    1    3    3    0  502 -0.44371998637E+02 -0.26051312719E+02  0.12784930760E+03  0.13787843563E+03  0.41800000000E+01 0.  1.
        -11    1    4    4    0    0  0.99448166285E+01  0.81850719267E+02  0.28507578367E+03  0.29676024339E+03  0.00000000000E+00 0.  1.
         11    1    4    4    0    0 -0.37275648373E+02 -0.10546268199E+02  0.17536854315E+03  0.17959627964E+03  0.00000000000E+00 0. -1.
</event>
<event>
 8    1  0.6185113E-009  0.1133305E+03  0.7561462E-02  0.1254524E+00
          1   -1    0    0  501    0  0.00000000000E+00  0.00000000000E+00  0.84769578901E+03  0.84769578901E+03  0.00000000000E+00 0. -1.
         -1   -1    0    0    0  501 -0.00000000000E+00 -0.00000000000E+00 -0.29965114154E+02  0.29965114154E+02  0.00000000000E+00 0.  1.
         25    2    1    2    0    0  0.89044565059E+02 -0.26818798410E+02  0.24718568901E+03  0.29222956025E+03  0.12509663673E+03 0.  0.
         23    2    1    2    0    0 -0.89044565059E+02  0.26818798410E+02  0.57054498585E+03  0.58543134291E+03  0.92520775342E+02 0.  0.
          5    1    3    3  502    0  0.93912203933E+02 -0.95354329288E+01  0.25519752799E+03  0.27212805298E+03  0.41800000000E+01 0. -1.
         -5    1    3    3    0  502 -0.48676388747E+01 -0.17283365481E+02 -0.80118389837E+01  0.20101507268E+02  0.41800000000E+01 0. -1.
        -11    1    4    4    0    0  0.84108114453E+01 -0.66216513160E+01  0.75825633907E+01  0.13118051795E+02  0.00000000000E+00 0.  1.
         11    1    4    4    0    0 -0.97455376504E+02  0.33440449726E+02  0.56296242246E+03  0.57231329111E+03  0.00000000000E+00 0. -1.
</event>
<event>
 8    1  0.6185113E-009  0.1359388E+03  0.7561462E-02  0.1218900E+00
         -2   -1    0    0    0  501 -0.00000000000E+00  0.00000000000E+00  0.20946549452E+03  0.20946549452E+03  0.00000000000E+00 0.  1.
          2   -1    0    0  501    0  0.00000000000E+00 -0.00000000000E+00 -0.17369062230E+03  0.17369062230E+03  0.00000000000E+00 0. -1.
         25    2    1    2    0    0 -0.92202612101E+02 -0.64835352566E+02 -0.89914237014E+02  0.19088494383E+03  0.12509015606E+03 0.  0.
         23    2    1    2    0    0  0.92202612101E+02  0.64835352566E+02  0.12568910923E+03  0.19227117298E+03  0.92008190716E+02 0.  0.
          5    1    3    3  502    0  0.16761369659E+02 -0.42418345222E+02 -0.60238417364E+02  0.75672973054E+02  0.41800000000E+01 0. -1.
         -5    1    3    3    0  502 -0.10896398176E+03 -0.22417007344E+02 -0.29675819650E+02  0.11521197078E+03  0.41800000000E+01 0. -1.
        -11    1    4    4    0    0  0.37486907088E+02  0.13849967635E+02  0.10836952110E+03  0.11550343246E+03  0.00000000000E+00 0.  1.
         11    1    4    4    0    0  0.54715705014E+02  0.50985384931E+02  0.17319588135E+02  0.76767740522E+02  0.00000000000E+00 0. -1.
</event>
<event>
 8    1  0.6185113E-009  0.1156183E+03  0.7561462E-02  0.1250506E+00
          2   -1    0    0  501    0  0.00000000000E+00  0.00000000000E+00  0.46578916260E+03  0.46578916260E+03  0.00000000000E+00 0. -1.
         -2   -1    0    0    0  501 -0.00000000000E+00 -0.00000000000E+00 -0.42883016975E+02  0.42883016975E+02  0.00000000000E+00 0.  1.
         25    2    1    2    0    0  0.26749139994E+02  0.87272075461E+02  0.26376055345E+03  0.30585733589E+03  0.12508856348E+03 0.  0.
         23    2    1    2    0    0 -0.26749139994E+02 -0.87272075461E+02  0.15914559218E+03  0.20281484369E+03  0.86455824941E+02 0.  0.
          5    1    3    3  502    0  0.20485045271E+02  0.10333536489E+03  0.11488736521E+03  0.15593079812E+03  0.41800000000E+01 0.  1.
         -5    1    3    3    0  502  0.62640947229E+01 -0.16063289433E+02  0.14887318824E+03  0.14992653777E+03  0.41800000000E+01 0.  1.
        -11    1    4    4    0    0 -0.44991280025E+02 -0.67938355033E+02  0.62820766509E+02  0.10288966939E+03  0.00000000000E+00 0.  1.
         11    1    4    4    0    0  0.18242140031E+02 -0.19333720428E+02  0.96324825668E+02  0.99925174298E+02  0.00000000000E+00 0. -1.
</event>
<event>
 8    1  0.6185113E-009  0.2209987E+03  0.7561462E-02  0.1133141E+00
         -1   -1    0    0    0  501 -0.00000000000E+00  0.00000000000E+00  0.42177393427E+02  0.42177393427E+02  0.00000000000E+00 0.  1.
          1   -1    0    0  501    0  0.00000000000E+00 -0.00000000000E+00 -0.15103249088E+04  0.15103249088E+04  0.00000000000E+00 0. -1.
         25    2    1    2    0    0  0.20257072314E+03 -0.67629141309E+02 -0.99267247401E+03  0.10230614791E+04  0.12509017029E+03 0.  0.
         23    2    1    2    0    0 -0.20257072314E+03  0.67629141309E+02 -0.47547504134E+03  0.52944082312E+03  0.92857264770E+02 0.  0.
          5    1    3    3  502    0  0.79932498182E+02 -0.59773991259E+02 -0.67622930990E+03  0.68356834791E+03  0.41800000000E+01 0.  1.
         -5    1    3    3    0  502  0.12263822496E+03 -0.78551500496E+01 -0.31644316411E+03  0.33949313117E+03  0.41800000000E+01 0.  1.
        -11    1    4    4    0    0 -0.29065066100E+02  0.29660510532E+02 -0.17969588947E+03  0.18443192957E+03  0.00000000000E+00 0.  1.
         11    1    4    4    0    0 -0.17350565704E+03  0.37968630777E+02 -0.29577915188E+03  0.34500889356E+03  0.00000000000E+00 0. -1.
</event>
<event>
 8    1  0.6185113E-009  0.1187477E+03  0.7561462E-02  0.1245177E+00
         -1   -1    0    0    0  501 -0.00000000000E+00  0.00000000000E+00  0.24777196711E+02  0.24777196711E+02  0.00000000000E+00 0.  1.
          1   -1    0    0  501    0  0.00000000000E+00 -0.00000000000E+00 -0.15269640186E+04  0.15269640186E+04  0.00000000000E+00 0. -1.
         25    2    1    2    0    0  0.20917696860E+02  0.10674586687E+03 -0.12639561090E+04  0.12747800922E+04  0.12508799999E+03 0.  0.
         23    2    1    2    0    0 -0.20917696860E+02 -0.10674586687E+03 -0.23823071281E+03  0.27696112307E+03  0.90118594280E+02 0.  0.
          5    1    3    3  502    0  0.23712473820E+02  0.95332206137E+02 -0.12563075733E+04  0.12601494760E+04  0.41800000000E+01 0.  1.
         -5    1    3    3    0  502 -0.27947769602E+01  0.11413660731E+02 -0.76485357897E+01  0.14630616161E+02  0.41800000000E+01 0.  1.
        -11    1    4    4    0    0 -0.44279951661E+02 -0.61581686607E+02 -0.77757216380E+02  0.10862413610E+03  0.00000000000E+00 0.  1.
         11    1    4    4    0    0  0.23362254801E+02 -0.45164180261E+02 -0.16047349643E+03  0.16833698697E+03  0.00000000000E+00 0. -1.
</event>
<event>
 8    1  0.6185113E-009  0.1192153E+03  0.7561462E-02  0.1244397E+00
         -2   -1    0    0    0  501 -0.00000000000E+00  0.00000000000E+00  0.50507653529E+03  0.50507653529E+03  0.00000000000E+00 0.  1.
          2   -1    0    0  501    0  0.00000000000E+00 -0.00000000000E+00 -0.33528498269E+02  0.33528498269E+02  0.00000000000E+00 0. -1.
         25    2    1    2    0    0  0.62596078697E+02  0.14342194379E+02  0.33849668313E+03  0.36653914068E+03  0.12508784734E+03 0.  0.
         23    2    1    2    0    0 -0.62596078697E+02 -0.14342194379E+02  0.13305135388E+03  0.17206589287E+03  0.88204541337E+02 0.  0.
          5    1    3    3  502    0  0.24042298792E+02  0.65764672548E+02  0.12269425472E+03  0.14133073561E+03  0.41800000000E+01 0. -1.
         -5    1    3    3    0  502  0.38553779906E+02 -0.51422478169E+02  0.21580242841E+03  0.22520840507E+03  0.41800000000E+01 0. -1.
        -11    1    4    4    0    0 -0.31711508902E+02  0.34012250374E+02  0.86392654646E+02  0.98112913264E+02  0.00000000000E+00 0.  1.
         11    1    4    4    0    0 -0.30884569795E+02 -0.48354444753E+02  0.46658699238E+02  0.73952979611E+02  0.00000000000E+00 0. -1.
</event>
<event>
 8    1  0.6185113E-009  0.1030629E+03  0.7561462E-02  0.1273984E+00
         -2   -1    0    0    0  501 -0.00000000000E+00  0.00000000000E+00  0.29351580488E+02  0.29351580488E+02  0.00000000000E+00 0.  1.
          2   -1    0    0  501    0  0.00000000000E+00 -0.00000000000E+00 -0.61573046723E+03  0.61573046723E+03  0.00000000000E+00 0. -1.
         25    2    1    2    0    0  0.28746509291E+02  0.67499623256E+02 -0.28762526109E+03  0.32211116331E+03  0.12507897415E+03 0.  0.
         23    2    1    2    0    0 -0.28746509291E+02 -0.67499623256E+02 -0.29875362565E+03  0.32297088441E+03  0.98355998296E+02 0.  0.
          5    1    3    3  502    0  0.42390767247E+01  0.76655639375E+02 -0.28534202082E+03  0.29551920084E+03  0.41800000000E+01 0. -1.
         -5    1    3    3    0  502  0.24507432566E+02 -0.91560161187E+01 -0.22832402790E+01  0.26591962476E+02  0.41800000000E+01 0. -1.
        -11    1    4    4    0    0  0.76997462264E+01 -0.65811391008E+02 -0.94085153590E+02  0.11507580721E+03  0.00000000000E+00 0.  1.
         11    1    4    4    0    0 -0.36446255517E+02 -0.16882322475E+01 -0.20466847206E+03  0.20789507720E+03  0.00000000000E+00 0. -1.
</event>
<event>
 8    1  0.6185113E-009  0.9777257E+02  0.7561462E-02  0.1285051E+00
          2   -1    0    0  501    0  0.00000000000E+00  0.00000000000E+00  0.52465687992E+03  0.52465687992E+03  0.00000000000E+00 0. -1.
         -2   -1    0    0    0  501 -0.00000000000E+00 -0.00000000000E+00 -0.28746717299E+02  0.28746717299E+02  0.00000000000E+00 0.  1.
         25    2    1    2    0    0  0.66975787911E+01  0.56759051240E+02  0.29285724153E+03  0.32354490469E+03  0.12509793755E+03 0.  0.
         23    2    1    2    0    0 -0.66975787911E+01 -0.56759051240E+02  0.20305292109E+03  0.22985869252E+03  0.91313100405E+02 0.  0.
          5    1    3    3  502    0  0.26536985764E+02 -0.13572722881E+02  0.21340003552E+03  0.21551212954E+03  0.41800000000E+01 0. -1.
         -5    1    3    3    0  502 -0.19839406973E+02  0.70331774121E+02  0.79457206003E+02  0.10803277515E+03  0.41800000000E+01 0. -1.
        -11    1    4    4    0    0  0.17403342752E+02  0.10827055652E+02  0.79586380764E+01  0.21987300723E+02  0.00000000000E+00 0.  1.
         11    1    4    4    0    0 -0.24100921543E+02 -0.67586106892E+02  0.19509428302E+03  0.20787139180E+03  0.00000000000E+00 0. -1.
</event>
<event>
 8    1  0.6185113E-009  0.1123768E+03  0.7561462E-02  0.1256231E+00
         -2   -1    0    0    0  501 -0.00000000000E+00  0.00000000000E+00  0.33259515942E+02  0.33259515942E+02  0.00000000000E+00 0.  1.
          2   -1    0    0  501    0  0.00000000000E+00 -0.00000000000E+00 -0.75987545541E+03  0.75987545541E+03  0.00000000000E+00 0. -1.
         25    2    1    2    0    0 -0.54359547942E+02  0.83064455377E+02 -0.54244540037E+03  0.56546379294E+03  0.12509046543E+03 0.  0.
         23    2    1    2    0    0  0.54359547942E+02 -0.83064455377E+02 -0.18417053910E+03  0.22767117841E+03  0.89781478097E+02 0.  0.
          5    1    3    3  502    0 -0.11966620196E+02  0.73797055041E+02 -0.49654914715E+03  0.50216305446E+03  0.41800000000E+01 0. -1.
         -5    1    3    3    0  502 -0.42392927746E+02  0.92674003362E+01 -0.45896253221E+02  0.63300738476E+02  0.41800000000E+01 0. -1.
        -11    1    4    4    0    0  0.16639666336E+02 -0.59551832159E+02 -0.17019288683E+03  0.18107710495E+03  0.00000000000E+00 0. -1.
         11    1    4    4    0    0  0.37719881606E+02 -0.23512623219E+02 -0.13977652265E+02  0.46594073462E+02  0.00000000000E+00 0.  1.
</event>
<event>
 8    1  0.6185113E-009  0.9894259E+02  0.7561462E-02  0.1282535E+00
          2   -1    0    0  501    0  0.00000000000E+00  0.00000000000E+00  0.16212003485E+04  0.16212003485E+04  0.00000000000E+00 0. -1.
         -2   -1    0    0    0  501 -0.00000000000E+00 -0.00000000000E+00 -0.23775000638E+02  0.23775000638E+02  0.00000000000E+00 0.  1.
         25    2    1    2    0    0 -0.48426783976E+02  0.35305372335E+01  0.14920822965E+04  0.14981038486E+04  0.12509174118E+03 0.  0.
         23    2    1    2    0    0  0.48426783976E+02 -0.35305372335E+01  0.10534305138E+03  0.14687150050E+03  0.90091404068E+02 0.  0.
          5    1    3    3  502    0  0.32604241803E+02 -0.11306360848E+02  0.85469397796E+03  0.85540057209E+03  0.41800000000E+01 0.  1.
         -5    1    3    3    0  502 -0.81031025778E+02  0.14836898082E+02  0.63738831853E+03  0.64270327655E+03  0.41800000000E+01 0.  1.
        -11    1    4    4    0    0  0.39513911522E+01  0.26617585313E+02 -0.18429751688E+01  0.26972317242E+02  0.00000000000E+00 0.  1.
         11    1    4    4    0    0  0.44475392824E+02 -0.30148122546E+02  0.10718602655E+03  0.11989918326E+03  0.00000000000E+00 0. -1.
</event>
<event>
 8    1  0.6185113E-009  0.4137501E+03  0.7561462E-02  0.1039120E+00
         -1   -1    0    0    0  501 -0.00000000000E+00  0.00000000000E+00  0.65949346157E+02  0.65949346157E+02  0.00000000000E+00 0.  1.
          1   -1    0    0  501    0  0.00000000000E+00 -0.00000000000E+00 -0.26739487049E+04  0.26739487049E+04  0.00000000000E+00 0. -1.
         25    2    1    2    0    0  0.19066750329E+03 -0.35400463207E+03 -0.11490775988E+04  0.12238055943E+04  0.12508968105E+03 0.  0.
         23    2    1    2    0    0 -0.19066750329E+03  0.35400463207E+03 -0.14589217599E+04  0.15160924567E+04  0.91707466235E+02 0.  0.
          5    1    3    3  502    0  0.11093286086E+03 -0.29725668640E+03 -0.78306868428E+03  0.84491518742E+03  0.41800000000E+01 0.  1.
         -5    1    3    3    0  502  0.79734642438E+02 -0.56747945673E+02 -0.36600891447E+03  0.37889040687E+03  0.41800000000E+01 0.  1.
        -11    1    4    4    0    0 -0.12147966338E+03  0.13060885147E+03 -0.65335563534E+03  0.67726624523E+03  0.00000000000E+00 0. -1.
         11    1    4    4    0    0 -0.69187839910E+02  0.22339578061E+03 -0.80556612460E+03  0.83882621149E+03  0.00000000000E+00 0.  1.
</event>
<event>
 8    1  0.6185113E-009  0.1489980E+03  0.7561462E-02  0.1201710E+00
         -2   -1    0    0    0  501 -0.00000000000E+00  0.00000000000E+00  0.10995822386E+03  0.10995822386E+03  0.00000000000E+00 0.  1.
          2   -1    0    0  501    0  0.00000000000E+00 -0.00000000000E+00 -0.24441624253E+03  0.24441624253E+03  0.00000000000E+00 0. -1.
         25    2    1    2    0    0 -0.39355376752E+02 -0.98880086181E+02 -0.58286052052E+01  0.16433785215E+03  0.12508732904E+03 0.  0.
         23    2    1    2    0    0  0.39355376752E+02  0.98880086181E+02 -0.12862941347E+03  0.19003661424E+03  0.90786957324E+02 0.  0.
          5    1    3    3  502    0  0.35413443261E+02  0.38399763230E+01  0.71052906798E+01  0.36562479913E+02  0.41800000000E+01 0.  1.
         -5    1    3    3    0  502 -0.74768820012E+02 -0.10272006250E+03 -0.12933895885E+02  0.12777537223E+03  0.41800000000E+01 0.  1.
        -11    1    4    4    0    0  0.59870119681E+02  0.38350109003E+02 -0.92338408414E+02  0.11653988055E+03  0.00000000000E+00 0. -1.
         11    1    4    4    0    0 -0.20514742929E+02  0.60529977178E+02 -0.36291005053E+02  0.73496733685E+02  0.00000000000E+00 0.  1.
</event>
<event>
 8    1  0.6185113E-009  0.2368405E+03  0.7561462E-02  0.1121916E+00
         -2   -1    0    0    0  501 -0.00000000000E+00  0.00000000000E+00  0.37235654173E+02  0.37235654173E+02  0.00000000000E+00 0.  1.
          2   -1    0    0  501    0  0.00000000000E+00 -0.00000000000E+00 -0.17076433264E+04  0.17076433264E+04  0.00000000000E+00 0. -1.
         25    2    1    2    0    0 -0.19817662711E+03  0.95169113240E+02 -0.10513151896E+04  0.10813169261E+04  0.12510607926E+03 0.  0.
         23    2    1    2    0    0  0.19817662711E+03 -0.95169113240E+02 -0.61909248260E+03  0.66356205448E+03  0.93316464172E+02 0.  0.
          5    1    3    3  502    0 -0.31445672933E+02  0.70581786261E+02 -0.22371168387E+03  0.23671714936E+03  0.41800000000E+01 0. -1.
         -5    1    3    3    0  502 -0.16673095417E+03  0.24587326979E+02 -0.82760350573E+03  0.84459977671E+03  0.41800000000E+01 0.  1.
        -11    1    4    4    0    0  0.11710008674E+02  0.84021285207E+01 -0.83788870823E+01  0.16671107209E+02  0.00000000000E+00 0.  1.
         11    1    4    4    0    0  0.18646661843E+03 -0.10357124176E+03 -0.61071359552E+03  0.64689094727E+03  0.00000000000E+00 0. -1.
</event>
<event>
 8    1  0.6185113E-009  0.1171486E+03  0.7561462E-02  0.1247876E+00
          1   -1    0    0  501    0  0.00000000000E+00  0.00000000000E+00  0.99930507543E+03  0.99930507543E+03  0.00000000000E+00 0. -1.
         -1   -1    0    0    0  501 -0.00000000000E+00 -0.00000000000E+00 -0.25081353640E+02  0.25081353640E+02  0.00000000000E+00 0.  1.
         25    2    1    2    0    0  0.29043544049E+02 -0.83577981830E+02  0.76719359544E+03  0.78234425532E+03  0.12509082480E+03 0.  0.
         23    2    1    2    0    0 -0.29043544049E+02  0.83577981830E+02  0.20703012635E+03  0.24204217375E+03  0.88848940120E+02 0.  0.
          5    1    3    3  502    0 -0.19865614094E+02 -0.32657240948E+02  0.59430473268E+03  0.59554741683E+03  0.41800000000E+01 0.  1.
         -5    1    3    3    0  502  0.48909158143E+02 -0.50920740881E+02  0.17288886276E+03  0.18679683849E+03  0.41800000000E+01 0.  1.
        -11    1    4    4    0    0  0.31989040489E+02  0.31298918448E+02  0.66502972231E+02  0.80159630257E+02  0.00000000000E+00 0. -1.
         11    1    4    4    0    0 -0.61032584538E+02  0.52279063382E+02  0.14052715412E+03  0.16188254350E+03  0.00000000000E+00 0.  1.
</event>
<event>
 8    1  0.6185113E-009  0.1050060E+03  0.7561462E-02  0.1270108E+00
         -1   -1    0    0    0  501 -0.00000000000E+00  0.00000000000E+00  0.17635375968E+03  0.17635375968E+03  0.00000000000E+00 0.  1.
          1   -1    0    0  501    0  0.00000000000E+00 -0.00000000000E+00 -0.10214220859E+03  0.10214220859E+03  0.00000000000E+00 0. -1.
         25    2    1    2    0    0 -0.61683193312E+02  0.43261371520E+02  0.64081680692E+02  0.15947176872E+03  0.12509364739E+03 0.  0.
         23    2    1    2    0    0  0.61683193312E+02 -0.43261371520E+02  0.10129870393E+02  0.11902419955E+03  0.91584841546E+02 0.  0.
          5    1    3    3  502    0 -0.13642659042E+00 -0.22460863364E+02  0.65450184517E+02  0.69323214355E+02  0.41800000000E+01 0.  1.
         -5    1    3    3    0  502 -0.61546766721E+02  0.65722234884E+02 -0.13685038244E+01  0.90148554368E+02  0.41800000000E+01 0.  1.
        -11    1    4    4    0    0  0.65696221751E+02 -0.13592298751E+02  0.38860207621E+02  0.77529735418E+02  0.00000000000E+00 0.  1.
         11    1    4    4    0    0 -0.40130284389E+01 -0.29669072769E+02 -0.28730337227E+02  0.41494464130E+02  0.00000000000E+00 0. -1.
</event>
<event>
 8    1  0.6185113E-009  0.2339547E+03  0.7561462E-02  0.1123887E+00
         -1   -1    0    0    0  501 -0.00000000000E+00  0.00000000000E+00  0.81504097083E+02  0.81504097083E+02  0.00000000000E+00 0.  1.
          1   -1    0    0  501    0  0.00000000000E+00 -0.00000000000E+00 -0.82586426736E+03  0.82586426736E+03  0.00000000000E+00 0. -1.
         25    2    1    2    0    0  0.13714053092E+02  0.22533215138E+03 -0.26684914899E+03  0.37123457641E+03  0.12507593179E+03 0.  0.
         23    2    1    2    0    0 -0.13714053092E+02 -0.22533215138E+03 -0.47751102129E+03  0.53613378803E+03  0.91978310029E+02 0.  0.
          5    1    3    3  502    0  0.34321542198E+02  0.45198082681E+02 -0.13651864503E+03  0.14790418445E+03  0.41800000000E+01 0.  1.
         -5    1    3    3    0  502 -0.20607489106E+02  0.18013406870E+03 -0.13033050396E+03  0.22333039197E+03  0.41800000000E+01 0.  1.
        -11    1    4    4    0    0  0.13879537305E+02 -0.11841040767E+03 -0.33672769346E+03  0.35721031025E+03  0.00000000000E+00 0. -1.
         11    1    4    4    0    0 -0.27593590397E+02 -0.10692174371E+03 -0.14078332783E+03  0.17892347779E+03  0.00000000000E+00 0.  1.
</event>
<event>
 8    1  0.6185113E-009  0.1382652E+03  0.7561462E-02  0.1215683E+00
          1   -1    0    0  501    0  0.00000000000E+00  0.00000000000E+00  0.10682995237E+03  0.10682995237E+03  0.00000000000E+00 0. -1.
         -1   -1    0    0    0  501 -0.00000000000E+00 -0.00000000000E+00 -0.22827502978E+03  0.22827502978E+03  0.00000000000E+00 0.  1.
         25    2    1    2    0    0 -0.80171882566E+02 -0.79412158353E+02 -0.70713305025E+02  0.18270749325E+03  0.12509130638E+03 0.  0.
         23    2    1    2    0    0  0.80171882566E+02  0.79412158353E+02 -0.50731772387E+02  0.15239748891E+03  0.88980111524E+02 0.  0.
          5    1    3    3  502    0 -0.92905876048E+02 -0.84572726961E+02 -0.16689333330E+02  0.12680715357E+03  0.41800000000E+01 0.  1.
         -5    1    3    3    0  502  0.12733993482E+02  0.51605686075E+01 -0.54023971694E+02  0.55900339677E+02  0.41800000000E+01 0.  1.
        -11    1    4    4    0    0  0.20545309951E+02  0.73763161684E+02 -0.51882716240E+02  0.92492864736E+02  0.00000000000E+00 0. -1.
         11    1    4    4    0    0  0.59626572615E+02  0.56489966697E+01  0.11509438538E+01  0.59904624170E+02  0.00000000000E+00 0.  1.
</event>
<event>
 8    1  0.6185113E-009  0.9266102E+02  0.7561462E-02  0.1296533E+00
         -1   -1    0    0    0  501 -0.00000000000E+00  0.00000000000E+00  0.16577616687E+02  0.16577616687E+02  0.00000000000E+00 0.  1.
          1   -1    0    0  501    0  0.00000000000E+00 -0.00000000000E+00 -0.72295396519E+03  0.72295396519E+03  0.00000000000E+00 0. -1.
         25    2    1    2    0    0  0.15715683925E+02  0.22160557634E+02 -0.51732985809E+03  0.53293026375E+03  0.12508561433E+03 0.  0.
         23    2    1    2    0    0 -0.15715683925E+02 -0.22160557634E+02 -0.18904649042E+03  0.20660131813E+03  0.78787410665E+02 0.  0.
          5    1    3    3  502    0 -0.49608317182E+02  0.17749988905E+02 -0.13436518048E+03  0.14438670772E+03  0.41800000000E+01 0.  1.
         -5    1    3    3    0  502  0.65324001107E+02  0.44105687287E+01 -0.38296467761E+03  0.38854355603E+03  0.41800000000E+01 0.  1.
        -11    1    4    4    0    0 -0.27876249390E+02  0.12188291236E+02 -0.15055495839E+03  0.15359829172E+03  0.00000000000E+00 0. -1.
         11    1    4    4    0    0  0.12160565465E+02 -0.34348848870E+02 -0.38491532026E+02  0.53003026412E+02  0.00000000000E+00 0.  1.
</event>
<event>
 8    1  0.6185113E-009  0.1268608E+03  0.7561462E-02  0.1232190E+00
          1   -1    0    0  501    0  0.00000000000E+00  0.00000000000E+00  0.84085812940E+02  0.84085812940E+02  0.00000000000E+00 0. -1.
         -1   -1    0    0    0  501 -0.00000000000E+00 -0.00000000000E+00 -0.25615764738E+03  0.25615764738E+03  0.00000000000E+00 0.  1.
         25    2    1    2    0    0 -0.26479268083E+02  0.87439980223E+02 -0.13335255164E+03  0.20439645286E+03  0.12509238639E+03 0.  0.
         23    2    1    2    0    0  0.26479268083E+02 -0.87439980223E+02 -0.38719282803E+02  0.13584700746E+03  0.92781058389E+02 0.  0.
          5    1    3    3  502    0 -0.56094328935E+02  0.47315760609E+02 -0.13794655152E+02  0.74787163681E+02  0.41800000000E+01 0.  1.
         -5    1    3    3    0  502  0.29615060852E+02  0.40124219614E+02 -0.11955789649E+03  0.12960928918E+03  0.41800000000E+01 0.  1.
        -11    1    4    4    0    0  0.54141948207E+02 -0.87042552092E+02 -0.31850016519E+02  0.10734141783E+03  0.00000000000E+00 0.  1.
         11    1    4    4    0    0 -0.27662680124E+02 -0.39742813122E+00 -0.68692662837E+01  0.28505589628E+02  0.00000000000E+00 0. -1.
</event>
<event>
 8    1  0.6185113E-009  0.1133498E+03  0.7561462E-02  0.1254489E+00
          1   -1    0    0  501    0  0.00000000000E+00  0.00000000000E+00  0.75963374986E+03  0.75963374986E+03  0.00000000000E+00 0. -1.
         -1   -1    0    0    0  501 -0.00000000000E+00 -0.00000000000E+00 -0.19540680806E+02  0.19540680806E+02  0.00000000000E+00 0.  1.
         25    2    1    2    0    0 -0.42581493312E+02 -0.35908815905E+02  0.46414967138E+03  0.48392674165E+03  0.12509015632E+03 0.  0.
         23    2    1    2    0    0  0.42581493312E+02  0.35908815905E+02  0.27594339767E+03  0.29524768902E+03  0.89015799257E+02 0.  0.
          5    1    3    3  502    0 -0.79725958837E+02 -0.50486204982E+02  0.36356759126E+03  0.37563805880E+03  0.41800000000E+01 0. -1.
         -5    1    3    3    0  502  0.37144465525E+02  0.14577389077E+02  0.10058208012E+03  0.10828868285E+03  0.41800000000E+01 0. -1.
        -11    1    4    4    0    0 -0.98101215720E+01  0.38434716214E+02  0.19356588262E+03  0.19758850374E+03  0.00000000000E+00 0.  1.
         11    1    4    4    0    0  0.52391614884E+02 -0.25259003090E+01  0.82377515057E+02  0.97659185280E+02  0.00000000000E+00 0. -1.
</event>
<event>
 8    1  0.6185113E-009  0.9101235E+02  0.7561462E-02  0.1300418E+00
          2   -1    0    0  501    0  0.00000000000E+00  0.00000000000E+00  0.53595004411E+03  0.53595004411E+03  0.00000000000E+00 0.  1.
         -2   -1    0    0    0  501 -0.00000000000E+00 -0.00000000000E+00 -0.25488764008E+02  0.25488764008E+02  0.00000000000E+00 0. -1.
         25    2    1    2    0    0  0.12066885563E+02  0.26226736032E+01  0.21284788769E+03  0.24719291254E+03  0.12509046554E+03 0.  0.
         23    2    1    2    0    0 -0.12066885563E+02 -0.26226736032E+01  0.29761339241E+03  0.31424589558E+03  0.10012124352E+03 0.  0.
          5    1    3    3  502    0  0.39823652466E+02  0.23338153595E+02  0.20662116500E+03  0.21175545078E+03  0.41800000000E+01 0.  1.
         -5    1    3    3    0  502 -0.27756766903E+02 -0.20715479991E+02  0.62267226903E+01  0.35437461755E+02  0.41800000000E+01 0.  1.
        -11    1    4    4    0    0  0.40550487253E+02  0.17884095446E+02  0.12436225429E+03  0.13202330544E+03  0.00000000000E+00 0.  1.
         11    1    4    4    0    0 -0.52617372817E+02 -0.20506769050E+02  0.17325113812E+03  0.18222259014E+03  0.00000000000E+00 0. -1.
</event>
<event>
 8    1  0.6185113E-009  0.1191570E+03  0.7561462E-02  0.1244494E+00
          1   -1    0    0  501    0  0.00000000000E+00  0.00000000000E+00  0.16343779371E+03  0.16343779371E+03  0.00000000000E+00 0. -1.
         -1   -1    0    0    0  501 -0.00000000000E+00 -0.00000000000E+00 -0.12546147276E+03  0.12546147276E+03  0.00000000000E+00 0.  1.
         25    2    1    2    0    0 -0.26104596372E+02 -0.76970432751E+02 -0.24816353018E+02  0.15119339267E+03  0.12505076225E+03 0.  0.
         23    2    1    2    0    0  0.26104596372E+02  0.76970432751E+02  0.62792673971E+02  0.13770587380E+03  0.91728350610E+02 0.  0.
          5    1    3    3  502    0 -0.21205864894E+02  0.16461038496E+02  0.31746429068E+02  0.41784717934E+02  0.41800000000E+01 0.  1.
         -5    1    3    3    0  502 -0.48987314780E+01 -0.93431471247E+02 -0.56562782086E+02  0.10940867473E+03  0.41800000000E+01 0.  1.
        -11    1    4    4    0    0  0.57390469773E+02  0.52362614762E+02  0.59328279816E+02  0.97751492221E+02  0.00000000000E+00 0. -1.
         11    1    4    4    0    0 -0.31285873401E+02  0.24607817989E+02  0.34643941548E+01  0.39954381581E+02  0.00000000000E+00 0.  1.
</event>
<event>
 8    1  0.6185113E-009  0.1515390E+03  0.7561462E-02  0.1198595E+00
          1   -1    0    0  501    0  0.00000000000E+00  0.00000000000E+00  0.26970937119E+03  0.26970937119E+03  0.00000000000E+00 0. -1.
         -1   -1    0    0    0  501 -0.00000000000E+00 -0.00000000000E+00 -0.10922721065E+03  0.10922721065E+03  0.00000000000E+00 0.  1.
         25    2    1    2    0    0  0.94583958759E+02  0.84496210190E+02  0.42413618765E+02  0.18311698752E+03  0.12508869362E+03 0.  0.
         23    2    1    2    0    0 -0.94583958759E+02 -0.84496210190E+02  0.11806854177E+03  0.19581959432E+03  0.91210734977E+02 0.  0.
          5    1    3    3  502    0 -0.17748320085E+01 -0.13070747739E+02 -0.26270411840E+02  0.29691773497E+02  0.41800000000E+01 0.  1.
         -5    1    3    3    0  502  0.96358790768E+02  0.97566957929E+02  0.68684030605E+02  0.15342521402E+03  0.41800000000E+01 0.  1.
        -11    1    4    4    0    0 -0.25945044172E+02 -0.79044112097E+02  0.86691956356E+02  0.12015245429E+03  0.00000000000E+00 0.  1.
         11    1    4    4    0    0 -0.68638914587E+02 -0.54520980927E+01  0.31376585412E+02  0.75667140037E+02  0.00000000000E+00 0. -1.
</event>
<event>
 8    1  0.6185113E-009  0.1229560E+03  0.7561462E-02  0.1238299E+00
          1   -1    0    0  501    0  0.00000000000E+00  0.00000000000E+00  0.48054950532E+03  0.48054950532E+03  0.00000000000E+00 0. -1.
         -1   -1    0    0    0  501 -0.00000000000E+00 -0.00000000000E+00 -0.33178074601E+02  0.33178074601E+02  0.00000000000E+00 0.  1.
         25    2    1    2    0    0  0.16972614665E+02  0.48397063055E+02  0.29978059309E+03  0.32885769600E+03  0.12509450375E+03 0.  0.
         23    2    1    2    0    0 -0.16972614665E+02 -0.48397063055E+02  0.14759083764E+03  0.18486988392E+03  0.98810289274E+02 0.  0.
          5    1    3    3  502    0  0.41376052364E+02  0.82851157539E+02  0.21050405471E+03  0.23001243763E+03  0.41800000000E+01 0. -1.
         -5    1    3    3    0  502 -0.24403437699E+02 -0.34454094485E+02  0.89276538381E+02  0.98845258377E+02  0.41800000000E+01 0. -1.
        -11    1    4    4    0    0  0.38355889747E+02 -0.17204530770E+01  0.60076448110E+02  0.71297362185E+02  0.00000000000E+00 0.  1.
         11    1    4    4    0    0 -0.55328504412E+02 -0.46676609978E+02  0.87514389526E+02  0.11357252174E+03  0.00000000000E+00 0. -1.
</event>
<event>
 8    1  0.6185113E-009  0.1226316E+03  0.7561462E-02  0.1238818E+00
          1   -1    0    0  501    0  0.00000000000E+00  0.00000000000E+00  0.10398662900E+04  0.10398662900E+04  0.00000000000E+00 0. -1.
         -1   -1    0    0    0  501 -0.00000000000E+00 -0.00000000000E+00 -0.19793360132E+02  0.19793360132E+02  0.00000000000E+00 0.  1.
         25    2    1    2    0    0  0.92362165201E+02  0.14510045971E+02  0.54790059946E+03  0.56972328307E+03  0.12509293103E+03 0.  0.
         23    2    1    2    0    0 -0.92362165201E+02 -0.14510045971E+02  0.47217233040E+03  0.48993636705E+03  0.91376272456E+02 0.  0.
          5    1    3    3  502    0  0.10046158428E+03 -0.72240308602E+01  0.23212687378E+03  0.25307128337E+03  0.41800000000E+01 0.  1.
         -5    1    3    3    0  502 -0.80994190749E+01  0.21734076832E+02  0.31577372568E+03  0.31665199970E+03  0.41800000000E+01 0.  1.
        -11    1    4    4    0    0 -0.57197206813E+02  0.29659295301E+02  0.15631127717E+03  0.16906924509E+03  0.00000000000E+00 0.  1.
         11    1    4    4    0    0 -0.35164958388E+02 -0.44169341272E+02  0.31586105323E+03  0.32086712196E+03  0.00000000000E+00 0. -1.
</event>
<event>
 8    1  0.6185113E-009  0.1350132E+03  0.7561462E-02  0.1220201E+00
          2   -1    0    0  501    0  0.00000000000E+00  0.00000000000E+00  0.65225925049E+03  0.65225925049E+03  0.00000000000E+00 0. -1.
         -2   -1    0    0    0  501 -0.00000000000E+00 -0.00000000000E+00 -0.29838312617E+02  0.29838312617E+02  0.00000000000E+00 0.  1.
         25    2    1    2    0    0  0.61396660595E+02  0.62540023140E+02  0.33163875868E+03  0.36511964304E+03  0.12508910042E+03 0.  0.
         23    2    1    2    0    0 -0.61396660595E+02 -0.62540023140E+02  0.29078217919E+03  0.31697792007E+03  0.90774014187E+02 0.  0.
          5    1    3    3  502    0 -0.34704577118E+02  0.88826377373E+01  0.42669358190E+02  0.55869987063E+02  0.41800000000E+01 0. -1.
         -5    1    3    3    0  502  0.96101237713E+02  0.53657385403E+02  0.28896940049E+03  0.30924965597E+03  0.41800000000E+01 0. -1.
        -11    1    4    4    0    0  0.13860994089E+02 -0.44244521874E+02  0.13983084966E+03  0.14731724743E+03  0.00000000000E+00 0. -1.
         11    1    4    4    0    0 -0.75257654684E+02 -0.18295501267E+02  0.15095132953E+03  0.16966067265E+03  0.00000000000E+00 0.  1.
</event>
<event>
 8    1  0.6185113E-009  0.2214960E+03  0.7561462E-02  0.1132773E+00
         -3   -1    0    0    0  501 -0.00000000000E+00  0.00000000000E+00  0.61128190059E+02  0.61128190059E+02  0.00000000000E+00 0.  1.
          3   -1    0    0  501    0  0.00000000000E+00 -0.00000000000E+00 -0.94725004440E+03  0.94725004440E+03  0.00000000000E+00 0. -1.
         25    2    1    2    0    0 -0.53283165413E+02  0.20090615812E+03 -0.57952067380E+03  0.62824553782E+03  0.12508342953E+03 0.  0.
         23    2    1    2    0    0  0.53283165413E+02 -0.20090615812E+03 -0.30660118054E+03  0.38013269664E+03  0.85406106674E+02 0.  0.
          5    1    3    3  502    0  0.12395679960E+02  0.89138338587E+02 -0.11575281503E+03  0.14668156965E+03  0.41800000000E+01 0. -1.
         -5    1    3    3    0  502 -0.65678845373E+02  0.11176781953E+03 -0.46376785876E+03  0.48156396817E+03  0.41800000000E+01 0. -1.
        -11    1    4    4    0    0 -0.21213130829E+02 -0.62670353583E+02 -0.11191353008E+03  0.13000849339E+03  0.00000000000E+00 0.  1.
         11    1    4    4    0    0  0.74496296242E+02 -0.13823580454E+03 -0.19468765046E+03  0.25012420325E+03  0.00000000000E+00 0. -1.
</event>
<event>
 8    1  0.6185113E-009  0.1238605E+03  0.7561462E-02  0.1236861E+00
         -1   -1    0    0    0  501 -0.00000000000E+00  0.00000000000E+00  0.22540105557E+02  0.22540105557E+02  0.00000000000E+00 0.  1.
          1   -1    0    0  501    0  0.00000000000E+00 -0.00000000000E+00 -0.78116865335E+03  0.78116865335E+03  0.00000000000E+00 0. -1.
         25    2    1    2    0    0  0.74699238025E+02  0.12788980981E+01 -0.36069903588E+03  0.38901493020E+03  0.12508880722E+03 0.  0.
         23    2    1    2    0    0 -0.74699238025E+02 -0.12788980981E+01 -0.39792951192E+03  0.41469382871E+03  0.89674206863E+02 0.  0.
          5    1    3    3  502    0 -0.36321274779E+01  0.46551747494E+02 -0.19089045340E+03  0.19656270029E+03  0.41800000000E+01 0.  1.
         -5    1    3    3    0  502  0.78331365503E+02 -0.45272849396E+02 -0.16980858248E+03  0.19245222991E+03  0.41800000000E+01 0.  1.
        -11    1    4    4    0    0 -0.40473461325E+02  0.39826423444E+02 -0.27219866640E+03  0.27805819367E+03  0.00000000000E+00 0. -1.
         11    1    4    4    0    0 -0.34225776700E+02 -0.41105321543E+02 -0.12573084552E+03  0.13663563505E+03  0.00000000000E+00 0.  1.
</event>
<event>
 8    1  0.6185113E-009  0.8584885E+02  0.7561462E-02  0.1313228E+00
         -2   -1    0    0    0  501 -0.00000000000E+00  0.00000000000E+00  0.27672767410E+02  0.27672767410E+02  0.00000000000E+00 0. -1.
          2   -1    0    0  501    0  0.00000000000E+00 -0.00000000000E+00 -0.43595624560E+03  0.43595624560E+03  0.00000000000E+00 0.  1.
         25    2    1    2    0    0 -0.84174321560E+01 -0.16245763169E+02 -0.26488367396E+03  0.29350359509E+03  0.12508485764E+03 0.  0.
         23    2    1    2    0    0  0.84174321560E+01  0.16245763169E+02 -0.14339980423E+03  0.17012541792E+03  0.89690445347E+02 0.  0.
          5    1    3    3  502    0 -0.26154200302E+02  0.25585092152E+02 -0.23739717750E+03  0.24023640735E+03  0.41800000000E+01 0. -1.
         -5    1    3    3    0  502  0.17736768145E+02 -0.41830855321E+02 -0.27486496469E+02  0.53267187736E+02  0.41800000000E+01 0. -1.
        -11    1    4    4    0    0 -0.35491410793E+02 -0.11495327740E+02 -0.79203662085E+02  0.87550002214E+02  0.00000000000E+00 0.  1.
         11    1    4    4    0    0  0.43908842949E+02  0.27741090909E+02 -0.64196142140E+02  0.82575415710E+02  0.00000000000E+00 0. -1.
</event>
<event>
 7    1  0.6185113E-009  0.8147701E+02  0.7561462E-02  0.1324911E+00
         -2   -1    0    0    0  501 -0.00000000000E+00  0.00000000000E+00  0.10597843452E+03  0.10597843452E+03  0.00000000000E+00 0.  1.
          2   -1    0    0  501    0  0.00000000000E+00 -0.00000000000E+00 -0.11804473689E+03  0.11804473689E+03  0.00000000000E+00 0. -1.
         23    2    1    2    0    0 -0.25152639122E+02 -0.15882026495E+01  0.79463803892E+01  0.94930273194E+02  0.91178035541E+02 0.  0.
          5    1    1    2  502    0  0.64075946787E+02  0.21627439010E+02 -0.42211740834E+02  0.79829672047E+02  0.41800000000E+01 0.  1.
         -5    1    1    2    0  502 -0.38923307665E+02 -0.20039236361E+02  0.22199058067E+02  0.49263226169E+02  0.41800000000E+01 0.  1.
        -11    1    3    3    0    0  0.42821532038E+01 -0.17321998865E+02  0.42983884845E+02  0.46540335593E+02  0.00000000000E+00 0.  1.
         11    1    3    3    0    0 -0.29434792326E+02  0.15733796216E+02 -0.35037504455E+02  0.48389937602E+02  0.00000000000E+00 0. -1.
</event>
<event>
 8    1  0.6185113E-009  0.1001058E+03  0.7561462E-02  0.1280074E+00
         -2   -1    0    0    0  501 -0.00000000000E+00  0.00000000000E+00  0.77379915313E+02  0.77379915313E+02  0.00000000000E+00 0.  1.
          2   -1    0    0  501    0  0.00000000000E+00 -0.00000000000E+00 -0.18254251879E+03  0.18254251879E+03  0.00000000000E+00 0. -1.
         25    2    1    2    0    0 -0.26294087614E+01 -0.45077942780E+02 -0.93112401539E+02  0.16234020816E+03  0.12508192975E+03 0.  0.
         23    2    1    2    0    0  0.26294087614E+01  0.45077942780E+02 -0.12050201934E+02  0.97582225935E+02  0.85662995139E+02 0.  0.
          5    1    3    3  502    0  0.55643418320E+01  0.39846534599E+02 -0.70079395108E+01  0.41052306096E+02  0.41800000000E+01 0.  1.
         -5    1    3    3    0  502 -0.81937505934E+01 -0.84924477379E+02 -0.86104462029E+02  0.12128790207E+03  0.41800000000E+01 0.  1.
        -11    1    4    4    0    0  0.30853546980E+02  0.22231366037E+02  0.25153673887E+02  0.45594761839E+02  0.00000000000E+00 0.  1.
         11    1    4    4    0    0 -0.28224138219E+02  0.22846576743E+02 -0.37203875821E+02  0.51987464096E+02  0.00000000000E+00 0. -1.
</event>
<event>
 8    1  0.6185113E-009  0.1140507E+03  0.7561462E-02  0.1253247E+00
          1   -1    0    0  501    0  0.00000000000E+00  0.00000000000E+00  0.11033746566E+03  0.11033746566E+03  0.00000000000E+00 0. -1.
         -1   -1    0    0    0  501 -0.00000000000E+00 -0.00000000000E+00 -0.13137777887E+03  0.13137777887E+03  0.00000000000E+00 0.  1.
         25    2    1    2    0    0 -0.42363598494E+02  0.29580069648E+02 -0.53153207579E+01  0.13544867456E+03  0.12509370811E+03 0.  0.
         23    2    1    2    0    0  0.42363598494E+02 -0.29580069648E+02 -0.15724992450E+02  0.10626656996E+03  0.91518596505E+02 0.  0.
          5    1    3    3  502    0 -0.82591494518E+02  0.29218638987E+02  0.16874031020E+02  0.89315671379E+02  0.41800000000E+01 0. -1.
         -5    1    3    3    0  502  0.40227896024E+02  0.36143066134E+00 -0.22189351778E+02  0.46133003186E+02  0.41800000000E+01 0. -1.
        -11    1    4    4    0    0  0.39044617692E+02 -0.58776723381E+02  0.43209464930E+01  0.70695515846E+02  0.00000000000E+00 0. -1.
         11    1    4    4    0    0  0.33189808024E+01  0.29196653733E+02 -0.20045938943E+02  0.35571054116E+02  0.00000000000E+00 0.  1.
</event>
<event>
 8    1  0.6185113E-009  0.1414929E+03  0.7561462E-02  0.1211334E+00
          2   -1    0    0  501    0  0.00000000000E+00  0.00000000000E+00  0.35569317792E+03  0.35569317792E+03  0.00000000000E+00 0. -1.
         -2   -1    0    0    0  501 -0.00000000000E+00 -0.00000000000E+00 -0.80964891286E+02  0.80964891286E+02  0.00000000000E+00 0.  1.
         25    2    1    2    0    0  0.90223750133E+02 -0.82707196222E+02  0.19674297059E+03  0.26331756786E+03  0.12509012620E+03 0.  0.
         23    2    1    2    0    0 -0.90223750133E+02  0.82707196222E+02  0.77985316037E+02  0.17334050134E+03  0.94786151371E+02 0.  0.
          5    1    3    3  502    0  0.74451424976E+02 -0.94532884480E+02  0.20792594459E+03  0.24027099651E+03  0.41800000000E+01 0.  1.
         -5    1    3    3    0  502  0.15772325157E+02  0.11825688258E+02 -0.11182974001E+02  0.23046571353E+02  0.41800000000E+01 0.  1.
        -11    1    4    4    0    0 -0.55763967606E+02  0.32913308441E+01 -0.14056115783E+01  0.55878696171E+02  0.00000000000E+00 0.  1.
         11    1    4    4    0    0 -0.34459782528E+02  0.79415865378E+02  0.79390927615E+02  0.11746180517E+03  0.00000000000E+00 0. -1.
</event>
<event>
 8    1  0.6185113E-009  0.1029703E+03  0.7561462E-02  0.1274171E+00
         -2   -1    0    0    0  501 -0.00000000000E+00  0.00000000000E+00  0.40543514049E+02  0.40543514049E+02  0.00000000000E+00 0.  1.
          2   -1    0    0  501    0  0.00000000000E+00 -0.00000000000E+00 -0.39749336602E+03  0.39749336602E+03  0.00000000000E+00 0. -1.
         25    2    1    2    0    0  0.77943989106E+01 -0.39721520662E+02 -0.28760227755E+03  0.31623006758E+03  0.12509130159E+03 0.  0.
         23    2    1    2    0    0 -0.77943989106E+01  0.39721520662E+02 -0.69347574423E+02  0.12180681249E+03  0.91592912565E+02 0.  0.
          5    1    3    3  502    0  0.59314658151E+02 -0.22244803939E+02 -0.83113600820E+02  0.10458682047E+03  0.41800000000E+01 0. -1.
         -5    1    3    3    0  502 -0.51520259240E+02 -0.17476716724E+02 -0.20448867673E+03  0.21164324711E+03  0.41800000000E+01 0. -1.
        -11    1    4    4    0    0 -0.35210746492E+02  0.47744335909E+02 -0.71798052703E+02  0.93135807571E+02  0.00000000000E+00 0.  1.
         11    1    4    4    0    0  0.27416347581E+02 -0.80228152472E+01  0.24504782801E+01  0.28671004918E+02  0.00000000000E+00 0. -1.
</event>
<event>
 8    1  0.6185113E-009  0.1273950E+03  0.7561462E-02  0.1231373E+00
          2   -1    0    0  501    0  0.00000000000E+00  0.00000000000E+00  0.58587529970E+03  0.58587529970E+03  0.00000000000E+00 0. -1.
         -2   -1    0    0    0  501 -0.00000000000E+00 -0.00000000000E+00 -0.43362205239E+02  0.43362205239E+02  0.00000000000E+00 0.  1.
         25    2    1    2    0    0 -0.11099264617E+03 -0.19353895264E+02  0.33757326423E+03  0.37722763927E+03  0.12510412601E+03 0.  0.
         23    2    1    2    0    0  0.11099264617E+03  0.19353895264E+02  0.20493983023E+03  0.25200986567E+03  0.93886621053E+02 0.  0.
          5    1    3    3  502    0 -0.56157294075E+02 -0.44579554401E+02  0.29405378388E+03  0.30269799894E+03  0.41800000000E+01 0. -1.
         -5    1    3    3    0  502 -0.54835352093E+02  0.25225659137E+02  0.43519480347E+02  0.74529640330E+02  0.41800000000E+01 0. -1.
        -11    1    4    4    0    0  0.80880661060E+02 -0.86509025680E+01  0.19260646584E+03  0.20907838274E+03  0.00000000000E+00 0. -1.
         11    1    4    4    0    0  0.30111985108E+02  0.28004797832E+02  0.12333364397E+02  0.42931482925E+02  0.00000000000E+00 0.  1.
</event>
<event>
 8    1  0.6185113E-009  0.1127687E+03  0.7561462E-02  0.1255527E+00
         -2   -1    0    0    0  501 -0.00000000000E+00  0.00000000000E+00  0.67908499555E+03  0.67908499555E+03  0.00000000000E+00 0.  1.
          2   -1    0    0  501    0  0.00000000000E+00 -0.00000000000E+00 -0.21214660996E+02  0.21214660996E+02  0.00000000000E+00 0. -1.
         25    2    1    2    0    0  0.43711514632E+02  0.25633822422E+02  0.32842514268E+03  0.35507451532E+03  0.12508815980E+03 0.  0.
         23    2    1    2    0    0 -0.43711514632E+02 -0.25633822422E+02  0.32944519187E+03  0.34522514122E+03  0.89880333339E+02 0.  0.
          5    1    3    3  502    0 -0.30203964741E+02 -0.23878405996E+02  0.15919589534E+03  0.16383913834E+03  0.41800000000E+01 0. -1.
         -5    1    3    3    0  502  0.73915479373E+02  0.49512228419E+02  0.16922924734E+03  0.19123537698E+03  0.41800000000E+01 0. -1.
        -11    1    4    4    0    0  0.24543122012E+02  0.78379474286E+00  0.42410049703E+02  0.49006035222E+02  0.00000000000E+00 0. -1.
         11    1    4    4    0    0 -0.68254636645E+02 -0.26417617165E+02  0.28703514216E+03  0.29621910599E+03  0.00000000000E+00 0.  1.
</event>
<event>
 8    1  0.6185113E-009  0.1428707E+03  0.7561462E-02  0.1209518E+00
         -3   -1    0    0    0  501 -0.00000000000E+00  0.00000000000E+00  0.11215190578E+03  0.11215190578E+03  0.00000000000E+00 0.  1.
          3   -1    0    0  501    0  0.00000000000E+00 -0.00000000000E+00 -0.31516703982E+03  0.31516703982E+03  0.00000000000E+00 0. -1.
         25    2    1    2    0    0 -0.57074268550E+02  0.11336235643E+03 -0.21006096319E+03  0.27546613276E+03  0.12508991189E+03 0.  0.
         23    2    1    2    0    0  0.57074268550E+02 -0.11336235643E+03  0.70458291456E+01  0.15185281284E+03  0.83073082725E+02 0.  0.
          5    1    3    3  502    0 -0.45380747902E+02  0.38789954562E+02 -0.88185256366E+01  0.60492244540E+02  0.41800000000E+01 0. -1.
         -5    1    3    3    0  502 -0.11693520647E+02  0.74572401865E+02 -0.20124243755E+03  0.21497388822E+03  0.41800000000E+01 0. -1.
        -11    1    4    4    0    0 -0.19682781721E+02 -0.37633070934E+02  0.11283888851E+02  0.43942986605E+02  0.00000000000E+00 0.  1.
         11    1    4    4    0    0  0.76757050271E+02 -0.75729285493E+02 -0.42380597049E+01  0.10790982623E+03  0.00000000000E+00 0. -1.
</event>
<event>
 8    1  0.6185113E-009  0.1755850E+03  0.7561462E-02  0.1172146E+00
         -1   -1    0    0    0  501 -0.00000000000E+00  0.00000000000E+00  0.69495265859E+02  0.69495265859E+02  0.00000000000E+00 0.  1.
          1   -1    0    0  501    0  0.00000000000E+00 -0.00000000000E+00 -0.52804071047E+03  0.52804071047E+03  0.00000000000E+00 0. -1.
         25    2    1    2    0    0  0.11492909075E+03  0.10720218738E+03 -0.19646440888E+03  0.28097380496E+03  0.12508800996E+03 0.  0.
         23    2    1    2    0    0 -0.11492909075E+03 -0.10720218738E+03 -0.26208103574E+03  0.31656217137E+03  0.82608317813E+02 0.  0.
          5    1    3    3  502    0  0.90790609391E+02  0.12722473450E+03 -0.11651949801E+03  0.19499572723E+03  0.41800000000E+01 0.  1.
         -5    1    3    3    0  502  0.24138481364E+02 -0.20022547123E+02 -0.79944910867E+02  0.85978077725E+02  0.41800000000E+01 0.  1.
        -11    1    4    4    0    0 -0.69764511041E+02 -0.35099012295E+02 -0.63959366025E+02  0.10094467875E+03  0.00000000000E+00 0.  1.
         11    1    4    4    0    0 -0.45164579714E+02 -0.72103175082E+02 -0.19812166971E+03  0.21561749263E+03  0.00000000000E+00 0. -1.
</event>
<event>
 8    1  0.6185113E-009  0.1697866E+03  0.7561462E-02  0.1178071E+00
          1   -1    0    0  501    0  0.00000000000E+00  0.00000000000E+00  0.13715665128E+04  0.13715665128E+04  0.00000000000E+00 0. -1.
         -1   -1    0    0    0  501 -0.00000000000E+00 -0.00000000000E+00 -0.22166809839E+02  0.22166809839E+02  0.00000000000E+00 0.  1.
         25    2    1    2    0    0 -0.62395881506E+02 -0.11565484583E+03  0.57012865595E+03  0.59829995631E+03  0.12508742537E+03 0.  0.
         23    2    1    2    0    0  0.62395881506E+02  0.11565484583E+03  0.77927104705E+03  0.79543336637E+03  0.90452120907E+02 0.  0.
          5    1    3    3  502    0 -0.11771959734E+02  0.26468353033E+02  0.69389274978E+02  0.75309339595E+02  0.41800000000E+01 0. -1.
         -5    1    3    3    0  502 -0.50623921772E+02 -0.14212319886E+03  0.50073938097E+03  0.52299061671E+03  0.41800000000E+01 0. -1.
        -11    1    4    4    0    0  0.71683845720E+02  0.37932182471E+02  0.41412969766E+03  0.42199624488E+03  0.00000000000E+00 0.  1.
         11    1    4    4    0    0 -0.92879642139E+01  0.77722663360E+02  0.36514134939E+03  0.37343712150E+03  0.00000000000E+00 0. -1.
</event>
<event>
 8    1  0.6185113E-009  0.1569077E+03  0.7561462E-02  0.1192233E+00
          2   -1    0    0  501    0  0.00000000000E+00  0.00000000000E+00  0.17374728937E+04  0.17374728937E+04  0.00000000000E+00 0. -1.
         -2   -1    0    0    0  501 -0.00000000000E+00 -0.00000000000E+00 -0.34387452556E+02  0.34387452556E+02  0.00000000000E+00 0.  1.
         25    2    1    2    0    0  0.48276160883E+01 -0.14617214198E+03  0.14698160537E+04  0.14823660176E+04  0.12514063143E+03 0.  0.
         23    2    1    2    0    0 -0.48276160883E+01  0.14617214198E+03  0.23326938743E+03  0.28949432858E+03  0.89458136575E+02 0.  0.
          5    1    3    3  502    0  0.42618375907E+01 -0.81308299739E+02  0.30409054382E+03  0.31482969063E+03  0.41800000000E+01 0. -1.
         -5    1    3    3    0  502  0.56577849756E+00 -0.64863842244E+02  0.11657255099E+04  0.11675363270E+04  0.41800000000E+01 0. -1.
        -11    1    4    4    0    0 -0.41136862242E+02  0.10278796855E+03  0.12252330492E+03  0.16513499981E+03  0.00000000000E+00 0. -1.
         11    1    4    4    0    0  0.36309246153E+02  0.43384173430E+02  0.11074608251E+03  0.12435932877E+03  0.00000000000E+00 0.  1.
</event>
<event>
 8    1  0.6185113E-009  0.1518031E+03  0.7561462E-02  0.1198275E+00
         -1   -1    0    0    0  501 -0.00000000000E+00  0.00000000000E+00  0.55443548297E+02  0.55443548297E+02  0.00000000000E+00 0.  1.
          1   -1    0    0  501    0  0.00000000000E+00 -0.00000000000E+00 -0.44025189618E+03  0.44025189618E+03  0.00000000000E+00 0. -1.
         25    2    1    2    0    0  0.81922681229E+02  0.70977274940E+02 -0.16112312322E+03  0.23099469017E+03  0.12509511100E+03 0.  0.
         23    2    1    2    0    0 -0.81922681229E+02 -0.70977274940E+02 -0.22368522466E+03  0.26470075430E+03  0.91007199374E+02 0.  0.
          5    1    3    3  502    0  0.62915062192E+02 -0.22635662538E+02 -0.88131460580E+02  0.11070368112E+03  0.41800000000E+01 0.  1.
         -5    1    3    3    0  502  0.19007619037E+02  0.93612937478E+02 -0.72991662639E+02  0.12029100906E+03  0.41800000000E+01 0.  1.
        -11    1    4    4    0    0 -0.26376752458E+02  0.20887761159E+02 -0.44009167976E+02  0.55397098321E+02  0.00000000000E+00 0.  1.
         11    1    4    4    0    0 -0.55545928772E+02 -0.91865036099E+02 -0.17967605668E+03  0.20930365598E+03  0.00000000000E+00 0. -1.
</event>
<event>
 8    1  0.6185113E-009  0.8253696E+02  0.7561462E-02  0.1322002E+00
          1   -1    0    0  501    0  0.00000000000E+00  0.00000000000E+00  0.94049205581E+02  0.94049205581E+02  0.00000000000E+00 0. -1.
         -1   -1    0    0    0  501 -0.00000000000E+00 -0.00000000000E+00 -0.17595617994E+03  0.17595617994E+03  0.00000000000E+00 0.  1.
         25    2    1    2    0    0 -0.48697374118E+02 -0.53001162392E+02 -0.55014047452E+02  0.15445105674E+03  0.12509207029E+03 0.  0.
         23    2    1    2    0    0  0.48697374118E+02  0.53001162392E+02 -0.26892926910E+02  0.11555432879E+03  0.86307681715E+02 0.  0.
          5    1    3    3  502    0 -0.52717762473E+02 -0.62551394006E+02  0.15238262923E+02  0.83315763389E+02  0.41800000000E+01 0.  1.
         -5    1    3    3    0  502  0.40203883549E+01  0.95502316142E+01 -0.70252310375E+02  0.71135293347E+02  0.41800000000E+01 0.  1.
        -11    1    4    4    0    0  0.37839992223E+02  0.42048809473E+02 -0.57885729895E+02  0.80936549933E+02  0.00000000000E+00 0.  1.
         11    1    4    4    0    0  0.10857381894E+02  0.10952352919E+02  0.30992802985E+02  0.34617778856E+02  0.00000000000E+00 0. -1.
</event>
<event>
 8    1  0.6185113E-009  0.1204487E+03  0.7561462E-02  0.1242359E+00
         -1   -1    0    0    0  501 -0.00000000000E+00  0.00000000000E+00  0.14421978070E+02  0.14421978070E+02  0.00000000000E+00 0.  1.
          1   -1    0    0  501    0  0.00000000000E+00 -0.00000000000E+00 -0.11750456973E+04  0.11750456973E+04  0.00000000000E+00 0. -1.
         25    2    1    2    0    0 -0.10354451447E+02  0.62586482912E+02 -0.80515409250E+03  0.81727889420E+03  0.12508955086E+03 0.  0.
         23    2    1    2    0    0  0.10354451447E+02 -0.62586482912E+02 -0.35546962671E+03  0.37218878114E+03  0.90230542444E+02 0.  0.
          5    1    3    3  502    0 -0.41031418003E+02  0.89583695140E+02 -0.53394591552E+03  0.54297746619E+03  0.41800000000E+01 0. -1.
         -5    1    3    3    0  502  0.30676966556E+02 -0.26997212229E+02 -0.27120817698E+03  0.27430142801E+03  0.41800000000E+01 0. -1.
        -11    1    4    4    0    0 -0.33287062495E+02 -0.40061050061E+02 -0.25612720546E+03  0.26136958821E+03  0.00000000000E+00 0.  1.
         11    1    4    4    0    0  0.43641513942E+02 -0.22525432850E+02 -0.99342421243E+02  0.11081919293E+03  0.00000000000E+00 0. -1.
</event>
<event>
 8    1  0.6185113E-009  0.1429848E+03  0.7561462E-02  0.1209368E+00
         -2   -1    0    0    0  501 -0.00000000000E+00  0.00000000000E+00  0.37332292026E+02  0.37332292026E+02  0.00000000000E+00 0.  1.
          2   -1    0    0  501    0  0.00000000000E+00 -0.00000000000E+00 -0.81453067686E+03  0.81453067686E+03  0.00000000000E+00 0. -1.
         25    2    1    2    0    0  0.64279773148E+02  0.10589889841E+03 -0.27403269731E+03  0.32571194337E+03  0.12509150626E+03 0.  0.
         23    2    1    2    0    0 -0.64279773148E+02 -0.10589889841E+03 -0.50316568752E+03  0.52615102551E+03  0.91174155492E+02 0.  0.
          5    1    3    3  502    0  0.73651485180E+02  0.53116969015E+02 -0.70053332849E+02  0.11476452200E+03  0.41800000000E+01 0. -1.
         -5    1    3    3    0  502 -0.93717120319E+01  0.52781929393E+02 -0.20397936446E+03  0.21094742137E+03  0.41800000000E+01 0. -1.
        -11    1    4    4    0    0 -0.22379759137E+02 -0.95551287241E+02 -0.43127950911E+03  0.44230410024E+03  0.00000000000E+00 0. -1.
         11    1    4    4    0    0 -0.41900014011E+02 -0.10347611167E+02 -0.71886178418E+02  0.83846925278E+02  0.00000000000E+00 0.  1.
</event>
<event>
 8    1  0.6185113E-009  0.1218317E+03  0.7561462E-02  0.1240106E+00
          2   -1    0    0  501    0  0.00000000000E+00  0.00000000000E+00  0.16271085041E+04  0.16271085041E+04  0.00000000000E+00 0.  1.
         -2   -1    0    0    0  501 -0.00000000000E+00 -0.00000000000E+00 -0.23131376905E+02  0.23131376905E+02  0.00000000000E+00 0. -1.
         25    2    1    2    0    0  0.80028530417E+02  0.72316841025E+02  0.13473846611E+04  0.13574696491E+04  0.12507650593E+03 0.  0.
         23    2    1    2    0    0 -0.80028530417E+02 -0.72316841025E+02  0.25659246611E+03  0.29277023183E+03  0.90776780090E+02 0.  0.
          5    1    3    3  502    0  0.38687315298E+02 -0.10351385942E+02  0.88517882552E+03  0.88609417394E+03  0.41800000000E+01 0. -1.
         -5    1    3    3    0  502  0.41341215119E+02  0.82668226968E+02  0.46220583554E+03  0.47137547520E+03  0.41800000000E+01 0. -1.
        -11    1    4    4    0    0 -0.15885083574E+02 -0.30248671391E+02  0.11650343263E+02  0.36097763078E+02  0.00000000000E+00 0. -1.
         11    1    4    4    0    0 -0.64143446843E+02 -0.42068169634E+02  0.24494212285E+03  0.25667246875E+03  0.00000000000E+00 0.  1.
</event>
<event>
 8    1  0.6185113E-009  0.1060259E+03  0.7561462E-02  0.1268111E+00
          2   -1    0    0  501    0  0.00000000000E+00  0.00000000000E+00  0.11002709545E+04  0.11002709545E+04  0.00000000000E+00 0. -1.
         -2   -1    0    0    0  501 -0.00000000000E+00 -0.00000000000E+00 -0.32322308697E+02  0.32322308697E+02  0.00000000000E+00 0.  1.
         25    2    1    2    0    0 -0.11395467962E+02  0.33563244599E+02  0.10139087432E+04  0.10222106974E+04  0.12508965705E+03 0.  0.
         23    2    1    2    0    0  0.11395467962E+02 -0.33563244599E+02  0.54039902611E+02  0.11038256579E+03  0.89485483052E+02 0.  0.
          5    1    3    3  502    0  0.43524557248E+02 -0.23517836168E+02  0.45513231575E+03  0.45783225415E+03  0.41800000000E+01 0. -1.
         -5    1    3    3    0  502 -0.54920025210E+02  0.57081080766E+02  0.55877642741E+03  0.56437844323E+03  0.41800000000E+01 0. -1.
        -11    1    4    4    0    0  0.10136742711E+02  0.23714596160E+02 -0.69436596488E+01  0.26708613464E+02  0.00000000000E+00 0.  1.
         11    1    4    4    0    0  0.12587252514E+01 -0.57277840759E+02  0.60983562260E+02  0.83673952322E+02  0.00000000000E+00 0. -1.
</event>
<event>
 7    1  0.6185113E-009  0.1255715E+03  0.7561462E-02  0.1234179E+00
          2   -1    0    0  501    0  0.00000000000E+00  0.00000000000E+00  0.61143297861E+02  0.61143297861E+02  0.00000000000E+00 0. -1.
         -2   -1    0    0    0  501 -0.00000000000E+00 -0.00000000000E+00 -0.27774789395E+03  0.27774789395E+03  0.00000000000E+00 0.  1.
         23    2    1    2    0    0 -0.16934034979E+01  0.63840838712E+02 -0.14106871738E+03  0.17971015925E+03  0.91196699579E+02 0.  0.
          5    1    1    2  502    0 -0.61077570886E+02 -0.38030250955E+02 -0.36792780475E+02  0.80919408970E+02  0.41800000000E+01 0.  1.
         -5    1    1    2    0  502  0.62770974384E+02 -0.25810587757E+02 -0.38743098239E+02  0.78261623588E+02  0.41800000000E+01 0.  1.
        -11    1    3    3    0    0 -0.44875723454E+02  0.18736719048E+02 -0.55696478710E+02  0.73939116420E+02  0.00000000000E+00 0. -1.
         11    1    3    3    0    0  0.43182319956E+02  0.45104119664E+02 -0.85372238665E+02  0.10577104283E+03  0.00000000000E+00 0.  1.
</event>
<event>
 8    1  0.6185113E-009  0.8432402E+02  0.7561462E-02  0.1317210E+00
          2   -1    0    0  501    0  0.00000000000E+00  0.00000000000E+00  0.14921448407E+03  0.14921448407E+03  0.00000000000E+00 0. -1.
         -2   -1    0    0    0  501 -0.00000000000E+00 -0.00000000000E+00 -0.12193083677E+03  0.12193083677E+03  0.00000000000E+00 0.  1.
         25    2    1    2    0    0  0.36621061499E+02 -0.72382920857E+02  0.34071759128E+01  0.14913021621E+03  0.12509125933E+03 0.  0.
         23    2    1    2    0    0 -0.36621061499E+02  0.72382920857E+02  0.23876471391E+02  0.12201510464E+03  0.87961414814E+02 0.  0.
          5    1    3    3  502    0  0.18745849922E+02 -0.35441136512E+02 -0.60718883176E+02  0.72881659014E+02  0.41800000000E+01 0. -1.
         -5    1    3    3    0  502  0.17875211576E+02 -0.36941784345E+02  0.64126059089E+02  0.76248557191E+02  0.41800000000E+01 0. -1.
        -11    1    4    4    0    0 -0.33099681672E+02  0.30356881259E+02 -0.29690231947E+02  0.53839010389E+02  0.00000000000E+00 0.  1.
         11    1    4    4    0    0 -0.35213798264E+01  0.42026039599E+02  0.53566703338E+02  0.68176094247E+02  0.00000000000E+00 0. -1.
</event>
<event>
 8    1  0.6185113E-009  0.1069630E+03  0.7561462E-02  0.1266300E+00
          2   -1    0    0  501    0  0.00000000000E+00  0.00000000000E+00  0.48810395868E+03  0.48810395868E+03  0.00000000000E+00 0. -1.
         -2   -1    0    0    0  501 -0.00000000000E+00 -0.00000000000E+00 -0.37434603981E+02  0.37434603981E+02  0.00000000000E+00 0.  1.
         25    2    1    2    0    0  0.42975067269E+02 -0.41267924843E+02  0.14319430103E+03  0.19925177868E+03  0.12508703143E+03 0.  0.
         23    2    1    2    0    0 -0.42975067269E+02  0.41267924843E+02  0.30747505367E+03  0.32628678398E+03  0.91500047788E+02 0.  0.
          5    1    3    3  502    0  0.62549177253E+02  0.41457743310E+00  0.17149740469E+02  0.64993518505E+02  0.41800000000E+01 0.  1.
         -5    1    3    3    0  502 -0.19574109984E+02 -0.41682502276E+02  0.12604456056E+03  0.13425826018E+03  0.41800000000E+01 0.  1.
        -11    1    4    4    0    0 -0.16594600887E+02 -0.27065638376E+02  0.13895749217E+03  0.14253811486E+03  0.00000000000E+00 0.  1.
         11    1    4    4    0    0 -0.26380466382E+02  0.68333563219E+02  0.16851756150E+03  0.18374866912E+03  0.00000000000E+00 0. -1.
</event>
<event>
 7    1  0.6185113E-009  0.9226917E+02  0.7561462E-02  0.1297448E+00
          1   -1    0    0  501    0  0.00000000000E+00  0.00000000000E+00  0.42028728976E+02  0.42028728976E+02  0.00000000000E+00 0. -1.
         -1   -1    0    0    0  501 -0.00000000000E+00 -0.00000000000E+00 -0.30264270015E+03  0.30264270015E+03  0.00000000000E+00 0.  1.
         23    2    1    2    0    0 -0.12537543107E+02 -0.37925850061E+02 -0.76773836626E+02  0.11942481289E+03  0.82295223765E+02 0.  0.
          5    1    1    2  502    0  0.64285994488E+02  0.18001313460E+02 -0.13732054859E+03  0.15274534964E+03  0.41800000000E+01 0. -1.
         -5    1    1    2    0  502 -0.51748451381E+02  0.19924536601E+02 -0.46519585967E+02  0.72501266593E+02  0.41800000000E+01 0. -1.
        -11    1    3    3    0    0 -0.30630791977E+02 -0.20076213342E+02 -0.85127279263E+02  0.92671211463E+02  0.00000000000E+00 0.  1.
         11    1    3    3    0    0  0.18093248869E+02 -0.17849636719E+02  0.83534426375E+01  0.26753601431E+02  0.00000000000E+00 0. -1.
</event>
<event>
 8    1  0.6185113E-009  0.1006245E+03  0.7561462E-02  0.1278988E+00
         -2   -1    0    0    0  501 -0.00000000000E+00  0.00000000000E+00  0.38705885518E+03  0.38705885518E+03  0.00000000000E+00 0.  1.
          2   -1    0    0  501    0  0.00000000000E+00 -0.00000000000E+00 -0.44714012012E+02  0.44714012012E+02  0.00000000000E+00 0. -1.
         25    2    1    2    0    0 -0.67290130581E+02 -0.17415285184E+02  0.24889115136E+03  0.28710141137E+03  0.12509660809E+03 0.  0.
         23    2    1    2    0    0  0.67290130581E+02  0.17415285184E+02  0.93453691804E+02  0.14467145582E+03  0.85819483712E+02 0.  0.
          5    1    3    3  502    0  0.16662562170E+01  0.17194310993E+02 -0.75217770739E+01  0.19299488870E+02  0.41800000000E+01 0. -1.
         -5    1    3    3    0  502 -0.68956386798E+02 -0.34609596177E+02  0.25641292844E+03  0.26780192250E+03  0.41800000000E+01 0. -1.
        -11    1    4    4    0    0  0.65908899027E+01  0.40674557134E+02  0.56402143358E+02  0.69850277044E+02  0.00000000000E+00 0.  1.
         11    1    4    4    0    0  0.60699240679E+02 -0.23259271950E+02  0.37051548446E+02  0.74821178772E+02  0.00000000000E+00 0. -1.
</event>
<event>
 8    1  0.6185113E-009  0.1332071E+03  0.7561462E-02  0.1222773E+00
          1   -1    0    0  501    0  0.00000000000E+00  0.00000000000E+00  0.28036631567E+02  0.28036631567E+02  0.00000000000E+00 0. -1.
         -1   -1    0    0    0  501 -0.00000000000E+00 -0.00000000000E+00 -0.89186171755E+03  0.89186171755E+03  0.00000000000E+00 0.  1.
         25    2    1    2    0    0  0.57974608427E+02 -0.81934734701E+02 -0.62433228049E+03  0.64460282990E+03  0.12509059069E+03 0.  0.
         23    2    1    2    0    0 -0.57974608427E+02  0.81934734701E+02 -0.23949280550E+03  0.27529551922E+03  0.91413691785E+02 0.  0.
          5    1    3    3  502    0  0.89787735134E+02 -0.64712985085E+02 -0.55843784189E+03  0.56931529355E+03  0.41800000000E+01 0.  1.
         -5    1    3    3    0  502 -0.31813126707E+02 -0.17221749616E+02 -0.65894438601E+02  0.75287536348E+02  0.41800000000E+01 0.  1.
        -11    1    4    4    0    0 -0.60126385205E+02  0.29879221255E+02 -0.65999321228E+02  0.94148077321E+02  0.00000000000E+00 0. -1.
         11    1    4    4    0    0  0.21517767777E+01  0.52055513446E+02 -0.17349348427E+03  0.18114744190E+03  0.00000000000E+00 0.  1.
</event>
<event>
 8    1  0.6185113E-009  0.1059682E+03  0.7561462E-02  0.1268224E+00
         -2   -1    0    0    0  501 -0.00000000000E+00  0.00000000000E+00  0.15298216179E+02  0.15298216179E+02  0.00000000000E+00 0.  1.
          2   -1    0    0  501    0  0.00000000000E+00 -0.00000000000E+00 -0.12115779928E+04  0.12115779928E+04  0.00000000000E+00 0. -1.
         25    2    1    2    0    0 -0.34400823772E+02 -0.64931782393E+02 -0.81790981165E+03  0.83067507359E+03  0.12508023366E+03 0.  0.
         23    2    1    2    0    0  0.34400823772E+02  0.64931782393E+02 -0.37836996497E+03  0.39620113539E+03  0.91716717394E+02 0.  0.
          5    1    3    3  502    0 -0.22078439283E+02 -0.80306357655E+02 -0.27438560313E+03  0.28677778883E+03  0.41800000000E+01 0.  1.
         -5    1    3    3    0  502 -0.12322384489E+02  0.15374575262E+02 -0.54352420851E+03  0.54389728476E+03  0.41800000000E+01 0.  1.
        -11    1    4    4    0    0  0.21369686916E+02 -0.15831949889E+02 -0.39660589261E+02  0.47752240751E+02  0.00000000000E+00 0.  1.
         11    1    4    4    0    0  0.13031136856E+02  0.80763732283E+02 -0.33870937571E+03  0.34844889464E+03  0.00000000000E+00 0. -1.
</event>
<event>
 8    1  0.6185113E-009  0.1223639E+03  0.7561462E-02  0.1239248E+00
         -2   -1    0    0    0  501 -0.00000000000E+00  0.00000000000E+00  0.16492552443E+02  0.16492552443E+02  0.00000000000E+00 0.  1.
          2   -1    0    0  501    0  0.00000000000E+00 -0.00000000000E+00 -0.12258123230E+04  0.12258123230E+04  0.00000000000E+00 0. -1.
         25    2    1    2    0    0  0.54336861852E+02  0.71139756573E+02 -0.75415022027E+03  0.76967714391E+03  0.12508793547E+03 0.  0.
         23    2    1    2    0    0 -0.54336861852E+02 -0.71139756573E+02 -0.45516955027E+03  0.47262773152E+03  0.90467085649E+02 0.  0.
          5    1    3    3  502    0  0.21445246067E+02 -0.24326857185E+02 -0.40157634480E+03  0.40290535819E+03  0.41800000000E+01 0. -1.
         -5    1    3    3    0  502  0.32891615784E+02  0.95466613758E+02 -0.35257387547E+03  0.36677178572E+03  0.41800000000E+01 0. -1.
        -11    1    4    4    0    0  0.80047676883E+00 -0.52881389536E+02 -0.10387154978E+03  0.11656063219E+03  0.00000000000E+00 0.  1.
         11    1    4    4    0    0 -0.55137338621E+02 -0.18258367036E+02 -0.35129800049E+03  0.35606709933E+03  0.00000000000E+00 0. -1.
</event>
<event>
 8    1  0.6185113E-009  0.1312756E+03  0.7561462E-02  0.1225575E+00
          1   -1    0    0  501    0  0.00000000000E+00  0.00000000000E+00  0.18788072328E+03  0.18788072328E+03  0.00000000000E+00 0. -1.
         -1   -1    0    0    0  501 -0.00000000000E+00 -0.00000000000E+00 -0.11731088047E+03  0.11731088047E+03  0.00000000000E+00 0.  1.
         25    2    1    2    0    0 -0.89295903491E+02  0.11234540025E+01 -0.10289969412E+02  0.15403348019E+03  0.12508160944E+03 0.  0.
         23    2    1    2    0    0  0.89295903491E+02 -0.11234540025E+01  0.80859812227E+02  0.15115812356E+03  0.91298677734E+02 0.  0.
          5    1    3    3  502    0 -0.81993172638E+02  0.49606811138E+02 -0.30764895212E+02  0.10073563048E+03  0.41800000000E+01 0.  1.
         -5    1    3    3    0  502 -0.73027308524E+01 -0.48483357135E+02  0.20474925800E+02  0.53297849708E+02  0.41800000000E+01 0.  1.
        -11    1    4    4    0    0 -0.40967201511E+01  0.21038873085E+02  0.42865720419E+02  0.47925851935E+02  0.00000000000E+00 0. -1.
         11    1    4    4    0    0  0.93392623642E+02 -0.22162327087E+02  0.37994091808E+02  0.10323227163E+03  0.00000000000E+00 0.  1.
</event>
<event>
 8    1  0.6185113E-009  0.1039127E+03  0.7561462E-02  0.1272277E+00
          1   -1    0    0  501    0  0.00000000000E+00  0.00000000000E+00  0.70060893357E+03  0.70060893357E+03  0.00000000000E+00 0. -1.
         -1   -1    0    0    0  501 -0.00000000000E+00 -0.00000000000E+00 -0.17429938335E+02  0.17429938335E+02  0.00000000000E+00 0.  1.
         25    2    1    2    0    0  0.10560380182E+02  0.11325251112E+02  0.35128801792E+03  0.37321754463E+03  0.12509308992E+03 0.  0.
         23    2    1    2    0    0 -0.10560380182E+02 -0.11325251112E+02  0.33189097731E+03  0.34482132727E+03  0.92251525609E+02 0.  0.
          5    1    3    3  502    0  0.24150615809E+02  0.60054217242E+02  0.11983108112E+03  0.13625975801E+03  0.41800000000E+01 0. -1.
         -5    1    3    3    0  502 -0.13590235627E+02 -0.48728966130E+02  0.23145693680E+03  0.23695778662E+03  0.41800000000E+01 0. -1.
        -11    1    4    4    0    0  0.29521771536E+02 -0.34891113016E+02  0.19364683474E+03  0.19896738770E+03  0.00000000000E+00 0. -1.
         11    1    4    4    0    0 -0.40082151718E+02  0.23565861904E+02  0.13824414257E+03  0.14585393957E+03  0.00000000000E+00 0.  1.
</event>
<event>
 8    1  0.6185113E-009  0.1847483E+03  0.7561462E-02  0.1163285E+00
         -2   -1    0    0    0  501 -0.00000000000E+00  0.00000000000E+00  0.73744563498E+02  0.73744563498E+02  0.00000000000E+00 0. -1.
          2   -1    0    0  501    0  0.00000000000E+00 -0.00000000000E+00 -0.55357943060E+03  0.55357943060E+03  0.00000000000E+00 0.  1.
         25    2    1    2    0    0 -0.97299877379E+02  0.12639796834E+03 -0.15500853636E+03  0.25518302167E+03  0.12508803167E+03 0.  0.
         23    2    1    2    0    0  0.97299877379E+02 -0.12639796834E+03 -0.32482633074E+03  0.37214097242E+03  0.86793119987E+02 0.  0.
          5    1    3    3  502    0 -0.86395751476E+02  0.22909670691E+02 -0.34479534918E+02  0.95892594148E+02  0.41800000000E+01 0.  1.
         -5    1    3    3    0  502 -0.10904125903E+02  0.10348829765E+03 -0.12052900145E+03  0.15929042753E+03  0.41800000000E+01 0.  1.
        -11    1    4    4    0    0  0.87176868752E+02 -0.53520138536E+02 -0.23304858079E+03  0.25451100700E+03  0.00000000000E+00 0.  1.
         11    1    4    4    0    0  0.10123008626E+02 -0.72877829803E+02 -0.91777749943E+02  0.11762996542E+03  0.00000000000E+00 0. -1.
</event>
<event>
 8    1  0.6185113E-009  0.1174342E+03  0.7561462E-02  0.1247391E+00
          2   -1    0    0  501    0  0.00000000000E+00  0.00000000000E+00  0.29050324397E+03  0.29050324397E+03  0.00000000000E+00 0. -1.
         -2   -1    0    0    0  501 -0.00000000000E+00 -0.00000000000E+00 -0.50526614124E+02  0.50526614124E+02  0.00000000000E+00 0.  1.
         25    2    1    2    0    0  0.28949899131E+02 -0.39482175620E+02  0.16300760461E+03  0.21122668614E+03  0.12509314500E+03 0.  0.
         23    2    1    2    0    0 -0.28949899131E+02  0.39482175620E+02  0.76969025238E+02  0.12980317196E+03  0.92345512899E+02 0.  0.
          5    1    3    3  502    0 -0.17689469645E+02 -0.71578709258E+02  0.67125993353E+02  0.99798799287E+02  0.41800000000E+01 0. -1.
         -5    1    3    3    0  502  0.46639368776E+02  0.32096533639E+02  0.95881611258E+02  0.11142788685E+03  0.41800000000E+01 0. -1.
        -11    1    4    4    0    0 -0.60443250884E+02  0.40466171636E+02  0.49312466321E+02  0.87878421463E+02  0.00000000000E+00 0.  1.
         11    1    4    4    0    0  0.31493351753E+02 -0.98399601587E+00  0.27656558917E+02  0.41924750493E+02  0.00000000000E+00 0. -1.
</event>
<event>
 8    1  0.6185113E-009  0.2146307E+03  0.7561462E-02  0.1137951E+00
         -2   -1    0    0    0  501 -0.00000000000E+00  0.00000000000E+00  0.90346090343E+02  0.90346090343E+02  0.00000000000E+00 0. -1.
          2   -1    0    0  501    0  0.00000000000E+00 -0.00000000000E+00 -0.56488311878E+03  0.56488311878E+03  0.00000000000E+00 0.  1.
         25    2    1    2    0    0  0.19460895016E+03 -0.57757823097E+01 -0.19313050771E+03  0.30141676214E+03  0.12508664335E+03 0.  0.
         23    2    1    2    0    0 -0.19460895016E+03  0.57757823097E+01 -0.28140652072E+03  0.35381244698E+03  0.89931165849E+02 0.  0.
          5    1    3    3  502    0  0.16421274986E+03  0.42202335159E+02 -0.16943355295E+03  0.23973332179E+03  0.41800000000E+01 0.  1.
         -5    1    3    3    0  502  0.30396200303E+02 -0.47978117469E+02 -0.23696954760E+02  0.61683440352E+02  0.41800000000E+01 0.  1.
        -11    1    4    4    0    0 -0.58159621000E+02 -0.24223940173E+02 -0.14706842985E+03  0.15999519946E+03  0.00000000000E+00 0.  1.
         11    1    4    4    0    0 -0.13644932916E+03  0.29999722483E+02 -0.13433809088E+03  0.19381724752E+03  0.00000000000E+00 0. -1.
</event>
