<event>
 6    1  0.8989754E-006  0.1289813E+03  0.7561462E-02  0.1228975E+00
          1   -1    0    0  501    0  0.00000000000E+00  0.00000000000E+00  0.26247978752E+03  0.26247978752E+03  0.00000000000E+00 0. -1.
         -1   -1    0    0    0  501 -0.00000000000E+00 -0.00000000000E+00 -0.25112376090E+03  0.25112376090E+03  0.00000000000E+00 0.  1.
          5    1    1    2  502    0  0.14346311127E+02  0.16128122778E+01 -0.11191274658E+03  0.11291746124E+03  0.41800000000E+01 0.  1.
         -5    1    1    2    0  502 -0.73506567303E+02  0.92090263462E+02 -0.85000340325E+02  0.14534910497E+03  0.41800000000E+01 0.  1.
        -11    1    1    2    0    0 -0.60751531959E+01 -0.40208617046E+02  0.13113743036E+02  0.42727164983E+02  0.00000000000E+00 0.  1.
         11    1    1    2    0    0  0.65235409372E+02 -0.53494458694E+02  0.19515537049E+03  0.21260981722E+03  0.00000000000E+00 0. -1.
</event>
<event>
 6    1  0.8989754E-006  0.1935552E+03  0.7561462E-02  0.1155293E+00
         -2   -1    0    0    0  501 -0.00000000000E+00  0.00000000000E+00  0.17447711797E+03  0.17447711797E+03  0.00000000000E+00 0.  1.
          2   -1    0    0  501    0  0.00000000000E+00 -0.00000000000E+00 -0.24267796365E+03  0.24267796365E+03  0.00000000000E+00 0. -1.
          5    1    1    2  502    0  0.76606536281E+02 -0.28856302413E+01  0.17796907721E+01  0.76795364196E+02  0.41800000000E+01 0. -1.
         -5    1    1    2    0  502  0.34206491656E+02  0.12530993493E+03  0.20293625504E+02  0.13153694348E+03  0.41800000000E+01 0. -1.
        -11    1    1    2    0    0 -0.67832904133E+02 -0.22283869479E+02 -0.65884100286E+02  0.97152397770E+02  0.00000000000E+00 0.  1.
         11    1    1    2    0    0 -0.42980123804E+02 -0.10014043521E+03 -0.24390061676E+02  0.11167037618E+03  0.00000000000E+00 0. -1.
</event>
<event>
 6    1  0.8989754E-006  0.1054484E+03  0.7561462E-02  0.1269239E+00
          1   -1    0    0  501    0  0.00000000000E+00  0.00000000000E+00  0.36722796622E+02  0.36722796622E+02  0.00000000000E+00 0. -1.
         -1   -1    0    0    0  501 -0.00000000000E+00 -0.00000000000E+00 -0.43309253145E+03  0.43309253145E+03  0.00000000000E+00 0.  1.
          5    1    1    2  502    0  0.51921408259E+02  0.51244581223E+02 -0.18778083655E+03  0.20149678587E+03  0.41800000000E+01 0.  1.
         -5    1    1    2    0  502 -0.54619283374E+02  0.13478169513E+02 -0.52720795726E+02  0.77213223426E+02  0.41800000000E+01 0.  1.
        -11    1    1    2    0    0 -0.18937045239E+02 -0.54085492856E+02 -0.33486443387E+02  0.66371636341E+02  0.00000000000E+00 0. -1.
         11    1    1    2    0    0  0.21634920354E+02 -0.10637257879E+02 -0.12238165916E+03  0.12473368244E+03  0.00000000000E+00 0.  1.
</event>
<event>
 6    1  0.8989754E-006  0.2102240E+03  0.7561462E-02  0.1141389E+00
         -2   -1    0    0    0  501 -0.00000000000E+00  0.00000000000E+00  0.15944683626E+03  0.15944683626E+03  0.00000000000E+00 0.  1.
          2   -1    0    0  501    0  0.00000000000E+00 -0.00000000000E+00 -0.50591433706E+03  0.50591433706E+03  0.00000000000E+00 0. -1.
          5    1    1    2  502    0  0.13948844809E+03  0.31113153418E+01  0.69248354406E+02  0.15581885130E+03  0.41800000000E+01 0.  1.
         -5    1    1    2    0  502  0.64194026136E+02  0.95061220125E+01 -0.53286313677E+02  0.84072248527E+02  0.41800000000E+01 0.  1.
        -11    1    1    2    0    0 -0.72279144733E+02 -0.38518480888E+02 -0.88688056960E+02  0.12072083325E+03  0.00000000000E+00 0. -1.
         11    1    1    2    0    0 -0.13140332949E+03  0.25901043534E+02 -0.27374148457E+03  0.30474924025E+03  0.00000000000E+00 0.  1.
</event>
<event>
 6    1  0.8989754E-006  0.6821261E+02  0.7561462E-02  0.1366279E+00
         -4   -1    0    0    0  501 -0.00000000000E+00  0.00000000000E+00  0.15355336522E+03  0.15355336522E+03  0.00000000000E+00 0. -1.
          4   -1    0    0  501    0  0.00000000000E+00 -0.00000000000E+00 -0.93823222048E+02  0.93823222048E+02  0.00000000000E+00 0.  1.
          5    1    1    2  502    0  0.66299283459E+01  0.36435196321E+02 -0.12743180129E+02  0.39387060319E+02  0.41800000000E+01 0.  1.
         -5    1    1    2    0  502 -0.10069260880E+00 -0.60091639985E+02  0.94461125794E+02  0.11203299524E+03  0.41800000000E+01 0.  1.
        -11    1    1    2    0    0  0.10506453992E+02  0.97290552189E+00  0.32693808446E+02  0.34354289854E+02  0.00000000000E+00 0. -1.
         11    1    1    2    0    0 -0.17035689729E+02  0.22683538143E+02 -0.54681610939E+02  0.61602241859E+02  0.00000000000E+00 0.  1.
</event>
<event>
 6    1  0.8989754E-006  0.9845983E+02  0.7561462E-02  0.1283568E+00
         -1   -1    0    0    0  501 -0.00000000000E+00  0.00000000000E+00  0.46426572137E+02  0.46426572137E+02  0.00000000000E+00 0.  1.
          1   -1    0    0  501    0  0.00000000000E+00 -0.00000000000E+00 -0.33787382532E+03  0.33787382532E+03  0.00000000000E+00 0. -1.
          5    1    1    2  502    0  0.33894230914E+02 -0.27668057569E+02 -0.12884397082E+02  0.45801969249E+02  0.41800000000E+01 0.  1.
         -5    1    1    2    0  502  0.10614900200E+02  0.71967598374E+02 -0.16636156727E+03  0.18161953305E+03  0.41800000000E+01 0.  1.
        -11    1    1    2    0    0 -0.18751743472E+02  0.90781963320E+01  0.84299652925E+01  0.22474559989E+02  0.00000000000E+00 0.  1.
         11    1    1    2    0    0 -0.25757387642E+02 -0.53377737137E+02 -0.12063125413E+03  0.13440433517E+03  0.00000000000E+00 0. -1.
</event>
<event>
 6    1  0.8989754E-006  0.1901973E+03  0.7561462E-02  0.1158284E+00
          2   -1    0    0  501    0  0.00000000000E+00  0.00000000000E+00  0.86413431102E+02  0.86413431102E+02  0.00000000000E+00 0.  1.
         -2   -1    0    0    0  501 -0.00000000000E+00 -0.00000000000E+00 -0.77395379456E+03  0.77395379456E+03  0.00000000000E+00 0. -1.
          5    1    1    2  502    0  0.11272102665E+03  0.39106275753E+02 -0.52195783021E+03  0.53543699869E+03  0.41800000000E+01 0. -1.
         -5    1    1    2    0  502  0.58879949240E+02  0.33767225928E+02 -0.69673187599E+02  0.97359639685E+02  0.41800000000E+01 0. -1.
        -11    1    1    2    0    0 -0.56184315238E+02  0.59852023796E+00  0.66513616268E+01  0.56579820756E+02  0.00000000000E+00 0.  1.
         11    1    1    2    0    0 -0.11541666065E+03 -0.73472021919E+02 -0.10256070727E+03  0.17099076653E+03  0.00000000000E+00 0. -1.
</event>
<event>
 6    1  0.8989754E-006  0.1246712E+03  0.7561462E-02  0.1235584E+00
          3   -1    0    0  501    0  0.00000000000E+00  0.00000000000E+00  0.39283152091E+03  0.39283152091E+03  0.00000000000E+00 0.  1.
         -3   -1    0    0    0  501 -0.00000000000E+00 -0.00000000000E+00 -0.60414422937E+02  0.60414422937E+02  0.00000000000E+00 0. -1.
          5    1    1    2  502    0 -0.32362349526E+02  0.32922234374E+01  0.54386668326E+01  0.33244727385E+02  0.41800000000E+01 0.  1.
         -5    1    1    2    0  502  0.10924957760E+03 -0.38467841614E+02  0.71794188801E+02  0.13633459939E+03  0.41800000000E+01 0.  1.
        -11    1    1    2    0    0 -0.36355699791E+02  0.46059079247E+02  0.22352045366E+03  0.23109428572E+03  0.00000000000E+00 0.  1.
         11    1    1    2    0    0 -0.40531528286E+02 -0.10883461070E+02  0.31663788674E+02  0.52572331347E+02  0.00000000000E+00 0. -1.
</event>
<event>
 6    1  0.8989754E-006  0.1093598E+03  0.7561462E-02  0.1261760E+00
          1   -1    0    0  501    0  0.00000000000E+00  0.00000000000E+00  0.20385914213E+02  0.20385914213E+02  0.00000000000E+00 0. -1.
         -1   -1    0    0    0  501 -0.00000000000E+00 -0.00000000000E+00 -0.81113053527E+03  0.81113053527E+03  0.00000000000E+00 0.  1.
          5    1    1    2  502    0 -0.10431779866E+02 -0.66980746224E+02 -0.27225924157E+03  0.28060258269E+03  0.41800000000E+01 0.  1.
         -5    1    1    2    0  502 -0.34533057685E+02  0.54202565345E+02 -0.34075000154E+03  0.34678305338E+03  0.41800000000E+01 0.  1.
        -11    1    1    2    0    0  0.21401861556E+01 -0.27514780667E+02 -0.15688143231E+02  0.31745257756E+02  0.00000000000E+00 0. -1.
         11    1    1    2    0    0  0.42824651396E+02  0.40292961547E+02 -0.16204723472E+03  0.17238555565E+03  0.00000000000E+00 0.  1.
</event>
<event>
 6    1  0.8989754E-006  0.1616713E+03  0.7561462E-02  0.1186823E+00
         -1   -1    0    0    0  501 -0.00000000000E+00  0.00000000000E+00  0.30712236043E+02  0.30712236043E+02  0.00000000000E+00 0.  1.
          1   -1    0    0  501    0  0.00000000000E+00 -0.00000000000E+00 -0.89735859422E+03  0.89735859422E+03  0.00000000000E+00 0. -1.
          5    1    1    2  502    0  0.39295150064E+02 -0.13381910042E+03 -0.29752792162E+03  0.32862135810E+03  0.41800000000E+01 0. -1.
         -5    1    1    2    0  502 -0.32962939407E+02  0.11837468062E+02 -0.71221351763E+02  0.79477256945E+02  0.41800000000E+01 0. -1.
        -11    1    1    2    0    0  0.38855700634E+02  0.46871224345E+02 -0.17050192198E+03  0.18104580233E+03  0.00000000000E+00 0. -1.
         11    1    1    2    0    0 -0.45187911291E+02  0.75110408010E+02 -0.32739516281E+03  0.33892641288E+03  0.00000000000E+00 0.  1.
</event>
<event>
 6    1  0.8989754E-006  0.1207017E+03  0.7561462E-02  0.1241944E+00
         -2   -1    0    0    0  501 -0.00000000000E+00  0.00000000000E+00  0.63388552642E+02  0.63388552642E+02  0.00000000000E+00 0.  1.
          2   -1    0    0  501    0  0.00000000000E+00 -0.00000000000E+00 -0.23822504948E+03  0.23822504948E+03  0.00000000000E+00 0. -1.
          5    1    1    2  502    0  0.63222551918E+02  0.71430355265E+02 -0.49980986423E+02  0.10777271514E+03  0.41800000000E+01 0. -1.
         -5    1    1    2    0  502 -0.27027115395E+02 -0.27604665219E+02 -0.43982641403E+02  0.58689246487E+02  0.41800000000E+01 0. -1.
        -11    1    1    2    0    0  0.53688518965E+01  0.25594236630E+02 -0.11486261952E+02  0.28562628258E+02  0.00000000000E+00 0.  1.
         11    1    1    2    0    0 -0.41564288419E+02 -0.69419926676E+02 -0.69386607062E+02  0.10658901224E+03  0.00000000000E+00 0. -1.
</event>
<event>
 6    1  0.8989754E-006  0.1659183E+03  0.7561462E-02  0.1182173E+00
         -2   -1    0    0    0  501 -0.00000000000E+00  0.00000000000E+00  0.31275366078E+02  0.31275366078E+02  0.00000000000E+00 0.  1.
          2   -1    0    0  501    0  0.00000000000E+00 -0.00000000000E+00 -0.10950088751E+04  0.10950088751E+04  0.00000000000E+00 0. -1.
          5    1    1    2  502    0  0.48703347377E+01  0.21999688528E+02 -0.19611458942E+02  0.30162695132E+02  0.41800000000E+01 0.  1.
         -5    1    1    2    0  502 -0.69211440477E+02 -0.13548437373E+03 -0.32983582524E+03  0.36325663522E+03  0.41800000000E+01 0.  1.
        -11    1    1    2    0    0  0.69564322182E+02  0.34650557714E+02 -0.24672915037E+03  0.25867958890E+03  0.00000000000E+00 0.  1.
         11    1    1    2    0    0 -0.52232164430E+01  0.78834127486E+02 -0.46755707443E+03  0.47418532189E+03  0.00000000000E+00 0. -1.
</event>
<event>
 6    1  0.8989754E-006  0.1309739E+03  0.7561462E-02  0.1226018E+00
         -1   -1    0    0    0  501 -0.00000000000E+00  0.00000000000E+00  0.34459482768E+02  0.34459482768E+02  0.00000000000E+00 0.  1.
          1   -1    0    0  501    0  0.00000000000E+00 -0.00000000000E+00 -0.59504624874E+03  0.59504624874E+03  0.00000000000E+00 0. -1.
          5    1    1    2  502    0  0.44703911436E+02  0.17702054174E+02 -0.90072797157E+02  0.10218798172E+03  0.41800000000E+01 0. -1.
         -5    1    1    2    0  502 -0.83695844267E+02  0.65584827664E+02 -0.24460147725E+03  0.26674654457E+03  0.41800000000E+01 0. -1.
        -11    1    1    2    0    0  0.90483273308E+01 -0.75890562587E+02 -0.76973164769E+02  0.10847173739E+03  0.00000000000E+00 0.  1.
         11    1    1    2    0    0  0.29943605500E+02 -0.73963192506E+01 -0.14893932680E+03  0.15209946783E+03  0.00000000000E+00 0. -1.
</event>
<event>
 6    1  0.8989754E-006  0.1517406E+03  0.7561462E-02  0.1198350E+00
         -1   -1    0    0    0  501 -0.00000000000E+00  0.00000000000E+00  0.35768112856E+03  0.35768112856E+03  0.00000000000E+00 0.  1.
          1   -1    0    0  501    0  0.00000000000E+00 -0.00000000000E+00 -0.75695872694E+02  0.75695872694E+02  0.00000000000E+00 0. -1.
          5    1    1    2  502    0 -0.60801860474E+01 -0.55904786690E+02  0.49223190415E+02  0.74851243890E+02  0.41800000000E+01 0.  1.
         -5    1    1    2    0  502 -0.10018097209E+03  0.31051953533E+02  0.17631434652E+03  0.20519423037E+03  0.41800000000E+01 0.  1.
        -11    1    1    2    0    0  0.57671747782E+02 -0.33102262267E+02  0.20431382495E+02  0.69564586178E+02  0.00000000000E+00 0.  1.
         11    1    1    2    0    0  0.48589410351E+02  0.57955095424E+02  0.36016336432E+02  0.83766940817E+02  0.00000000000E+00 0. -1.
</event>
<event>
 6    1  0.8989754E-006  0.9580592E+02  0.7561462E-02  0.1289371E+00
         -1   -1    0    0    0  501 -0.00000000000E+00  0.00000000000E+00  0.10638991074E+03  0.10638991074E+03  0.00000000000E+00 0.  1.
          1   -1    0    0  501    0  0.00000000000E+00 -0.00000000000E+00 -0.14184444529E+03  0.14184444529E+03  0.00000000000E+00 0. -1.
          5    1    1    2  502    0  0.63960790708E+02  0.33008068182E+02 -0.27358416470E+02  0.77113362427E+02  0.41800000000E+01 0. -1.
         -5    1    1    2    0  502 -0.48637641311E+02  0.19481401222E+02  0.27687767201E+02  0.59407322768E+02  0.41800000000E+01 0. -1.
        -11    1    1    2    0    0 -0.25486031021E+02 -0.18539976047E+02  0.25754450083E+02  0.40700862252E+02  0.00000000000E+00 0.  1.
         11    1    1    2    0    0  0.10162881624E+02 -0.33949493358E+02 -0.61538335370E+02  0.71012808579E+02  0.00000000000E+00 0. -1.
</event>
<event>
 6    1  0.8989754E-006  0.1076804E+03  0.7561462E-02  0.1264927E+00
         -3   -1    0    0    0  501 -0.00000000000E+00  0.00000000000E+00  0.44354209115E+02  0.44354209115E+02  0.00000000000E+00 0.  1.
          3   -1    0    0  501    0  0.00000000000E+00 -0.00000000000E+00 -0.50551612807E+03  0.50551612807E+03  0.00000000000E+00 0. -1.
          5    1    1    2  502    0 -0.59946616288E+02 -0.85910549469E+02 -0.26621556624E+03  0.28611609431E+03  0.41800000000E+01 0. -1.
         -5    1    1    2    0  502  0.82573471902E+00  0.13407353269E+01  0.13460157905E+02  0.14181948381E+02  0.41800000000E+01 0. -1.
        -11    1    1    2    0    0  0.28935319924E+02  0.21231023487E+02 -0.73622147062E+01  0.36636202080E+02  0.00000000000E+00 0.  1.
         11    1    1    2    0    0  0.30185561645E+02  0.63338790655E+02 -0.20104429591E+03  0.21293609241E+03  0.00000000000E+00 0. -1.
</event>
<event>
 6    1  0.8989754E-006  0.1029051E+03  0.7561462E-02  0.1274303E+00
         -3   -1    0    0    0  501 -0.00000000000E+00  0.00000000000E+00  0.50526305932E+03  0.50526305932E+03  0.00000000000E+00 0.  1.
          3   -1    0    0  501    0  0.00000000000E+00 -0.00000000000E+00 -0.29666057644E+02  0.29666057644E+02  0.00000000000E+00 0. -1.
          5    1    1    2  502    0  0.23139412529E+02 -0.70563475402E+02  0.29371491724E+03  0.30298607473E+03  0.41800000000E+01 0.  1.
         -5    1    1    2    0  502  0.12690083125E+02  0.39562360043E+02  0.46064268566E+02  0.62174012098E+02  0.41800000000E+01 0.  1.
        -11    1    1    2    0    0  0.90101388222E+01  0.42450490934E+02  0.10645803506E+03  0.11496321155E+03  0.00000000000E+00 0.  1.
         11    1    1    2    0    0 -0.44839634476E+02 -0.11449375574E+02  0.29359780816E+02  0.54805818583E+02  0.00000000000E+00 0. -1.
</event>
<event>
 6    1  0.8989754E-006  0.5540656E+02  0.7561462E-02  0.1418186E+00
          2   -1    0    0  501    0  0.00000000000E+00  0.00000000000E+00  0.18607511721E+03  0.18607511721E+03  0.00000000000E+00 0. -1.
         -2   -1    0    0    0  501 -0.00000000000E+00 -0.00000000000E+00 -0.72026752839E+02  0.72026752839E+02  0.00000000000E+00 0.  1.
          5    1    1    2  502    0 -0.12609398224E+02 -0.29121275215E+01 -0.46995275340E+02  0.48923467932E+02  0.41800000000E+01 0. -1.
         -5    1    1    2    0  502 -0.21108674937E+02 -0.13955239845E+02  0.82562277555E+02  0.86454189903E+02  0.41800000000E+01 0. -1.
        -11    1    1    2    0    0  0.46120507875E+02 -0.50363337441E+01  0.69739719226E+01  0.46915905497E+02  0.00000000000E+00 0.  1.
         11    1    1    2    0    0 -0.12402434714E+02  0.21903701110E+02  0.71507390233E+02  0.75808306715E+02  0.00000000000E+00 0. -1.
</event>
<event>
 6    1  0.8989754E-006  0.9945837E+02  0.7561462E-02  0.1281439E+00
         -1   -1    0    0    0  501 -0.00000000000E+00  0.00000000000E+00  0.10224961390E+03  0.10224961390E+03  0.00000000000E+00 0.  1.
          1   -1    0    0  501    0  0.00000000000E+00 -0.00000000000E+00 -0.19204288742E+03  0.19204288742E+03  0.00000000000E+00 0. -1.
          5    1    1    2  502    0 -0.46442558778E+02  0.45424620681E+02  0.53688827310E+02  0.84381692373E+02  0.41800000000E+01 0. -1.
         -5    1    1    2    0  502  0.35386052800E+02 -0.30842184632E+02 -0.12185882066E+02  0.48676289992E+02  0.41800000000E+01 0. -1.
        -11    1    1    2    0    0  0.41913676714E+02  0.14439731394E+02 -0.36572063140E+02  0.57469800250E+02  0.00000000000E+00 0.  1.
         11    1    1    2    0    0 -0.30857170737E+02 -0.29022167444E+02 -0.94724155630E+02  0.10376471871E+03  0.00000000000E+00 0. -1.
</event>
<event>
 6    1  0.8989754E-006  0.8907811E+02  0.7561462E-02  0.1305100E+00
          1   -1    0    0  501    0  0.00000000000E+00  0.00000000000E+00  0.18463586857E+03  0.18463586857E+03  0.00000000000E+00 0. -1.
         -1   -1    0    0    0  501 -0.00000000000E+00 -0.00000000000E+00 -0.77302902235E+02  0.77302902235E+02  0.00000000000E+00 0.  1.
          5    1    1    2  502    0  0.20800715572E+01  0.76914493610E+02  0.71496094577E+02  0.10511579313E+03  0.41800000000E+01 0.  1.
         -5    1    1    2    0  502  0.71886034328E+00 -0.28105083090E+02 -0.24144929095E+02  0.37294268416E+02  0.41800000000E+01 0.  1.
        -11    1    1    2    0    0 -0.11189177855E+01  0.11895831304E+02 -0.17434248876E+02  0.21135652658E+02  0.00000000000E+00 0.  1.
         11    1    1    2    0    0 -0.16800141150E+01 -0.60705241824E+02  0.77416049729E+02  0.98393056604E+02  0.00000000000E+00 0. -1.
</event>
<event>
 6    1  0.8989754E-006  0.1200225E+03  0.7561462E-02  0.1243060E+00
          2   -1    0    0  501    0  0.00000000000E+00  0.00000000000E+00  0.15988471744E+03  0.15988471744E+03  0.00000000000E+00 0. -1.
         -2   -1    0    0    0  501 -0.00000000000E+00 -0.00000000000E+00 -0.14538483915E+03  0.14538483915E+03  0.00000000000E+00 0.  1.
          5    1    1    2  502    0 -0.50301771693E+02 -0.13444914572E+02 -0.61367914348E+02  0.80588629935E+02  0.41800000000E+01 0. -1.
         -5    1    1    2    0  502 -0.56087368777E+02  0.13870218697E+02  0.60328123567E+02  0.83636898533E+02  0.41800000000E+01 0. -1.
        -11    1    1    2    0    0  0.42597351373E+01  0.24407838909E+02  0.25392918662E+02  0.35477996869E+02  0.00000000000E+00 0. -1.
         11    1    1    2    0    0  0.10212940533E+03 -0.24833143035E+02 -0.98532495942E+01  0.10556603125E+03  0.00000000000E+00 0.  1.
</event>
<event>
 6    1  0.8989754E-006  0.8200504E+02  0.7561462E-02  0.1323456E+00
          2   -1    0    0  501    0  0.00000000000E+00  0.00000000000E+00  0.45721958220E+03  0.45721958220E+03  0.00000000000E+00 0. -1.
         -2   -1    0    0    0  501 -0.00000000000E+00 -0.00000000000E+00 -0.35263463857E+02  0.35263463857E+02  0.00000000000E+00 0.  1.
          5    1    1    2  502    0  0.16898015231E+02 -0.12891916824E+02  0.21008002076E+03  0.21119382558E+03  0.41800000000E+01 0. -1.
         -5    1    1    2    0  502 -0.20045765808E+02  0.45729308583E+02  0.10108099894E+01  0.50114833405E+02  0.41800000000E+01 0.  1.
        -11    1    1    2    0    0  0.39723238321E+02  0.44995634650E+01  0.65937875191E+02  0.77110214101E+02  0.00000000000E+00 0. -1.
         11    1    1    2    0    0 -0.36575487744E+02 -0.37336955224E+02  0.14492741240E+03  0.15406417297E+03  0.00000000000E+00 0.  1.
</event>
<event>
 6    1  0.8989754E-006  0.1915808E+03  0.7561462E-02  0.1157043E+00
          1   -1    0    0  501    0  0.00000000000E+00  0.00000000000E+00  0.13987776307E+03  0.13987776307E+03  0.00000000000E+00 0. -1.
         -1   -1    0    0    0  501 -0.00000000000E+00 -0.00000000000E+00 -0.35298837819E+03  0.35298837819E+03  0.00000000000E+00 0.  1.
          5    1    1    2  502    0  0.35264487263E+02  0.42593593215E+02  0.13920754310E+02  0.57175677044E+02  0.41800000000E+01 0.  1.
         -5    1    1    2    0  502  0.49112803999E+02  0.12620022263E+03 -0.17198750271E+03  0.21894231477E+03  0.41800000000E+01 0.  1.
        -11    1    1    2    0    0 -0.87947339957E+02 -0.15767255857E+03 -0.73480967209E+02  0.19492260739E+03  0.00000000000E+00 0.  1.
         11    1    1    2    0    0  0.35700486949E+01 -0.11121257280E+02  0.18437100489E+02  0.21825542046E+02  0.00000000000E+00 0. -1.
</event>
<event>
 6    1  0.8989754E-006  0.1181732E+03  0.7561462E-02  0.1246142E+00
          1   -1    0    0  501    0  0.00000000000E+00  0.00000000000E+00  0.69964256498E+02  0.69964256498E+02  0.00000000000E+00 0. -1.
         -1   -1    0    0    0  501 -0.00000000000E+00 -0.00000000000E+00 -0.24239688004E+03  0.24239688004E+03  0.00000000000E+00 0.  1.
          5    1    1    2  502    0 -0.37616203654E+01  0.31951460641E+02 -0.66329298172E+02  0.73838295083E+02  0.41800000000E+01 0.  1.
         -5    1    1    2    0  502 -0.28023376611E+02 -0.96097083530E+02 -0.53422853937E+02  0.11354044576E+03  0.41800000000E+01 0.  1.
        -11    1    1    2    0    0  0.56493048445E+02  0.48631772243E+02 -0.59078187222E+02  0.95114383768E+02  0.00000000000E+00 0.  1.
         11    1    1    2    0    0 -0.24708051468E+02  0.15513850645E+02  0.63977157904E+01  0.29868011928E+02  0.00000000000E+00 0. -1.
</event>
<event>
 6    1  0.8989754E-006  0.1072326E+03  0.7561462E-02  0.1265782E+00
         -1   -1    0    0    0  501 -0.00000000000E+00  0.00000000000E+00  0.64468908534E+03  0.64468908534E+03  0.00000000000E+00 0.  1.
          1   -1    0    0  501    0  0.00000000000E+00 -0.00000000000E+00 -0.29065883918E+02  0.29065883918E+02  0.00000000000E+00 0. -1.
          5    1    1    2  502    0 -0.25124519267E+02 -0.38395637300E+02  0.20310766461E+03  0.20826824592E+03  0.41800000000E+01 0. -1.
         -5    1    1    2    0  502 -0.48251438354E+01  0.89919275705E+02  0.26473612654E+03  0.27966309598E+03  0.41800000000E+01 0. -1.
        -11    1    1    2    0    0  0.44412676454E+02 -0.39469535642E+02  0.15473631145E+03  0.16575179081E+03  0.00000000000E+00 0. -1.
         11    1    1    2    0    0 -0.14463013351E+02 -0.12054102762E+02 -0.69569011863E+01  0.20071836556E+02  0.00000000000E+00 0.  1.
</event>
<event>
 6    1  0.8989754E-006  0.1181380E+03  0.7561462E-02  0.1246201E+00
         -2   -1    0    0    0  501 -0.00000000000E+00  0.00000000000E+00  0.14977583178E+03  0.14977583178E+03  0.00000000000E+00 0.  1.
          2   -1    0    0  501    0  0.00000000000E+00 -0.00000000000E+00 -0.14333383439E+03  0.14333383439E+03  0.00000000000E+00 0. -1.
          5    1    1    2  502    0  0.72282577587E+02  0.86235056409E+02  0.51325130319E+02  0.12374569640E+03  0.41800000000E+01 0.  1.
         -5    1    1    2    0  502 -0.27787693887E+02 -0.19446442982E+02  0.22871790081E+01  0.34249433047E+02  0.41800000000E+01 0.  1.
        -11    1    1    2    0    0  0.59763252546E+01 -0.19295610733E+02 -0.61163474396E+02  0.64412791100E+02  0.00000000000E+00 0. -1.
         11    1    1    2    0    0 -0.50471208954E+02 -0.47493002695E+02  0.13993162450E+02  0.70701745619E+02  0.00000000000E+00 0.  1.
</event>
<event>
 6    1  0.8989754E-006  0.1198025E+03  0.7561462E-02  0.1243423E+00
          1   -1    0    0  501    0  0.00000000000E+00  0.00000000000E+00  0.27561833863E+02  0.27561833863E+02  0.00000000000E+00 0. -1.
         -1   -1    0    0    0  501 -0.00000000000E+00 -0.00000000000E+00 -0.67508719257E+03  0.67508719257E+03  0.00000000000E+00 0.  1.
          5    1    1    2  502    0  0.34291588868E+02 -0.56044708830E+02 -0.16868396491E+03  0.18107643378E+03  0.41800000000E+01 0. -1.
         -5    1    1    2    0  502 -0.73450972492E+02  0.40013387223E+01 -0.13642088054E+03  0.15504575169E+03  0.41800000000E+01 0. -1.
        -11    1    1    2    0    0  0.50249631360E+02  0.35830485170E+01 -0.53988034084E+02  0.73841529729E+02  0.00000000000E+00 0. -1.
         11    1    1    2    0    0 -0.11090247735E+02  0.48460321590E+02 -0.28843247918E+03  0.29268531123E+03  0.00000000000E+00 0.  1.
</event>
<event>
 6    1  0.8989754E-006  0.1070494E+03  0.7561462E-02  0.1266133E+00
         -1   -1    0    0    0  501 -0.00000000000E+00  0.00000000000E+00  0.16417983658E+04  0.16417983658E+04  0.00000000000E+00 0.  1.
          1   -1    0    0  501    0  0.00000000000E+00 -0.00000000000E+00 -0.11519232913E+02  0.11519232913E+02  0.00000000000E+00 0. -1.
          5    1    1    2  502    0 -0.15966888722E+02  0.66529564379E+02  0.95115047023E+03  0.95361722609E+03  0.41800000000E+01 0. -1.
         -5    1    1    2    0  502  0.23613560703E+02 -0.47490369881E+02  0.41372373297E+03  0.41713035744E+03  0.41800000000E+01 0. -1.
        -11    1    1    2    0    0 -0.56231311053E+01  0.36421692488E+02  0.15075476604E+03  0.15519393922E+03  0.00000000000E+00 0.  1.
         11    1    1    2    0    0 -0.20235408761E+01 -0.55460886986E+02  0.11465016367E+03  0.12737607598E+03  0.00000000000E+00 0. -1.
</event>
<event>
 6    1  0.8989754E-006  0.9783145E+02  0.7561462E-02  0.1284923E+00
         -2   -1    0    0    0  501 -0.00000000000E+00  0.00000000000E+00  0.34713303466E+03  0.34713303466E+03  0.00000000000E+00 0.  1.
          2   -1    0    0  501    0  0.00000000000E+00 -0.00000000000E+00 -0.49948395075E+02  0.49948395075E+02  0.00000000000E+00 0. -1.
          5    1    1    2  502    0 -0.55055826918E+02 -0.37297944210E+02  0.18643949469E+03  0.19798848022E+03  0.41800000000E+01 0. -1.
         -5    1    1    2    0  502  0.22628430763E+01 -0.14644248174E+02 -0.18541064824E+02  0.24100164899E+02  0.41800000000E+01 0. -1.
        -11    1    1    2    0    0  0.60685388607E+02  0.70766355457E+02  0.12150730781E+03  0.15314901013E+03  0.00000000000E+00 0. -1.
         11    1    1    2    0    0 -0.78924047653E+01 -0.18824163073E+02  0.77789019067E+01  0.21843774474E+02  0.00000000000E+00 0.  1.
</event>
<event>
 6    1  0.8989754E-006  0.2073378E+03  0.7561462E-02  0.1143692E+00
          3   -1    0    0  501    0  0.00000000000E+00  0.00000000000E+00  0.10026573678E+03  0.10026573678E+03  0.00000000000E+00 0. -1.
         -3   -1    0    0    0  501 -0.00000000000E+00 -0.00000000000E+00 -0.45042272550E+03  0.45042272550E+03  0.00000000000E+00 0.  1.
          5    1    1    2  502    0  0.12322221194E+03  0.21403721484E+02 -0.15867585686E+03  0.20208248998E+03  0.41800000000E+01 0.  1.
         -5    1    1    2    0  502  0.25605929516E+02  0.82043564332E+02 -0.41552545907E+02  0.95555724821E+02  0.41800000000E+01 0.  1.
        -11    1    1    2    0    0 -0.12880166272E+03 -0.36882557971E+02 -0.10578053718E+03  0.17070358359E+03  0.00000000000E+00 0. -1.
         11    1    1    2    0    0 -0.20026478736E+02 -0.66564727845E+02 -0.44148048765E+02  0.82346663888E+02  0.00000000000E+00 0.  1.
</event>
<event>
 6    1  0.8989754E-006  0.1036032E+03  0.7561462E-02  0.1272896E+00
          2   -1    0    0  501    0  0.00000000000E+00  0.00000000000E+00  0.49199590935E+03  0.49199590935E+03  0.00000000000E+00 0. -1.
         -2   -1    0    0    0  501 -0.00000000000E+00 -0.00000000000E+00 -0.28359006222E+02  0.28359006222E+02  0.00000000000E+00 0.  1.
          5    1    1    2  502    0 -0.19269352364E+01 -0.57690057550E+02  0.50623547853E+02  0.76889998158E+02  0.41800000000E+01 0.  1.
         -5    1    1    2    0  502  0.49995307434E+01  0.63046071580E+02  0.10790448641E+03  0.12514253089E+03  0.41800000000E+01 0.  1.
        -11    1    1    2    0    0 -0.23951124420E+02 -0.39344926483E+02  0.11136714221E+03  0.12051688663E+03  0.00000000000E+00 0. -1.
         11    1    1    2    0    0  0.20878528913E+02  0.33988912454E+02  0.19374172665E+03  0.19780549989E+03  0.00000000000E+00 0.  1.
</event>
<event>
 6    1  0.8989754E-006  0.1417368E+03  0.7561462E-02  0.1211011E+00
         -1   -1    0    0    0  501 -0.00000000000E+00  0.00000000000E+00  0.31376059979E+02  0.31376059979E+02  0.00000000000E+00 0.  1.
          1   -1    0    0  501    0  0.00000000000E+00 -0.00000000000E+00 -0.78941802960E+03  0.78941802960E+03  0.00000000000E+00 0. -1.
          5    1    1    2  502    0 -0.84295817123E+02  0.11762619989E+02 -0.24508322291E+03  0.25947524461E+03  0.41800000000E+01 0. -1.
         -5    1    1    2    0  502 -0.17527794340E+02 -0.52630569174E+02 -0.43434969281E+02  0.70578108096E+02  0.41800000000E+01 0.  1.
        -11    1    1    2    0    0  0.26083012481E+02 -0.29407079000E+02 -0.12101118174E+03  0.12723523860E+03  0.00000000000E+00 0.  1.
         11    1    1    2    0    0  0.75740598982E+02  0.70275028185E+02 -0.34851259569E+03  0.36350549827E+03  0.00000000000E+00 0. -1.
</event>
<event>
 6    1  0.8989754E-006  0.1276510E+03  0.7561462E-02  0.1230984E+00
          1   -1    0    0  501    0  0.00000000000E+00  0.00000000000E+00  0.24506508529E+03  0.24506508529E+03  0.00000000000E+00 0. -1.
         -1   -1    0    0    0  501 -0.00000000000E+00 -0.00000000000E+00 -0.11058961917E+03  0.11058961917E+03  0.00000000000E+00 0.  1.
          5    1    1    2  502    0 -0.14107467080E+02 -0.18391901724E+02 -0.27549006043E+02  0.36245038425E+02  0.41800000000E+01 0.  1.
         -5    1    1    2    0  502  0.33471658148E+02 -0.98867995352E+02  0.12146506499E+03  0.16020757416E+03  0.41800000000E+01 0.  1.
        -11    1    1    2    0    0  0.14009638862E+01  0.10074048734E+03 -0.10866039254E+02  0.10133449214E+03  0.00000000000E+00 0.  1.
         11    1    1    2    0    0 -0.20765154953E+02  0.16519409741E+02  0.51425446429E+02  0.57867599733E+02  0.00000000000E+00 0. -1.
</event>
<event>
 6    1  0.8989754E-006  0.7063571E+02  0.7561462E-02  0.1357945E+00
         -2   -1    0    0    0  501 -0.00000000000E+00  0.00000000000E+00  0.99410059105E+02  0.99410059105E+02  0.00000000000E+00 0.  1.
          2   -1    0    0  501    0  0.00000000000E+00 -0.00000000000E+00 -0.11957174811E+03  0.11957174811E+03  0.00000000000E+00 0. -1.
          5    1    1    2  502    0  0.28931943826E+02 -0.18957704796E+02 -0.51536410128E+02  0.62208728596E+02  0.41800000000E+01 0. -1.
         -5    1    1    2    0  502 -0.34054756700E+02  0.95853565094E+01  0.52374645675E+02  0.63341782599E+02  0.41800000000E+01 0. -1.
        -11    1    1    2    0    0  0.32686681387E+02 -0.13128060679E+02  0.18896704556E+02  0.39973122975E+02  0.00000000000E+00 0.  1.
         11    1    1    2    0    0 -0.27563868513E+02  0.22500408966E+02 -0.39896629106E+02  0.53458173043E+02  0.00000000000E+00 0. -1.
</event>
<event>
 6    1  0.1278074E-005  0.1181728E+03  0.7561462E-02  0.1246142E+00
         -1   -1    0    0    0  501 -0.00000000000E+00  0.00000000000E+00  0.14557575656E+02  0.14557575656E+02  0.00000000000E+00 0. -1.
          1   -1    0    0  501    0  0.00000000000E+00 -0.00000000000E+00 -0.10868191820E+04  0.10868191820E+04  0.00000000000E+00 0.  1.
          5    1    1    2  502    0  0.88768798035E+02 -0.19859034030E+02 -0.28154141468E+03  0.29590086400E+03  0.41800000000E+01 0.  1.
         -5    1    1    2    0  502 -0.30572416533E+02  0.12627500058E+02 -0.29899272963E+03  0.30084589274E+03  0.41800000000E+01 0.  1.
        -11    1    1    2    0    0  0.26377702987E+02  0.73097482855E+01 -0.88828563562E+02  0.92950144375E+02  0.00000000000E+00 0.  1.
         11    1    1    2    0    0 -0.84574084489E+02 -0.78214313515E-01 -0.40289889848E+03  0.41167985654E+03  0.00000000000E+00 0. -1.
</event>
<event>
 6    1  0.8989754E-006  0.8573941E+02  0.7561462E-02  0.1313510E+00
          2   -1    0    0  501    0  0.00000000000E+00  0.00000000000E+00  0.45873737911E+02  0.45873737911E+02  0.00000000000E+00 0. -1.
         -2   -1    0    0    0  501 -0.00000000000E+00 -0.00000000000E+00 -0.35142856396E+03  0.35142856396E+03  0.00000000000E+00 0.  1.
          5    1    1    2  502    0  0.26712710490E+02 -0.42201276032E+02 -0.32875749425E+02  0.59940002508E+02  0.41800000000E+01 0.  1.
         -5    1    1    2    0  502 -0.10784928301E+02  0.25894862490E+02 -0.23342270679E+03  0.23513930133E+03  0.41800000000E+01 0.  1.
        -11    1    1    2    0    0 -0.33200175100E+02 -0.29268969376E+02 -0.27428853393E+02  0.52069820371E+02  0.00000000000E+00 0.  1.
         11    1    1    2    0    0  0.17272392912E+02  0.45575382918E+02 -0.11827516440E+02  0.50153177668E+02  0.00000000000E+00 0. -1.
</event>
<event>
 6    1  0.8989754E-006  0.8811968E+02  0.7561462E-02  0.1307470E+00
          2   -1    0    0  501    0  0.00000000000E+00  0.00000000000E+00  0.47602627569E+03  0.47602627569E+03  0.00000000000E+00 0. -1.
         -2   -1    0    0    0  501 -0.00000000000E+00 -0.00000000000E+00 -0.28104749377E+02  0.28104749377E+02  0.00000000000E+00 0.  1.
          5    1    1    2  502    0  0.29244554247E+02  0.21625127627E+01 -0.29452740246E+00  0.29622281494E+02  0.41800000000E+01 0. -1.
         -5    1    1    2    0  502 -0.50242007074E+02 -0.26708105983E+02  0.20207556163E+03  0.20997520618E+03  0.41800000000E+01 0. -1.
        -11    1    1    2    0    0  0.17956668168E+02  0.55566501525E+02  0.20351666481E+03  0.21172886170E+03  0.00000000000E+00 0. -1.
         11    1    1    2    0    0  0.30407846590E+01 -0.31020908306E+02  0.42623827280E+02  0.52804675697E+02  0.00000000000E+00 0.  1.
</event>
<event>
 6    1  0.8989754E-006  0.6038285E+02  0.7561462E-02  0.1396232E+00
         -1   -1    0    0    0  501 -0.00000000000E+00  0.00000000000E+00  0.87298251605E+02  0.87298251605E+02  0.00000000000E+00 0.  1.
          1   -1    0    0  501    0  0.00000000000E+00 -0.00000000000E+00 -0.14235056888E+03  0.14235056888E+03  0.00000000000E+00 0. -1.
          5    1    1    2  502    0  0.12610362404E+02 -0.10299692712E+02 -0.71603481224E+02  0.73550226603E+02  0.41800000000E+01 0. -1.
         -5    1    1    2    0  502 -0.34539927074E+02  0.25566175642E+02  0.39296846373E+02  0.58381079419E+02  0.41800000000E+01 0. -1.
        -11    1    1    2    0    0 -0.12759380066E+02 -0.22011009185E+02 -0.47970542971E+02  0.54299717292E+02  0.00000000000E+00 0. -1.
         11    1    1    2    0    0  0.34688944736E+02  0.67445262545E+01  0.25224860550E+02  0.43417797169E+02  0.00000000000E+00 0.  1.
</event>
<event>
 6    1  0.8989754E-006  0.1127571E+03  0.7561462E-02  0.1255548E+00
          2   -1    0    0  501    0  0.00000000000E+00  0.00000000000E+00  0.99948801915E+02  0.99948801915E+02  0.00000000000E+00 0. -1.
         -2   -1    0    0    0  501 -0.00000000000E+00 -0.00000000000E+00 -0.18252999419E+03  0.18252999419E+03  0.00000000000E+00 0.  1.
          5    1    1    2  502    0  0.28788555622E+01  0.61790550068E+02  0.36437177712E+02  0.71913143490E+02  0.41800000000E+01 0. -1.
         -5    1    1    2    0  502 -0.29605491390E+02 -0.62666723255E+02 -0.86255812792E+02  0.11073003641E+03  0.41800000000E+01 0.  1.
        -11    1    1    2    0    0  0.53828478247E+02 -0.22451384343E+02 -0.16944756322E+02  0.60734623536E+02  0.00000000000E+00 0. -1.
         11    1    1    2    0    0 -0.27101842419E+02  0.23327557530E+02 -0.15817800872E+02  0.39100992663E+02  0.00000000000E+00 0.  1.
</event>
<event>
 6    1  0.8989754E-006  0.2002345E+03  0.7561462E-02  0.1149541E+00
         -2   -1    0    0    0  501 -0.00000000000E+00  0.00000000000E+00  0.46115143959E+02  0.46115143959E+02  0.00000000000E+00 0. -1.
          2   -1    0    0  501    0  0.00000000000E+00 -0.00000000000E+00 -0.10163043948E+04  0.10163043948E+04  0.00000000000E+00 0.  1.
          5    1    1    2  502    0  0.20837065170E+02 -0.31052969184E+02 -0.35079432220E+02  0.51444233349E+02  0.41800000000E+01 0. -1.
         -5    1    1    2    0  502  0.12857949965E+03  0.11168552914E+03 -0.27754561615E+03  0.32566146010E+03  0.41800000000E+01 0. -1.
        -11    1    1    2    0    0 -0.99384623846E+02 -0.97941937370E+02 -0.45245042512E+03  0.47347789151E+03  0.00000000000E+00 0. -1.
         11    1    1    2    0    0 -0.50031940977E+02  0.17309377411E+02 -0.20511377731E+03  0.21183595377E+03  0.00000000000E+00 0.  1.
</event>
<event>
 6    1  0.8989754E-006  0.1402549E+03  0.7561462E-02  0.1212986E+00
          1   -1    0    0  501    0  0.00000000000E+00  0.00000000000E+00  0.52348817467E+03  0.52348817467E+03  0.00000000000E+00 0. -1.
         -1   -1    0    0    0  501 -0.00000000000E+00 -0.00000000000E+00 -0.44521594625E+02  0.44521594625E+02  0.00000000000E+00 0.  1.
          5    1    1    2  502    0 -0.36395961868E+02  0.67332985820E+02  0.93162428070E+02  0.12064454991E+03  0.41800000000E+01 0.  1.
         -5    1    1    2    0  502 -0.53263825308E+02 -0.54000233473E+02  0.58934042751E+02  0.96144443919E+02  0.41800000000E+01 0.  1.
        -11    1    1    2    0    0 -0.10868852836E+02 -0.24443193392E+02  0.55360971817E+02  0.61485273568E+02  0.00000000000E+00 0. -1.
         11    1    1    2    0    0  0.10052864001E+03  0.11110441044E+02  0.27150913741E+03  0.28973550190E+03  0.00000000000E+00 0.  1.
</event>
<event>
 6    1  0.8989754E-006  0.1143415E+03  0.7561462E-02  0.1252735E+00
         -2   -1    0    0    0  501 -0.00000000000E+00  0.00000000000E+00  0.98510436945E+02  0.98510436945E+02  0.00000000000E+00 0.  1.
          2   -1    0    0  501    0  0.00000000000E+00 -0.00000000000E+00 -0.15903611632E+03  0.15903611632E+03  0.00000000000E+00 0. -1.
          5    1    1    2  502    0  0.96309033628E+02  0.11110763125E+02 -0.86756149553E+01  0.97424933721E+02  0.41800000000E+01 0.  1.
         -5    1    1    2    0  502 -0.40085270742E+02  0.12034942940E+01  0.26372122559E+01  0.40406739753E+02  0.41800000000E+01 0.  1.
        -11    1    1    2    0    0 -0.30382680652E+02  0.29384649443E+02  0.50524309059E+01  0.42568673512E+02  0.00000000000E+00 0.  1.
         11    1    1    2    0    0 -0.25841082234E+02 -0.41698906863E+02 -0.59539707583E+02  0.77146206281E+02  0.00000000000E+00 0. -1.
</event>
<event>
 6    1  0.8989754E-006  0.9832406E+02  0.7561462E-02  0.1283860E+00
          1   -1    0    0  501    0  0.00000000000E+00  0.00000000000E+00  0.21303227986E+03  0.21303227986E+03  0.00000000000E+00 0. -1.
         -1   -1    0    0    0  501 -0.00000000000E+00 -0.00000000000E+00 -0.61436406413E+02  0.61436406413E+02  0.00000000000E+00 0.  1.
          5    1    1    2  502    0  0.41633045947E+02  0.58608610571E+02  0.29238185203E+02  0.77721448918E+02  0.41800000000E+01 0.  1.
         -5    1    1    2    0  502 -0.87483788239E+01 -0.54350337330E+02  0.46813932189E+02  0.72384459291E+02  0.41800000000E+01 0.  1.
        -11    1    1    2    0    0 -0.50406558508E+02 -0.91619612702E+01  0.88338216426E+02  0.10211955325E+03  0.00000000000E+00 0. -1.
         11    1    1    2    0    0  0.17521891385E+02  0.49036880296E+01 -0.12794460369E+02  0.22243224814E+02  0.00000000000E+00 0.  1.
</event>
<event>
 6    1  0.8989754E-006  0.1291736E+03  0.7561462E-02  0.1228687E+00
          2   -1    0    0  501    0  0.00000000000E+00  0.00000000000E+00  0.67016523671E+03  0.67016523671E+03  0.00000000000E+00 0. -1.
         -2   -1    0    0    0  501 -0.00000000000E+00 -0.00000000000E+00 -0.42343073069E+02  0.42343073069E+02  0.00000000000E+00 0.  1.
          5    1    1    2  502    0  0.91300300357E+02 -0.20395477526E+02  0.55539567236E+02  0.10887532447E+03  0.41800000000E+01 0. -1.
         -5    1    1    2    0  502  0.20323042753E+02 -0.30062872120E+02  0.18537148272E+03  0.18893613035E+03  0.41800000000E+01 0. -1.
        -11    1    1    2    0    0 -0.57862560182E+02  0.55545871185E+01  0.28606047070E+03  0.29190670120E+03  0.00000000000E+00 0. -1.
         11    1    1    2    0    0 -0.53760782929E+02  0.44903762527E+02  0.10085064299E+03  0.12279015377E+03  0.00000000000E+00 0.  1.
</event>
<event>
 6    1  0.8989754E-006  0.1202585E+03  0.7561462E-02  0.1242671E+00
          1   -1    0    0  501    0  0.00000000000E+00  0.00000000000E+00  0.14728247989E+03  0.14728247989E+03  0.00000000000E+00 0. -1.
         -1   -1    0    0    0  501 -0.00000000000E+00 -0.00000000000E+00 -0.12289536749E+03  0.12289536749E+03  0.00000000000E+00 0.  1.
          5    1    1    2  502    0  0.71855917434E+00  0.55736898984E+02  0.38707612487E+02  0.67991689934E+02  0.41800000000E+01 0. -1.
         -5    1    1    2    0  502  0.65909115429E+02 -0.17446961734E+02 -0.39346558739E+02  0.78829132020E+02  0.41800000000E+01 0. -1.
        -11    1    1    2    0    0  0.16619612478E+02 -0.27823156771E+02  0.22430752637E+02  0.39414188251E+02  0.00000000000E+00 0. -1.
         11    1    1    2    0    0 -0.83247287081E+02 -0.10466780478E+02  0.25953060203E+01  0.83942837177E+02  0.00000000000E+00 0.  1.
</event>
<event>
 6    1  0.8989754E-006  0.1312883E+03  0.7561462E-02  0.1225557E+00
          2   -1    0    0  501    0  0.00000000000E+00  0.00000000000E+00  0.12543637423E+03  0.12543637423E+03  0.00000000000E+00 0. -1.
         -2   -1    0    0    0  501 -0.00000000000E+00 -0.00000000000E+00 -0.14705460058E+03  0.14705460058E+03  0.00000000000E+00 0.  1.
          5    1    1    2  502    0  0.86930946670E+02 -0.22370434054E+02  0.28245295258E+00  0.89860881302E+02  0.41800000000E+01 0. -1.
         -5    1    1    2    0  502 -0.38629022631E+02 -0.44896251255E+02 -0.12319193454E+02  0.60639176228E+02  0.41800000000E+01 0. -1.
        -11    1    1    2    0    0 -0.25964020431E+02  0.82377693931E+02  0.12322924885E+02  0.87247173548E+02  0.00000000000E+00 0. -1.
         11    1    1    2    0    0 -0.22337903608E+02 -0.15111008622E+02 -0.21904410728E+02  0.34743743732E+02  0.00000000000E+00 0.  1.
</event>
<event>
 6    1  0.8989754E-006  0.1336450E+03  0.7561462E-02  0.1222145E+00
         -1   -1    0    0    0  501 -0.00000000000E+00  0.00000000000E+00  0.20716638864E+02  0.20716638864E+02  0.00000000000E+00 0.  1.
          1   -1    0    0  501    0  0.00000000000E+00 -0.00000000000E+00 -0.93650545429E+03  0.93650545429E+03  0.00000000000E+00 0. -1.
          5    1    1    2  502    0  0.10857718387E+02  0.38150068713E+02 -0.76406043461E+02  0.86189753850E+02  0.41800000000E+01 0.  1.
         -5    1    1    2    0  502 -0.90267177803E+02 -0.57657503165E+02 -0.31795294995E+03  0.33553554483E+03  0.41800000000E+01 0.  1.
        -11    1    1    2    0    0  0.39926321117E+02  0.54429140894E+02 -0.24741988880E+03  0.25646294833E+03  0.00000000000E+00 0.  1.
         11    1    1    2    0    0  0.39483138299E+02 -0.34921706442E+02 -0.27400993321E+03  0.27903384614E+03  0.00000000000E+00 0. -1.
</event>
<event>
 6    1  0.8989754E-006  0.1067312E+03  0.7561462E-02  0.1266746E+00
          1   -1    0    0  501    0  0.00000000000E+00  0.00000000000E+00  0.14025541126E+03  0.14025541126E+03  0.00000000000E+00 0.  1.
         -1   -1    0    0    0  501 -0.00000000000E+00 -0.00000000000E+00 -0.12433119668E+03  0.12433119668E+03  0.00000000000E+00 0. -1.
          5    1    1    2  502    0  0.16976066752E+02 -0.14390218085E+02  0.33821004053E+02  0.40701325949E+02  0.41800000000E+01 0. -1.
         -5    1    1    2    0  502 -0.86699043069E+02  0.29005264350E+02 -0.49649281594E+02  0.10411797631E+03  0.41800000000E+01 0. -1.
        -11    1    1    2    0    0  0.31771752968E+02  0.27920098807E+02  0.44458275845E+02  0.61363788142E+02  0.00000000000E+00 0.  1.
         11    1    1    2    0    0  0.37951223348E+02 -0.42535145072E+02 -0.12705783724E+02  0.58403517531E+02  0.00000000000E+00 0. -1.
</event>
<event>
 6    1  0.8989754E-006  0.1125264E+03  0.7561462E-02  0.1255962E+00
          1   -1    0    0  501    0  0.00000000000E+00  0.00000000000E+00  0.24825057054E+03  0.24825057054E+03  0.00000000000E+00 0. -1.
         -1   -1    0    0    0  501 -0.00000000000E+00 -0.00000000000E+00 -0.62358504119E+02  0.62358504119E+02  0.00000000000E+00 0.  1.
          5    1    1    2  502    0  0.27962596551E+02 -0.61154467701E+02  0.59363933356E+02  0.89796017223E+02  0.41800000000E+01 0. -1.
         -5    1    1    2    0  502 -0.60676508699E+02  0.16755302496E+02  0.11472078677E+02  0.64120666394E+02  0.41800000000E+01 0. -1.
        -11    1    1    2    0    0  0.96276482161E+00 -0.21458903621E+02  0.13675351930E+01  0.21523977635E+02  0.00000000000E+00 0.  1.
         11    1    1    2    0    0  0.31751147327E+02  0.65858068826E+02  0.11368851919E+03  0.13516841340E+03  0.00000000000E+00 0. -1.
</event>
<event>
 6    1  0.8989754E-006  0.1063296E+03  0.7561462E-02  0.1267522E+00
          1   -1    0    0  501    0  0.00000000000E+00  0.00000000000E+00  0.49632306830E+03  0.49632306830E+03  0.00000000000E+00 0. -1.
         -1   -1    0    0    0  501 -0.00000000000E+00 -0.00000000000E+00 -0.33004489836E+02  0.33004489836E+02  0.00000000000E+00 0.  1.
          5    1    1    2  502    0  0.41358964877E+02 -0.69128255141E+02  0.83223278380E+02  0.11590024201E+03  0.41800000000E+01 0.  1.
         -5    1    1    2    0  502  0.92427349989E+01  0.29013682619E+02  0.17997110641E+03  0.18257681526E+03  0.41800000000E+01 0.  1.
        -11    1    1    2    0    0  0.12635558774E+02  0.35697181888E+02  0.13400417688E+03  0.13925180632E+03  0.00000000000E+00 0. -1.
         11    1    1    2    0    0 -0.63237258650E+02  0.44173906336E+01  0.66120016796E+02  0.91598694546E+02  0.00000000000E+00 0.  1.
</event>
<event>
 6    1  0.8989754E-006  0.1864466E+03  0.7561462E-02  0.1161706E+00
          2   -1    0    0  501    0  0.00000000000E+00  0.00000000000E+00  0.14131995475E+04  0.14131995475E+04  0.00000000000E+00 0. -1.
         -2   -1    0    0    0  501 -0.00000000000E+00 -0.00000000000E+00 -0.40107746242E+02  0.40107746242E+02  0.00000000000E+00 0.  1.
          5    1    1    2  502    0  0.24010636773E+02  0.84289897780E+02  0.58905470362E+03  0.59555370354E+03  0.41800000000E+01 0. -1.
         -5    1    1    2    0  502 -0.10508139448E+03 -0.45720100371E+02  0.98728656300E+02  0.15131836312E+03  0.41800000000E+01 0.  1.
        -11    1    1    2    0    0  0.11359190463E+03  0.77784134643E+01  0.49219843332E+03  0.50519592464E+03  0.00000000000E+00 0.  1.
         11    1    1    2    0    0 -0.32521146921E+02 -0.46348210873E+02  0.19311000805E+03  0.20123930247E+03  0.00000000000E+00 0. -1.
</event>
<event>
 6    1  0.8989754E-006  0.1032742E+03  0.7561462E-02  0.1273558E+00
         -2   -1    0    0    0  501 -0.00000000000E+00  0.00000000000E+00  0.72733923251E+02  0.72733923251E+02  0.00000000000E+00 0.  1.
          2   -1    0    0  501    0  0.00000000000E+00 -0.00000000000E+00 -0.17601005224E+03  0.17601005224E+03  0.00000000000E+00 0. -1.
          5    1    1    2  502    0 -0.27324186613E+02 -0.48364630373E+02  0.37281907583E+01  0.55831178131E+02  0.41800000000E+01 0.  1.
         -5    1    1    2    0  502  0.49662374308E+02  0.22863062732E+02 -0.72465886281E+02  0.90872702908E+02  0.41800000000E+01 0.  1.
        -11    1    1    2    0    0 -0.16071530023E+02 -0.33247185191E+02 -0.13890293746E+02  0.39453892846E+02  0.00000000000E+00 0.  1.
         11    1    1    2    0    0 -0.62666576722E+01  0.58748752832E+02 -0.20648139722E+02  0.62586201607E+02  0.00000000000E+00 0. -1.
</event>
<event>
 6    1  0.8989754E-006  0.9762817E+02  0.7561462E-02  0.1285364E+00
         -1   -1    0    0    0  501 -0.00000000000E+00  0.00000000000E+00  0.38974662678E+03  0.38974662678E+03  0.00000000000E+00 0.  1.
          1   -1    0    0  501    0  0.00000000000E+00 -0.00000000000E+00 -0.41040315018E+02  0.41040315018E+02  0.00000000000E+00 0. -1.
          5    1    1    2  502    0  0.61510759580E+01  0.60126236867E+02  0.24873992737E+03  0.25601176528E+03  0.41800000000E+01 0. -1.
         -5    1    1    2    0  502 -0.32368561498E+02 -0.19395557644E+02  0.16845061014E+02  0.41534803603E+02  0.41800000000E+01 0.  1.
        -11    1    1    2    0    0  0.56427886352E+02 -0.19185533246E+02  0.25772110408E+02  0.64933756391E+02  0.00000000000E+00 0. -1.
         11    1    1    2    0    0 -0.30210400812E+02 -0.21545145977E+02  0.57349212977E+02  0.68306616528E+02  0.00000000000E+00 0.  1.
</event>
<event>
 6    1  0.8989754E-006  0.1346935E+03  0.7561462E-02  0.1220653E+00
          2   -1    0    0  501    0  0.00000000000E+00  0.00000000000E+00  0.33481889947E+03  0.33481889947E+03  0.00000000000E+00 0.  1.
         -2   -1    0    0    0  501 -0.00000000000E+00 -0.00000000000E+00 -0.83336973515E+02  0.83336973515E+02  0.00000000000E+00 0. -1.
          5    1    1    2  502    0  0.20809272412E+02 -0.41029357029E+02  0.75443605522E+02  0.88462669928E+02  0.41800000000E+01 0.  1.
         -5    1    1    2    0  502  0.30491032735E+02  0.79344709070E+02  0.43153418905E+02  0.95419997369E+02  0.41800000000E+01 0.  1.
        -11    1    1    2    0    0 -0.44321726039E+02 -0.82341715053E+02 -0.62907076242E+00  0.93514539869E+02  0.00000000000E+00 0. -1.
         11    1    1    2    0    0 -0.69785791079E+01  0.44026363012E+02  0.13351397230E+03  0.14075866582E+03  0.00000000000E+00 0.  1.
</event>
<event>
 6    1  0.8989754E-006  0.2593145E+03  0.7561462E-02  0.1107556E+00
         -2   -1    0    0    0  501 -0.00000000000E+00  0.00000000000E+00  0.27726011122E+03  0.27726011122E+03  0.00000000000E+00 0.  1.
          2   -1    0    0  501    0  0.00000000000E+00 -0.00000000000E+00 -0.25798889580E+03  0.25798889580E+03  0.00000000000E+00 0. -1.
          5    1    1    2  502    0 -0.14115124059E+03 -0.12121110645E+03  0.45968330666E+02  0.19169341374E+03  0.41800000000E+01 0.  1.
         -5    1    1    2    0  502  0.12799844221E+02 -0.82911822374E+02  0.11887375952E+01  0.84006498549E+02  0.41800000000E+01 0.  1.
        -11    1    1    2    0    0  0.88152404272E+02  0.83636190345E+02  0.21252897249E+02  0.12335941130E+03  0.00000000000E+00 0.  1.
         11    1    1    2    0    0  0.40198992095E+02  0.12048673848E+03 -0.49138750089E+02  0.13618968344E+03  0.00000000000E+00 0. -1.
</event>
<event>
 6    1  0.8989754E-006  0.1371717E+03  0.7561462E-02  0.1217186E+00
         -2   -1    0    0    0  501 -0.00000000000E+00  0.00000000000E+00  0.25331862471E+02  0.25331862471E+02  0.00000000000E+00 0.  1.
          2   -1    0    0  501    0  0.00000000000E+00 -0.00000000000E+00 -0.88057862087E+03  0.88057862087E+03  0.00000000000E+00 0. -1.
          5    1    1    2  502    0  0.65969806290E+02 -0.67702916894E+01 -0.16771354947E+03  0.18039722633E+03  0.41800000000E+01 0.  1.
         -5    1    1    2    0  502 -0.19095059812E+02  0.83556802729E+02 -0.15371293473E+03  0.17604402658E+03  0.41800000000E+01 0.  1.
        -11    1    1    2    0    0  0.15900608547E+02 -0.52362413385E+02 -0.14757791232E+03  0.15739724233E+03  0.00000000000E+00 0.  1.
         11    1    1    2    0    0 -0.62775355025E+02 -0.24424097655E+02 -0.38624236188E+03  0.39207198810E+03  0.00000000000E+00 0. -1.
</event>
<event>
 6    1  0.1939994E-005  0.1399081E+03  0.7561462E-02  0.1213453E+00
          1   -1    0    0  501    0  0.00000000000E+00  0.00000000000E+00  0.62853878553E+03  0.62853878553E+03  0.00000000000E+00 0. -1.
         -1   -1    0    0    0  501 -0.00000000000E+00 -0.00000000000E+00 -0.41962440230E+02  0.41962440230E+02  0.00000000000E+00 0.  1.
          5    1    1    2  502    0 -0.74428861807E+02  0.90611940333E+02  0.11638556592E+03  0.16526721259E+03  0.41800000000E+01 0.  1.
         -5    1    1    2    0  502  0.90630428484E+01  0.89530629349E+01  0.16060317691E+03  0.16116187178E+03  0.41800000000E+01 0.  1.
        -11    1    1    2    0    0 -0.15825720836E+02 -0.53353784335E+02  0.96337265079E+02  0.11125622853E+03  0.00000000000E+00 0.  1.
         11    1    1    2    0    0  0.81191539795E+02 -0.46211218932E+02  0.21325033739E+03  0.23281591287E+03  0.00000000000E+00 0. -1.
</event>
<event>
 6    1  0.8989754E-006  0.9309359E+02  0.7561462E-02  0.1295528E+00
          1   -1    0    0  501    0  0.00000000000E+00  0.00000000000E+00  0.30260458399E+03  0.30260458399E+03  0.00000000000E+00 0. -1.
         -1   -1    0    0    0  501 -0.00000000000E+00 -0.00000000000E+00 -0.49890313569E+02  0.49890313569E+02  0.00000000000E+00 0.  1.
          5    1    1    2  502    0 -0.48004511823E+02  0.39277910383E+02  0.11432453094E+03  0.13013361662E+03  0.41800000000E+01 0.  1.
         -5    1    1    2    0  502  0.22195756675E+02  0.23246188524E+00 -0.22639544695E+02  0.31980103766E+02  0.41800000000E+01 0.  1.
        -11    1    1    2    0    0  0.40674062345E+02  0.16194480769E+02  0.64815073177E+02  0.78215307108E+02  0.00000000000E+00 0.  1.
         11    1    1    2    0    0 -0.14865307197E+02 -0.55704853037E+02  0.96214210999E+02  0.11216587007E+03  0.00000000000E+00 0. -1.
</event>
<event>
 6    1  0.8989754E-006  0.1022008E+03  0.7561462E-02  0.1275735E+00
          1   -1    0    0  501    0  0.00000000000E+00  0.00000000000E+00  0.24359666661E+03  0.24359666661E+03  0.00000000000E+00 0. -1.
         -1   -1    0    0    0  501 -0.00000000000E+00 -0.00000000000E+00 -0.13931921623E+03  0.13931921623E+03  0.00000000000E+00 0.  1.
          5    1    1    2  502    0  0.47927828948E+02  0.30742433794E+01 -0.13168313602E+02  0.49974039692E+02  0.41800000000E+01 0. -1.
         -5    1    1    2    0  502 -0.60596577874E+02  0.28653093896E+02 -0.85156309134E+02  0.10845282120E+03  0.41800000000E+01 0.  1.
        -11    1    1    2    0    0  0.25716828519E+02 -0.55918290987E+02  0.93214448068E+02  0.11170113636E+03  0.00000000000E+00 0.  1.
         11    1    1    2    0    0 -0.13048079593E+02  0.24190953711E+02  0.10938762505E+03  0.11278788559E+03  0.00000000000E+00 0. -1.
</event>
<event>
 6    1  0.1030725E-005  0.1072309E+03  0.7561462E-02  0.1265786E+00
          1   -1    0    0  501    0  0.00000000000E+00  0.00000000000E+00  0.54916437226E+03  0.54916437226E+03  0.00000000000E+00 0. -1.
         -1   -1    0    0    0  501 -0.00000000000E+00 -0.00000000000E+00 -0.27406128413E+02  0.27406128413E+02  0.00000000000E+00 0.  1.
          5    1    1    2  502    0  0.42637091270E+02  0.50901188248E+02  0.57990556912E+02  0.88256612262E+02  0.41800000000E+01 0.  1.
         -5    1    1    2    0  502 -0.48989044428E+02 -0.22640665866E+02  0.11575068900E+03  0.12778192607E+03  0.41800000000E+01 0.  1.
        -11    1    1    2    0    0 -0.34116629847E+02 -0.39114577427E+02  0.17664316474E+03  0.18411057071E+03  0.00000000000E+00 0. -1.
         11    1    1    2    0    0  0.40468583006E+02  0.10854055046E+02  0.17137383319E+03  0.17642139163E+03  0.00000000000E+00 0.  1.
</event>
<event>
 6    1  0.8989754E-006  0.1775118E+03  0.7561462E-02  0.1170233E+00
          1   -1    0    0  501    0  0.00000000000E+00  0.00000000000E+00  0.12279266065E+03  0.12279266065E+03  0.00000000000E+00 0. -1.
         -1   -1    0    0    0  501 -0.00000000000E+00 -0.00000000000E+00 -0.52370168856E+03  0.52370168856E+03  0.00000000000E+00 0.  1.
          5    1    1    2  502    0 -0.12836213002E+01 -0.61152208368E+02 -0.51387981020E+02  0.79996482830E+02  0.41800000000E+01 0. -1.
         -5    1    1    2    0  502  0.10228039557E+03 -0.69677673290E+02 -0.35654762207E+03  0.37743865287E+03  0.41800000000E+01 0.  1.
        -11    1    1    2    0    0 -0.77599653553E+02  0.12257802536E+03 -0.26372548158E+02  0.14745368707E+03  0.00000000000E+00 0. -1.
         11    1    1    2    0    0 -0.23397120716E+02  0.82518562935E+01  0.33399123350E+02  0.41605526443E+02  0.00000000000E+00 0.  1.
</event>
<event>
 6    1  0.8989754E-006  0.9399961E+02  0.7561462E-02  0.1293445E+00
         -3   -1    0    0    0  501 -0.00000000000E+00  0.00000000000E+00  0.15351173558E+03  0.15351173558E+03  0.00000000000E+00 0.  1.
          3   -1    0    0  501    0  0.00000000000E+00 -0.00000000000E+00 -0.10110452495E+03  0.10110452495E+03  0.00000000000E+00 0. -1.
          5    1    1    2  502    0 -0.44702032382E+02  0.38193060270E+02  0.99498129644E+02  0.11564744595E+03  0.41800000000E+01 0. -1.
         -5    1    1    2    0  502  0.32945818626E+02 -0.16628867859E+02 -0.11939560040E+02  0.39012455769E+02  0.41800000000E+01 0. -1.
        -11    1    1    2    0    0  0.44259951702E+02  0.11312202554E+02 -0.26839412766E+02  0.52983613778E+02  0.00000000000E+00 0. -1.
         11    1    1    2    0    0 -0.32503737946E+02 -0.32876394964E+02 -0.83119462124E+01  0.46972745036E+02  0.00000000000E+00 0.  1.
</event>
<event>
 6    1  0.8989754E-006  0.1041355E+03  0.7561462E-02  0.1271832E+00
         -1   -1    0    0    0  501 -0.00000000000E+00  0.00000000000E+00  0.50911944053E+02  0.50911944053E+02  0.00000000000E+00 0.  1.
          1   -1    0    0  501    0  0.00000000000E+00 -0.00000000000E+00 -0.29709480227E+03  0.29709480227E+03  0.00000000000E+00 0. -1.
          5    1    1    2  502    0 -0.51581567902E+02 -0.18677294957E+01  0.68526550683E+00  0.51788884420E+02  0.41800000000E+01 0. -1.
         -5    1    1    2    0  502  0.20819765781E+02 -0.44773259341E+02 -0.12020306999E+03  0.13001675982E+03  0.41800000000E+01 0. -1.
        -11    1    1    2    0    0  0.23881720693E+02  0.74501357231E+02 -0.84075824225E+02  0.11484569226E+03  0.00000000000E+00 0.  1.
         11    1    1    2    0    0  0.68800814286E+01 -0.27860368394E+02 -0.42589229511E+02  0.51355409821E+02  0.00000000000E+00 0. -1.
</event>
<event>
 6    1  0.8989754E-006  0.1289051E+03  0.7561462E-02  0.1229089E+00
          2   -1    0    0  501    0  0.00000000000E+00  0.00000000000E+00  0.56402664060E+03  0.56402664060E+03  0.00000000000E+00 0. -1.
         -2   -1    0    0    0  501 -0.00000000000E+00 -0.00000000000E+00 -0.38654805254E+02  0.38654805254E+02  0.00000000000E+00 0.  1.
          5    1    1    2  502    0  0.10140942244E+03 -0.34423425946E+02  0.87397515288E+02  0.13829186994E+03  0.41800000000E+01 0. -1.
         -5    1    1    2    0  502 -0.12915847751E+02  0.19376040284E+02  0.10750825293E+03  0.11008063820E+03  0.41800000000E+01 0. -1.
        -11    1    1    2    0    0 -0.52586276886E+02  0.53048250786E+02  0.17455429827E+03  0.18986478471E+03  0.00000000000E+00 0.  1.
         11    1    1    2    0    0 -0.35907297804E+02 -0.38000865123E+02  0.15591176887E+03  0.16444415301E+03  0.00000000000E+00 0. -1.
</event>
<event>
 6    1  0.8989754E-006  0.1326036E+03  0.7561462E-02  0.1223643E+00
          1   -1    0    0  501    0  0.00000000000E+00  0.00000000000E+00  0.64243289505E+02  0.64243289505E+02  0.00000000000E+00 0. -1.
         -1   -1    0    0    0  501 -0.00000000000E+00 -0.00000000000E+00 -0.41777435469E+03  0.41777435469E+03  0.00000000000E+00 0.  1.
          5    1    1    2  502    0  0.66792778241E+01 -0.27781037944E+02 -0.16889097036E+03  0.17134185446E+03  0.41800000000E+01 0. -1.
         -5    1    1    2    0  502 -0.95187208460E+02 -0.44670402294E+02 -0.91999159087E+02  0.13977613233E+03  0.41800000000E+01 0. -1.
        -11    1    1    2    0    0  0.81193022233E+02  0.27750900274E+02 -0.24780614951E+02  0.89311243428E+02  0.00000000000E+00 0.  1.
         11    1    1    2    0    0  0.73149084029E+01  0.44700539964E+02 -0.67860320784E+02  0.81588413975E+02  0.00000000000E+00 0. -1.
</event>
<event>
 6    1  0.8989754E-006  0.1312356E+03  0.7561462E-02  0.1225634E+00
          1   -1    0    0  501    0  0.00000000000E+00  0.00000000000E+00  0.57062330917E+03  0.57062330917E+03  0.00000000000E+00 0. -1.
         -1   -1    0    0    0  501 -0.00000000000E+00 -0.00000000000E+00 -0.41520171497E+02  0.41520171497E+02  0.00000000000E+00 0.  1.
          5    1    1    2  502    0  0.85788901014E+02 -0.53676745513E+02  0.16536673847E+03  0.19391894992E+03  0.41800000000E+01 0. -1.
         -5    1    1    2    0  502 -0.29154409141E+02  0.45604382755E+02  0.19397566433E+02  0.57649607825E+02  0.41800000000E+01 0.  1.
        -11    1    1    2    0    0  0.22771403840E+02 -0.10918766406E+02  0.87496340347E+02  0.91067918977E+02  0.00000000000E+00 0.  1.
         11    1    1    2    0    0 -0.79405895713E+02  0.18991129164E+02  0.25684249242E+03  0.26950700394E+03  0.00000000000E+00 0. -1.
</event>
<event>
 6    1  0.8989754E-006  0.2157724E+03  0.7561462E-02  0.1137075E+00
          2   -1    0    0  501    0  0.00000000000E+00  0.00000000000E+00  0.26956462105E+03  0.26956462105E+03  0.00000000000E+00 0. -1.
         -2   -1    0    0    0  501 -0.00000000000E+00 -0.00000000000E+00 -0.20021873364E+03  0.20021873364E+03  0.00000000000E+00 0.  1.
          5    1    1    2  502    0 -0.40429678035E+02 -0.18401326044E+03 -0.52066546464E+02  0.19550917253E+03  0.41800000000E+01 0. -1.
         -5    1    1    2    0  502  0.29545125642E+02  0.10982050681E+01  0.75048349954E+01  0.30788235608E+02  0.41800000000E+01 0. -1.
        -11    1    1    2    0    0 -0.49326150411E+02  0.85947407766E+02  0.69370845294E+02  0.12096421038E+03  0.00000000000E+00 0. -1.
         11    1    1    2    0    0  0.60210702804E+02  0.96967647606E+02  0.44536753584E+02  0.12252173617E+03  0.00000000000E+00 0.  1.
</event>
<event>
 6    1  0.8989754E-006  0.1166612E+03  0.7561462E-02  0.1248709E+00
         -1   -1    0    0    0  501 -0.00000000000E+00  0.00000000000E+00  0.59649037438E+02  0.59649037438E+02  0.00000000000E+00 0.  1.
          1   -1    0    0  501    0  0.00000000000E+00 -0.00000000000E+00 -0.26962109761E+03  0.26962109761E+03  0.00000000000E+00 0. -1.
          5    1    1    2  502    0 -0.36671769340E+02  0.60826331019E+02 -0.21804732051E+02  0.74414917534E+02  0.41800000000E+01 0. -1.
         -5    1    1    2    0  502 -0.26883590504E+02 -0.44572796401E+02 -0.96960418124E+02  0.11012836465E+03  0.41800000000E+01 0. -1.
        -11    1    1    2    0    0  0.85398424411E+02 -0.54163243126E+01 -0.57379951570E+02  0.10302759972E+03  0.00000000000E+00 0. -1.
         11    1    1    2    0    0 -0.21843064566E+02 -0.10837210306E+02 -0.33826958422E+02  0.41699253146E+02  0.00000000000E+00 0.  1.
</event>
<event>
 6    1  0.8989754E-006  0.2188644E+03  0.7561462E-02  0.1134733E+00
          2   -1    0    0  501    0  0.00000000000E+00  0.00000000000E+00  0.22068109158E+03  0.22068109158E+03  0.00000000000E+00 0. -1.
         -2   -1    0    0    0  501 -0.00000000000E+00 -0.00000000000E+00 -0.26621858808E+03  0.26621858808E+03  0.00000000000E+00 0.  1.
          5    1    1    2  502    0  0.72722981391E+01  0.18976538184E+02 -0.53971647716E+02  0.57822197112E+02  0.41800000000E+01 0.  1.
         -5    1    1    2    0  502 -0.77676688328E+02  0.18069625867E+03 -0.13561367414E+02  0.19719581358E+03  0.41800000000E+01 0.  1.
        -11    1    1    2    0    0  0.14153977887E+00 -0.90014328935E+02 -0.25004509759E+02  0.93422828877E+02  0.00000000000E+00 0.  1.
         11    1    1    2    0    0  0.70262850410E+02 -0.10965846792E+03  0.47000028389E+02  0.13845884010E+03  0.00000000000E+00 0. -1.
</event>
<event>
 6    1  0.8989754E-006  0.1168273E+03  0.7561462E-02  0.1248425E+00
         -2   -1    0    0    0  501 -0.00000000000E+00  0.00000000000E+00  0.92323099601E+02  0.92323099601E+02  0.00000000000E+00 0. -1.
          2   -1    0    0  501    0  0.00000000000E+00 -0.00000000000E+00 -0.15313070632E+03  0.15313070632E+03  0.00000000000E+00 0.  1.
          5    1    1    2  502    0 -0.24295446233E+02  0.75252593044E+02 -0.13787880536E+02  0.80379098758E+02  0.41800000000E+01 0. -1.
         -5    1    1    2    0  502 -0.18532084758E+02 -0.51592452901E+02 -0.14997265511E+02  0.56987803385E+02  0.41800000000E+01 0. -1.
        -11    1    1    2    0    0  0.56455950677E+02  0.15067666144E+02 -0.43869906074E+01  0.58596540994E+02  0.00000000000E+00 0.  1.
         11    1    1    2    0    0 -0.13628419686E+02 -0.38727806286E+02 -0.27635470066E+02  0.49490362786E+02  0.00000000000E+00 0. -1.
</event>
<event>
 6    1  0.8989754E-006  0.1509292E+03  0.7561462E-02  0.1199336E+00
          3   -1    0    0  501    0  0.00000000000E+00  0.00000000000E+00  0.65449865113E+02  0.65449865113E+02  0.00000000000E+00 0. -1.
         -3   -1    0    0    0  501 -0.00000000000E+00 -0.00000000000E+00 -0.46380979230E+03  0.46380979230E+03  0.00000000000E+00 0.  1.
          5    1    1    2  502    0 -0.76028692555E+02  0.39944872136E+02 -0.53577559491E+02  0.10131131320E+03  0.41800000000E+01 0.  1.
         -5    1    1    2    0  502 -0.61165789247E+02 -0.47793430223E+02 -0.18823563052E+03  0.20365556890E+03  0.41800000000E+01 0.  1.
        -11    1    1    2    0    0  0.56336416891E+02 -0.37031190749E+01 -0.12422191238E+03  0.13644994860E+03  0.00000000000E+00 0.  1.
         11    1    1    2    0    0  0.80858064911E+02  0.11551677162E+02 -0.32324824804E+02  0.87842826714E+02  0.00000000000E+00 0. -1.
</event>
<event>
 6    1  0.8989754E-006  0.1506439E+03  0.7561462E-02  0.1199684E+00
          1   -1    0    0  501    0  0.00000000000E+00  0.00000000000E+00  0.87608403085E+03  0.87608403085E+03  0.00000000000E+00 0. -1.
         -1   -1    0    0    0  501 -0.00000000000E+00 -0.00000000000E+00 -0.36719678957E+02  0.36719678957E+02  0.00000000000E+00 0.  1.
          5    1    1    2  502    0  0.46552943549E+02 -0.41571621729E+01  0.18499676079E+02  0.50439755803E+02  0.41800000000E+01 0.  1.
         -5    1    1    2    0  502  0.72746894086E+02  0.69565938437E+02  0.31664875580E+03  0.33228818417E+03  0.41800000000E+01 0.  1.
        -11    1    1    2    0    0 -0.42877963401E+02 -0.64184451889E+02  0.16228970168E+03  0.17971118742E+03  0.00000000000E+00 0.  1.
         11    1    1    2    0    0 -0.76421874233E+02 -0.12243243752E+01  0.34192621833E+03  0.35036458242E+03  0.00000000000E+00 0. -1.
</event>
<event>
 6    1  0.8989754E-006  0.9246435E+02  0.7561462E-02  0.1296991E+00
          2   -1    0    0  501    0  0.00000000000E+00  0.00000000000E+00  0.37727011433E+03  0.37727011433E+03  0.00000000000E+00 0. -1.
         -2   -1    0    0    0  501 -0.00000000000E+00 -0.00000000000E+00 -0.35249489559E+02  0.35249489559E+02  0.00000000000E+00 0.  1.
          5    1    1    2  502    0 -0.36157153786E+02  0.49242508371E+02  0.16569514732E+03  0.17664800776E+03  0.41800000000E+01 0. -1.
         -5    1    1    2    0  502  0.24018918740E+02 -0.16903842532E+02 -0.39391711446E+01  0.29927208675E+02  0.41800000000E+01 0.  1.
        -11    1    1    2    0    0  0.50187029191E+02 -0.16736535879E+02  0.13388696306E+03  0.14396030150E+03  0.00000000000E+00 0.  1.
         11    1    1    2    0    0 -0.38048794145E+02 -0.15602129960E+02  0.46377685540E+02  0.61984085951E+02  0.00000000000E+00 0. -1.
</event>
<event>
 6    1  0.8989754E-006  0.1055929E+03  0.7561462E-02  0.1268956E+00
         -2   -1    0    0    0  501 -0.00000000000E+00  0.00000000000E+00  0.86240075169E+02  0.86240075169E+02  0.00000000000E+00 0.  1.
          2   -1    0    0  501    0  0.00000000000E+00 -0.00000000000E+00 -0.28369393186E+03  0.28369393186E+03  0.00000000000E+00 0. -1.
          5    1    1    2  502    0 -0.17695653314E+01  0.48739839371E+02  0.40273014250E+02  0.63388416767E+02  0.41800000000E+01 0. -1.
         -5    1    1    2    0  502  0.81141665331E+01  0.53542828996E+02 -0.91204526443E+02  0.10615277801E+03  0.41800000000E+01 0. -1.
        -11    1    1    2    0    0 -0.17439906054E+02 -0.88618423865E+02 -0.51942906622E+02  0.10418944726E+03  0.00000000000E+00 0.  1.
         11    1    1    2    0    0  0.11095304852E+02 -0.13664244502E+02 -0.94579437873E+02  0.96203364993E+02  0.00000000000E+00 0. -1.
</event>
<event>
 6    1  0.8989754E-006  0.1564381E+03  0.7561462E-02  0.1192778E+00
          2   -1    0    0  501    0  0.00000000000E+00  0.00000000000E+00  0.52223160869E+03  0.52223160869E+03  0.00000000000E+00 0.  1.
         -2   -1    0    0    0  501 -0.00000000000E+00 -0.00000000000E+00 -0.62800387500E+02  0.62800387500E+02  0.00000000000E+00 0. -1.
          5    1    1    2  502    0 -0.71165872584E+01 -0.70229530531E+02  0.34230190721E+02  0.78562148199E+02  0.41800000000E+01 0. -1.
         -5    1    1    2    0  502  0.10506500542E+03 -0.20753389017E+02  0.11929864477E+03  0.16037143625E+03  0.41800000000E+01 0. -1.
        -11    1    1    2    0    0 -0.43302336678E+02  0.27834416930E+02  0.34076389872E+02  0.61733681846E+02  0.00000000000E+00 0. -1.
         11    1    1    2    0    0 -0.54646081482E+02  0.63148502618E+02  0.27182599582E+03  0.28436472990E+03  0.00000000000E+00 0.  1.
</event>
<event>
 6    1  0.8989754E-006  0.9447876E+02  0.7561462E-02  0.1292354E+00
         -2   -1    0    0    0  501 -0.00000000000E+00  0.00000000000E+00  0.29390369256E+02  0.29390369256E+02  0.00000000000E+00 0.  1.
          2   -1    0    0  501    0  0.00000000000E+00 -0.00000000000E+00 -0.40559897301E+03  0.40559897301E+03  0.00000000000E+00 0. -1.
          5    1    1    2  502    0 -0.55441226994E+02  0.35282289565E+02 -0.15850177078E+03  0.17163581604E+03  0.41800000000E+01 0. -1.
         -5    1    1    2    0  502  0.48845846682E+02 -0.28251648621E+02 -0.82048900138E+02  0.99667280498E+02  0.41800000000E+01 0. -1.
        -11    1    1    2    0    0  0.36284629461E+02 -0.14230543293E+01 -0.12724172528E+03  0.13232178985E+03  0.00000000000E+00 0. -1.
         11    1    1    2    0    0 -0.29689249149E+02 -0.56075866144E+01 -0.84162075609E+01  0.31364455876E+02  0.00000000000E+00 0.  1.
</event>
<event>
 6    1  0.8989754E-006  0.1656227E+03  0.7561462E-02  0.1182491E+00
         -4   -1    0    0    0  501 -0.00000000000E+00  0.00000000000E+00  0.11535837545E+03  0.11535837545E+03  0.00000000000E+00 0.  1.
          4   -1    0    0  501    0  0.00000000000E+00 -0.00000000000E+00 -0.29926333560E+03  0.29926333560E+03  0.00000000000E+00 0. -1.
          5    1    1    2  502    0 -0.63610764684E+01  0.21370053612E+02 -0.17225523825E+02  0.28483917502E+02  0.41800000000E+01 0. -1.
         -5    1    1    2    0  502  0.81015308965E+02 -0.13830992846E+03 -0.14632748093E+02  0.16101150988E+03  0.41800000000E+01 0. -1.
        -11    1    1    2    0    0 -0.66375728519E+01  0.57511722151E+02 -0.13025518686E+02  0.59340708584E+02  0.00000000000E+00 0.  1.
         11    1    1    2    0    0 -0.68016659644E+02  0.59428152700E+02 -0.13902116955E+03  0.16578557508E+03  0.00000000000E+00 0. -1.
</event>
<event>
 6    1  0.8989754E-006  0.1247418E+03  0.7561462E-02  0.1235473E+00
         -1   -1    0    0    0  501 -0.00000000000E+00  0.00000000000E+00  0.12389197100E+03  0.12389197100E+03  0.00000000000E+00 0.  1.
          1   -1    0    0  501    0  0.00000000000E+00 -0.00000000000E+00 -0.15077934335E+03  0.15077934335E+03  0.00000000000E+00 0. -1.
          5    1    1    2  502    0 -0.34915273124E+02  0.19187116242E+02  0.88387155799E+01  0.41022152797E+02  0.41800000000E+01 0.  1.
         -5    1    1    2    0  502  0.69834584974E+02 -0.71006541840E+02  0.30169484831E+02  0.10414637995E+03  0.41800000000E+01 0.  1.
        -11    1    1    2    0    0  0.17664001223E+02 -0.16064641876E+02 -0.54415340335E+01  0.24488771925E+02  0.00000000000E+00 0.  1.
         11    1    1    2    0    0 -0.52583313073E+02  0.67884067473E+02 -0.60454038720E+02  0.10501400968E+03  0.00000000000E+00 0. -1.
</event>
<event>
 6    1  0.8989754E-006  0.9154187E+02  0.7561462E-02  0.1299160E+00
          2   -1    0    0  501    0  0.00000000000E+00  0.00000000000E+00  0.11852242236E+03  0.11852242236E+03  0.00000000000E+00 0. -1.
         -2   -1    0    0    0  501 -0.00000000000E+00 -0.00000000000E+00 -0.22057162697E+03  0.22057162697E+03  0.00000000000E+00 0.  1.
          5    1    1    2  502    0  0.17679025391E+02  0.45450974718E+02 -0.13282652051E+03  0.14155810112E+03  0.41800000000E+01 0.  1.
         -5    1    1    2    0  502  0.26819668380E+02 -0.58806530028E+02 -0.37592472457E+02  0.74887709080E+02  0.41800000000E+01 0.  1.
        -11    1    1    2    0    0 -0.56283286393E+02  0.10823083638E+02  0.43232117138E+01  0.57477279217E+02  0.00000000000E+00 0.  1.
         11    1    1    2    0    0  0.11784592622E+02  0.25324716712E+01  0.64046576644E+02  0.65170959912E+02  0.00000000000E+00 0. -1.
</event>
<event>
 6    1  0.8989754E-006  0.9364771E+02  0.7561462E-02  0.1294251E+00
          1   -1    0    0  501    0  0.00000000000E+00  0.00000000000E+00  0.41679716773E+03  0.41679716773E+03  0.00000000000E+00 0. -1.
         -1   -1    0    0    0  501 -0.00000000000E+00 -0.00000000000E+00 -0.52666171794E+02  0.52666171794E+02  0.00000000000E+00 0.  1.
          5    1    1    2  502    0 -0.56424825443E+02 -0.23099406156E+02 -0.86100224475E+01  0.61716678277E+02  0.41800000000E+01 0. -1.
         -5    1    1    2    0  502 -0.27840150962E+02 -0.11739037931E+02  0.13418684981E+03  0.13760981825E+03  0.41800000000E+01 0. -1.
        -11    1    1    2    0    0  0.39696740993E+02  0.97816554824E+00  0.19558009072E+03  0.19957043854E+03  0.00000000000E+00 0. -1.
         11    1    1    2    0    0  0.44568235411E+02  0.33860278538E+02  0.42974077849E+02  0.70566404452E+02  0.00000000000E+00 0.  1.
</event>
<event>
 6    1  0.8989754E-006  0.9214753E+02  0.7561462E-02  0.1297733E+00
         -4   -1    0    0    0  501 -0.00000000000E+00  0.00000000000E+00  0.12496183939E+03  0.12496183939E+03  0.00000000000E+00 0.  1.
          4   -1    0    0  501    0  0.00000000000E+00 -0.00000000000E+00 -0.10052122861E+03  0.10052122861E+03  0.00000000000E+00 0. -1.
          5    1    1    2  502    0 -0.13670905418E+02 -0.48731563076E+02 -0.29188469543E+02  0.58575575533E+02  0.41800000000E+01 0.  1.
         -5    1    1    2    0  502  0.26664849547E+02  0.28891377331E+02  0.60941897921E+02  0.72643741696E+02  0.41800000000E+01 0.  1.
        -11    1    1    2    0    0  0.34282505067E+02  0.30070646853E+02 -0.29714941881E+01  0.45698618508E+02  0.00000000000E+00 0. -1.
         11    1    1    2    0    0 -0.47276449196E+02 -0.10230461108E+02 -0.43413234108E+01  0.48565132267E+02  0.00000000000E+00 0.  1.
</event>
<event>
 6    1  0.8989754E-006  0.1137470E+03  0.7561462E-02  0.1253784E+00
          2   -1    0    0  501    0  0.00000000000E+00  0.00000000000E+00  0.47920947913E+03  0.47920947913E+03  0.00000000000E+00 0. -1.
         -2   -1    0    0    0  501 -0.00000000000E+00 -0.00000000000E+00 -0.32380193115E+02  0.32380193115E+02  0.00000000000E+00 0.  1.
          5    1    1    2  502    0  0.48573459813E+02  0.43706829047E+01  0.49425325814E+02  0.69561620877E+02  0.41800000000E+01 0. -1.
         -5    1    1    2    0  502 -0.79346487288E+02  0.17010035957E+02  0.10127008140E+03  0.12983954773E+03  0.41800000000E+01 0. -1.
        -11    1    1    2    0    0  0.15947606455E+02  0.35281890309E+02  0.14564465007E+03  0.15070335773E+03  0.00000000000E+00 0.  1.
         11    1    1    2    0    0  0.14825421020E+02 -0.56662609170E+02  0.15048922873E+03  0.16148514592E+03  0.00000000000E+00 0. -1.
</event>
<event>
 6    1  0.8989754E-006  0.1100344E+03  0.7561462E-02  0.1260506E+00
         -1   -1    0    0    0  501 -0.00000000000E+00  0.00000000000E+00  0.33888489560E+02  0.33888489560E+02  0.00000000000E+00 0.  1.
          1   -1    0    0  501    0  0.00000000000E+00 -0.00000000000E+00 -0.61927591408E+03  0.61927591408E+03  0.00000000000E+00 0. -1.
          5    1    1    2  502    0 -0.30282380168E+02  0.95186292183E+01 -0.24209157229E+03  0.24419956721E+03  0.41800000000E+01 0.  1.
         -5    1    1    2    0  502 -0.52383287937E+02 -0.56255345356E+02 -0.65127334754E+02  0.10083508749E+03  0.41800000000E+01 0.  1.
        -11    1    1    2    0    0  0.64875275750E+02  0.60399124864E+02 -0.27013105695E+03  0.28430202887E+03  0.00000000000E+00 0. -1.
         11    1    1    2    0    0  0.17790392354E+02 -0.13662408726E+02 -0.80374605194E+01  0.23827720074E+02  0.00000000000E+00 0.  1.
</event>
<event>
 6    1  0.8989754E-006  0.1363188E+03  0.7561462E-02  0.1218370E+00
         -2   -1    0    0    0  501 -0.00000000000E+00  0.00000000000E+00  0.11784616478E+03  0.11784616478E+03  0.00000000000E+00 0.  1.
          2   -1    0    0  501    0  0.00000000000E+00 -0.00000000000E+00 -0.22246207843E+03  0.22246207843E+03  0.00000000000E+00 0. -1.
          5    1    1    2  502    0 -0.20875030762E+02  0.93555651403E+02  0.21072748874E+02  0.98234209743E+02  0.41800000000E+01 0.  1.
         -5    1    1    2    0  502  0.62707528905E+02  0.78514029964E+01 -0.25279986843E+02  0.68194052858E+02  0.41800000000E+01 0.  1.
        -11    1    1    2    0    0 -0.34092388429E+02 -0.45190629117E+02 -0.10250202289E+03  0.11709461390E+03  0.00000000000E+00 0. -1.
         11    1    1    2    0    0 -0.77401097140E+01 -0.56216425282E+02  0.20933472049E+01  0.56785366710E+02  0.00000000000E+00 0.  1.
</event>
<event>
 6    1  0.8989754E-006  0.1015783E+03  0.7561462E-02  0.1277012E+00
         -2   -1    0    0    0  501 -0.00000000000E+00  0.00000000000E+00  0.77447170538E+02  0.77447170538E+02  0.00000000000E+00 0.  1.
          2   -1    0    0  501    0  0.00000000000E+00 -0.00000000000E+00 -0.18242885939E+03  0.18242885939E+03  0.00000000000E+00 0. -1.
          5    1    1    2  502    0  0.31624622486E+02 -0.42092880441E+02 -0.97947943293E+01  0.53715339775E+02  0.41800000000E+01 0. -1.
         -5    1    1    2    0  502 -0.26974234829E+02  0.69849277259E+02 -0.18386192280E+01  0.75015890309E+02  0.41800000000E+01 0. -1.
        -11    1    1    2    0    0 -0.31645884967E+02  0.59126150228E+01 -0.46794296055E+01  0.32531801566E+02  0.00000000000E+00 0.  1.
         11    1    1    2    0    0  0.26995497309E+02 -0.33669011840E+02 -0.88668845687E+02  0.98612998275E+02  0.00000000000E+00 0. -1.
</event>
<event>
 6    1  0.8989754E-006  0.1316932E+03  0.7561462E-02  0.1224965E+00
         -1   -1    0    0    0  501 -0.00000000000E+00  0.00000000000E+00  0.38540758080E+02  0.38540758080E+02  0.00000000000E+00 0.  1.
          1   -1    0    0  501    0  0.00000000000E+00 -0.00000000000E+00 -0.57088362814E+03  0.57088362814E+03  0.00000000000E+00 0. -1.
          5    1    1    2  502    0  0.43919558165E+02 -0.39113139412E+02 -0.13164100276E+03  0.14424143397E+03  0.41800000000E+01 0. -1.
         -5    1    1    2    0  502 -0.51898753095E+02  0.95524363494E+02 -0.10772388199E+03  0.15310222645E+03  0.41800000000E+01 0.  1.
        -11    1    1    2    0    0 -0.21859654220E+02 -0.61585442182E+02 -0.25638017693E+03  0.26457778873E+03  0.00000000000E+00 0.  1.
         11    1    1    2    0    0  0.29838849150E+02  0.51742181001E+01 -0.36597808377E+02  0.47502937063E+02  0.00000000000E+00 0. -1.
</event>
<event>
 6    1  0.8989754E-006  0.1089891E+03  0.7561462E-02  0.1262453E+00
         -1   -1    0    0    0  501 -0.00000000000E+00  0.00000000000E+00  0.90714094272E+02  0.90714094272E+02  0.00000000000E+00 0.  1.
          1   -1    0    0  501    0  0.00000000000E+00 -0.00000000000E+00 -0.24712768646E+03  0.24712768646E+03  0.00000000000E+00 0. -1.
          5    1    1    2  502    0 -0.42041290406E+02  0.52542622216E+02  0.35527445652E+02  0.76209376345E+02  0.41800000000E+01 0. -1.
         -5    1    1    2    0  502 -0.26308964912E+02 -0.50868896880E+02 -0.33257284159E+02  0.66357559134E+02  0.41800000000E+01 0. -1.
        -11    1    1    2    0    0  0.49176897632E+02 -0.30974159223E+02 -0.14746633072E+03  0.15850578695E+03  0.00000000000E+00 0. -1.
         11    1    1    2    0    0  0.19173357686E+02  0.29300433888E+02 -0.11217422966E+02  0.36769058309E+02  0.00000000000E+00 0.  1.
</event>
<event>
 6    1  0.8989754E-006  0.6670605E+02  0.7561462E-02  0.1371667E+00
          2   -1    0    0  501    0  0.00000000000E+00  0.00000000000E+00  0.62044772856E+02  0.62044772856E+02  0.00000000000E+00 0. -1.
         -2   -1    0    0    0  501 -0.00000000000E+00 -0.00000000000E+00 -0.25358826331E+03  0.25358826331E+03  0.00000000000E+00 0.  1.
          5    1    1    2  502    0 -0.16484653371E+02  0.73783407249E+01 -0.18400992562E+03  0.18494136594E+03  0.41800000000E+01 0. -1.
         -5    1    1    2    0  502  0.26535348128E+02 -0.24387179293E+02  0.24941056164E+01  0.36366910468E+02  0.41800000000E+01 0. -1.
        -11    1    1    2    0    0 -0.14447356981E+02 -0.28986748102E+02 -0.29851708082E+02  0.44046363807E+02  0.00000000000E+00 0.  1.
         11    1    1    2    0    0  0.43966622240E+01  0.45995586669E+02  0.19824037630E+02  0.50278395954E+02  0.00000000000E+00 0. -1.
</event>
<event>
 6    1  0.8989754E-006  0.6603963E+02  0.7561462E-02  0.1374103E+00
         -1   -1    0    0    0  501 -0.00000000000E+00  0.00000000000E+00  0.40423193271E+02  0.40423193271E+02  0.00000000000E+00 0.  1.
          1   -1    0    0  501    0  0.00000000000E+00 -0.00000000000E+00 -0.29775349861E+03  0.29775349861E+03  0.00000000000E+00 0. -1.
          5    1    1    2  502    0  0.56690079981E+00  0.31753028290E+02  0.16579633875E+02  0.36068446619E+02  0.41800000000E+01 0. -1.
         -5    1    1    2    0  502 -0.20350202378E+02 -0.20730142618E+02 -0.13336630118E+03  0.13655735879E+03  0.41800000000E+01 0. -1.
        -11    1    1    2    0    0  0.19128549073E+01  0.27849588742E+02 -0.10867409813E+03  0.11220213105E+03  0.00000000000E+00 0. -1.
         11    1    1    2    0    0  0.17870446671E+02 -0.38872474414E+02 -0.31869539901E+02  0.53348755419E+02  0.00000000000E+00 0.  1.
</event>
<event>
 6    1  0.8989754E-006  0.1510218E+03  0.7561462E-02  0.1199223E+00
          1   -1    0    0  501    0  0.00000000000E+00  0.00000000000E+00  0.33080246527E+02  0.33080246527E+02  0.00000000000E+00 0. -1.
         -1   -1    0    0    0  501 -0.00000000000E+00 -0.00000000000E+00 -0.80940379476E+03  0.80940379476E+03  0.00000000000E+00 0.  1.
          5    1    1    2  502    0  0.76574432363E+02 -0.98833806053E+02 -0.32583058948E+03  0.34901978504E+03  0.41800000000E+01 0. -1.
         -5    1    1    2    0  502  0.28567015317E+02  0.35880596292E+02 -0.19875053963E+03  0.20401652129E+03  0.41800000000E+01 0. -1.
        -11    1    1    2    0    0 -0.79897200455E+02  0.22148070087E+02 -0.21027211132E+03  0.22602756568E+03  0.00000000000E+00 0. -1.
         11    1    1    2    0    0 -0.25244247225E+02  0.40805139674E+02 -0.41470307805E+02  0.63420169278E+02  0.00000000000E+00 0.  1.
</event>
<event>
 6    1  0.8989754E-006  0.8620365E+02  0.7561462E-02  0.1312315E+00
         -1   -1    0    0    0  501 -0.00000000000E+00  0.00000000000E+00  0.70797713957E+03  0.70797713957E+03  0.00000000000E+00 0.  1.
          1   -1    0    0  501    0  0.00000000000E+00 -0.00000000000E+00 -0.23470686652E+02  0.23470686652E+02  0.00000000000E+00 0. -1.
          5    1    1    2  502    0 -0.39823178206E+02 -0.22362302379E+02  0.50709408133E+03  0.50916386146E+03  0.41800000000E+01 0. -1.
         -5    1    1    2    0  502 -0.10590457145E+02  0.21790175824E+02  0.12347638613E+02  0.27511926947E+02  0.41800000000E+01 0. -1.
        -11    1    1    2    0    0 -0.31703767691E+01  0.37018830728E+02  0.45199016428E+02  0.58509795790E+02  0.00000000000E+00 0.  1.
         11    1    1    2    0    0  0.53584012120E+02 -0.36446704174E+02  0.11986571654E+03  0.13626224202E+03  0.00000000000E+00 0. -1.
</event>
<event>
 6    1  0.8989754E-006  0.9725830E+02  0.7561462E-02  0.1286169E+00
          1   -1    0    0  501    0  0.00000000000E+00  0.00000000000E+00  0.62483320984E+02  0.62483320984E+02  0.00000000000E+00 0.  1.
         -1   -1    0    0    0  501 -0.00000000000E+00 -0.00000000000E+00 -0.27764247782E+03  0.27764247782E+03  0.00000000000E+00 0. -1.
          5    1    1    2  502    0  0.39708386461E+02 -0.85870552014E+01 -0.14940388599E+02  0.43487711872E+02  0.41800000000E+01 0. -1.
         -5    1    1    2    0  502 -0.67375137589E+02 -0.42899419425E+02 -0.16458613421E+03  0.18299135861E+03  0.41800000000E+01 0. -1.
        -11    1    1    2    0    0 -0.11115916062E+02  0.28284388162E+01  0.24539705140E+02  0.27088019204E+02  0.00000000000E+00 0.  1.
         11    1    1    2    0    0  0.38782667189E+02  0.48658035810E+02 -0.60172339166E+02  0.86558709117E+02  0.00000000000E+00 0. -1.
</event>
<event>
 6    1  0.1389821E-005  0.1335749E+03  0.7561462E-02  0.1222246E+00
         -1   -1    0    0    0  501 -0.00000000000E+00  0.00000000000E+00  0.17145072415E+03  0.17145072415E+03  0.00000000000E+00 0.  1.
          1   -1    0    0  501    0  0.00000000000E+00 -0.00000000000E+00 -0.12709834994E+03  0.12709834994E+03  0.00000000000E+00 0. -1.
          5    1    1    2  502    0 -0.82675576789E+02  0.38434909562E+02  0.89809559644E+01  0.91709450115E+02  0.41800000000E+01 0. -1.
         -5    1    1    2    0  502 -0.13232228383E+02 -0.64857938420E+02  0.30025843043E+02  0.72805684493E+02  0.41800000000E+01 0. -1.
        -11    1    1    2    0    0  0.38067944903E+02  0.34225704602E+02  0.41047821783E+02  0.65616240046E+02  0.00000000000E+00 0.  1.
         11    1    1    2    0    0  0.57839860268E+02 -0.78026757436E+01 -0.35702246581E+02  0.68417699432E+02  0.00000000000E+00 0. -1.
</event>
<event>
 6    1  0.8989754E-006  0.1052811E+03  0.7561462E-02  0.1269567E+00
         -3   -1    0    0    0  501 -0.00000000000E+00  0.00000000000E+00  0.21638277574E+03  0.21638277574E+03  0.00000000000E+00 0.  1.
          3   -1    0    0  501    0  0.00000000000E+00 -0.00000000000E+00 -0.85511331491E+02  0.85511331491E+02  0.00000000000E+00 0. -1.
          5    1    1    2  502    0 -0.81428994021E+02 -0.40774316013E+02  0.12097851579E+03  0.15148102058E+03  0.41800000000E+01 0. -1.
         -5    1    1    2    0  502  0.81351826259E+01  0.15503788549E+02 -0.20068847344E+02  0.26958851783E+02  0.41800000000E+01 0. -1.
        -11    1    1    2    0    0  0.16470349637E+02 -0.22001025029E+02  0.40341504943E+02  0.48813466795E+02  0.00000000000E+00 0.  1.
         11    1    1    2    0    0  0.56823461759E+02  0.47271552493E+02 -0.10379729141E+02  0.74640768072E+02  0.00000000000E+00 0. -1.
</event>
<event>
 6    1  0.8989754E-006  0.1088823E+03  0.7561462E-02  0.1262654E+00
          1   -1    0    0  501    0  0.00000000000E+00  0.00000000000E+00  0.14463879272E+03  0.14463879272E+03  0.00000000000E+00 0. -1.
         -1   -1    0    0    0  501 -0.00000000000E+00 -0.00000000000E+00 -0.15923572151E+03  0.15923572151E+03  0.00000000000E+00 0.  1.
          5    1    1    2  502    0 -0.45956359870E+02  0.13694659370E+02 -0.53985200659E+02  0.72328452202E+02  0.41800000000E+01 0.  1.
         -5    1    1    2    0  502  0.53869422272E+02 -0.64575259439E+02 -0.46604490798E+02  0.96235802850E+02  0.41800000000E+01 0.  1.
        -11    1    1    2    0    0  0.11893628830E+02 -0.13547222529E+02  0.60695009953E+02  0.63315636917E+02  0.00000000000E+00 0. -1.
         11    1    1    2    0    0 -0.19806691231E+02  0.64427822598E+02  0.25297752717E+02  0.71994622263E+02  0.00000000000E+00 0.  1.
</event>
<event>
 6    1  0.8989754E-006  0.1415082E+03  0.7561462E-02  0.1211314E+00
          2   -1    0    0  501    0  0.00000000000E+00  0.00000000000E+00  0.28490804600E+03  0.28490804600E+03  0.00000000000E+00 0. -1.
         -2   -1    0    0    0  501 -0.00000000000E+00 -0.00000000000E+00 -0.98532894820E+02  0.98532894820E+02  0.00000000000E+00 0.  1.
          5    1    1    2  502    0  0.83545638922E+02 -0.25610763019E+02  0.72685673186E+02  0.11373857943E+03  0.41800000000E+01 0.  1.
         -5    1    1    2    0  502  0.30098843194E+02  0.39107439668E+02 -0.34114309819E+02  0.60138097188E+02  0.41800000000E+01 0.  1.
        -11    1    1    2    0    0 -0.52734822114E+02 -0.51909594460E+02  0.94224722963E+02  0.11980762028E+03  0.00000000000E+00 0. -1.
         11    1    1    2    0    0 -0.60909660002E+02  0.38412917811E+02  0.53579064845E+02  0.89756643910E+02  0.00000000000E+00 0.  1.
</event>
<event>
 6    1  0.8989754E-006  0.1011805E+03  0.7561462E-02  0.1277833E+00
          1   -1    0    0  501    0  0.00000000000E+00  0.00000000000E+00  0.26515016095E+03  0.26515016095E+03  0.00000000000E+00 0. -1.
         -1   -1    0    0    0  501 -0.00000000000E+00 -0.00000000000E+00 -0.53279392417E+02  0.53279392417E+02  0.00000000000E+00 0.  1.
          5    1    1    2  502    0  0.99837665532E+01 -0.43790586519E+02  0.39956243379E+02  0.60259977159E+02  0.41800000000E+01 0.  1.
         -5    1    1    2    0  502  0.35539579788E+01  0.87444353977E+02  0.58079880137E+02  0.10511845954E+03  0.41800000000E+01 0.  1.
        -11    1    1    2    0    0 -0.10737728195E+02 -0.55977779857E+02  0.12423338627E+03  0.13668483789E+03  0.00000000000E+00 0. -1.
         11    1    1    2    0    0 -0.27999963375E+01  0.12324012399E+02 -0.10398741258E+02  0.16366278773E+02  0.00000000000E+00 0.  1.
</event>
<event>
 6    1  0.8989754E-006  0.1181869E+03  0.7561462E-02  0.1246118E+00
          1   -1    0    0  501    0  0.00000000000E+00  0.00000000000E+00  0.44898163617E+02  0.44898163617E+02  0.00000000000E+00 0. -1.
         -1   -1    0    0    0  501 -0.00000000000E+00 -0.00000000000E+00 -0.35066770316E+03  0.35066770316E+03  0.00000000000E+00 0.  1.
          5    1    1    2  502    0  0.86020666593E+02  0.37991278201E+02 -0.11072067534E+03  0.14532526501E+03  0.41800000000E+01 0. -1.
         -5    1    1    2    0  502 -0.43449411688E+02  0.64072258247E+01 -0.72953734026E+02  0.85256223393E+02  0.41800000000E+01 0. -1.
        -11    1    1    2    0    0  0.18003011171E+02  0.63636892839E+01 -0.64298196422E+02  0.67073564208E+02  0.00000000000E+00 0.  1.
         11    1    1    2    0    0 -0.60574266076E+02 -0.50762193310E+02 -0.57796933750E+02  0.97910814169E+02  0.00000000000E+00 0. -1.
</event>
<event>
 6    1  0.8989754E-006  0.1777454E+03  0.7561462E-02  0.1170003E+00
          1   -1    0    0  501    0  0.00000000000E+00  0.00000000000E+00  0.10243221448E+04  0.10243221448E+04  0.00000000000E+00 0. -1.
         -1   -1    0    0    0  501 -0.00000000000E+00 -0.00000000000E+00 -0.37878369332E+02  0.37878369332E+02  0.00000000000E+00 0.  1.
          5    1    1    2  502    0  0.42840257939E+01 -0.43779161179E+02  0.29474246464E+02  0.53114700744E+02  0.41800000000E+01 0. -1.
         -5    1    1    2    0  502  0.74370865392E+02 -0.10051299779E+03  0.49485350787E+03  0.51042272186E+03  0.41800000000E+01 0. -1.
        -11    1    1    2    0    0 -0.33601472256E+02  0.13637712228E+03  0.32292258719E+03  0.35214595800E+03  0.00000000000E+00 0.  1.
         11    1    1    2    0    0 -0.45053418930E+02  0.79150366845E+01  0.13919343398E+03  0.14651713356E+03  0.00000000000E+00 0. -1.
</event>
<event>
 6    1  0.8989754E-006  0.8081132E+02  0.7561462E-02  0.1326765E+00
         -1   -1    0    0    0  501 -0.00000000000E+00  0.00000000000E+00  0.22534446674E+03  0.22534446674E+03  0.00000000000E+00 0.  1.
          1   -1    0    0  501    0  0.00000000000E+00 -0.00000000000E+00 -0.76737671377E+02  0.76737671377E+02  0.00000000000E+00 0. -1.
          5    1    1    2  502    0 -0.44035356571E+01 -0.14565955782E+02 -0.23483946354E+02  0.28293574014E+02  0.41800000000E+01 0. -1.
         -5    1    1    2    0  502 -0.35282868035E+02 -0.30691887057E+02  0.15871850958E+03  0.16551710000E+03  0.41800000000E+01 0. -1.
        -11    1    1    2    0    0  0.60695969109E+02  0.48422428616E+02 -0.80975747134E+01  0.78066016777E+02  0.00000000000E+00 0.  1.
         11    1    1    2    0    0 -0.21009565417E+02 -0.31645857769E+01  0.21469806851E+02  0.30205447330E+02  0.00000000000E+00 0. -1.
</event>
<event>
 6    1  0.8989754E-006  0.1018433E+03  0.7561462E-02  0.1276467E+00
          1   -1    0    0  501    0  0.00000000000E+00  0.00000000000E+00  0.73135936816E+02  0.73135936816E+02  0.00000000000E+00 0.  1.
         -1   -1    0    0    0  501 -0.00000000000E+00 -0.00000000000E+00 -0.18063844299E+03  0.18063844299E+03  0.00000000000E+00 0. -1.
          5    1    1    2  502    0  0.35534397294E+02 -0.50883410316E+02 -0.83806301870E+02  0.10436849845E+03  0.41800000000E+01 0. -1.
         -5    1    1    2    0  502 -0.26976157279E+01  0.49857676256E+02 -0.67021296944E+00  0.50109745536E+02  0.41800000000E+01 0. -1.
        -11    1    1    2    0    0  0.28387849556E+02  0.86591015179E+01 -0.23080703298E+02  0.37597458774E+02  0.00000000000E+00 0.  1.
         11    1    1    2    0    0 -0.61224631122E+02 -0.76333674580E+01  0.54711967779E-01  0.61698677038E+02  0.00000000000E+00 0. -1.
</event>
<event>
 6    1  0.8989754E-006  0.1105874E+03  0.7561462E-02  0.1259486E+00
          2   -1    0    0  501    0  0.00000000000E+00  0.00000000000E+00  0.15960729101E+03  0.15960729101E+03  0.00000000000E+00 0. -1.
         -2   -1    0    0    0  501 -0.00000000000E+00 -0.00000000000E+00 -0.12442807072E+03  0.12442807072E+03  0.00000000000E+00 0.  1.
          5    1    1    2  502    0  0.72330100768E+02 -0.69918116356E+02  0.39381925294E+02  0.10811380537E+03  0.41800000000E+01 0.  1.
         -5    1    1    2    0  502 -0.30174845051E+02 -0.83489716552E+01 -0.32733475936E+02  0.45488234176E+02  0.41800000000E+01 0.  1.
        -11    1    1    2    0    0 -0.29743455294E+02  0.56101021261E+02 -0.27281979663E+02  0.69110810541E+02  0.00000000000E+00 0.  1.
         11    1    1    2    0    0 -0.12411800423E+02  0.22166066751E+02  0.55812750596E+02  0.61322511642E+02  0.00000000000E+00 0. -1.
</event>
<event>
 6    1  0.8989754E-006  0.1211383E+03  0.7561462E-02  0.1241231E+00
          1   -1    0    0  501    0  0.00000000000E+00  0.00000000000E+00  0.79040350301E+03  0.79040350301E+03  0.00000000000E+00 0. -1.
         -1   -1    0    0    0  501 -0.00000000000E+00 -0.00000000000E+00 -0.20029968371E+02  0.20029968371E+02  0.00000000000E+00 0.  1.
          5    1    1    2  502    0  0.93756057666E+02 -0.15955238655E+02  0.26025230406E+03  0.27711640543E+03  0.41800000000E+01 0.  1.
         -5    1    1    2    0  502 -0.36251750145E+02  0.18396220789E+02  0.77214497066E+02  0.87362241758E+02  0.41800000000E+01 0.  1.
        -11    1    1    2    0    0 -0.19607843506E+02 -0.45085176780E+02  0.17232226460E+03  0.17919850326E+03  0.00000000000E+00 0.  1.
         11    1    1    2    0    0 -0.37896464015E+02  0.42644194645E+02  0.26058446891E+03  0.26675632094E+03  0.00000000000E+00 0. -1.
</event>
<event>
 6    1  0.8989754E-006  0.9809052E+02  0.7561462E-02  0.1284363E+00
         -1   -1    0    0    0  501 -0.00000000000E+00  0.00000000000E+00  0.33835104146E+03  0.33835104146E+03  0.00000000000E+00 0.  1.
          1   -1    0    0  501    0  0.00000000000E+00 -0.00000000000E+00 -0.46660180808E+02  0.46660180808E+02  0.00000000000E+00 0. -1.
          5    1    1    2  502    0 -0.41395243914E+02  0.53827689885E+02  0.21436859060E+03  0.22490520548E+03  0.41800000000E+01 0. -1.
         -5    1    1    2    0  502  0.28049062582E+02 -0.18182430780E+00 -0.11754711363E+01  0.28383747184E+02  0.41800000000E+01 0. -1.
        -11    1    1    2    0    0 -0.27117731332E+02 -0.52753310281E+02  0.24347505502E+02  0.64117736411E+02  0.00000000000E+00 0. -1.
         11    1    1    2    0    0  0.40463912664E+02 -0.89255529544E+00  0.54150235682E+02  0.67604533187E+02  0.00000000000E+00 0.  1.
</event>
<event>
 6    1  0.8989754E-006  0.9028005E+02  0.7561462E-02  0.1302175E+00
          2   -1    0    0  501    0  0.00000000000E+00  0.00000000000E+00  0.31537898968E+03  0.31537898968E+03  0.00000000000E+00 0.  1.
         -2   -1    0    0    0  501 -0.00000000000E+00 -0.00000000000E+00 -0.38773375281E+02  0.38773375281E+02  0.00000000000E+00 0. -1.
          5    1    1    2  502    0 -0.20060198900E+02 -0.60785379443E+02  0.14869294116E+03  0.16193930062E+03  0.41800000000E+01 0.  1.
         -5    1    1    2    0  502  0.10103621151E+02  0.40647330327E+02  0.13664623225E+02  0.44254750603E+02  0.41800000000E+01 0.  1.
        -11    1    1    2    0    0 -0.29947073267E+02  0.16653284224E+02  0.99564908652E+02  0.10529639171E+03  0.00000000000E+00 0.  1.
         11    1    1    2    0    0  0.39903651016E+02  0.34847648928E+01  0.14683141363E+02  0.42661922027E+02  0.00000000000E+00 0. -1.
</event>
<event>
 6    1  0.8989754E-006  0.1280552E+03  0.7561462E-02  0.1230370E+00
         -1   -1    0    0    0  501 -0.00000000000E+00  0.00000000000E+00  0.43992823319E+02  0.43992823319E+02  0.00000000000E+00 0.  1.
          1   -1    0    0  501    0  0.00000000000E+00 -0.00000000000E+00 -0.58522570321E+03  0.58522570321E+03  0.00000000000E+00 0. -1.
          5    1    1    2  502    0  0.17983431136E+02 -0.20984771061E+01 -0.86949462342E+02  0.88912815742E+02  0.41800000000E+01 0. -1.
         -5    1    1    2    0  502 -0.10984225121E+03 -0.14739713788E+02 -0.63041742958E+02  0.12757081589E+03  0.41800000000E+01 0. -1.
        -11    1    1    2    0    0  0.97675865330E+02  0.37901254494E+02 -0.27147243545E+03  0.29098859595E+03  0.00000000000E+00 0.  1.
         11    1    1    2    0    0 -0.58170452609E+01 -0.21063063599E+02 -0.11976923914E+03  0.12174629895E+03  0.00000000000E+00 0. -1.
</event>
<event>
 6    1  0.8989754E-006  0.1737621E+03  0.7561462E-02  0.1173980E+00
          1   -1    0    0  501    0  0.00000000000E+00  0.00000000000E+00  0.68322619104E+03  0.68322619104E+03  0.00000000000E+00 0.  1.
         -1   -1    0    0    0  501 -0.00000000000E+00 -0.00000000000E+00 -0.62423451708E+02  0.62423451708E+02  0.00000000000E+00 0. -1.
          5    1    1    2  502    0  0.32690595274E+01  0.51368949705E+01 -0.13658470969E+02  0.15527416699E+02  0.41800000000E+01 0. -1.
         -5    1    1    2    0  502  0.61465677322E+02  0.15411685187E+03  0.27702765757E+03  0.32294245459E+03  0.41800000000E+01 0. -1.
        -11    1    1    2    0    0 -0.17972112139E+02 -0.81279427199E+02  0.26398338745E+03  0.27679698508E+03  0.00000000000E+00 0.  1.
         11    1    1    2    0    0 -0.46762624711E+02 -0.77974319636E+02  0.93450165286E+02  0.13038278638E+03  0.00000000000E+00 0. -1.
</event>
<event>
 6    1  0.8989754E-006  0.1031669E+03  0.7561462E-02  0.1273774E+00
         -1   -1    0    0    0  501 -0.00000000000E+00  0.00000000000E+00  0.34255722887E+03  0.34255722887E+03  0.00000000000E+00 0.  1.
          1   -1    0    0  501    0  0.00000000000E+00 -0.00000000000E+00 -0.50930991393E+02  0.50930991393E+02  0.00000000000E+00 0. -1.
          5    1    1    2  502    0 -0.43372408514E+02 -0.66810004275E+02  0.14613824335E+03  0.16648904186E+03  0.41800000000E+01 0. -1.
         -5    1    1    2    0  502 -0.26297835514E+02  0.45106278538E+02  0.26064328326E+02  0.58506188795E+02  0.41800000000E+01 0. -1.
        -11    1    1    2    0    0  0.37689070787E+02  0.18687193441E+02  0.12841938419E+03  0.13513406489E+03  0.00000000000E+00 0.  1.
         11    1    1    2    0    0  0.31981173240E+02  0.30165322951E+01 -0.89957183949E+01  0.33358924718E+02  0.00000000000E+00 0. -1.
</event>
<event>
 6    1  0.1171792E-005  0.2491234E+03  0.7561462E-02  0.1113860E+00
         -1   -1    0    0    0  501 -0.00000000000E+00  0.00000000000E+00  0.74110377451E+02  0.74110377451E+02  0.00000000000E+00 0.  1.
          1   -1    0    0  501    0  0.00000000000E+00 -0.00000000000E+00 -0.88833479259E+03  0.88833479259E+03  0.00000000000E+00 0. -1.
          5    1    1    2  502    0  0.93101455594E+02 -0.10720688756E+03 -0.17485672186E+03  0.22528547080E+03  0.41800000000E+01 0. -1.
         -5    1    1    2    0  502  0.10996491254E+03 -0.19555718180E+01 -0.26335549261E+03  0.28542896513E+03  0.41800000000E+01 0. -1.
        -11    1    1    2    0    0 -0.64949717529E+02  0.83279929134E+02 -0.20311218449E+03  0.22892918532E+03  0.00000000000E+00 0.  1.
         11    1    1    2    0    0 -0.13811665060E+03  0.25882530248E+02 -0.17290001618E+03  0.22280154879E+03  0.00000000000E+00 0. -1.
</event>
<event>
 6    1  0.8989754E-006  0.9446365E+02  0.7561462E-02  0.1292389E+00
          2   -1    0    0  501    0  0.00000000000E+00  0.00000000000E+00  0.99352371326E+02  0.99352371326E+02  0.00000000000E+00 0. -1.
         -2   -1    0    0    0  501 -0.00000000000E+00 -0.00000000000E+00 -0.19266670095E+03  0.19266670095E+03  0.00000000000E+00 0.  1.
          5    1    1    2  502    0 -0.50685032724E+02 -0.37740402124E+02  0.84904663140E+01  0.63897346682E+02  0.41800000000E+01 0.  1.
         -5    1    1    2    0  502 -0.27252812948E+02  0.38061352310E+02 -0.97615336792E+02  0.10834024520E+03  0.41800000000E+01 0.  1.
        -11    1    1    2    0    0  0.39928189521E+02 -0.52435257928E+01  0.43049909201E+02  0.58949551003E+02  0.00000000000E+00 0. -1.
         11    1    1    2    0    0  0.38009656151E+02  0.49225756072E+01 -0.47239368343E+02  0.60831929386E+02  0.00000000000E+00 0.  1.
</event>
<event>
 6    1  0.8989754E-006  0.8841573E+02  0.7561462E-02  0.1306734E+00
         -4   -1    0    0    0  501 -0.00000000000E+00  0.00000000000E+00  0.18857860531E+02  0.18857860531E+02  0.00000000000E+00 0.  1.
          4   -1    0    0  501    0  0.00000000000E+00 -0.00000000000E+00 -0.68403952473E+03  0.68403952473E+03  0.00000000000E+00 0. -1.
          5    1    1    2  502    0 -0.47453073859E+02 -0.79957361721E+01 -0.37097123839E+02  0.60904802871E+02  0.41800000000E+01 0. -1.
         -5    1    1    2    0  502  0.38602120574E+02  0.74105581703E+01 -0.24022729594E+03  0.24345772980E+03  0.41800000000E+01 0. -1.
        -11    1    1    2    0    0 -0.18119953116E+01 -0.43553538452E+02 -0.14276588636E+03  0.14927254385E+03  0.00000000000E+00 0. -1.
         11    1    1    2    0    0  0.10662948596E+02  0.44138716454E+02 -0.24509135806E+03  0.24926230874E+03  0.00000000000E+00 0.  1.
</event>
<event>
 6    1  0.8989754E-006  0.1031050E+03  0.7561462E-02  0.1273899E+00
         -4   -1    0    0    0  501 -0.00000000000E+00  0.00000000000E+00  0.91692144533E+03  0.91692144533E+03  0.00000000000E+00 0.  1.
          4   -1    0    0  501    0  0.00000000000E+00 -0.00000000000E+00 -0.19166862328E+02  0.19166862328E+02  0.00000000000E+00 0. -1.
          5    1    1    2  502    0  0.68694090237E+02 -0.14135303380E+02  0.20901514579E+03  0.22050734320E+03  0.41800000000E+01 0. -1.
         -5    1    1    2    0  502 -0.20867989568E+02  0.27646626065E+02  0.49719969241E+03  0.49842232640E+03  0.41800000000E+01 0. -1.
        -11    1    1    2    0    0 -0.54838064578E+01 -0.46850587229E+02  0.72590797032E+02  0.86570627067E+02  0.00000000000E+00 0. -1.
         11    1    1    2    0    0 -0.42342294212E+02  0.33339264544E+02  0.11894894777E+03  0.13058801099E+03  0.00000000000E+00 0.  1.
</event>
<event>
 6    1  0.8989754E-006  0.2247417E+03  0.7561462E-02  0.1130397E+00
          2   -1    0    0  501    0  0.00000000000E+00  0.00000000000E+00  0.12874443244E+04  0.12874443244E+04  0.00000000000E+00 0.  1.
         -2   -1    0    0    0  501 -0.00000000000E+00 -0.00000000000E+00 -0.45456568477E+02  0.45456568477E+02  0.00000000000E+00 0. -1.
          5    1    1    2  502    0 -0.73929453437E+02 -0.12778383564E+03  0.39171336872E+03  0.41863003758E+03  0.41800000000E+01 0. -1.
         -5    1    1    2    0  502 -0.73810287914E+02 -0.14222983843E+02  0.75286211712E+02  0.10646942258E+03  0.41800000000E+01 0. -1.
        -11    1    1    2    0    0 -0.13591923636E+02  0.20259490677E+02  0.59323696112E+02  0.64144276994E+02  0.00000000000E+00 0. -1.
         11    1    1    2    0    0  0.16133166499E+03  0.12174732881E+03  0.71566447943E+03  0.74365715576E+03  0.00000000000E+00 0.  1.
</event>
<event>
 6    1  0.8989754E-006  0.9635994E+02  0.7561462E-02  0.1288142E+00
          1   -1    0    0  501    0  0.00000000000E+00  0.00000000000E+00  0.32008057223E+03  0.32008057223E+03  0.00000000000E+00 0. -1.
         -1   -1    0    0    0  501 -0.00000000000E+00 -0.00000000000E+00 -0.45190544759E+02  0.45190544759E+02  0.00000000000E+00 0.  1.
          5    1    1    2  502    0  0.26413224923E+02 -0.31544090539E+02  0.56330699628E+02  0.69880671286E+02  0.41800000000E+01 0. -1.
         -5    1    1    2    0  502 -0.54851960682E+02  0.72799719299E+02  0.72392981636E+02  0.11647640495E+03  0.41800000000E+01 0. -1.
        -11    1    1    2    0    0  0.31637026427E+02 -0.17511224122E+02  0.59266261932E+01  0.36642452284E+02  0.00000000000E+00 0.  1.
         11    1    1    2    0    0 -0.31982906683E+01 -0.23744404639E+02  0.14023972001E+03  0.14227158846E+03  0.00000000000E+00 0. -1.
</event>
<event>
 6    1  0.8989754E-006  0.1141227E+03  0.7561462E-02  0.1253120E+00
         -1   -1    0    0    0  501 -0.00000000000E+00  0.00000000000E+00  0.25982409551E+03  0.25982409551E+03  0.00000000000E+00 0.  1.
          1   -1    0    0  501    0  0.00000000000E+00 -0.00000000000E+00 -0.58390117786E+02  0.58390117786E+02  0.00000000000E+00 0. -1.
          5    1    1    2  502    0 -0.48890350921E+02  0.42330549885E+02  0.37207603446E+02  0.74726300731E+02  0.41800000000E+01 0.  1.
         -5    1    1    2    0  502  0.54415706772E+02 -0.32788842641E+01  0.10750057328E+03  0.12060541398E+03  0.41800000000E+01 0.  1.
        -11    1    1    2    0    0 -0.19446891381E+02 -0.71160298182E+02  0.42233394769E+02  0.85003701423E+02  0.00000000000E+00 0. -1.
         11    1    1    2    0    0  0.13921535531E+02  0.32108632561E+02  0.14492406235E+02  0.37878797169E+02  0.00000000000E+00 0.  1.
</event>
<event>
 6    1  0.8989754E-006  0.7953806E+02  0.7561462E-02  0.1330367E+00
          2   -1    0    0  501    0  0.00000000000E+00  0.00000000000E+00  0.17401261858E+03  0.17401261858E+03  0.00000000000E+00 0. -1.
         -2   -1    0    0    0  501 -0.00000000000E+00 -0.00000000000E+00 -0.70023818145E+02  0.70023818145E+02  0.00000000000E+00 0.  1.
          5    1    1    2  502    0  0.23474927612E+02 -0.38045241326E+01 -0.36401794842E+02  0.43681914999E+02  0.41800000000E+01 0.  1.
         -5    1    1    2    0  502 -0.42900986746E+02  0.35501323266E+01  0.78658325655E+02  0.89764707420E+02  0.41800000000E+01 0.  1.
        -11    1    1    2    0    0 -0.35430676734E+02 -0.76776719578E+01  0.22218857006E+02  0.42520078871E+02  0.00000000000E+00 0.  1.
         11    1    1    2    0    0  0.54856735869E+02  0.79320637638E+01  0.39513412616E+02  0.68069735436E+02  0.00000000000E+00 0. -1.
</event>
<event>
 6    1  0.8989754E-006  0.1206261E+03  0.7561462E-02  0.1242068E+00
          2   -1    0    0  501    0  0.00000000000E+00  0.00000000000E+00  0.34761378017E+03  0.34761378017E+03  0.00000000000E+00 0.  1.
         -2   -1    0    0    0  501 -0.00000000000E+00 -0.00000000000E+00 -0.82803486849E+02  0.82803486849E+02  0.00000000000E+00 0. -1.
          5    1    1    2  502    0  0.29714001059E+02 -0.10085354246E+03  0.10795063593E+03  0.15074870176E+03  0.41800000000E+01 0.  1.
         -5    1    1    2    0  502 -0.23576907691E+01 -0.14809099924E+02 -0.33680279163E+02  0.37103931744E+02  0.41800000000E+01 0.  1.
        -11    1    1    2    0    0 -0.70158609147E+01  0.71466621944E+02  0.17856083557E+03  0.19245953433E+03  0.00000000000E+00 0. -1.
         11    1    1    2    0    0 -0.20340449375E+02  0.44196020440E+02  0.11979100985E+02  0.50105099180E+02  0.00000000000E+00 0.  1.
</event>
<event>
 6    1  0.8989754E-006  0.7295288E+02  0.7561462E-02  0.1350330E+00
         -2   -1    0    0    0  501 -0.00000000000E+00  0.00000000000E+00  0.41248349787E+02  0.41248349787E+02  0.00000000000E+00 0.  1.
          2   -1    0    0  501    0  0.00000000000E+00 -0.00000000000E+00 -0.34907428295E+03  0.34907428295E+03  0.00000000000E+00 0. -1.
          5    1    1    2  502    0  0.95963201071E+01 -0.30277904705E+02 -0.10079071229E+03  0.10575954310E+03  0.41800000000E+01 0. -1.
         -5    1    1    2    0  502  0.19970815970E+02  0.27847389021E+02  0.18538510891E+02  0.39184937819E+02  0.41800000000E+01 0.  1.
        -11    1    1    2    0    0  0.24242385344E+02 -0.57621931369E+01 -0.17875590152E+02  0.30666477466E+02  0.00000000000E+00 0.  1.
         11    1    1    2    0    0 -0.53809521421E+02  0.81927088205E+01 -0.20769814162E+03  0.21471167436E+03  0.00000000000E+00 0. -1.
</event>
<event>
 6    1  0.8989754E-006  0.1100154E+03  0.7561462E-02  0.1260541E+00
          2   -1    0    0  501    0  0.00000000000E+00  0.00000000000E+00  0.39214117332E+03  0.39214117332E+03  0.00000000000E+00 0. -1.
         -2   -1    0    0    0  501 -0.00000000000E+00 -0.00000000000E+00 -0.51008108777E+02  0.51008108777E+02  0.00000000000E+00 0.  1.
          5    1    1    2  502    0  0.44438123928E+02 -0.92752663416E+02  0.68718842716E+02  0.12376411101E+03  0.41800000000E+01 0. -1.
         -5    1    1    2    0  502  0.15749969096E+01  0.40116518536E+02  0.26325836786E+02  0.48190639726E+02  0.41800000000E+01 0. -1.
        -11    1    1    2    0    0 -0.32606085135E+02  0.13369498575E+02  0.18397361056E+02  0.39753781880E+02  0.00000000000E+00 0.  1.
         11    1    1    2    0    0 -0.13407035703E+02  0.39266646306E+02  0.22769102399E+03  0.23144074949E+03  0.00000000000E+00 0. -1.
</event>
<event>
 6    1  0.8989754E-006  0.1325721E+03  0.7561462E-02  0.1223688E+00
         -1   -1    0    0    0  501 -0.00000000000E+00  0.00000000000E+00  0.41397499365E+02  0.41397499365E+02  0.00000000000E+00 0.  1.
          1   -1    0    0  501    0  0.00000000000E+00 -0.00000000000E+00 -0.67340834163E+03  0.67340834163E+03  0.00000000000E+00 0. -1.
          5    1    1    2  502    0  0.91179521769E+01  0.81707464314E+02 -0.26285201796E+03  0.27544128689E+03  0.41800000000E+01 0.  1.
         -5    1    1    2    0  502  0.89147505150E+01  0.38760876152E+02  0.14853323165E+00  0.39992158718E+02  0.41800000000E+01 0.  1.
        -11    1    1    2    0    0 -0.47167054198E+02 -0.66942003172E+02 -0.14083879102E+03  0.16291570779E+03  0.00000000000E+00 0.  1.
         11    1    1    2    0    0  0.29134351506E+02 -0.53526337294E+02 -0.22846856652E+03  0.23645668760E+03  0.00000000000E+00 0. -1.
</event>
<event>
 6    1  0.8989754E-006  0.1028581E+03  0.7561462E-02  0.1274398E+00
          2   -1    0    0  501    0  0.00000000000E+00  0.00000000000E+00  0.20357046082E+03  0.20357046082E+03  0.00000000000E+00 0. -1.
         -2   -1    0    0    0  501 -0.00000000000E+00 -0.00000000000E+00 -0.11369566661E+03  0.11369566661E+03  0.00000000000E+00 0.  1.
          5    1    1    2  502    0 -0.30620055770E+02  0.94264056257E+01  0.53233188935E+02  0.62271098774E+02  0.41800000000E+01 0. -1.
         -5    1    1    2    0  502 -0.41688685102E+02  0.30483613926E+02 -0.72249143553E+02  0.88907864262E+02  0.41800000000E+01 0.  1.
        -11    1    1    2    0    0  0.41710481264E+02 -0.68184836299E+02  0.89917475514E+02  0.12030830624E+03  0.00000000000E+00 0.  1.
         11    1    1    2    0    0  0.30598259608E+02  0.28274816748E+02  0.18973273321E+02  0.45778858151E+02  0.00000000000E+00 0. -1.
</event>
<event>
 6    1  0.8989754E-006  0.1057097E+03  0.7561462E-02  0.1268728E+00
          4   -1    0    0  501    0  0.00000000000E+00  0.00000000000E+00  0.66313323881E+03  0.66313323881E+03  0.00000000000E+00 0. -1.
         -4   -1    0    0    0  501 -0.00000000000E+00 -0.00000000000E+00 -0.31771007179E+02  0.31771007179E+02  0.00000000000E+00 0.  1.
          5    1    1    2  502    0 -0.31910476872E+01  0.37889764646E+02 -0.15198511391E+01  0.38283147699E+02  0.41800000000E+01 0. -1.
         -5    1    1    2    0  502  0.36101730369E+02  0.36809011077E+02  0.22256927502E+03  0.22850118777E+03  0.41800000000E+01 0. -1.
        -11    1    1    2    0    0 -0.58597000758E+02 -0.21595450753E+02  0.18726795181E+03  0.19740632656E+03  0.00000000000E+00 0.  1.
         11    1    1    2    0    0  0.25686318076E+02 -0.53103324970E+02  0.22304485595E+03  0.23071358396E+03  0.00000000000E+00 0. -1.
</event>
<event>
 6    1  0.8989754E-006  0.9139805E+02  0.7561462E-02  0.1299501E+00
         -2   -1    0    0    0  501 -0.00000000000E+00  0.00000000000E+00  0.19140966870E+03  0.19140966870E+03  0.00000000000E+00 0. -1.
          2   -1    0    0  501    0  0.00000000000E+00 -0.00000000000E+00 -0.28961190458E+03  0.28961190458E+03  0.00000000000E+00 0.  1.
          5    1    1    2  502    0 -0.29431299919E+02 -0.18197760904E+02  0.14118456424E+03  0.14542322200E+03  0.41800000000E+01 0. -1.
         -5    1    1    2    0  502  0.71461526043E+02  0.35112186757E+02 -0.42996670221E+01  0.79847197194E+02  0.41800000000E+01 0.  1.
        -11    1    1    2    0    0 -0.21308416978E+01  0.16212125712E+02 -0.14363391375E+01  0.16414523343E+02  0.00000000000E+00 0. -1.
         11    1    1    2    0    0 -0.39899384426E+02 -0.33126551565E+02 -0.23365079396E+03  0.23933663074E+03  0.00000000000E+00 0.  1.
</event>
<event>
 6    1  0.8989754E-006  0.8274288E+02  0.7561462E-02  0.1321443E+00
          2   -1    0    0  501    0  0.00000000000E+00  0.00000000000E+00  0.19905530984E+03  0.19905530984E+03  0.00000000000E+00 0. -1.
         -2   -1    0    0    0  501 -0.00000000000E+00 -0.00000000000E+00 -0.69427189364E+02  0.69427189364E+02  0.00000000000E+00 0.  1.
          5    1    1    2  502    0  0.34984598199E+01 -0.40241359158E+02  0.62480519598E+02  0.74517742432E+02  0.41800000000E+01 0.  1.
         -5    1    1    2    0  502  0.43642488776E+01  0.34061398156E+02 -0.40093003924E+02  0.52954196022E+02  0.41800000000E+01 0.  1.
        -11    1    1    2    0    0 -0.20436614666E+01  0.48008624707E+02  0.68694218302E+02  0.83832572587E+02  0.00000000000E+00 0.  1.
         11    1    1    2    0    0 -0.58190472308E+01 -0.41828663705E+02  0.38546386497E+02  0.57177988159E+02  0.00000000000E+00 0. -1.
</event>
<event>
 6    1  0.8989754E-006  0.8094759E+02  0.7561462E-02  0.1326384E+00
         -2   -1    0    0    0  501 -0.00000000000E+00  0.00000000000E+00  0.16674653366E+02  0.16674653366E+02  0.00000000000E+00 0.  1.
          2   -1    0    0  501    0  0.00000000000E+00 -0.00000000000E+00 -0.76681892891E+03  0.76681892891E+03  0.00000000000E+00 0. -1.
          5    1    1    2  502    0  0.11564471585E+01 -0.38231682297E+02 -0.32654166725E+02  0.50465492228E+02  0.41800000000E+01 0. -1.
         -5    1    1    2    0  502  0.24847728255E+02  0.17714884615E+02 -0.39847700804E+03  0.39966564160E+03  0.41800000000E+01 0. -1.
        -11    1    1    2    0    0 -0.51800098515E+02 -0.98970595460E+01 -0.13201170064E+03  0.14215586903E+03  0.00000000000E+00 0.  1.
         11    1    1    2    0    0  0.25795923101E+02  0.30413857228E+02 -0.18700140013E+03  0.19120657942E+03  0.00000000000E+00 0. -1.
</event>
<event>
 6    1  0.8989754E-006  0.1273901E+03  0.7561462E-02  0.1231380E+00
          1   -1    0    0  501    0  0.00000000000E+00  0.00000000000E+00  0.12423894011E+03  0.12423894011E+03  0.00000000000E+00 0. -1.
         -1   -1    0    0    0  501 -0.00000000000E+00 -0.00000000000E+00 -0.14220902633E+03  0.14220902633E+03  0.00000000000E+00 0.  1.
          5    1    1    2  502    0 -0.27915382164E+02  0.39412662155E+02 -0.72055633244E+01  0.49010397288E+02  0.41800000000E+01 0.  1.
         -5    1    1    2    0  502  0.97551214737E+02 -0.83722118152E+01 -0.11529182508E+02  0.98674859395E+02  0.41800000000E+01 0.  1.
        -11    1    1    2    0    0  0.24563840105E+01  0.19886544666E+02 -0.19760145328E+02  0.28141993969E+02  0.00000000000E+00 0.  1.
         11    1    1    2    0    0 -0.72092216584E+02 -0.50926995006E+02  0.20524804943E+02  0.90620715790E+02  0.00000000000E+00 0. -1.
</event>
<event>
 6    1  0.8989754E-006  0.1265467E+03  0.7561462E-02  0.1232672E+00
          2   -1    0    0  501    0  0.00000000000E+00  0.00000000000E+00  0.41503980218E+03  0.41503980218E+03  0.00000000000E+00 0. -1.
         -2   -1    0    0    0  501 -0.00000000000E+00 -0.00000000000E+00 -0.39666322102E+02  0.39666322102E+02  0.00000000000E+00 0.  1.
          5    1    1    2  502    0  0.39442218867E+02  0.11623267410E+02  0.44451335379E+02  0.60697467751E+02  0.41800000000E+01 0.  1.
         -5    1    1    2    0  502 -0.96479046302E+02  0.20892919611E+02  0.15145255549E+03  0.18083160518E+03  0.41800000000E+01 0.  1.
        -11    1    1    2    0    0  0.24143031915E+02 -0.63398308540E+02  0.87330929346E+02  0.11058445974E+03  0.00000000000E+00 0.  1.
         11    1    1    2    0    0  0.32893795520E+02  0.30882121519E+02  0.92138659854E+02  0.10259259161E+03  0.00000000000E+00 0. -1.
</event>
<event>
 6    1  0.8989754E-006  0.1844326E+03  0.7561462E-02  0.1163581E+00
         -2   -1    0    0    0  501 -0.00000000000E+00  0.00000000000E+00  0.65184950126E+03  0.65184950126E+03  0.00000000000E+00 0.  1.
          2   -1    0    0  501    0  0.00000000000E+00 -0.00000000000E+00 -0.59270250492E+02  0.59270250492E+02  0.00000000000E+00 0. -1.
          5    1    1    2  502    0 -0.45779132222E+02 -0.17338682457E+03  0.22482956997E+03  0.28761871952E+03  0.41800000000E+01 0. -1.
         -5    1    1    2    0  502  0.20203355751E+02  0.13771799647E+02  0.36941580301E+02  0.44497087593E+02  0.41800000000E+01 0. -1.
        -11    1    1    2    0    0  0.34573537623E+00  0.99333285974E+02  0.10766501596E+03  0.14648882857E+03  0.00000000000E+00 0. -1.
         11    1    1    2    0    0  0.25230041095E+02  0.60281738951E+02  0.22314308454E+03  0.23251511607E+03  0.00000000000E+00 0.  1.
</event>
<event>
 6    1  0.8989754E-006  0.1093461E+03  0.7561462E-02  0.1261786E+00
         -1   -1    0    0    0  501 -0.00000000000E+00  0.00000000000E+00  0.44946774329E+02  0.44946774329E+02  0.00000000000E+00 0.  1.
          1   -1    0    0  501    0  0.00000000000E+00 -0.00000000000E+00 -0.63094757877E+03  0.63094757877E+03  0.00000000000E+00 0. -1.
          5    1    1    2  502    0 -0.30944524535E+02 -0.20691646609E+02  0.12735158060E+02  0.39564687398E+02  0.41800000000E+01 0.  1.
         -5    1    1    2    0  502 -0.66237580750E+02  0.38282274886E+02 -0.16015480236E+03  0.17753867971E+03  0.41800000000E+01 0.  1.
        -11    1    1    2    0    0  0.37346242340E+02  0.10091398338E+02 -0.43362173684E+02  0.58110724001E+02  0.00000000000E+00 0.  1.
         11    1    1    2    0    0  0.59835862945E+02 -0.27682026616E+02 -0.39521898646E+03  0.40068026200E+03  0.00000000000E+00 0. -1.
</event>
<event>
 6    1  0.8989754E-006  0.9961530E+02  0.7561462E-02  0.1281107E+00
         -2   -1    0    0    0  501 -0.00000000000E+00  0.00000000000E+00  0.74412354590E+02  0.74412354590E+02  0.00000000000E+00 0.  1.
          2   -1    0    0  501    0  0.00000000000E+00 -0.00000000000E+00 -0.28346150280E+03  0.28346150280E+03  0.00000000000E+00 0. -1.
          5    1    1    2  502    0  0.44666817405E+02  0.46348658495E+02 -0.62952165206E+02  0.90131960067E+02  0.41800000000E+01 0. -1.
         -5    1    1    2    0  502  0.14655113551E+02 -0.28375807656E+02  0.39990358947E+02  0.51348417911E+02  0.41800000000E+01 0. -1.
        -11    1    1    2    0    0  0.20790331068E+02 -0.27493788321E+01 -0.12020035250E+02  0.24171847205E+02  0.00000000000E+00 0.  1.
         11    1    1    2    0    0 -0.80112262024E+02 -0.15223472007E+02 -0.17406730670E+03  0.19222163221E+03  0.00000000000E+00 0. -1.
</event>
<event>
 6    1  0.8989754E-006  0.1122358E+03  0.7561462E-02  0.1256485E+00
         -2   -1    0    0    0  501 -0.00000000000E+00  0.00000000000E+00  0.18742981554E+02  0.18742981554E+02  0.00000000000E+00 0.  1.
          2   -1    0    0  501    0  0.00000000000E+00 -0.00000000000E+00 -0.84257933020E+03  0.84257933020E+03  0.00000000000E+00 0. -1.
          5    1    1    2  502    0  0.65551437224E+02  0.14213458875E+02 -0.24377939345E+03  0.25287324573E+03  0.41800000000E+01 0. -1.
         -5    1    1    2    0  502 -0.46104194724E+02  0.26049346744E+02 -0.70049448698E+02  0.87912245448E+02  0.41800000000E+01 0. -1.
        -11    1    1    2    0    0 -0.33971106772E+02  0.21828934293E+02 -0.19278032107E+03  0.19696393238E+03  0.00000000000E+00 0. -1.
         11    1    1    2    0    0  0.14523864271E+02 -0.62091739912E+02 -0.31722718544E+03  0.32357288820E+03  0.00000000000E+00 0.  1.
</event>
<event>
 6    1  0.8989754E-006  0.9264716E+02  0.7561462E-02  0.1296565E+00
          2   -1    0    0  501    0  0.00000000000E+00  0.00000000000E+00  0.23219436261E+03  0.23219436261E+03  0.00000000000E+00 0. -1.
         -2   -1    0    0    0  501 -0.00000000000E+00 -0.00000000000E+00 -0.58717968826E+02  0.58717968826E+02  0.00000000000E+00 0.  1.
          5    1    1    2  502    0 -0.69677621163E+02 -0.10043666662E+02  0.32765998018E+01  0.70597837341E+02  0.41800000000E+01 0.  1.
         -5    1    1    2    0  502  0.32507408404E+02  0.19463320053E+02  0.69117621166E+02  0.78932061827E+02  0.41800000000E+01 0.  1.
        -11    1    1    2    0    0 -0.15663252732E+02  0.11910398895E+02  0.77087675853E+02  0.79559442283E+02  0.00000000000E+00 0. -1.
         11    1    1    2    0    0  0.52833465492E+02 -0.21330052286E+02  0.23994496968E+02  0.61822989988E+02  0.00000000000E+00 0.  1.
</event>
<event>
 6    1  0.8989754E-006  0.8584101E+02  0.7561462E-02  0.1313248E+00
          3   -1    0    0  501    0  0.00000000000E+00  0.00000000000E+00  0.60557982171E+02  0.60557982171E+02  0.00000000000E+00 0. -1.
         -3   -1    0    0    0  501 -0.00000000000E+00 -0.00000000000E+00 -0.27988862015E+03  0.27988862015E+03  0.00000000000E+00 0.  1.
          5    1    1    2  502    0  0.60582556872E+02 -0.23857836023E+02  0.27962499437E+00  0.65245636842E+02  0.41800000000E+01 0.  1.
         -5    1    1    2    0  502  0.77724700917E+01  0.65354183615E+01 -0.12345806386E+03  0.12394550785E+03  0.41800000000E+01 0.  1.
        -11    1    1    2    0    0 -0.81442063547E+01 -0.22055562577E+02 -0.71401554253E+02  0.75172853394E+02  0.00000000000E+00 0.  1.
         11    1    1    2    0    0 -0.60210820609E+02  0.39377980239E+02 -0.24750644864E+02  0.76082604236E+02  0.00000000000E+00 0. -1.
</event>
<event>
 6    1  0.8989754E-006  0.8403623E+02  0.7561462E-02  0.1317972E+00
         -1   -1    0    0    0  501 -0.00000000000E+00  0.00000000000E+00  0.41346279008E+03  0.41346279008E+03  0.00000000000E+00 0.  1.
          1   -1    0    0  501    0  0.00000000000E+00 -0.00000000000E+00 -0.36995404807E+02  0.36995404807E+02  0.00000000000E+00 0. -1.
          5    1    1    2  502    0  0.18193164582E+02  0.13695740651E+02 -0.64461376845E+01  0.24033094693E+02  0.41800000000E+01 0.  1.
         -5    1    1    2    0  502  0.19868797131E+02 -0.59110009752E+02  0.23500336185E+03  0.24317239735E+03  0.41800000000E+01 0.  1.
        -11    1    1    2    0    0 -0.47987813973E+02  0.14771487895E+02  0.14185422271E+03  0.15047806367E+03  0.00000000000E+00 0.  1.
         11    1    1    2    0    0  0.99258522606E+01  0.30642781206E+02  0.60559383955E+01  0.32774639174E+02  0.00000000000E+00 0. -1.
</event>
<event>
 6    1  0.8989754E-006  0.1435851E+03  0.7561462E-02  0.1208585E+00
          1   -1    0    0  501    0  0.00000000000E+00  0.00000000000E+00  0.29896757426E+03  0.29896757426E+03  0.00000000000E+00 0. -1.
         -1   -1    0    0    0  501 -0.00000000000E+00 -0.00000000000E+00 -0.79684972398E+02  0.79684972398E+02  0.00000000000E+00 0.  1.
          5    1    1    2  502    0  0.12317793217E+03  0.17711476110E+02  0.37292560960E+02  0.12997964018E+03  0.41800000000E+01 0. -1.
         -5    1    1    2    0  502 -0.30702853618E+02  0.11007745515E+02  0.18673045013E+02  0.37815217726E+02  0.41800000000E+01 0. -1.
        -11    1    1    2    0    0 -0.94227914352E+02  0.65537786990E+01  0.13870081483E+03  0.16780872413E+03  0.00000000000E+00 0. -1.
         11    1    1    2    0    0  0.17528358032E+01 -0.35273000324E+02  0.24616181060E+02  0.43048964624E+02  0.00000000000E+00 0.  1.
</event>
<event>
 6    1  0.8989754E-006  0.1186739E+03  0.7561462E-02  0.1245301E+00
          2   -1    0    0  501    0  0.00000000000E+00  0.00000000000E+00  0.26715402283E+03  0.26715402283E+03  0.00000000000E+00 0. -1.
         -2   -1    0    0    0  501 -0.00000000000E+00 -0.00000000000E+00 -0.96028766568E+02  0.96028766568E+02  0.00000000000E+00 0.  1.
          5    1    1    2  502    0  0.75392649280E+01  0.37736312593E+02 -0.32861412795E+02  0.50776122880E+02  0.41800000000E+01 0. -1.
         -5    1    1    2    0  502  0.18133693896E+02  0.77814164779E+02  0.11483212008E+03  0.13995629066E+03  0.41800000000E+01 0. -1.
        -11    1    1    2    0    0 -0.12078536154E+02 -0.72058700470E+02  0.83489305845E+00  0.73068764841E+02  0.00000000000E+00 0.  1.
         11    1    1    2    0    0 -0.13594422671E+02 -0.43491776902E+02  0.88319655923E+02  0.99381611016E+02  0.00000000000E+00 0. -1.
</event>
<event>
 6    1  0.8989754E-006  0.1343560E+03  0.7561462E-02  0.1221132E+00
         -3   -1    0    0    0  501 -0.00000000000E+00  0.00000000000E+00  0.13928792169E+03  0.13928792169E+03  0.00000000000E+00 0.  1.
          3   -1    0    0  501    0  0.00000000000E+00 -0.00000000000E+00 -0.23498584570E+03  0.23498584570E+03  0.00000000000E+00 0. -1.
          5    1    1    2  502    0  0.14366194386E+02  0.26558592242E+01 -0.29862863228E+02  0.33506777367E+02  0.41800000000E+01 0. -1.
         -5    1    1    2    0  502 -0.35772133401E+02 -0.10994708041E+03  0.77904656625E+02  0.13947979762E+03  0.41800000000E+01 0. -1.
        -11    1    1    2    0    0 -0.55306579012E+01  0.11054938788E+03 -0.96677214405E+02  0.14696339382E+03  0.00000000000E+00 0.  1.
         11    1    1    2    0    0  0.26936596916E+02 -0.32581666933E+01 -0.47062502998E+02  0.54323798579E+02  0.00000000000E+00 0. -1.
</event>
<event>
 6    1  0.8989754E-006  0.2107031E+03  0.7561462E-02  0.1141010E+00
          1   -1    0    0  501    0  0.00000000000E+00  0.00000000000E+00  0.24215826594E+03  0.24215826594E+03  0.00000000000E+00 0. -1.
         -1   -1    0    0    0  501 -0.00000000000E+00 -0.00000000000E+00 -0.20285500399E+03  0.20285500399E+03  0.00000000000E+00 0.  1.
          5    1    1    2  502    0  0.73803839499E+02  0.36182993642E+02  0.14697541729E+02  0.83604460925E+02  0.41800000000E+01 0. -1.
         -5    1    1    2    0  502  0.10700024402E+03 -0.85191965262E+02 -0.42921117771E+02  0.14340996450E+03  0.41800000000E+01 0. -1.
        -11    1    1    2    0    0 -0.72524322455E+02  0.59049223669E+02  0.75900447626E+01  0.93830682311E+02  0.00000000000E+00 0. -1.
         11    1    1    2    0    0 -0.10827976107E+03 -0.10040252050E+02  0.59936793229E+02  0.12416816219E+03  0.00000000000E+00 0.  1.
</event>
<event>
 6    1  0.8989754E-006  0.1351480E+03  0.7561462E-02  0.1220011E+00
          2   -1    0    0  501    0  0.00000000000E+00  0.00000000000E+00  0.64470874997E+03  0.64470874997E+03  0.00000000000E+00 0.  1.
         -2   -1    0    0    0  501 -0.00000000000E+00 -0.00000000000E+00 -0.30537375458E+02  0.30537375458E+02  0.00000000000E+00 0. -1.
          5    1    1    2  502    0  0.11716819174E+03  0.44701649455E+01  0.25634322366E+03  0.28191787500E+03  0.41800000000E+01 0.  1.
         -5    1    1    2    0  502 -0.29991390169E+02 -0.13622199274E+02  0.44963547047E+02  0.55894908180E+02  0.41800000000E+01 0.  1.
        -11    1    1    2    0    0 -0.24431714151E+02 -0.35255772192E+02  0.16855507021E+03  0.17392725440E+03  0.00000000000E+00 0.  1.
         11    1    1    2    0    0 -0.62745087424E+02  0.44407806520E+02  0.14430953359E+03  0.16350608784E+03  0.00000000000E+00 0. -1.
</event>
<event>
 6    1  0.8989754E-006  0.1017334E+03  0.7561462E-02  0.1276692E+00
          1   -1    0    0  501    0  0.00000000000E+00  0.00000000000E+00  0.17431913349E+03  0.17431913349E+03  0.00000000000E+00 0. -1.
         -1   -1    0    0    0  501 -0.00000000000E+00 -0.00000000000E+00 -0.99353774088E+02  0.99353774088E+02  0.00000000000E+00 0.  1.
          5    1    1    2  502    0 -0.63611349802E+02  0.52221180549E+02  0.42444515669E+01  0.82516321359E+02  0.41800000000E+01 0.  1.
         -5    1    1    2    0  502  0.16355610212E+02 -0.44776039025E+02 -0.21702979471E+02  0.52544184969E+02  0.41800000000E+01 0.  1.
        -11    1    1    2    0    0  0.38965584948E+02 -0.30000403689E+02  0.67567157132E+01  0.49638636555E+02  0.00000000000E+00 0.  1.
         11    1    1    2    0    0  0.82901546412E+01  0.22555262165E+02  0.85667171591E+02  0.88973764693E+02  0.00000000000E+00 0. -1.
</event>
<event>
 6    1  0.8989754E-006  0.9761304E+02  0.7561462E-02  0.1285397E+00
         -1   -1    0    0    0  501 -0.00000000000E+00  0.00000000000E+00  0.86611534319E+02  0.86611534319E+02  0.00000000000E+00 0.  1.
          1   -1    0    0  501    0  0.00000000000E+00 -0.00000000000E+00 -0.19627199813E+03  0.19627199813E+03  0.00000000000E+00 0. -1.
          5    1    1    2  502    0  0.66364391732E+02  0.43613900863E+02 -0.20515927791E+02  0.82126612809E+02  0.41800000000E+01 0. -1.
         -5    1    1    2    0  502 -0.27410471136E+02 -0.33539919297E+02  0.23175636266E+02  0.49303576247E+02  0.41800000000E+01 0. -1.
        -11    1    1    2    0    0 -0.52888709173E+02 -0.18347049056E+02 -0.12081634047E+03  0.13315561532E+03  0.00000000000E+00 0. -1.
         11    1    1    2    0    0  0.13934788578E+02  0.82730674902E+01  0.84961681905E+01  0.18297728065E+02  0.00000000000E+00 0.  1.
</event>
<event>
 6    1  0.8989754E-006  0.1502819E+03  0.7561462E-02  0.1200127E+00
          2   -1    0    0  501    0  0.00000000000E+00  0.00000000000E+00  0.15095858680E+03  0.15095858680E+03  0.00000000000E+00 0. -1.
         -2   -1    0    0    0  501 -0.00000000000E+00 -0.00000000000E+00 -0.15698739633E+03  0.15698739633E+03  0.00000000000E+00 0.  1.
          5    1    1    2  502    0  0.49646032427E+01  0.55661423089E+02 -0.10059370798E+02  0.56934213321E+02  0.41800000000E+01 0. -1.
         -5    1    1    2    0  502 -0.10652396509E+03 -0.66865641125E+01 -0.58527426555E+01  0.10697566206E+03  0.41800000000E+01 0.  1.
        -11    1    1    2    0    0 -0.10490159139E+02  0.68452855263E+01 -0.11541030152E+02  0.17032226797E+02  0.00000000000E+00 0.  1.
         11    1    1    2    0    0  0.11204952098E+03 -0.55820144502E+02  0.21424334069E+02  0.12700388095E+03  0.00000000000E+00 0. -1.
</event>
<event>
 6    1  0.8989754E-006  0.2090259E+03  0.7561462E-02  0.1142340E+00
         -2   -1    0    0    0  501 -0.00000000000E+00  0.00000000000E+00  0.18524517658E+03  0.18524517658E+03  0.00000000000E+00 0.  1.
          2   -1    0    0  501    0  0.00000000000E+00 -0.00000000000E+00 -0.31589338904E+03  0.31589338904E+03  0.00000000000E+00 0. -1.
          5    1    1    2  502    0  0.95030967465E+02  0.17228438893E+03  0.56403413292E+02  0.20472325925E+03  0.41800000000E+01 0. -1.
         -5    1    1    2    0  502  0.10638358719E+02 -0.19187318325E+02 -0.95517594918E+01  0.24290664258E+02  0.41800000000E+01 0. -1.
        -11    1    1    2    0    0  0.84636639814E+01 -0.29474267194E+02 -0.58474890784E+02  0.66027864473E+02  0.00000000000E+00 0. -1.
         11    1    1    2    0    0 -0.11413299017E+03 -0.12362280341E+03 -0.11902497547E+03  0.20609677764E+03  0.00000000000E+00 0.  1.
</event>
<event>
 6    1  0.8989754E-006  0.1386977E+03  0.7561462E-02  0.1215092E+00
          4   -1    0    0  501    0  0.00000000000E+00  0.00000000000E+00  0.31141764293E+03  0.31141764293E+03  0.00000000000E+00 0. -1.
         -4   -1    0    0    0  501 -0.00000000000E+00 -0.00000000000E+00 -0.70995104636E+02  0.70995104636E+02  0.00000000000E+00 0.  1.
          5    1    1    2  502    0 -0.21582032173E+01 -0.79207337600E+02  0.38587501129E+02  0.88232237952E+02  0.41800000000E+01 0.  1.
         -5    1    1    2    0  502 -0.80992279773E+02  0.57908972256E+01  0.10032011335E+03  0.12913125654E+03  0.41800000000E+01 0.  1.
        -11    1    1    2    0    0  0.30237001557E+02  0.50970585784E+02  0.87847606826E+02  0.10596923565E+03  0.00000000000E+00 0. -1.
         11    1    1    2    0    0  0.52913481433E+02  0.22445854590E+02  0.13667316991E+02  0.59080017429E+02  0.00000000000E+00 0.  1.
</event>
<event>
 6    1  0.8989754E-006  0.2371698E+03  0.7561462E-02  0.1121693E+00
          1   -1    0    0  501    0  0.00000000000E+00  0.00000000000E+00  0.20616948665E+03  0.20616948665E+03  0.00000000000E+00 0. -1.
         -1   -1    0    0    0  501 -0.00000000000E+00 -0.00000000000E+00 -0.32012531077E+03  0.32012531077E+03  0.00000000000E+00 0.  1.
          5    1    1    2  502    0  0.17422494231E+03  0.15867240806E+03 -0.13160613641E+03  0.26994242190E+03  0.41800000000E+01 0.  1.
         -5    1    1    2    0  502 -0.49896234830E+01 -0.14806667105E+02  0.15297191947E+01  0.16246420347E+02  0.41800000000E+01 0.  1.
        -11    1    1    2    0    0 -0.72396290484E+02 -0.53438787318E+02  0.50551903108E+02  0.10321057007E+03  0.00000000000E+00 0. -1.
         11    1    1    2    0    0 -0.96839028342E+02 -0.90426953632E+02 -0.34431310024E+02  0.13689538511E+03  0.00000000000E+00 0.  1.
</event>
<event>
 6    1  0.8989754E-006  0.1082901E+03  0.7561462E-02  0.1263769E+00
         -2   -1    0    0    0  501 -0.00000000000E+00  0.00000000000E+00  0.80712591737E+02  0.80712591737E+02  0.00000000000E+00 0. -1.
          2   -1    0    0  501    0  0.00000000000E+00 -0.00000000000E+00 -0.18936780371E+03  0.18936780371E+03  0.00000000000E+00 0.  1.
          5    1    1    2  502    0 -0.69663152020E+02  0.27590397882E+01 -0.19324273149E+02  0.72467006166E+02  0.41800000000E+01 0.  1.
         -5    1    1    2    0  502  0.45400744287E+02  0.49673352005E+02 -0.31162811069E+02  0.74278278622E+02  0.41800000000E+01 0.  1.
        -11    1    1    2    0    0  0.23800449938E+02 -0.63717581326E+02 -0.41448275652E+01  0.68143753807E+02  0.00000000000E+00 0. -1.
         11    1    1    2    0    0  0.46195779550E+00  0.11285189533E+02 -0.54023300193E+02  0.55191356855E+02  0.00000000000E+00 0.  1.
</event>
<event>
 6    1  0.8989754E-006  0.9411782E+02  0.7561462E-02  0.1293175E+00
         -2   -1    0    0    0  501 -0.00000000000E+00  0.00000000000E+00  0.14131151520E+03  0.14131151520E+03  0.00000000000E+00 0.  1.
          2   -1    0    0  501    0  0.00000000000E+00 -0.00000000000E+00 -0.10819159913E+03  0.10819159913E+03  0.00000000000E+00 0. -1.
          5    1    1    2  502    0 -0.30877259936E+02  0.32107416723E+02  0.35874709533E+02  0.57347698942E+02  0.41800000000E+01 0.  1.
         -5    1    1    2    0  502  0.83670044022E+02 -0.61810728817E+01 -0.54909992715E+01  0.84181383937E+02  0.41800000000E+01 0.  1.
        -11    1    1    2    0    0 -0.18608501988E+02 -0.44885771304E+01  0.45388426809E+02  0.49259851391E+02  0.00000000000E+00 0.  1.
         11    1    1    2    0    0 -0.34184282097E+02 -0.21437766711E+02 -0.42652221002E+02  0.58714180063E+02  0.00000000000E+00 0. -1.
</event>
<event>
 6    1  0.8989754E-006  0.1349056E+03  0.7561462E-02  0.1220353E+00
         -2   -1    0    0    0  501 -0.00000000000E+00  0.00000000000E+00  0.13212156626E+03  0.13212156626E+03  0.00000000000E+00 0.  1.
          2   -1    0    0  501    0  0.00000000000E+00 -0.00000000000E+00 -0.20672929622E+03  0.20672929622E+03  0.00000000000E+00 0. -1.
          5    1    1    2  502    0  0.16268424447E+02 -0.65395772573E+01 -0.53893552848E+02  0.56827943332E+02  0.41800000000E+01 0.  1.
         -5    1    1    2    0  502  0.27777853848E+02  0.12299915947E+03  0.51515789017E+01  0.12627119054E+03  0.41800000000E+01 0.  1.
        -11    1    1    2    0    0 -0.35722440691E+02 -0.71846154973E+02 -0.58971149558E+02  0.99576901104E+02  0.00000000000E+00 0. -1.
         11    1    1    2    0    0 -0.83238376044E+01 -0.44613427242E+02  0.33105393544E+02  0.56174827498E+02  0.00000000000E+00 0.  1.
</event>
<event>
 6    1  0.8989754E-006  0.1749628E+03  0.7561462E-02  0.1172769E+00
          1   -1    0    0  501    0  0.00000000000E+00  0.00000000000E+00  0.15291452910E+03  0.15291452910E+03  0.00000000000E+00 0. -1.
         -1   -1    0    0    0  501 -0.00000000000E+00 -0.00000000000E+00 -0.26281522065E+03  0.26281522065E+03  0.00000000000E+00 0.  1.
          5    1    1    2  502    0  0.15734240071E+03  0.11189357097E+02 -0.26267272244E+01  0.15781699804E+03  0.41800000000E+01 0.  1.
         -5    1    1    2    0  502  0.10868685994E+02 -0.50195672663E+01 -0.59600260160E+02  0.60934290854E+02  0.41800000000E+01 0.  1.
        -11    1    1    2    0    0 -0.14622145271E+03  0.17355276208E+02 -0.64372861426E+02  0.16070402650E+03  0.00000000000E+00 0. -1.
         11    1    1    2    0    0 -0.21989633997E+02 -0.23525066039E+02  0.16699157260E+02  0.36274434367E+02  0.00000000000E+00 0.  1.
</event>
<event>
 6    1  0.8989754E-006  0.1146163E+03  0.7561462E-02  0.1252252E+00
          1   -1    0    0  501    0  0.00000000000E+00  0.00000000000E+00  0.54989329921E+03  0.54989329921E+03  0.00000000000E+00 0. -1.
         -1   -1    0    0    0  501 -0.00000000000E+00 -0.00000000000E+00 -0.47946385456E+02  0.47946385456E+02  0.00000000000E+00 0.  1.
          5    1    1    2  502    0  0.88921114175E+00  0.30443933244E+01 -0.17966774228E+02  0.18717275532E+02  0.41800000000E+01 0.  1.
         -5    1    1    2    0  502 -0.92292481026E+02  0.59459062878E+02  0.20138758914E+03  0.22940731390E+03  0.41800000000E+01 0.  1.
        -11    1    1    2    0    0  0.11688444829E+02 -0.21510581357E+02  0.68733244727E+01  0.25427690460E+02  0.00000000000E+00 0.  1.
         11    1    1    2    0    0  0.79714825055E+02 -0.40992874845E+02  0.31165277437E+03  0.32428740477E+03  0.00000000000E+00 0. -1.
</event>
<event>
 6    1  0.8989754E-006  0.1856898E+03  0.7561462E-02  0.1162407E+00
         -2   -1    0    0    0  501 -0.00000000000E+00  0.00000000000E+00  0.95642085746E+02  0.95642085746E+02  0.00000000000E+00 0.  1.
          2   -1    0    0  501    0  0.00000000000E+00 -0.00000000000E+00 -0.40347346127E+03  0.40347346127E+03  0.00000000000E+00 0. -1.
          5    1    1    2  502    0 -0.16954086417E+02  0.12454959320E+02  0.52857984487E+00  0.21455042636E+02  0.41800000000E+01 0. -1.
         -5    1    1    2    0  502  0.16941831304E+03 -0.43918319212E+02 -0.10078604475E+03  0.20200664041E+03  0.41800000000E+01 0. -1.
        -11    1    1    2    0    0 -0.79710889740E+02 -0.24149446535E+02 -0.62645108195E+02  0.10421819079E+03  0.00000000000E+00 0.  1.
         11    1    1    2    0    0 -0.72753336879E+02  0.55612806428E+02 -0.14492880242E+03  0.17143567317E+03  0.00000000000E+00 0. -1.
</event>
<event>
 6    1  0.8989754E-006  0.1613954E+03  0.7561462E-02  0.1187130E+00
         -2   -1    0    0    0  501 -0.00000000000E+00  0.00000000000E+00  0.14033557818E+03  0.14033557818E+03  0.00000000000E+00 0.  1.
          2   -1    0    0  501    0  0.00000000000E+00 -0.00000000000E+00 -0.22065438789E+03  0.22065438789E+03  0.00000000000E+00 0. -1.
          5    1    1    2  502    0  0.12030340481E+03 -0.67509868133E+02  0.76154823173E+01  0.13822430856E+03  0.41800000000E+01 0.  1.
         -5    1    1    2    0  502 -0.28779726159E+02 -0.30445053318E+02 -0.16892860543E+02  0.45365350728E+02  0.41800000000E+01 0.  1.
        -11    1    1    2    0    0  0.19567496848E+00  0.26253103733E+02 -0.53595742168E+02  0.59680543922E+02  0.00000000000E+00 0. -1.
         11    1    1    2    0    0 -0.91719353623E+02  0.71701817719E+02 -0.17445689314E+02  0.11771976286E+03  0.00000000000E+00 0.  1.
</event>
<event>
 6    1  0.8989754E-006  0.1448189E+03  0.7561462E-02  0.1206988E+00
         -2   -1    0    0    0  501 -0.00000000000E+00  0.00000000000E+00  0.16034425396E+02  0.16034425396E+02  0.00000000000E+00 0. -1.
          2   -1    0    0  501    0  0.00000000000E+00 -0.00000000000E+00 -0.15398674119E+04  0.15398674119E+04  0.00000000000E+00 0.  1.
          5    1    1    2  502    0  0.10834330497E+02  0.23212545723E+02 -0.37077269897E+02  0.45259267993E+02  0.41800000000E+01 0. -1.
         -5    1    1    2    0  502  0.10780960916E+03 -0.38713301983E+02 -0.72927043966E+03  0.73822386722E+03  0.41800000000E+01 0.  1.
        -11    1    1    2    0    0 -0.82985247968E+02 -0.32617883911E+02 -0.51394033880E+03  0.52161781946E+03  0.00000000000E+00 0. -1.
         11    1    1    2    0    0 -0.35658691695E+02  0.48118640171E+02 -0.24354493814E+03  0.25080088261E+03  0.00000000000E+00 0.  1.
</event>
<event>
 6    1  0.8989754E-006  0.9490728E+02  0.7561462E-02  0.1291385E+00
          2   -1    0    0  501    0  0.00000000000E+00  0.00000000000E+00  0.10470084527E+03  0.10470084527E+03  0.00000000000E+00 0. -1.
         -2   -1    0    0    0  501 -0.00000000000E+00 -0.00000000000E+00 -0.19886415191E+03  0.19886415191E+03  0.00000000000E+00 0.  1.
          5    1    1    2  502    0 -0.60172416673E+02  0.72796928065E+02 -0.12501903371E+03  0.15673973221E+03  0.41800000000E+01 0.  1.
         -5    1    1    2    0  502  0.10547409011E+02 -0.10304199390E+02  0.19884987304E+02  0.25105965068E+02  0.41800000000E+01 0.  1.
        -11    1    1    2    0    0  0.24999641914E+02 -0.35401034248E+02 -0.39990842048E+02  0.58970185428E+02  0.00000000000E+00 0.  1.
         11    1    1    2    0    0  0.24625365748E+02 -0.27091694427E+02  0.50961581813E+02  0.62749114464E+02  0.00000000000E+00 0. -1.
</event>
<event>
 6    1  0.8989754E-006  0.1288462E+03  0.7561462E-02  0.1229178E+00
         -2   -1    0    0    0  501 -0.00000000000E+00  0.00000000000E+00  0.39632104850E+02  0.39632104850E+02  0.00000000000E+00 0.  1.
          2   -1    0    0  501    0  0.00000000000E+00 -0.00000000000E+00 -0.53026195787E+03  0.53026195787E+03  0.00000000000E+00 0. -1.
          5    1    1    2  502    0 -0.99273181905E+01 -0.66593918179E+02 -0.51338092740E+02  0.84772482275E+02  0.41800000000E+01 0. -1.
         -5    1    1    2    0  502  0.59456121097E+02 -0.14288194268E+02 -0.22335998608E+03  0.23161679260E+03  0.41800000000E+01 0. -1.
        -11    1    1    2    0    0  0.17158487702E+02 -0.70766501599E+01 -0.13555957745E+02  0.22983834930E+02  0.00000000000E+00 0.  1.
         11    1    1    2    0    0 -0.66687290608E+02  0.87958762607E+02 -0.20237581645E+03  0.23052095291E+03  0.00000000000E+00 0. -1.
</event>
<event>
 6    1  0.8989754E-006  0.1093389E+03  0.7561462E-02  0.1261799E+00
          1   -1    0    0  501    0  0.00000000000E+00  0.00000000000E+00  0.53582251569E+02  0.53582251569E+02  0.00000000000E+00 0. -1.
         -1   -1    0    0    0  501 -0.00000000000E+00 -0.00000000000E+00 -0.25641780016E+03  0.25641780016E+03  0.00000000000E+00 0.  1.
          5    1    1    2  502    0 -0.20221017424E+02 -0.39776160819E+02 -0.91657447336E+02  0.10202741086E+03  0.41800000000E+01 0. -1.
         -5    1    1    2    0  502 -0.95977667056E+01  0.74770983235E+02 -0.40569127099E+02  0.85709646676E+02  0.41800000000E+01 0. -1.
        -11    1    1    2    0    0 -0.12239260159E+02 -0.51683568118E+02 -0.27689778795E+02  0.59897533776E+02  0.00000000000E+00 0. -1.
         11    1    1    2    0    0  0.42058044289E+02  0.16688745702E+02 -0.42919195363E+02  0.62365460418E+02  0.00000000000E+00 0.  1.
</event>
<event>
 6    1  0.8989754E-006  0.1064506E+03  0.7561462E-02  0.1267288E+00
         -1   -1    0    0    0  501 -0.00000000000E+00  0.00000000000E+00  0.29169611779E+02  0.29169611779E+02  0.00000000000E+00 0.  1.
          1   -1    0    0  501    0  0.00000000000E+00 -0.00000000000E+00 -0.76012679588E+03  0.76012679588E+03  0.00000000000E+00 0. -1.
          5    1    1    2  502    0  0.38675967313E+02  0.27675300720E+02 -0.30303524174E+02  0.56546694818E+02  0.41800000000E+01 0. -1.
         -5    1    1    2    0  502  0.23059415356E+02  0.30943857901E+02 -0.35894052227E+03  0.36103328088E+03  0.41800000000E+01 0. -1.
        -11    1    1    2    0    0 -0.69061142735E+02 -0.18318712081E+01 -0.89372594423E+02  0.11296131117E+03  0.00000000000E+00 0.  1.
         11    1    1    2    0    0  0.73257600657E+01 -0.56787287413E+02 -0.25234054323E+03  0.25875512078E+03  0.00000000000E+00 0. -1.
</event>
<event>
 6    1  0.8989754E-006  0.1307053E+03  0.7561462E-02  0.1226413E+00
          2   -1    0    0  501    0  0.00000000000E+00  0.00000000000E+00  0.31277862802E+03  0.31277862802E+03  0.00000000000E+00 0. -1.
         -2   -1    0    0    0  501 -0.00000000000E+00 -0.00000000000E+00 -0.66201765718E+02  0.66201765718E+02  0.00000000000E+00 0.  1.
          5    1    1    2  502    0  0.43953937105E+02 -0.44346748145E+02  0.91582264937E+01  0.63244985339E+02  0.41800000000E+01 0.  1.
         -5    1    1    2    0  502  0.34222614161E+02  0.73489776356E+02  0.66776501744E+02  0.10511188389E+03  0.41800000000E+01 0.  1.
        -11    1    1    2    0    0 -0.90814049951E+02 -0.41620999481E+02  0.11558216414E+03  0.15277020630E+03  0.00000000000E+00 0.  1.
         11    1    1    2    0    0  0.12637498685E+02  0.12477971270E+02  0.55059969920E+02  0.57853318208E+02  0.00000000000E+00 0. -1.
</event>
<event>
 6    1  0.8989754E-006  0.7868558E+02  0.7561462E-02  0.1332823E+00
          2   -1    0    0  501    0  0.00000000000E+00  0.00000000000E+00  0.12209740846E+03  0.12209740846E+03  0.00000000000E+00 0. -1.
         -2   -1    0    0    0  501 -0.00000000000E+00 -0.00000000000E+00 -0.10951680688E+03  0.10951680688E+03  0.00000000000E+00 0.  1.
          5    1    1    2  502    0  0.37639765471E+02 -0.68618689829E+02  0.10495640466E+02  0.79075327425E+02  0.41800000000E+01 0. -1.
         -5    1    1    2    0  502 -0.25923921420E+02  0.37841676103E+02 -0.21231836676E+02  0.50717900595E+02  0.41800000000E+01 0. -1.
        -11    1    1    2    0    0 -0.72785729192E+01  0.19816113713E+02 -0.35785001070E+02  0.41547831327E+02  0.00000000000E+00 0.  1.
         11    1    1    2    0    0 -0.44372711315E+01  0.10960900013E+02  0.59101798861E+02  0.60273155988E+02  0.00000000000E+00 0. -1.
</event>
<event>
 6    1  0.8989754E-006  0.1438752E+03  0.7561462E-02  0.1208208E+00
          1   -1    0    0  501    0  0.00000000000E+00  0.00000000000E+00  0.61419605843E+03  0.61419605843E+03  0.00000000000E+00 0. -1.
         -1   -1    0    0    0  501 -0.00000000000E+00 -0.00000000000E+00 -0.42131606953E+02  0.42131606953E+02  0.00000000000E+00 0.  1.
          5    1    1    2  502    0  0.45616420742E+02  0.54460491026E+02  0.77007179113E+02  0.10485409367E+03  0.41800000000E+01 0. -1.
         -5    1    1    2    0  502  0.67768486629E+02 -0.66727150850E+02  0.16467988757E+03  0.19021571494E+03  0.41800000000E+01 0. -1.
        -11    1    1    2    0    0 -0.67166643108E+02  0.27711353276E+02  0.28687924493E+03  0.29593745660E+03  0.00000000000E+00 0. -1.
         11    1    1    2    0    0 -0.46218264263E+02 -0.15444693453E+02  0.43498139865E+02  0.65320400176E+02  0.00000000000E+00 0.  1.
</event>
<event>
 6    1  0.8989754E-006  0.1076256E+03  0.7561462E-02  0.1265031E+00
          1   -1    0    0  501    0  0.00000000000E+00  0.00000000000E+00  0.65534598790E+02  0.65534598790E+02  0.00000000000E+00 0. -1.
         -1   -1    0    0    0  501 -0.00000000000E+00 -0.00000000000E+00 -0.19655497710E+03  0.19655497710E+03  0.00000000000E+00 0.  1.
          5    1    1    2  502    0 -0.47550998910E+02 -0.54629440703E+02 -0.19280400114E+02  0.75064502379E+02  0.41800000000E+01 0.  1.
         -5    1    1    2    0  502  0.49554950903E+02  0.21471439091E+02 -0.39742225730E+02  0.67183575088E+02  0.41800000000E+01 0.  1.
        -11    1    1    2    0    0 -0.25499520719E+02 -0.18688772173E+02 -0.49288905615E+02  0.58556741533E+02  0.00000000000E+00 0.  1.
         11    1    1    2    0    0  0.23495568726E+02  0.51846773784E+02 -0.22708846849E+02  0.61284756888E+02  0.00000000000E+00 0. -1.
</event>
<event>
 6    1  0.8989754E-006  0.8573990E+02  0.7561462E-02  0.1313509E+00
          1   -1    0    0  501    0  0.00000000000E+00  0.00000000000E+00  0.40379930300E+02  0.40379930300E+02  0.00000000000E+00 0. -1.
         -1   -1    0    0    0  501 -0.00000000000E+00 -0.00000000000E+00 -0.31685635652E+03  0.31685635652E+03  0.00000000000E+00 0.  1.
          5    1    1    2  502    0  0.60325556130E+02 -0.12650101847E+01 -0.49594500961E+02  0.78216749477E+02  0.41800000000E+01 0.  1.
         -5    1    1    2    0  502 -0.45253856227E+02  0.35070524826E+00 -0.16005749920E+03  0.16638482487E+03  0.41800000000E+01 0.  1.
        -11    1    1    2    0    0  0.15584777837E+02  0.22987351226E+02 -0.69420233284E+02  0.74769461720E+02  0.00000000000E+00 0.  1.
         11    1    1    2    0    0 -0.30656477739E+02 -0.22073046290E+02  0.25958072171E+01  0.37865250759E+02  0.00000000000E+00 0. -1.
</event>
<event>
 6    1  0.8989754E-006  0.1127478E+03  0.7561462E-02  0.1255564E+00
         -2   -1    0    0    0  501 -0.00000000000E+00  0.00000000000E+00  0.19986822848E+02  0.19986822848E+02  0.00000000000E+00 0.  1.
          2   -1    0    0  501    0  0.00000000000E+00 -0.00000000000E+00 -0.84715505853E+03  0.84715505853E+03  0.00000000000E+00 0. -1.
          5    1    1    2  502    0 -0.19763269974E+02  0.64466215639E+02 -0.96436050490E+02  0.11774491086E+03  0.41800000000E+01 0.  1.
         -5    1    1    2    0  502  0.43821882520E+02  0.16689866995E+01 -0.31375151584E+03  0.31682902171E+03  0.41800000000E+01 0.  1.
        -11    1    1    2    0    0  0.33697325819E+02 -0.33647837690E+02 -0.20565011405E+03  0.21109158239E+03  0.00000000000E+00 0.  1.
         11    1    1    2    0    0 -0.57755938365E+02 -0.32487364649E+02 -0.21133055530E+03  0.22147636642E+03  0.00000000000E+00 0. -1.
</event>
<event>
 6    1  0.8989754E-006  0.2472569E+03  0.7561462E-02  0.1115051E+00
         -1   -1    0    0    0  501 -0.00000000000E+00  0.00000000000E+00  0.27831457966E+03  0.27831457966E+03  0.00000000000E+00 0.  1.
          1   -1    0    0  501    0  0.00000000000E+00 -0.00000000000E+00 -0.25307203480E+03  0.25307203480E+03  0.00000000000E+00 0. -1.
          5    1    1    2  502    0  0.12979275280E+03  0.18996948895E+03  0.83485829358E+02  0.24478954535E+03  0.41800000000E+01 0. -1.
         -5    1    1    2    0  502 -0.22401504283E+02  0.61714986218E+01  0.22102926976E+02  0.32340788029E+02  0.41800000000E+01 0. -1.
        -11    1    1    2    0    0 -0.92137737511E+02 -0.75305057141E+02 -0.47347384129E+02  0.12807025060E+03  0.00000000000E+00 0. -1.
         11    1    1    2    0    0 -0.15253511002E+02 -0.12083593043E+03 -0.32998827345E+02  0.12618603048E+03  0.00000000000E+00 0.  1.
</event>
<event>
 6    1  0.8989754E-006  0.1624340E+03  0.7561462E-02  0.1185976E+00
         -1   -1    0    0    0  501 -0.00000000000E+00  0.00000000000E+00  0.67550944270E+02  0.67550944270E+02  0.00000000000E+00 0.  1.
          1   -1    0    0  501    0  0.00000000000E+00 -0.00000000000E+00 -0.41580891597E+03  0.41580891597E+03  0.00000000000E+00 0. -1.
          5    1    1    2  502    0 -0.15156126537E+02 -0.10822085612E+03 -0.15322413184E+03  0.18824603276E+03  0.41800000000E+01 0. -1.
         -5    1    1    2    0  502 -0.40154446965E+02  0.10737232033E+03 -0.94025190307E+02  0.14832195925E+03  0.41800000000E+01 0.  1.
        -11    1    1    2    0    0  0.10115010582E+02 -0.39156773026E+02 -0.64864878376E+02  0.76439641284E+02  0.00000000000E+00 0. -1.
         11    1    1    2    0    0  0.45195562919E+02  0.40005308822E+02 -0.36143771182E+02  0.70352226950E+02  0.00000000000E+00 0.  1.
</event>
<event>
 6    1  0.8989754E-006  0.7794072E+02  0.7561462E-02  0.1334999E+00
          2   -1    0    0  501    0  0.00000000000E+00  0.00000000000E+00  0.11723133883E+03  0.11723133883E+03  0.00000000000E+00 0. -1.
         -2   -1    0    0    0  501 -0.00000000000E+00 -0.00000000000E+00 -0.12818916563E+03  0.12818916563E+03  0.00000000000E+00 0.  1.
          5    1    1    2  502    0 -0.67501295680E+02  0.20801724537E+02 -0.62773349061E+02  0.94589124187E+02  0.41800000000E+01 0. -1.
         -5    1    1    2    0  502  0.21725744648E+02 -0.30807045766E+02  0.23534517370E+02  0.44636621256E+02  0.41800000000E+01 0. -1.
        -11    1    1    2    0    0  0.21737169318E+02  0.18673674889E+01 -0.33174293953E+02  0.39705482879E+02  0.00000000000E+00 0.  1.
         11    1    1    2    0    0  0.24038381713E+02  0.81379537398E+01  0.61455298835E+02  0.66489276138E+02  0.00000000000E+00 0. -1.
</event>
<event>
 6    1  0.8989754E-006  0.1773352E+03  0.7561462E-02  0.1170407E+00
          2   -1    0    0  501    0  0.00000000000E+00  0.00000000000E+00  0.63309520686E+03  0.63309520686E+03  0.00000000000E+00 0. -1.
         -2   -1    0    0    0  501 -0.00000000000E+00 -0.00000000000E+00 -0.66545097577E+02  0.66545097577E+02  0.00000000000E+00 0.  1.
          5    1    1    2  502    0  0.50043379505E+02  0.43619211045E+02  0.11974062925E+03  0.13697542151E+03  0.41800000000E+01 0.  1.
         -5    1    1    2    0  502  0.11092296499E+03 -0.49844375957E+02  0.63737041731E+02  0.13736174455E+03  0.41800000000E+01 0.  1.
        -11    1    1    2    0    0 -0.11371534676E+03 -0.14953611770E+02  0.33703669980E+03  0.35601759452E+03  0.00000000000E+00 0.  1.
         11    1    1    2    0    0 -0.47250997735E+02  0.21178776681E+02  0.46035738496E+02  0.69285543857E+02  0.00000000000E+00 0. -1.
</event>
<event>
 6    1  0.8989754E-006  0.1370983E+03  0.7561462E-02  0.1217288E+00
         -1   -1    0    0    0  501 -0.00000000000E+00  0.00000000000E+00  0.13882227971E+03  0.13882227971E+03  0.00000000000E+00 0.  1.
          1   -1    0    0  501    0  0.00000000000E+00 -0.00000000000E+00 -0.22803722344E+03  0.22803722344E+03  0.00000000000E+00 0. -1.
          5    1    1    2  502    0 -0.34652308470E+02  0.45756593966E+02  0.43307545016E+02  0.72024053128E+02  0.41800000000E+01 0.  1.
         -5    1    1    2    0  502  0.88513800073E+02  0.36335430845E+02  0.12899204936E+02  0.96637561155E+02  0.41800000000E+01 0.  1.
        -11    1    1    2    0    0 -0.64146216839E+02 -0.35812963679E+02 -0.42478832781E+02  0.84863164782E+02  0.00000000000E+00 0.  1.
         11    1    1    2    0    0  0.10284725236E+02 -0.46279061132E+02 -0.10294286090E+03  0.11333472408E+03  0.00000000000E+00 0. -1.
</event>
<event>
 6    1  0.8989754E-006  0.6894611E+02  0.7561462E-02  0.1363714E+00
         -2   -1    0    0    0  501 -0.00000000000E+00  0.00000000000E+00  0.15813865169E+03  0.15813865169E+03  0.00000000000E+00 0.  1.
          2   -1    0    0  501    0  0.00000000000E+00 -0.00000000000E+00 -0.85795127754E+02  0.85795127754E+02  0.00000000000E+00 0. -1.
          5    1    1    2  502    0  0.78305183693E+00 -0.43222815601E+02  0.92893395199E+02  0.10254501563E+03  0.41800000000E+01 0.  1.
         -5    1    1    2    0  502  0.16329521577E+02  0.49077671970E+02 -0.38979752995E+01  0.52037849421E+02  0.41800000000E+01 0.  1.
        -11    1    1    2    0    0 -0.29434079276E+02 -0.68065732434E+01 -0.47401820181E+02  0.56210559672E+02  0.00000000000E+00 0. -1.
         11    1    1    2    0    0  0.12321505862E+02  0.95171687444E+00  0.30749924215E+02  0.33140354720E+02  0.00000000000E+00 0.  1.
</event>
<event>
 6    1  0.8989754E-006  0.1135085E+03  0.7561462E-02  0.1254207E+00
          1   -1    0    0  501    0  0.00000000000E+00  0.00000000000E+00  0.16373879668E+03  0.16373879668E+03  0.00000000000E+00 0. -1.
         -1   -1    0    0    0  501 -0.00000000000E+00 -0.00000000000E+00 -0.18612293830E+03  0.18612293830E+03  0.00000000000E+00 0.  1.
          5    1    1    2  502    0 -0.28400166332E+02 -0.54195665816E+02  0.15339656326E+02  0.63218012442E+02  0.41800000000E+01 0. -1.
         -5    1    1    2    0  502  0.41551131253E+02 -0.47440671059E+02 -0.10264406060E+03  0.12054206468E+03  0.41800000000E+01 0. -1.
        -11    1    1    2    0    0 -0.22984972058E+01  0.15947567196E+02 -0.32275260266E+02  0.36073541747E+02  0.00000000000E+00 0.  1.
         11    1    1    2    0    0 -0.10852467715E+02  0.85688769678E+02  0.97195522927E+02  0.13002811612E+03  0.00000000000E+00 0. -1.
</event>
<event>
 6    1  0.8989754E-006  0.1093336E+03  0.7561462E-02  0.1261809E+00
         -2   -1    0    0    0  501 -0.00000000000E+00  0.00000000000E+00  0.89703495670E+02  0.89703495670E+02  0.00000000000E+00 0. -1.
          2   -1    0    0  501    0  0.00000000000E+00 -0.00000000000E+00 -0.16798201093E+03  0.16798201093E+03  0.00000000000E+00 0.  1.
          5    1    1    2  502    0  0.53594237267E+02  0.20217180524E+02  0.91279380717E+01  0.58153833150E+02  0.41800000000E+01 0. -1.
         -5    1    1    2    0  502 -0.60379523803E+02 -0.30364951789E+02 -0.18880431576E+01  0.67740344691E+02  0.41800000000E+01 0. -1.
        -11    1    1    2    0    0  0.38370047146E+02 -0.25363220761E+02 -0.18373559592E+02  0.49529195203E+02  0.00000000000E+00 0. -1.
         11    1    1    2    0    0 -0.31584760610E+02  0.35510992026E+02 -0.67144850582E+02  0.82262133556E+02  0.00000000000E+00 0.  1.
</event>
<event>
 6    1  0.8989754E-006  0.8037696E+02  0.7561462E-02  0.1327985E+00
         -2   -1    0    0    0  501 -0.00000000000E+00  0.00000000000E+00  0.41998586387E+02  0.41998586387E+02  0.00000000000E+00 0.  1.
          2   -1    0    0  501    0  0.00000000000E+00 -0.00000000000E+00 -0.35461508925E+03  0.35461508925E+03  0.00000000000E+00 0. -1.
          5    1    1    2  502    0 -0.93159669009E+00 -0.12874546988E+01  0.20784913878E+02  0.21260537550E+02  0.41800000000E+01 0. -1.
         -5    1    1    2    0  502  0.31154013850E+02  0.47116833780E+02 -0.17910419791E+03  0.18784662551E+03  0.41800000000E+01 0. -1.
        -11    1    1    2    0    0  0.21325878446E+02 -0.43022254755E+02 -0.10787522123E+03  0.11807951071E+03  0.00000000000E+00 0.  1.
         11    1    1    2    0    0 -0.51548295606E+02 -0.28071243258E+01 -0.46421997602E+02  0.69427001867E+02  0.00000000000E+00 0. -1.
</event>
<event>
 6    1  0.8989754E-006  0.1082872E+03  0.7561462E-02  0.1263775E+00
          2   -1    0    0  501    0  0.00000000000E+00  0.00000000000E+00  0.10534503828E+03  0.10534503828E+03  0.00000000000E+00 0. -1.
         -2   -1    0    0    0  501 -0.00000000000E+00 -0.00000000000E+00 -0.16625142182E+03  0.16625142182E+03  0.00000000000E+00 0.  1.
          5    1    1    2  502    0  0.30189214811E+02  0.32594094875E+02  0.91270633352E+01  0.45547111838E+02  0.41800000000E+01 0. -1.
         -5    1    1    2    0  502 -0.42813897103E+02 -0.61777074452E+02 -0.99354191381E+02  0.12465217390E+03  0.41800000000E+01 0.  1.
        -11    1    1    2    0    0  0.41079418676E+02  0.47524855044E+02  0.14666992889E+02  0.64507760511E+02  0.00000000000E+00 0. -1.
         11    1    1    2    0    0 -0.28454736385E+02 -0.18341875467E+02  0.14653751618E+02  0.36889413859E+02  0.00000000000E+00 0.  1.
</event>
<event>
 6    1  0.8989754E-006  0.1711052E+03  0.7561462E-02  0.1176700E+00
          3   -1    0    0  501    0  0.00000000000E+00  0.00000000000E+00  0.25818788254E+03  0.25818788254E+03  0.00000000000E+00 0. -1.
         -3   -1    0    0    0  501 -0.00000000000E+00 -0.00000000000E+00 -0.25503052599E+03  0.25503052599E+03  0.00000000000E+00 0.  1.
          5    1    1    2  502    0  0.57745602311E+02  0.14439602506E+03 -0.18799423466E+03  0.24401653900E+03  0.41800000000E+01 0.  1.
         -5    1    1    2    0  502 -0.11385906060E+02  0.80964476446E+00  0.14293487127E+02  0.18763543260E+02  0.41800000000E+01 0.  1.
        -11    1    1    2    0    0  0.25084621149E+02 -0.43024483087E+02  0.71885112615E+02  0.87451779735E+02  0.00000000000E+00 0. -1.
         11    1    1    2    0    0 -0.71444317401E+02 -0.10218118674E+03  0.10497299147E+03  0.16298654653E+03  0.00000000000E+00 0.  1.
</event>
<event>
 6    1  0.8989754E-006  0.9066826E+02  0.7561462E-02  0.1301241E+00
          1   -1    0    0  501    0  0.00000000000E+00  0.00000000000E+00  0.12533718760E+03  0.12533718760E+03  0.00000000000E+00 0. -1.
         -1   -1    0    0    0  501 -0.00000000000E+00 -0.00000000000E+00 -0.33634851899E+03  0.33634851899E+03  0.00000000000E+00 0.  1.
          5    1    1    2  502    0 -0.14995339511E+02  0.69603136289E+02 -0.66818012190E+02  0.97732164313E+02  0.41800000000E+01 0. -1.
         -5    1    1    2    0  502  0.40155453954E+01 -0.35475236798E+02 -0.23020537558E+03  0.23299485912E+03  0.41800000000E+01 0.  1.
        -11    1    1    2    0    0 -0.27363703406E+02 -0.13111971487E+02 -0.42733791314E+01  0.30642418794E+02  0.00000000000E+00 0.  1.
         11    1    1    2    0    0  0.38343497522E+02 -0.21015928004E+02  0.90285435507E+02  0.10031626437E+03  0.00000000000E+00 0. -1.
</event>
<event>
 6    1  0.8989754E-006  0.1867589E+03  0.7561462E-02  0.1161418E+00
          2   -1    0    0  501    0  0.00000000000E+00  0.00000000000E+00  0.14513550151E+03  0.14513550151E+03  0.00000000000E+00 0. -1.
         -2   -1    0    0    0  501 -0.00000000000E+00 -0.00000000000E+00 -0.30428918682E+03  0.30428918682E+03  0.00000000000E+00 0.  1.
          5    1    1    2  502    0 -0.43395006003E+02 -0.54712210261E+02 -0.16626942901E+02  0.71906050704E+02  0.41800000000E+01 0. -1.
         -5    1    1    2    0  502 -0.12220196386E+03  0.58492150127E+02  0.85995027500E+01  0.13581632982E+03  0.41800000000E+01 0. -1.
        -11    1    1    2    0    0  0.24065354118E+02 -0.10653890695E+02  0.90634386158E+01  0.27835096108E+02  0.00000000000E+00 0. -1.
         11    1    1    2    0    0  0.14153161574E+03  0.68739508284E+01 -0.16018968377E+03  0.21386721170E+03  0.00000000000E+00 0.  1.
</event>
<event>
 6    1  0.8989754E-006  0.9907806E+02  0.7561462E-02  0.1282247E+00
         -2   -1    0    0    0  501 -0.00000000000E+00  0.00000000000E+00  0.19753427246E+03  0.19753427246E+03  0.00000000000E+00 0.  1.
          2   -1    0    0  501    0  0.00000000000E+00 -0.00000000000E+00 -0.63470349603E+02  0.63470349603E+02  0.00000000000E+00 0. -1.
          5    1    1    2  502    0 -0.55955867898E+02 -0.65846133834E+02  0.17444274268E+02  0.88252748387E+02  0.41800000000E+01 0. -1.
         -5    1    1    2    0  502  0.33296136780E+02  0.31733683416E+00  0.74601356668E+02  0.81802006356E+02  0.41800000000E+01 0. -1.
        -11    1    1    2    0    0  0.22390484157E+02  0.13685689375E+02  0.25365614914E+02  0.36497209406E+02  0.00000000000E+00 0.  1.
         11    1    1    2    0    0  0.26924696110E+00  0.51843107625E+02  0.16652677004E+02  0.54452657911E+02  0.00000000000E+00 0. -1.
</event>
<event>
 6    1  0.8989754E-006  0.8488723E+02  0.7561462E-02  0.1315728E+00
          2   -1    0    0  501    0  0.00000000000E+00  0.00000000000E+00  0.56123827830E+03  0.56123827830E+03  0.00000000000E+00 0. -1.
         -2   -1    0    0    0  501 -0.00000000000E+00 -0.00000000000E+00 -0.27375805146E+02  0.27375805146E+02  0.00000000000E+00 0.  1.
          5    1    1    2  502    0  0.19203153449E+02  0.53740899195E+01  0.18356112711E+03  0.18468839090E+03  0.41800000000E+01 0. -1.
         -5    1    1    2    0  502 -0.40467928262E+02 -0.51663572057E+02  0.41399399108E+02  0.77705601741E+02  0.41800000000E+01 0. -1.
        -11    1    1    2    0    0 -0.37465325246E+01  0.56501313844E+02  0.28362776116E+03  0.28922507131E+03  0.00000000000E+00 0. -1.
         11    1    1    2    0    0  0.25011307337E+02 -0.10211831706E+02  0.25274185776E+02  0.36995019505E+02  0.00000000000E+00 0.  1.
</event>
<event>
 6    1  0.8989754E-006  0.6310247E+02  0.7561462E-02  0.1385255E+00
         -2   -1    0    0    0  501 -0.00000000000E+00  0.00000000000E+00  0.72596125400E+03  0.72596125400E+03  0.00000000000E+00 0.  1.
          2   -1    0    0  501    0  0.00000000000E+00 -0.00000000000E+00 -0.19729354534E+02  0.19729354534E+02  0.00000000000E+00 0. -1.
          5    1    1    2  502    0 -0.96677300275E+00 -0.40583195108E+02  0.50963315047E+03  0.51126446271E+03  0.41800000000E+01 0.  1.
         -5    1    1    2    0  502 -0.22972430924E+02  0.93254782468E+01  0.14493651506E+02  0.29021293236E+02  0.41800000000E+01 0.  1.
        -11    1    1    2    0    0  0.30664241522E+02  0.25526519070E+01  0.12427831112E+02  0.33185278755E+02  0.00000000000E+00 0. -1.
         11    1    1    2    0    0 -0.67250375950E+01  0.28705064954E+02  0.16967726638E+03  0.17221957383E+03  0.00000000000E+00 0.  1.
</event>
<event>
 6    1  0.8989754E-006  0.1020433E+03  0.7561462E-02  0.1276057E+00
          1   -1    0    0  501    0  0.00000000000E+00  0.00000000000E+00  0.25370822300E+03  0.25370822300E+03  0.00000000000E+00 0.  1.
         -1   -1    0    0    0  501 -0.00000000000E+00 -0.00000000000E+00 -0.61845091956E+02  0.61845091956E+02  0.00000000000E+00 0. -1.
          5    1    1    2  502    0 -0.57145018443E+02 -0.55708878670E+02  0.99212863128E+00  0.79921768090E+02  0.41800000000E+01 0. -1.
         -5    1    1    2    0  502  0.28847866654E+02  0.23250024134E+02  0.48840922646E+02  0.61446490198E+02  0.41800000000E+01 0. -1.
        -11    1    1    2    0    0  0.43178837409E+02 -0.78771411792E+01  0.11575801736E+03  0.12379975742E+03  0.00000000000E+00 0.  1.
         11    1    1    2    0    0 -0.14881685620E+02  0.40335995715E+02  0.26272062400E+02  0.50385299245E+02  0.00000000000E+00 0. -1.
</event>
<event>
 6    1  0.8989754E-006  0.1738698E+03  0.7561462E-02  0.1173871E+00
          3   -1    0    0  501    0  0.00000000000E+00  0.00000000000E+00  0.64294749944E+02  0.64294749944E+02  0.00000000000E+00 0.  1.
         -3   -1    0    0    0  501 -0.00000000000E+00 -0.00000000000E+00 -0.77545486402E+03  0.77545486402E+03  0.00000000000E+00 0. -1.
          5    1    1    2  502    0 -0.55773783889E+02 -0.38411513472E+02 -0.34919716244E+03  0.35572783134E+03  0.41800000000E+01 0. -1.
         -5    1    1    2    0  502  0.18490925669E+02 -0.11482115103E+03 -0.23625242391E+03  0.26336000315E+03  0.41800000000E+01 0. -1.
        -11    1    1    2    0    0 -0.92282840888E+01  0.40994472537E+02 -0.80910699438E+02  0.91171537715E+02  0.00000000000E+00 0. -1.
         11    1    1    2    0    0  0.46511142309E+02  0.11223819197E+03 -0.44799828288E+02  0.12949024175E+03  0.00000000000E+00 0.  1.
</event>
<event>
 6    1  0.8989754E-006  0.8718947E+02  0.7561462E-02  0.1309804E+00
         -2   -1    0    0    0  501 -0.00000000000E+00  0.00000000000E+00  0.13327396384E+02  0.13327396384E+02  0.00000000000E+00 0. -1.
          2   -1    0    0  501    0  0.00000000000E+00 -0.00000000000E+00 -0.75298628411E+03  0.75298628411E+03  0.00000000000E+00 0.  1.
          5    1    1    2  502    0  0.29812358005E+02  0.41327363373E+02 -0.13670161585E+03  0.14595044306E+03  0.41800000000E+01 0.  1.
         -5    1    1    2    0  502 -0.59407827113E+02 -0.35716487443E+02 -0.39375870636E+03  0.39983540193E+03  0.41800000000E+01 0.  1.
        -11    1    1    2    0    0  0.40023845760E+02 -0.11739581157E+02 -0.20239830033E+03  0.20665139238E+03  0.00000000000E+00 0.  1.
         11    1    1    2    0    0 -0.10428376652E+02  0.61287052279E+01 -0.68002651835E+01  0.13876443130E+02  0.00000000000E+00 0. -1.
</event>
<event>
 6    1  0.8989754E-006  0.1105165E+03  0.7561462E-02  0.1259616E+00
         -1   -1    0    0    0  501 -0.00000000000E+00  0.00000000000E+00  0.67578875254E+02  0.67578875254E+02  0.00000000000E+00 0.  1.
          1   -1    0    0  501    0  0.00000000000E+00 -0.00000000000E+00 -0.26065697996E+03  0.26065697996E+03  0.00000000000E+00 0. -1.
          5    1    1    2  502    0  0.31074812950E+01  0.62630380637E+02 -0.58347666161E+02  0.85756303356E+02  0.41800000000E+01 0. -1.
         -5    1    1    2    0  502 -0.73230533688E+02 -0.33385841170E+02 -0.35264490222E+02  0.87968074467E+02  0.41800000000E+01 0. -1.
        -11    1    1    2    0    0  0.37265762988E+02 -0.70012334938E+01  0.90381888540E+01  0.38980036163E+02  0.00000000000E+00 0.  1.
         11    1    1    2    0    0  0.32857289405E+02 -0.22243305973E+02 -0.10850413717E+03  0.11553144122E+03  0.00000000000E+00 0. -1.
</event>
<event>
 6    1  0.8989754E-006  0.7300822E+02  0.7561462E-02  0.1350152E+00
         -2   -1    0    0    0  501 -0.00000000000E+00  0.00000000000E+00  0.86480975887E+02  0.86480975887E+02  0.00000000000E+00 0.  1.
          2   -1    0    0  501    0  0.00000000000E+00 -0.00000000000E+00 -0.15050886191E+03  0.15050886191E+03  0.00000000000E+00 0. -1.
          5    1    1    2  502    0 -0.13421253204E+02 -0.32196661875E+02  0.46670186536E+02  0.58415184540E+02  0.41800000000E+01 0. -1.
         -5    1    1    2    0  502  0.33654490249E+02  0.18173271088E+02 -0.57966918920E+02  0.69573907358E+02  0.41800000000E+01 0. -1.
        -11    1    1    2    0    0 -0.45635504481E+02  0.88585397360E+01  0.39686028700E+01  0.46656433685E+02  0.00000000000E+00 0.  1.
         11    1    1    2    0    0  0.25402267437E+02  0.51648510512E+01 -0.56699756507E+02  0.62344312212E+02  0.00000000000E+00 0. -1.
</event>
<event>
 6    1  0.8989754E-006  0.8733860E+02  0.7561462E-02  0.1309428E+00
          2   -1    0    0  501    0  0.00000000000E+00  0.00000000000E+00  0.16044406910E+03  0.16044406910E+03  0.00000000000E+00 0. -1.
         -2   -1    0    0    0  501 -0.00000000000E+00 -0.00000000000E+00 -0.12969894343E+03  0.12969894343E+03  0.00000000000E+00 0.  1.
          5    1    1    2  502    0  0.18738243446E+02  0.97740520470E+01 -0.69726194852E+02  0.72978548282E+02  0.41800000000E+01 0. -1.
         -5    1    1    2    0  502 -0.75452261973E+02 -0.10536851264E+02  0.97013693053E+01  0.76913315088E+02  0.41800000000E+01 0. -1.
        -11    1    1    2    0    0  0.53310163415E+02  0.20269185579E+02  0.11030996243E+02  0.58090414747E+02  0.00000000000E+00 0.  1.
         11    1    1    2    0    0  0.34038551118E+01 -0.19506386362E+02  0.79738954975E+02  0.82160734411E+02  0.00000000000E+00 0. -1.
</event>
<event>
 6    1  0.8989754E-006  0.1785591E+03  0.7561462E-02  0.1169205E+00
         -1   -1    0    0    0  501 -0.00000000000E+00  0.00000000000E+00  0.14787838952E+03  0.14787838952E+03  0.00000000000E+00 0.  1.
          1   -1    0    0  501    0  0.00000000000E+00 -0.00000000000E+00 -0.33008977398E+03  0.33008977398E+03  0.00000000000E+00 0. -1.
          5    1    1    2  502    0  0.92308683539E+02 -0.84321741416E+01 -0.54680536840E+02  0.10770064125E+03  0.41800000000E+01 0. -1.
         -5    1    1    2    0  502  0.72080356180E+02  0.18833744415E+02  0.65707620461E+02  0.99424601897E+02  0.41800000000E+01 0. -1.
        -11    1    1    2    0    0 -0.78264176001E+02 -0.52105685575E+02 -0.99232786169E+02  0.13670197352E+03  0.00000000000E+00 0.  1.
         11    1    1    2    0    0 -0.86124863717E+02  0.41704115301E+02 -0.94005681917E+02  0.13414094683E+03  0.00000000000E+00 0. -1.
</event>
<event>
 6    1  0.8989754E-006  0.1981527E+03  0.7561462E-02  0.1151307E+00
          1   -1    0    0  501    0  0.00000000000E+00  0.00000000000E+00  0.13737654599E+04  0.13737654599E+04  0.00000000000E+00 0. -1.
         -1   -1    0    0    0  501 -0.00000000000E+00 -0.00000000000E+00 -0.29410395595E+02  0.29410395595E+02  0.00000000000E+00 0.  1.
          5    1    1    2  502    0 -0.33554763466E+02  0.56519521301E+01  0.75949476068E+02  0.83328638710E+02  0.41800000000E+01 0.  1.
         -5    1    1    2    0  502  0.11659221038E+02 -0.17838480703E+03  0.54600351810E+03  0.57453841559E+03  0.41800000000E+01 0.  1.
        -11    1    1    2    0    0  0.40555514122E+02  0.13726694800E+03  0.57655027665E+03  0.59405150134E+03  0.00000000000E+00 0.  1.
         11    1    1    2    0    0 -0.18659971694E+02  0.35465906898E+02  0.14585179350E+03  0.15125729986E+03  0.00000000000E+00 0. -1.
</event>
<event>
 6    1  0.8989754E-006  0.1033866E+03  0.7561462E-02  0.1273331E+00
         -2   -1    0    0    0  501 -0.00000000000E+00  0.00000000000E+00  0.19353320934E+02  0.19353320934E+02  0.00000000000E+00 0.  1.
          2   -1    0    0  501    0  0.00000000000E+00 -0.00000000000E+00 -0.10530564221E+04  0.10530564221E+04  0.00000000000E+00 0. -1.
          5    1    1    2  502    0  0.63903489126E+02 -0.19154709693E+02 -0.58116174282E+03  0.58499316453E+03  0.41800000000E+01 0. -1.
         -5    1    1    2    0  502 -0.26197896382E+02  0.34262048348E+02 -0.28386521123E+02  0.51802362044E+02  0.41800000000E+01 0.  1.
        -11    1    1    2    0    0 -0.42163008151E+02  0.29697304064E+02 -0.17569570525E+03  0.18310824658E+03  0.00000000000E+00 0.  1.
         11    1    1    2    0    0  0.44574154078E+01 -0.44804642720E+02 -0.24845913193E+03  0.25250596983E+03  0.00000000000E+00 0. -1.
</event>
<event>
 6    1  0.8989754E-006  0.1206356E+03  0.7561462E-02  0.1242052E+00
         -2   -1    0    0    0  501 -0.00000000000E+00  0.00000000000E+00  0.45269775114E+02  0.45269775114E+02  0.00000000000E+00 0.  1.
          2   -1    0    0  501    0  0.00000000000E+00 -0.00000000000E+00 -0.46131989577E+03  0.46131989577E+03  0.00000000000E+00 0. -1.
          5    1    1    2  502    0 -0.80188960772E+01 -0.70655917249E+02 -0.41227291833E+02  0.82302632573E+02  0.41800000000E+01 0. -1.
         -5    1    1    2    0  502 -0.50490765281E+02  0.44947805213E+02 -0.64309261967E+02  0.93395803690E+02  0.41800000000E+01 0. -1.
        -11    1    1    2    0    0  0.41654893135E+02 -0.25200449389E+02 -0.75489874281E+02  0.89827133375E+02  0.00000000000E+00 0. -1.
         11    1    1    2    0    0  0.16854768223E+02  0.50908561424E+02 -0.23502369258E+03  0.24106410125E+03  0.00000000000E+00 0.  1.
</event>
<event>
 6    1  0.8989754E-006  0.1426171E+03  0.7561462E-02  0.1209850E+00
          2   -1    0    0  501    0  0.00000000000E+00  0.00000000000E+00  0.13270268006E+04  0.13270268006E+04  0.00000000000E+00 0. -1.
         -2   -1    0    0    0  501 -0.00000000000E+00 -0.00000000000E+00 -0.16392499295E+02  0.16392499295E+02  0.00000000000E+00 0.  1.
          5    1    1    2  502    0  0.17222681181E+02 -0.10333929332E+03  0.44346927757E+03  0.45569518633E+03  0.41800000000E+01 0.  1.
         -5    1    1    2    0  502  0.35679258338E+02  0.29248500579E+02  0.12008143638E+03  0.12870706284E+03  0.41800000000E+01 0.  1.
        -11    1    1    2    0    0 -0.75085815918E+02  0.23268233978E+02  0.43614992510E+03  0.44317721921E+03  0.00000000000E+00 0.  1.
         11    1    1    2    0    0  0.22183876399E+02  0.50822558760E+02  0.31093366224E+03  0.31583983150E+03  0.00000000000E+00 0. -1.
</event>
<event>
 6    1  0.8989754E-006  0.1494494E+03  0.7561462E-02  0.1201151E+00
          1   -1    0    0  501    0  0.00000000000E+00  0.00000000000E+00  0.21144929142E+03  0.21144929142E+03  0.00000000000E+00 0. -1.
         -1   -1    0    0    0  501 -0.00000000000E+00 -0.00000000000E+00 -0.27616361926E+03  0.27616361926E+03  0.00000000000E+00 0.  1.
          5    1    1    2  502    0  0.58784541010E+02  0.25579399575E+02 -0.12318005672E+03  0.13892705538E+03  0.41800000000E+01 0. -1.
         -5    1    1    2    0  502 -0.27821713268E+02  0.89483088205E+02 -0.95508571441E+02  0.13386795891E+03  0.41800000000E+01 0.  1.
        -11    1    1    2    0    0  0.62472334869E+01 -0.10081428802E+03  0.73174592969E+02  0.12472798263E+03  0.00000000000E+00 0.  1.
         11    1    1    2    0    0 -0.37210061228E+02 -0.14248199760E+02  0.80799707344E+02  0.90089913753E+02  0.00000000000E+00 0. -1.
</event>
<event>
 6    1  0.8989754E-006  0.9500605E+02  0.7561462E-02  0.1291162E+00
         -2   -1    0    0    0  501 -0.00000000000E+00  0.00000000000E+00  0.33803099355E+03  0.33803099355E+03  0.00000000000E+00 0.  1.
          2   -1    0    0  501    0  0.00000000000E+00 -0.00000000000E+00 -0.42853985491E+02  0.42853985491E+02  0.00000000000E+00 0. -1.
          5    1    1    2  502    0  0.79953070863E+01  0.53819017930E+02  0.61414907600E+02  0.82156405117E+02  0.41800000000E+01 0.  1.
         -5    1    1    2    0  502 -0.55327025741E+02 -0.55376503150E+02  0.11683881207E+03  0.14069974159E+03  0.41800000000E+01 0.  1.
        -11    1    1    2    0    0  0.16418013613E+02  0.16004849330E+02  0.12146030379E+03  0.12360546820E+03  0.00000000000E+00 0.  1.
         11    1    1    2    0    0  0.30913705041E+02 -0.14447364110E+02 -0.45370153998E+01  0.34423364128E+02  0.00000000000E+00 0. -1.
</event>
<event>
 6    1  0.8989754E-006  0.2110475E+03  0.7561462E-02  0.1140739E+00
         -1   -1    0    0    0  501 -0.00000000000E+00  0.00000000000E+00  0.98425430417E+02  0.98425430417E+02  0.00000000000E+00 0.  1.
          1   -1    0    0  501    0  0.00000000000E+00 -0.00000000000E+00 -0.63001838419E+03  0.63001838419E+03  0.00000000000E+00 0. -1.
          5    1    1    2  502    0  0.35774510925E+02 -0.63520854238E+02 -0.91845780144E+02  0.11733641500E+03  0.41800000000E+01 0. -1.
         -5    1    1    2    0  502 -0.42939247607E+02 -0.13035793039E+03 -0.18609575606E+02  0.13856679871E+03  0.41800000000E+01 0. -1.
        -11    1    1    2    0    0  0.43953581249E+02  0.71092766190E+02 -0.13160603806E+03  0.15590461174E+03  0.00000000000E+00 0.  1.
         11    1    1    2    0    0 -0.36788844568E+02  0.12278601844E+03 -0.28953155997E+03  0.31663598915E+03  0.00000000000E+00 0. -1.
</event>
<event>
 6    1  0.8989754E-006  0.1272974E+03  0.7561462E-02  0.1231522E+00
         -1   -1    0    0    0  501 -0.00000000000E+00  0.00000000000E+00  0.38167454248E+02  0.38167454248E+02  0.00000000000E+00 0.  1.
          1   -1    0    0  501    0  0.00000000000E+00 -0.00000000000E+00 -0.50518754609E+03  0.50518754609E+03  0.00000000000E+00 0. -1.
          5    1    1    2  502    0 -0.19705746954E+02  0.65692921882E+02 -0.73478844944E+02  0.10060064365E+03  0.41800000000E+01 0. -1.
         -5    1    1    2    0  502 -0.61272095510E+02 -0.49400671761E+02 -0.13211235960E+03  0.15383706971E+03  0.41800000000E+01 0. -1.
        -11    1    1    2    0    0 -0.12183469048E+02 -0.51976517768E+01 -0.24530275500E+01  0.13471074427E+02  0.00000000000E+00 0.  1.
         11    1    1    2    0    0  0.93161311513E+02 -0.11094598344E+02 -0.25897585975E+03  0.27544621255E+03  0.00000000000E+00 0. -1.
</event>
<event>
 6    1  0.8989754E-006  0.1745787E+03  0.7561462E-02  0.1173155E+00
         -1   -1    0    0    0  501 -0.00000000000E+00  0.00000000000E+00  0.11831933495E+03  0.11831933495E+03  0.00000000000E+00 0.  1.
          1   -1    0    0  501    0  0.00000000000E+00 -0.00000000000E+00 -0.31474655212E+03  0.31474655212E+03  0.00000000000E+00 0. -1.
          5    1    1    2  502    0 -0.18068785756E+02 -0.18890021364E+01  0.24230496342E+02  0.30571861258E+02  0.41800000000E+01 0.  1.
         -5    1    1    2    0  502 -0.71012275762E+02  0.13236358863E+03 -0.12125983922E+03  0.19309138746E+03  0.41800000000E+01 0.  1.
        -11    1    1    2    0    0  0.83516670176E+02 -0.45529459259E+02 -0.74158009692E+02  0.12061250457E+03  0.00000000000E+00 0.  1.
         11    1    1    2    0    0  0.55643913423E+01 -0.84945127233E+02 -0.25239864597E+02  0.88790133779E+02  0.00000000000E+00 0. -1.
</event>
<event>
 6    1  0.8989754E-006  0.2078226E+03  0.7561462E-02  0.1143302E+00
         -1   -1    0    0    0  501 -0.00000000000E+00  0.00000000000E+00  0.63432610935E+03  0.63432610935E+03  0.00000000000E+00 0.  1.
          1   -1    0    0  501    0  0.00000000000E+00 -0.00000000000E+00 -0.84068754922E+02  0.84068754922E+02  0.00000000000E+00 0. -1.
          5    1    1    2  502    0 -0.22434940828E+02  0.13945009145E+03  0.22272281002E+03  0.26376614089E+03  0.41800000000E+01 0. -1.
         -5    1    1    2    0  502 -0.91055222566E+02 -0.33650802819E+02  0.23043069428E+03  0.25007840241E+03  0.41800000000E+01 0.  1.
        -11    1    1    2    0    0  0.45250152994E+01  0.14307490580E+02  0.19947159738E+02  0.24961354766E+02  0.00000000000E+00 0.  1.
         11    1    1    2    0    0  0.10896514809E+03 -0.12010677921E+03  0.77156690392E+02  0.17958896621E+03  0.00000000000E+00 0. -1.
</event>
<event>
 6    1  0.8989754E-006  0.1946059E+03  0.7561462E-02  0.1154372E+00
          2   -1    0    0  501    0  0.00000000000E+00  0.00000000000E+00  0.25546330048E+03  0.25546330048E+03  0.00000000000E+00 0. -1.
         -2   -1    0    0    0  501 -0.00000000000E+00 -0.00000000000E+00 -0.15691044921E+03  0.15691044921E+03  0.00000000000E+00 0.  1.
          5    1    1    2  502    0  0.15550676668E+03 -0.33981555145E+02  0.91743073533E+01  0.15949526917E+03  0.41800000000E+01 0.  1.
         -5    1    1    2    0  502  0.10713628557E+02  0.44788060480E+02  0.21744244586E+02  0.51098304973E+02  0.41800000000E+01 0.  1.
        -11    1    1    2    0    0 -0.29404732658E+02 -0.34022087051E+02  0.40212011690E+02  0.60325339569E+02  0.00000000000E+00 0.  1.
         11    1    1    2    0    0 -0.13681566258E+03  0.23215581715E+02  0.27422287640E+02  0.14145483598E+03  0.00000000000E+00 0. -1.
</event>
<event>
 6    1  0.8989754E-006  0.1287929E+03  0.7561462E-02  0.1229258E+00
         -2   -1    0    0    0  501 -0.00000000000E+00  0.00000000000E+00  0.21773150434E+03  0.21773150434E+03  0.00000000000E+00 0.  1.
          2   -1    0    0  501    0  0.00000000000E+00 -0.00000000000E+00 -0.78324873810E+02  0.78324873810E+02  0.00000000000E+00 0. -1.
          5    1    1    2  502    0 -0.94231463080E+02  0.25831005493E+02  0.31382264051E+02  0.10270894983E+03  0.41800000000E+01 0. -1.
         -5    1    1    2    0  502  0.22571141174E+02 -0.37331197491E+02  0.36573244210E+02  0.57080200701E+02  0.41800000000E+01 0. -1.
        -11    1    1    2    0    0 -0.11207051983E+02  0.29157367767E+02  0.17201676736E+02  0.35660170944E+02  0.00000000000E+00 0.  1.
         11    1    1    2    0    0  0.82867373888E+02 -0.17657175769E+02  0.54249445530E+02  0.10060705667E+03  0.00000000000E+00 0. -1.
</event>
<event>
 6    1  0.8989754E-006  0.1147020E+03  0.7561462E-02  0.1252102E+00
         -2   -1    0    0    0  501 -0.00000000000E+00  0.00000000000E+00  0.29832903135E+02  0.29832903135E+02  0.00000000000E+00 0.  1.
          2   -1    0    0  501    0  0.00000000000E+00 -0.00000000000E+00 -0.49638593181E+03  0.49638593181E+03  0.00000000000E+00 0. -1.
          5    1    1    2  502    0  0.35084330336E+02 -0.34440799534E+02 -0.85651728140E+02  0.98847204518E+02  0.41800000000E+01 0.  1.
         -5    1    1    2    0  502 -0.75636777536E+02  0.28006767709E+02 -0.94983274748E+02  0.12467796933E+03  0.41800000000E+01 0.  1.
        -11    1    1    2    0    0  0.44083515008E+02 -0.35879088682E+02 -0.16927234363E+03  0.17856033047E+03  0.00000000000E+00 0. -1.
         11    1    1    2    0    0 -0.35310678079E+01  0.42313120508E+02 -0.11664568216E+03  0.12413333063E+03  0.00000000000E+00 0.  1.
</event>
<event>
 6    1  0.8989754E-006  0.1043080E+03  0.7561462E-02  0.1271489E+00
          1   -1    0    0  501    0  0.00000000000E+00  0.00000000000E+00  0.22727547796E+02  0.22727547796E+02  0.00000000000E+00 0. -1.
         -1   -1    0    0    0  501 -0.00000000000E+00 -0.00000000000E+00 -0.55098402297E+03  0.55098402297E+03  0.00000000000E+00 0.  1.
          5    1    1    2  502    0 -0.32011718435E+02 -0.42756025716E+02 -0.14205270982E+03  0.15181986899E+03  0.41800000000E+01 0.  1.
         -5    1    1    2    0  502  0.28249404337E+02  0.68020681310E+02 -0.16740820093E+03  0.18294212219E+03  0.41800000000E+01 0.  1.
        -11    1    1    2    0    0  0.10053715864E+02 -0.52429578615E+02 -0.19536738561E+03  0.20252988243E+03  0.00000000000E+00 0. -1.
         11    1    1    2    0    0 -0.62914017663E+01  0.27164923020E+02 -0.23428178810E+02  0.36419697160E+02  0.00000000000E+00 0.  1.
</event>
<event>
 6    1  0.8989754E-006  0.9166930E+02  0.7561462E-02  0.1298859E+00
         -2   -1    0    0    0  501 -0.00000000000E+00  0.00000000000E+00  0.11077326413E+03  0.11077326413E+03  0.00000000000E+00 0.  1.
          2   -1    0    0  501    0  0.00000000000E+00 -0.00000000000E+00 -0.13275835237E+03  0.13275835237E+03  0.00000000000E+00 0. -1.
          5    1    1    2  502    0  0.41515014872E+02 -0.38423632396E+02 -0.10561055115E+02  0.57696449384E+02  0.41800000000E+01 0.  1.
         -5    1    1    2    0  502 -0.62130585569E+02  0.12166151499E+02  0.40241498132E+02  0.75133717314E+02  0.41800000000E+01 0.  1.
        -11    1    1    2    0    0  0.53296687686E+01  0.41347221165E+02  0.12104654405E+02  0.43411066855E+02  0.00000000000E+00 0.  1.
         11    1    1    2    0    0  0.15285901928E+02 -0.15089740268E+02 -0.63770185661E+02  0.67290382956E+02  0.00000000000E+00 0. -1.
</event>
<event>
 6    1  0.8989754E-006  0.1376524E+03  0.7561462E-02  0.1216523E+00
         -1   -1    0    0    0  501 -0.00000000000E+00  0.00000000000E+00  0.79452365354E+03  0.79452365354E+03  0.00000000000E+00 0.  1.
          1   -1    0    0  501    0  0.00000000000E+00 -0.00000000000E+00 -0.35256552765E+02  0.35256552765E+02  0.00000000000E+00 0. -1.
          5    1    1    2  502    0  0.72677477505E+01  0.29561346328E+02  0.81084603124E+01  0.31779126525E+02  0.41800000000E+01 0.  1.
         -5    1    1    2    0  502 -0.50750583758E+01  0.97437534409E+02  0.43537878684E+03  0.44619725432E+03  0.41800000000E+01 0.  1.
        -11    1    1    2    0    0 -0.28565886320E+02 -0.15819499526E+02  0.12704780036E+03  0.13117701782E+03  0.00000000000E+00 0.  1.
         11    1    1    2    0    0  0.26373196945E+02 -0.11117938121E+03  0.18873205325E+03  0.22062680764E+03  0.00000000000E+00 0. -1.
</event>
<event>
 6    1  0.8989754E-006  0.1876564E+03  0.7561462E-02  0.1160592E+00
          1   -1    0    0  501    0  0.00000000000E+00  0.00000000000E+00  0.12718315645E+04  0.12718315645E+04  0.00000000000E+00 0. -1.
         -1   -1    0    0    0  501 -0.00000000000E+00 -0.00000000000E+00 -0.37913270484E+02  0.37913270484E+02  0.00000000000E+00 0.  1.
          5    1    1    2  502    0  0.30836225381E+02  0.13041485363E+03  0.41115342518E+03  0.43246215820E+03  0.41800000000E+01 0. -1.
         -5    1    1    2    0  502  0.47084600224E+02  0.29769828861E+02  0.40801428997E+02  0.69176811844E+02  0.41800000000E+01 0. -1.
        -11    1    1    2    0    0 -0.20510384647E+02 -0.68181056762E+01  0.22546689847E+02  0.31233246171E+02  0.00000000000E+00 0.  1.
         11    1    1    2    0    0 -0.57410440959E+02 -0.15336657681E+03  0.75941675001E+03  0.77687261878E+03  0.00000000000E+00 0. -1.
</event>
<event>
 6    1  0.8989754E-006  0.1174076E+03  0.7561462E-02  0.1247436E+00
          2   -1    0    0  501    0  0.00000000000E+00  0.00000000000E+00  0.19898873722E+03  0.19898873722E+03  0.00000000000E+00 0.  1.
         -2   -1    0    0    0  501 -0.00000000000E+00 -0.00000000000E+00 -0.71668817735E+02  0.71668817735E+02  0.00000000000E+00 0. -1.
          5    1    1    2  502    0 -0.46533768923E+02 -0.71337530409E+02  0.53340705187E+02  0.10058398543E+03  0.41800000000E+01 0.  1.
         -5    1    1    2    0  502  0.34477194334E+02  0.27961193057E+02  0.59468677597E+01  0.44981583815E+02  0.41800000000E+01 0.  1.
        -11    1    1    2    0    0  0.47867776301E+02 -0.10637198505E+01  0.29779100218E+02  0.56384841205E+02  0.00000000000E+00 0. -1.
         11    1    1    2    0    0 -0.35811201712E+02  0.44440057203E+02  0.38253246324E+02  0.68707144509E+02  0.00000000000E+00 0.  1.
</event>
<event>
 6    1  0.8989754E-006  0.1158947E+03  0.7561462E-02  0.1250027E+00
          1   -1    0    0  501    0  0.00000000000E+00  0.00000000000E+00  0.58414856215E+03  0.58414856215E+03  0.00000000000E+00 0. -1.
         -1   -1    0    0    0  501 -0.00000000000E+00 -0.00000000000E+00 -0.27513904228E+02  0.27513904228E+02  0.00000000000E+00 0.  1.
          5    1    1    2  502    0  0.55358232490E+02 -0.11863126863E+02  0.63018097600E+02  0.84817573111E+02  0.41800000000E+01 0. -1.
         -5    1    1    2    0  502 -0.46530904292E+02  0.57192978518E+02  0.13569805008E+03  0.15449140766E+03  0.41800000000E+01 0. -1.
        -11    1    1    2    0    0 -0.49560736853E+02 -0.21935550088E+02  0.15973806421E+03  0.16868219868E+03  0.00000000000E+00 0.  1.
         11    1    1    2    0    0  0.40733408654E+02 -0.23394301566E+02  0.19818044604E+03  0.20367128692E+03  0.00000000000E+00 0. -1.
</event>
<event>
 6    1  0.8989754E-006  0.2391231E+03  0.7561462E-02  0.1120378E+00
          1   -1    0    0  501    0  0.00000000000E+00  0.00000000000E+00  0.31073538227E+03  0.31073538227E+03  0.00000000000E+00 0. -1.
         -1   -1    0    0    0  501 -0.00000000000E+00 -0.00000000000E+00 -0.19795544085E+03  0.19795544085E+03  0.00000000000E+00 0.  1.
          5    1    1    2  502    0  0.10470985949E+03  0.59604119846E+02 -0.26173701109E+02  0.12336669245E+03  0.41800000000E+01 0. -1.
         -5    1    1    2    0  502  0.28529691122E+02  0.11637896789E+03  0.55236415526E+02  0.13200962632E+03  0.41800000000E+01 0. -1.
        -11    1    1    2    0    0 -0.56967547266E+02 -0.14441226182E+03  0.67038192840E+02  0.16909855737E+03  0.00000000000E+00 0.  1.
         11    1    1    2    0    0 -0.76272003347E+02 -0.31570825909E+02  0.16679034157E+02  0.84215946967E+02  0.00000000000E+00 0. -1.
</event>
<event>
 6    1  0.8989754E-006  0.1396954E+03  0.7561462E-02  0.1213739E+00
         -1   -1    0    0    0  501 -0.00000000000E+00  0.00000000000E+00  0.11634040018E+03  0.11634040018E+03  0.00000000000E+00 0.  1.
          1   -1    0    0  501    0  0.00000000000E+00 -0.00000000000E+00 -0.33964037772E+03  0.33964037772E+03  0.00000000000E+00 0. -1.
          5    1    1    2  502    0  0.70235601826E+02 -0.26826744893E+02 -0.35134540121E+02  0.83094057037E+02  0.41800000000E+01 0. -1.
         -5    1    1    2    0  502 -0.42405667769E+02  0.83143893843E+02  0.52627859435E+02  0.10723018106E+03  0.41800000000E+01 0.  1.
        -11    1    1    2    0    0 -0.42249755949E+02 -0.75588062928E+02 -0.20482925468E+03  0.22238170048E+03  0.00000000000E+00 0. -1.
         11    1    1    2    0    0  0.14419821893E+02  0.19270913979E+02 -0.35964042167E+02  0.43274839318E+02  0.00000000000E+00 0.  1.
</event>
<event>
 6    1  0.8989754E-006  0.2429466E+03  0.7561462E-02  0.1117845E+00
          1   -1    0    0  501    0  0.00000000000E+00  0.00000000000E+00  0.15000523892E+04  0.15000523892E+04  0.00000000000E+00 0. -1.
         -1   -1    0    0    0  501 -0.00000000000E+00 -0.00000000000E+00 -0.44839920745E+02  0.44839920745E+02  0.00000000000E+00 0.  1.
          5    1    1    2  502    0  0.13013605466E+03  0.41349458366E+02  0.58114769565E+03  0.59698851496E+03  0.41800000000E+01 0.  1.
         -5    1    1    2    0  502  0.10051458481E+03  0.24138531248E+01  0.14626638091E+03  0.17753967171E+03  0.41800000000E+01 0.  1.
        -11    1    1    2    0    0 -0.27420000668E+02 -0.36025464753E+02  0.87139668327E+02  0.98198840845E+02  0.00000000000E+00 0.  1.
         11    1    1    2    0    0 -0.20323063880E+03 -0.77378467379E+01  0.64065872352E+03  0.67216528239E+03  0.00000000000E+00 0. -1.
</event>
<event>
 6    1  0.8989754E-006  0.7183961E+02  0.7561462E-02  0.1353947E+00
         -2   -1    0    0    0  501 -0.00000000000E+00  0.00000000000E+00  0.17327270273E+04  0.17327270273E+04  0.00000000000E+00 0.  1.
          2   -1    0    0  501    0  0.00000000000E+00 -0.00000000000E+00 -0.92622467203E+01  0.92622467203E+01  0.00000000000E+00 0. -1.
          5    1    1    2  502    0  0.10679620537E+02 -0.30449444977E+02  0.13320599365E+04  0.13324572676E+04  0.41800000000E+01 0.  1.
         -5    1    1    2    0  502 -0.11230549109E+02  0.25976928250E+02  0.76847479524E+02  0.81999594778E+02  0.41800000000E+01 0.  1.
        -11    1    1    2    0    0  0.33854383384E+02 -0.21669605916E+02  0.22385564782E+03  0.22743579788E+03  0.00000000000E+00 0.  1.
         11    1    1    2    0    0 -0.33303454812E+02  0.26142122643E+02  0.90701716649E+02  0.10009661374E+03  0.00000000000E+00 0. -1.
</event>
<event>
 6    1  0.8989754E-006  0.1673257E+03  0.7561462E-02  0.1180666E+00
         -2   -1    0    0    0  501 -0.00000000000E+00  0.00000000000E+00  0.30646889981E+02  0.30646889981E+02  0.00000000000E+00 0.  1.
          2   -1    0    0  501    0  0.00000000000E+00 -0.00000000000E+00 -0.11596112432E+04  0.11596112432E+04  0.00000000000E+00 0. -1.
          5    1    1    2  502    0  0.77410614128E+01  0.25509447343E+02 -0.30590943871E+03  0.30709723708E+03  0.41800000000E+01 0.  1.
         -5    1    1    2    0  502 -0.46843067659E+02  0.12257142663E+03 -0.24057902645E+03  0.27406891101E+03  0.41800000000E+01 0.  1.
        -11    1    1    2    0    0 -0.21098730071E+02 -0.91033506762E+02 -0.35020741507E+03  0.36246032794E+03  0.00000000000E+00 0.  1.
         11    1    1    2    0    0  0.60200736317E+02 -0.57047367214E+02 -0.23226847304E+03  0.24663165719E+03  0.00000000000E+00 0. -1.
</event>
<event>
 6    1  0.8989754E-006  0.1491046E+03  0.7561462E-02  0.1201578E+00
         -1   -1    0    0    0  501 -0.00000000000E+00  0.00000000000E+00  0.22661798255E+03  0.22661798255E+03  0.00000000000E+00 0.  1.
          1   -1    0    0  501    0  0.00000000000E+00 -0.00000000000E+00 -0.29030024591E+03  0.29030024591E+03  0.00000000000E+00 0. -1.
          5    1    1    2  502    0 -0.83819560344E+02  0.16651090361E+02 -0.73072264382E+02  0.11251669089E+03  0.41800000000E+01 0. -1.
         -5    1    1    2    0  502  0.13006797616E+03 -0.35401770693E+01  0.17451654527E+03  0.21772392668E+03  0.41800000000E+01 0.  1.
        -11    1    1    2    0    0 -0.52294953375E+02  0.14446267324E+02 -0.13453610860E+03  0.14506350783E+03  0.00000000000E+00 0. -1.
         11    1    1    2    0    0  0.60465375546E+01 -0.27557180616E+02 -0.30590435656E+02  0.41614103060E+02  0.00000000000E+00 0.  1.
</event>
<event>
 6    1  0.8989754E-006  0.1328383E+03  0.7561462E-02  0.1223304E+00
          2   -1    0    0  501    0  0.00000000000E+00  0.00000000000E+00  0.22881290552E+03  0.22881290552E+03  0.00000000000E+00 0. -1.
         -2   -1    0    0    0  501 -0.00000000000E+00 -0.00000000000E+00 -0.11741727022E+03  0.11741727022E+03  0.00000000000E+00 0.  1.
          5    1    1    2  502    0  0.86751397087E+02  0.83940800917E+02  0.48728383791E+02  0.13024511792E+03  0.41800000000E+01 0. -1.
         -5    1    1    2    0  502  0.58938324552E+01 -0.15718944603E+02 -0.36250454441E+02  0.40167030356E+02  0.41800000000E+01 0. -1.
        -11    1    1    2    0    0 -0.77853927416E-01 -0.25740097630E+02 -0.91505272414E+01  0.27318324180E+02  0.00000000000E+00 0.  1.
         11    1    1    2    0    0 -0.92567375614E+02 -0.42481758685E+02  0.10806823320E+03  0.14849970328E+03  0.00000000000E+00 0. -1.
</event>
<event>
 6    1  0.8989754E-006  0.1885519E+03  0.7561462E-02  0.1159774E+00
         -2   -1    0    0    0  501 -0.00000000000E+00  0.00000000000E+00  0.85686546279E+02  0.85686546279E+02  0.00000000000E+00 0.  1.
          2   -1    0    0  501    0  0.00000000000E+00 -0.00000000000E+00 -0.66859449712E+03  0.66859449712E+03  0.00000000000E+00 0. -1.
          5    1    1    2  502    0  0.83414767195E+01 -0.14596989019E+02 -0.71095591657E+02  0.73175869489E+02  0.41800000000E+01 0.  1.
         -5    1    1    2    0  502  0.16497855369E+03 -0.37148473611E+02 -0.42816545075E+02  0.17449544751E+03  0.41800000000E+01 0.  1.
        -11    1    1    2    0    0 -0.55148881790E+02  0.46823297186E+02 -0.15416733275E+03  0.17029793543E+03  0.00000000000E+00 0.  1.
         11    1    1    2    0    0 -0.11817114862E+03  0.49221654446E+01 -0.31482848135E+03  0.33631179097E+03  0.00000000000E+00 0. -1.
</event>
<event>
 6    1  0.8989754E-006  0.1153978E+03  0.7561462E-02  0.1250888E+00
          3   -1    0    0  501    0  0.00000000000E+00  0.00000000000E+00  0.12893067481E+03  0.12893067481E+03  0.00000000000E+00 0. -1.
         -3   -1    0    0    0  501 -0.00000000000E+00 -0.00000000000E+00 -0.10703468381E+03  0.10703468381E+03  0.00000000000E+00 0.  1.
          5    1    1    2  502    0 -0.44686014033E+00  0.58721376829E+02  0.64107070139E+01  0.59219670255E+02  0.41800000000E+01 0.  1.
         -5    1    1    2    0  502 -0.43936995421E+02 -0.58605354037E+02 -0.47942870491E+01  0.73522137324E+02  0.41800000000E+01 0.  1.
        -11    1    1    2    0    0 -0.68361332372E+01 -0.35598301709E+02 -0.37475489104E+01  0.36441952815E+02  0.00000000000E+00 0.  1.
         11    1    1    2    0    0  0.51219988798E+02  0.35482278917E+02  0.24027119944E+02  0.66781598232E+02  0.00000000000E+00 0. -1.
</event>
<event>
 6    1  0.8989754E-006  0.1015977E+03  0.7561462E-02  0.1276972E+00
          2   -1    0    0  501    0  0.00000000000E+00  0.00000000000E+00  0.10130765299E+03  0.10130765299E+03  0.00000000000E+00 0. -1.
         -2   -1    0    0    0  501 -0.00000000000E+00 -0.00000000000E+00 -0.14185527665E+03  0.14185527665E+03  0.00000000000E+00 0.  1.
          5    1    1    2  502    0 -0.45733962048E+01 -0.77721367207E+02  0.12701321803E+02  0.78995714117E+02  0.41800000000E+01 0. -1.
         -5    1    1    2    0  502  0.39077950663E+00  0.29957453895E+02 -0.52756395388E+02  0.60813743569E+02  0.41800000000E+01 0. -1.
        -11    1    1    2    0    0 -0.31768943031E+02  0.49686070081E+02  0.19571752959E+02  0.62137145213E+02  0.00000000000E+00 0.  1.
         11    1    1    2    0    0  0.35951559729E+02 -0.19221567691E+01 -0.20064303032E+02  0.41216326738E+02  0.00000000000E+00 0. -1.
</event>
<event>
 6    1  0.8989754E-006  0.1333877E+03  0.7561462E-02  0.1222514E+00
          2   -1    0    0  501    0  0.00000000000E+00  0.00000000000E+00  0.79512757487E+02  0.79512757487E+02  0.00000000000E+00 0. -1.
         -2   -1    0    0    0  501 -0.00000000000E+00 -0.00000000000E+00 -0.27936060292E+03  0.27936060292E+03  0.00000000000E+00 0.  1.
          5    1    1    2  502    0 -0.24382995941E+02 -0.43376191225E+01  0.58473532285E+01  0.25787775602E+02  0.41800000000E+01 0. -1.
         -5    1    1    2    0  502  0.60952541319E+02  0.93081815947E+02 -0.15819409637E+03  0.19344839436E+03  0.41800000000E+01 0. -1.
        -11    1    1    2    0    0  0.24399130155E+02 -0.56063364292E+02 -0.30856986099E+02  0.68487750431E+02  0.00000000000E+00 0. -1.
         11    1    1    2    0    0 -0.60968675533E+02 -0.32680832533E+02 -0.16644116197E+02  0.71149440021E+02  0.00000000000E+00 0.  1.
</event>
<event>
 6    1  0.8989754E-006  0.9329585E+02  0.7561462E-02  0.1295061E+00
         -2   -1    0    0    0  501 -0.00000000000E+00  0.00000000000E+00  0.62947927666E+02  0.62947927666E+02  0.00000000000E+00 0.  1.
          2   -1    0    0  501    0  0.00000000000E+00 -0.00000000000E+00 -0.22072972254E+03  0.22072972254E+03  0.00000000000E+00 0. -1.
          5    1    1    2  502    0 -0.18814088197E+01 -0.53052323223E+02 -0.88780883800E+02  0.10352587322E+03  0.41800000000E+01 0. -1.
         -5    1    1    2    0  502 -0.29097820316E+02  0.27845210863E+01  0.23420842976E+02  0.37688791311E+02  0.41800000000E+01 0.  1.
        -11    1    1    2    0    0 -0.24370953680E+02  0.40994978487E+02 -0.63241237031E+02  0.79208495161E+02  0.00000000000E+00 0.  1.
         11    1    1    2    0    0  0.55350182815E+02  0.92728236489E+01 -0.29180517019E+02  0.63254490509E+02  0.00000000000E+00 0. -1.
</event>
<event>
 6    1  0.8989754E-006  0.1295025E+03  0.7561462E-02  0.1228196E+00
          1   -1    0    0  501    0  0.00000000000E+00  0.00000000000E+00  0.67999881148E+03  0.67999881148E+03  0.00000000000E+00 0. -1.
         -1   -1    0    0    0  501 -0.00000000000E+00 -0.00000000000E+00 -0.28635220640E+02  0.28635220640E+02  0.00000000000E+00 0.  1.
          5    1    1    2  502    0 -0.69826785842E+02 -0.59806153041E+02  0.17730435720E+03  0.19976702292E+03  0.41800000000E+01 0. -1.
         -5    1    1    2    0  502 -0.13481647585E+02  0.55723767431E+02  0.86130234421E+02  0.10355087040E+03  0.41800000000E+01 0. -1.
        -11    1    1    2    0    0  0.95733465948E+02 -0.17801472711E+01  0.37271243373E+03  0.38481505127E+03  0.00000000000E+00 0. -1.
         11    1    1    2    0    0 -0.12425032521E+02  0.58625328814E+01  0.15216565486E+02  0.20501087535E+02  0.00000000000E+00 0.  1.
</event>
<event>
 6    1  0.8989754E-006  0.1192931E+03  0.7561462E-02  0.1244268E+00
          1   -1    0    0  501    0  0.00000000000E+00  0.00000000000E+00  0.54817902434E+02  0.54817902434E+02  0.00000000000E+00 0. -1.
         -1   -1    0    0    0  501 -0.00000000000E+00 -0.00000000000E+00 -0.62340064912E+03  0.62340064912E+03  0.00000000000E+00 0.  1.
          5    1    1    2  502    0  0.49508551225E+00  0.72721599416E+02 -0.47698626566E+03  0.48251636880E+03  0.41800000000E+01 0. -1.
         -5    1    1    2    0  502 -0.10753868228E+02  0.31304485443E+02 -0.16560826144E+02  0.37247145573E+02  0.41800000000E+01 0. -1.
        -11    1    1    2    0    0 -0.19712409424E+02 -0.10025241746E+03 -0.34371626786E+02  0.10779858542E+03  0.00000000000E+00 0. -1.
         11    1    1    2    0    0  0.29971192140E+02 -0.37736674032E+01 -0.40664028100E+02  0.50656451764E+02  0.00000000000E+00 0.  1.
</event>
<event>
 6    1  0.8989754E-006  0.1257786E+03  0.7561462E-02  0.1233858E+00
          1   -1    0    0  501    0  0.00000000000E+00  0.00000000000E+00  0.79164885849E+02  0.79164885849E+02  0.00000000000E+00 0. -1.
         -1   -1    0    0    0  501 -0.00000000000E+00 -0.00000000000E+00 -0.23629771261E+03  0.23629771261E+03  0.00000000000E+00 0.  1.
          5    1    1    2  502    0  0.14887183985E+02  0.10137624328E+03 -0.20992934015E+02  0.10467543469E+03  0.41800000000E+01 0. -1.
         -5    1    1    2    0  502  0.24071237457E+02 -0.31400007000E+02 -0.38395596040E+02  0.55290859168E+02  0.41800000000E+01 0. -1.
        -11    1    1    2    0    0 -0.65297315031E+01  0.16028699730E+02 -0.47910106998E+02  0.50940504131E+02  0.00000000000E+00 0. -1.
         11    1    1    2    0    0 -0.32428689939E+02 -0.86004936009E+02 -0.49834189711E+02  0.10455580048E+03  0.00000000000E+00 0.  1.
</event>
<event>
 6    1  0.8989754E-006  0.9985711E+02  0.7561462E-02  0.1280597E+00
          1   -1    0    0  501    0  0.00000000000E+00  0.00000000000E+00  0.22529123322E+03  0.22529123322E+03  0.00000000000E+00 0. -1.
         -1   -1    0    0    0  501 -0.00000000000E+00 -0.00000000000E+00 -0.68906126248E+02  0.68906126248E+02  0.00000000000E+00 0.  1.
          5    1    1    2  502    0  0.33960238656E+02 -0.10224124272E+02 -0.25225887820E+02  0.43722400929E+02  0.41800000000E+01 0. -1.
         -5    1    1    2    0  502 -0.43361913950E+02  0.48873579387E+02  0.10976721074E+03  0.12780921445E+03  0.41800000000E+01 0.  1.
        -11    1    1    2    0    0 -0.17262979328E+02 -0.61214091142E+02  0.54038949949E+02  0.83458873233E+02  0.00000000000E+00 0.  1.
         11    1    1    2    0    0  0.26664654622E+02  0.22564636027E+02  0.17804834101E+02  0.39206870858E+02  0.00000000000E+00 0. -1.
</event>
<event>
 6    1  0.8989754E-006  0.1139124E+03  0.7561462E-02  0.1253492E+00
          1   -1    0    0  501    0  0.00000000000E+00  0.00000000000E+00  0.87790879390E+02  0.87790879390E+02  0.00000000000E+00 0. -1.
         -1   -1    0    0    0  501 -0.00000000000E+00 -0.00000000000E+00 -0.16767268955E+03  0.16767268955E+03  0.00000000000E+00 0.  1.
          5    1    1    2  502    0 -0.28433539649E+02 -0.76319706066E+02 -0.38005734110E+02  0.89972617702E+02  0.41800000000E+01 0.  1.
         -5    1    1    2    0  502  0.40662634835E+02  0.31121352156E+02 -0.35888620701E+02  0.62669401844E+02  0.41800000000E+01 0.  1.
        -11    1    1    2    0    0 -0.45252634579E+01 -0.24429434420E+02  0.15818615074E+02  0.29453418448E+02  0.00000000000E+00 0.  1.
         11    1    1    2    0    0 -0.77038317279E+01  0.69627788329E+02 -0.21806070422E+02  0.73368130944E+02  0.00000000000E+00 0. -1.
</event>
<event>
 6    1  0.8989754E-006  0.1594128E+03  0.7561462E-02  0.1189361E+00
         -1   -1    0    0    0  501 -0.00000000000E+00  0.00000000000E+00  0.14893618410E+03  0.14893618410E+03  0.00000000000E+00 0.  1.
          1   -1    0    0  501    0  0.00000000000E+00 -0.00000000000E+00 -0.30035869168E+03  0.30035869168E+03  0.00000000000E+00 0. -1.
          5    1    1    2  502    0  0.24694359141E+02  0.75333551352E+01  0.47059865080E+02  0.53839261829E+02  0.41800000000E+01 0. -1.
         -5    1    1    2    0  502 -0.14755447011E+02  0.14139814121E+03 -0.16916884847E+02  0.14322992336E+03  0.41800000000E+01 0. -1.
        -11    1    1    2    0    0  0.55961023401E+01 -0.47782624303E+02 -0.12795129325E+03  0.13669685070E+03  0.00000000000E+00 0.  1.
         11    1    1    2    0    0 -0.15535014470E+02 -0.10114887204E+03 -0.53614194565E+02  0.11552883990E+03  0.00000000000E+00 0. -1.
</event>
<event>
 6    1  0.8989754E-006  0.7798903E+02  0.7561462E-02  0.1334857E+00
         -3   -1    0    0    0  501 -0.00000000000E+00  0.00000000000E+00  0.44962373123E+03  0.44962373123E+03  0.00000000000E+00 0.  1.
          3   -1    0    0  501    0  0.00000000000E+00 -0.00000000000E+00 -0.37608995329E+02  0.37608995329E+02  0.00000000000E+00 0. -1.
          5    1    1    2  502    0 -0.35148857733E+02  0.90052232471E+01  0.31943761218E+03  0.32151889015E+03  0.41800000000E+01 0.  1.
         -5    1    1    2    0  502 -0.15790229876E+02 -0.20597069707E+02  0.88000448399E+00  0.26302422853E+02  0.41800000000E+01 0.  1.
        -11    1    1    2    0    0 -0.19999377585E+02  0.96387914614E+01 -0.15229853904E+01  0.22253109651E+02  0.00000000000E+00 0. -1.
         11    1    1    2    0    0  0.70938465194E+02  0.19530549989E+01  0.93220104623E+02  0.11715830390E+03  0.00000000000E+00 0.  1.
</event>
<event>
 6    1  0.8989754E-006  0.1065964E+03  0.7561462E-02  0.1267006E+00
         -3   -1    0    0    0  501 -0.00000000000E+00  0.00000000000E+00  0.32540437821E+02  0.32540437821E+02  0.00000000000E+00 0.  1.
          3   -1    0    0  501    0  0.00000000000E+00 -0.00000000000E+00 -0.44999983855E+03  0.44999983855E+03  0.00000000000E+00 0. -1.
          5    1    1    2  502    0 -0.14326039300E+01 -0.74596453460E+02 -0.72325996351E+02  0.10399617960E+03  0.41800000000E+01 0.  1.
         -5    1    1    2    0  502  0.30562585084E+02  0.43200774727E+02 -0.99948738061E+02  0.11317067281E+03  0.41800000000E+01 0.  1.
        -11    1    1    2    0    0  0.14620105681E+02  0.38387057198E+02 -0.19106853016E+03  0.19543412411E+03  0.00000000000E+00 0. -1.
         11    1    1    2    0    0 -0.43750086836E+02 -0.69913784648E+01 -0.54116136159E+02  0.69939299852E+02  0.00000000000E+00 0.  1.
</event>
<event>
 6    1  0.8989754E-006  0.8729197E+02  0.7561462E-02  0.1309545E+00
         -2   -1    0    0    0  501 -0.00000000000E+00  0.00000000000E+00  0.30170633372E+03  0.30170633372E+03  0.00000000000E+00 0.  1.
          2   -1    0    0  501    0  0.00000000000E+00 -0.00000000000E+00 -0.58077408868E+02  0.58077408868E+02  0.00000000000E+00 0. -1.
          5    1    1    2  502    0  0.51142859595E+02 -0.44957372217E+02  0.51811678940E+02  0.85666095270E+02  0.41800000000E+01 0.  1.
         -5    1    1    2    0  502 -0.20005270962E+02  0.20082718818E+02  0.16751741380E+03  0.16995023621E+03  0.41800000000E+01 0.  1.
        -11    1    1    2    0    0 -0.50978641104E+02  0.78790948832E+01  0.46829187916E+02  0.69669755459E+02  0.00000000000E+00 0.  1.
         11    1    1    2    0    0  0.19841052472E+02  0.16995558516E+02 -0.22529355803E+02  0.34497655650E+02  0.00000000000E+00 0. -1.
</event>
<event>
 6    1  0.8989754E-006  0.1234255E+03  0.7561462E-02  0.1237551E+00
         -1   -1    0    0    0  501 -0.00000000000E+00  0.00000000000E+00  0.49763507462E+02  0.49763507462E+02  0.00000000000E+00 0.  1.
          1   -1    0    0  501    0  0.00000000000E+00 -0.00000000000E+00 -0.40170626162E+03  0.40170626162E+03  0.00000000000E+00 0. -1.
          5    1    1    2  502    0 -0.29860062401E+02 -0.72621027569E+02 -0.90394719638E+02  0.11980865874E+03  0.41800000000E+01 0.  1.
         -5    1    1    2    0  502 -0.56907997648E+02  0.49217103577E+02 -0.81401034586E+02  0.11092539976E+03  0.41800000000E+01 0.  1.
        -11    1    1    2    0    0  0.91569025417E+01  0.10928246884E+02  0.83375205840E+01  0.16516346255E+02  0.00000000000E+00 0.  1.
         11    1    1    2    0    0  0.77611157507E+02  0.12475677108E+02 -0.18848452052E+03  0.20421936432E+03  0.00000000000E+00 0. -1.
</event>
<event>
 6    1  0.8989754E-006  0.1006225E+03  0.7561462E-02  0.1278992E+00
         -2   -1    0    0    0  501 -0.00000000000E+00  0.00000000000E+00  0.11881350653E+02  0.11881350653E+02  0.00000000000E+00 0. -1.
          2   -1    0    0  501    0  0.00000000000E+00 -0.00000000000E+00 -0.11939638360E+04  0.11939638360E+04  0.00000000000E+00 0.  1.
          5    1    1    2  502    0  0.34453102907E+01 -0.34425602511E+02 -0.54051924982E+03  0.54164150884E+03  0.41800000000E+01 0. -1.
         -5    1    1    2    0  502 -0.59652879308E+02  0.27682110274E+02 -0.17638423163E+03  0.18829135617E+03  0.41800000000E+01 0. -1.
        -11    1    1    2    0    0  0.21116270670E+02  0.44315637528E+02 -0.22926048033E+03  0.23445711859E+03  0.00000000000E+00 0.  1.
         11    1    1    2    0    0  0.35091298347E+02 -0.37572145291E+02 -0.23591852354E+03  0.24145520303E+03  0.00000000000E+00 0. -1.
</event>
<event>
 6    1  0.8989754E-006  0.7105889E+02  0.7561462E-02  0.1356529E+00
          2   -1    0    0  501    0  0.00000000000E+00  0.00000000000E+00  0.14445064173E+03  0.14445064173E+03  0.00000000000E+00 0.  1.
         -2   -1    0    0    0  501 -0.00000000000E+00 -0.00000000000E+00 -0.95610915968E+02  0.95610915968E+02  0.00000000000E+00 0. -1.
          5    1    1    2  502    0 -0.64960078656E+01 -0.18461532009E+02 -0.62108338068E+02  0.65252925910E+02  0.41800000000E+01 0. -1.
         -5    1    1    2    0  502  0.32050057018E+02  0.12595418911E+02  0.52487464832E+02  0.62914681091E+02  0.41800000000E+01 0. -1.
        -11    1    1    2    0    0  0.12387584200E+02  0.36567771989E+02  0.40819996526E+01  0.38824179473E+02  0.00000000000E+00 0. -1.
         11    1    1    2    0    0 -0.37941633352E+02 -0.30701658891E+02  0.54378599345E+02  0.73069771225E+02  0.00000000000E+00 0.  1.
</event>
<event>
 6    1  0.8989754E-006  0.1247722E+03  0.7561462E-02  0.1235426E+00
          1   -1    0    0  501    0  0.00000000000E+00  0.00000000000E+00  0.29867539420E+03  0.29867539420E+03  0.00000000000E+00 0. -1.
         -1   -1    0    0    0  501 -0.00000000000E+00 -0.00000000000E+00 -0.80540809460E+02  0.80540809460E+02  0.00000000000E+00 0.  1.
          5    1    1    2  502    0  0.80482749425E+01 -0.32253598378E+02  0.25018014507E+02  0.41814384938E+02  0.41800000000E+01 0.  1.
         -5    1    1    2    0  502 -0.84722488832E+02  0.78061056235E+02  0.91264548404E+01  0.11563819954E+03  0.41800000000E+01 0.  1.
        -11    1    1    2    0    0 -0.37270582436E+01 -0.13682259844E+02 -0.40501432997E+01  0.14747842498E+02  0.00000000000E+00 0.  1.
         11    1    1    2    0    0  0.80401272133E+02 -0.32125198013E+02  0.18804025869E+03  0.20701577669E+03  0.00000000000E+00 0. -1.
</event>
<event>
 6    1  0.8989754E-006  0.1531053E+03  0.7561462E-02  0.1196708E+00
         -2   -1    0    0    0  501 -0.00000000000E+00  0.00000000000E+00  0.45313283014E+03  0.45313283014E+03  0.00000000000E+00 0.  1.
          2   -1    0    0  501    0  0.00000000000E+00 -0.00000000000E+00 -0.69377760519E+02  0.69377760519E+02  0.00000000000E+00 0. -1.
          5    1    1    2  502    0 -0.68229659323E+01  0.10560328722E+03  0.66982391856E+02  0.12531049579E+03  0.41800000000E+01 0.  1.
         -5    1    1    2    0  502  0.22288172852E+02  0.30480056428E+02  0.17779075482E+03  0.18180434920E+03  0.41800000000E+01 0.  1.
        -11    1    1    2    0    0  0.36502939068E+02 -0.55880553882E+02  0.40035528789E+02  0.77832797895E+02  0.00000000000E+00 0.  1.
         11    1    1    2    0    0 -0.51968145987E+02 -0.80202789769E+02  0.98946394161E+02  0.13756294778E+03  0.00000000000E+00 0. -1.
</event>
<event>
 6    1  0.8989754E-006  0.9801543E+02  0.7561462E-02  0.1284525E+00
          3   -1    0    0  501    0  0.00000000000E+00  0.00000000000E+00  0.34866395056E+03  0.34866395056E+03  0.00000000000E+00 0. -1.
         -3   -1    0    0    0  501 -0.00000000000E+00 -0.00000000000E+00 -0.44863861729E+02  0.44863861729E+02  0.00000000000E+00 0.  1.
          5    1    1    2  502    0 -0.40086591648E+02  0.25175839631E+02  0.85185154185E+02  0.97543531947E+02  0.41800000000E+01 0. -1.
         -5    1    1    2    0  502  0.20527984609E+02 -0.62595730302E+02  0.13720524546E+02  0.67419201997E+02  0.41800000000E+01 0. -1.
        -11    1    1    2    0    0 -0.31013272034E+01 -0.20277931074E+02  0.77899646855E+01  0.21943023239E+02  0.00000000000E+00 0.  1.
         11    1    1    2    0    0  0.22659934243E+02  0.57697821744E+02  0.19710444541E+03  0.20662205510E+03  0.00000000000E+00 0. -1.
</event>
<event>
 6    1  0.8989754E-006  0.1306953E+03  0.7561462E-02  0.1226428E+00
         -4   -1    0    0    0  501 -0.00000000000E+00  0.00000000000E+00  0.69982326316E+02  0.69982326316E+02  0.00000000000E+00 0.  1.
          4   -1    0    0  501    0  0.00000000000E+00 -0.00000000000E+00 -0.25433745708E+03  0.25433745708E+03  0.00000000000E+00 0. -1.
          5    1    1    2  502    0 -0.13401327470E+02 -0.42458124583E+02 -0.13765308770E+02  0.46789358263E+02  0.41800000000E+01 0.  1.
         -5    1    1    2    0  502  0.90605453067E+02  0.42815550591E+02 -0.71310475368E+02  0.12306573770E+03  0.41800000000E+01 0.  1.
        -11    1    1    2    0    0  0.19550435034E+02 -0.15364863320E+01 -0.28430777300E+02  0.34538230964E+02  0.00000000000E+00 0. -1.
         11    1    1    2    0    0 -0.96754560631E+02  0.11790603245E+01 -0.70848569322E+02  0.11992645647E+03  0.00000000000E+00 0.  1.
</event>
<event>
 6    1  0.8989754E-006  0.1242207E+03  0.7561462E-02  0.1236292E+00
          1   -1    0    0  501    0  0.00000000000E+00  0.00000000000E+00  0.53956992871E+03  0.53956992871E+03  0.00000000000E+00 0. -1.
         -1   -1    0    0    0  501 -0.00000000000E+00 -0.00000000000E+00 -0.47530724241E+02  0.47530724241E+02  0.00000000000E+00 0.  1.
          5    1    1    2  502    0 -0.35821269677E+02  0.15042277999E+02  0.96263927218E+02  0.10389249045E+03  0.41800000000E+01 0.  1.
         -5    1    1    2    0  502 -0.16205171140E+02 -0.94848822255E+02  0.40435227335E+02  0.10445758309E+03  0.41800000000E+01 0.  1.
        -11    1    1    2    0    0  0.57799236936E+02  0.34361975148E+02  0.10813516793E+03  0.12733700040E+03  0.00000000000E+00 0.  1.
         11    1    1    2    0    0 -0.57727961194E+01  0.45444569108E+02  0.24720488199E+03  0.25141357902E+03  0.00000000000E+00 0. -1.
</event>
<event>
 6    1  0.8989754E-006  0.8727832E+02  0.7561462E-02  0.1309580E+00
          1   -1    0    0  501    0  0.00000000000E+00  0.00000000000E+00  0.32658182546E+02  0.32658182546E+02  0.00000000000E+00 0. -1.
         -1   -1    0    0    0  501 -0.00000000000E+00 -0.00000000000E+00 -0.45617768492E+03  0.45617768492E+03  0.00000000000E+00 0.  1.
          5    1    1    2  502    0  0.48975914383E+02  0.40161150487E+02 -0.69851755167E+02  0.94383781965E+02  0.41800000000E+01 0. -1.
         -5    1    1    2    0  502 -0.33549348460E+02 -0.21356623986E+01 -0.23853314760E+03  0.24092665843E+03  0.41800000000E+01 0. -1.
        -11    1    1    2    0    0 -0.21265967853E+02 -0.55152686951E+02 -0.12086439218E+03  0.13454464524E+03  0.00000000000E+00 0.  1.
         11    1    1    2    0    0  0.58394019295E+01  0.17127198863E+02  0.57297925785E+01  0.18980781827E+02  0.00000000000E+00 0. -1.
</event>
<event>
 6    1  0.8989754E-006  0.1319792E+03  0.7561462E-02  0.1224548E+00
         -1   -1    0    0    0  501 -0.00000000000E+00  0.00000000000E+00  0.25862255734E+02  0.25862255734E+02  0.00000000000E+00 0.  1.
          1   -1    0    0  501    0  0.00000000000E+00 -0.00000000000E+00 -0.84552811841E+03  0.84552811841E+03  0.00000000000E+00 0. -1.
          5    1    1    2  502    0 -0.69645671281E+02 -0.22935248923E+02 -0.30069227711E+03  0.30953168349E+03  0.41800000000E+01 0. -1.
         -5    1    1    2    0  502 -0.21642651997E+02  0.54710570202E+02 -0.59288126996E+02  0.83631365407E+02  0.41800000000E+01 0. -1.
        -11    1    1    2    0    0  0.62544500593E+02 -0.63218384500E+02 -0.29423562037E+03  0.30738083706E+03  0.00000000000E+00 0.  1.
         11    1    1    2    0    0  0.28743822684E+02  0.31443063221E+02 -0.16544983820E+03  0.17084648819E+03  0.00000000000E+00 0. -1.
</event>
<event>
 6    1  0.8989754E-006  0.1393251E+03  0.7561462E-02  0.1214240E+00
         -1   -1    0    0    0  501 -0.00000000000E+00  0.00000000000E+00  0.38805332554E+03  0.38805332554E+03  0.00000000000E+00 0.  1.
          1   -1    0    0  501    0  0.00000000000E+00 -0.00000000000E+00 -0.60572721789E+02  0.60572721789E+02  0.00000000000E+00 0. -1.
          5    1    1    2  502    0  0.11795025828E+02  0.19311753808E+02  0.86654685570E+02  0.89658091663E+02  0.41800000000E+01 0. -1.
         -5    1    1    2    0  502 -0.81917915477E+02 -0.96377966916E+02  0.13102106865E+03  0.18216270259E+03  0.41800000000E+01 0. -1.
        -11    1    1    2    0    0  0.71618847125E+02  0.23328098887E+02  0.94626325593E+02  0.12094461938E+03  0.00000000000E+00 0.  1.
         11    1    1    2    0    0 -0.14959574768E+01  0.53738114221E+02  0.15178523939E+02  0.55860633703E+02  0.00000000000E+00 0. -1.
</event>
<event>
 6    1  0.8989754E-006  0.9952140E+02  0.7561462E-02  0.1281306E+00
         -1   -1    0    0    0  501 -0.00000000000E+00  0.00000000000E+00  0.71201924394E+02  0.71201924394E+02  0.00000000000E+00 0.  1.
          1   -1    0    0  501    0  0.00000000000E+00 -0.00000000000E+00 -0.19975805162E+03  0.19975805162E+03  0.00000000000E+00 0. -1.
          5    1    1    2  502    0  0.12654376475E+02  0.26157853943E+02 -0.53974475004E+02  0.61441703417E+02  0.41800000000E+01 0.  1.
         -5    1    1    2    0  502 -0.33282085381E+02 -0.76657249677E+02  0.43098181924E+01  0.83785906143E+02  0.41800000000E+01 0.  1.
        -11    1    1    2    0    0  0.41232513972E+02  0.50769871956E+02 -0.28601867825E+02  0.71384640855E+02  0.00000000000E+00 0.  1.
         11    1    1    2    0    0 -0.20604805066E+02 -0.27047622215E+00 -0.50289602590E+02  0.54347725599E+02  0.00000000000E+00 0. -1.
</event>
<event>
 6    1  0.8989754E-006  0.1655823E+03  0.7561462E-02  0.1182535E+00
         -1   -1    0    0    0  501 -0.00000000000E+00  0.00000000000E+00  0.69286475965E+02  0.69286475965E+02  0.00000000000E+00 0.  1.
          1   -1    0    0  501    0  0.00000000000E+00 -0.00000000000E+00 -0.46514273333E+03  0.46514273333E+03  0.00000000000E+00 0. -1.
          5    1    1    2  502    0  0.80990747938E+02 -0.76896299449E+01 -0.14728299214E+03  0.16831037946E+03  0.41800000000E+01 0.  1.
         -5    1    1    2    0  502  0.27594900912E+02 -0.77031474876E+02 -0.26036366664E+02  0.85969130896E+02  0.41800000000E+01 0.  1.
        -11    1    1    2    0    0  0.92539216228E+01  0.41080360125E+02 -0.36953002995E+02  0.56024597132E+02  0.00000000000E+00 0.  1.
         11    1    1    2    0    0 -0.11783957047E+03  0.43640744696E+02 -0.18558389556E+03  0.22412510180E+03  0.00000000000E+00 0. -1.
</event>
<event>
 6    1  0.8989754E-006  0.1518484E+03  0.7561462E-02  0.1198220E+00
         -1   -1    0    0    0  501 -0.00000000000E+00  0.00000000000E+00  0.79072267996E+02  0.79072267996E+02  0.00000000000E+00 0.  1.
          1   -1    0    0  501    0  0.00000000000E+00 -0.00000000000E+00 -0.33173399777E+03  0.33173399777E+03  0.00000000000E+00 0. -1.
          5    1    1    2  502    0 -0.23807738823E+02 -0.12318454207E+02 -0.35404678878E+02  0.44603995655E+02  0.41800000000E+01 0.  1.
         -5    1    1    2    0  502  0.13981752275E+03 -0.54329390871E+01 -0.67135604447E+02  0.15525178994E+03  0.41800000000E+01 0.  1.
        -11    1    1    2    0    0 -0.80506803727E+02  0.44631538887E+02 -0.58462319893E+02  0.10904660727E+03  0.00000000000E+00 0.  1.
         11    1    1    2    0    0 -0.35502980204E+02 -0.26880145593E+02 -0.91659126551E+02  0.10190387289E+03  0.00000000000E+00 0. -1.
</event>
<event>
 6    1  0.8989754E-006  0.8364598E+02  0.7561462E-02  0.1319012E+00
         -2   -1    0    0    0  501 -0.00000000000E+00  0.00000000000E+00  0.99174920969E+03  0.99174920969E+03  0.00000000000E+00 0.  1.
          2   -1    0    0  501    0  0.00000000000E+00 -0.00000000000E+00 -0.20551445959E+02  0.20551445959E+02  0.00000000000E+00 0. -1.
          5    1    1    2  502    0  0.38859300394E+02 -0.54007450332E+02  0.26640697133E+03  0.27462155176E+03  0.41800000000E+01 0. -1.
         -5    1    1    2    0  502 -0.38282825225E+01  0.48264142939E+02  0.54224566804E+03  0.54441888298E+03  0.41800000000E+01 0. -1.
        -11    1    1    2    0    0 -0.34733077408E+02  0.18443834364E+02  0.17262198508E+03  0.17704494183E+03  0.00000000000E+00 0.  1.
         11    1    1    2    0    0 -0.29794046370E+00 -0.12700526971E+02 -0.10076860717E+02  0.16215279084E+02  0.00000000000E+00 0. -1.
</event>
<event>
 6    1  0.8989754E-006  0.8323185E+02  0.7561462E-02  0.1320122E+00
          1   -1    0    0  501    0  0.00000000000E+00  0.00000000000E+00  0.65163503987E+03  0.65163503987E+03  0.00000000000E+00 0. -1.
         -1   -1    0    0    0  501 -0.00000000000E+00 -0.00000000000E+00 -0.18993787745E+02  0.18993787745E+02  0.00000000000E+00 0.  1.
          5    1    1    2  502    0 -0.29510586408E+02  0.26391408761E+01  0.18565818055E+02  0.35213658924E+02  0.41800000000E+01 0. -1.
         -5    1    1    2    0  502  0.53940918227E+02 -0.26808063073E+01  0.36447999820E+03  0.36848331152E+03  0.41800000000E+01 0. -1.
        -11    1    1    2    0    0 -0.40454705630E+02  0.28657022292E+02  0.79408847699E+02  0.93613958506E+02  0.00000000000E+00 0.  1.
         11    1    1    2    0    0  0.16024373811E+02 -0.28615356861E+02  0.17018658817E+03  0.17331789867E+03  0.00000000000E+00 0. -1.
</event>
<event>
 6    1  0.8989754E-006  0.1208775E+03  0.7561462E-02  0.1241656E+00
         -2   -1    0    0    0  501 -0.00000000000E+00  0.00000000000E+00  0.15114512907E+02  0.15114512907E+02  0.00000000000E+00 0.  1.
          2   -1    0    0  501    0  0.00000000000E+00 -0.00000000000E+00 -0.11664204903E+04  0.11664204903E+04  0.00000000000E+00 0. -1.
          5    1    1    2  502    0 -0.35777571979E+02 -0.28163333749E+02 -0.42808282087E+03  0.43051780677E+03  0.41800000000E+01 0. -1.
         -5    1    1    2    0  502  0.79328886873E+02 -0.31696569189E+02 -0.30122254822E+03  0.31312975066E+03  0.41800000000E+01 0. -1.
        -11    1    1    2    0    0 -0.57477658151E+01 -0.20716117197E+02 -0.37550819761E+02  0.43269601204E+02  0.00000000000E+00 0.  1.
         11    1    1    2    0    0 -0.37803549079E+02  0.80576020136E+02 -0.38444978850E+03  0.39461784453E+03  0.00000000000E+00 0. -1.
</event>
<event>
 6    1  0.8989754E-006  0.1052510E+03  0.7561462E-02  0.1269626E+00
          2   -1    0    0  501    0  0.00000000000E+00  0.00000000000E+00  0.11920052550E+03  0.11920052550E+03  0.00000000000E+00 0. -1.
         -2   -1    0    0    0  501 -0.00000000000E+00 -0.00000000000E+00 -0.11358082061E+03  0.11358082061E+03  0.00000000000E+00 0.  1.
          5    1    1    2  502    0  0.54277989504E+02 -0.11970133800E+02  0.68963369867E+01  0.56164188872E+02  0.41800000000E+01 0. -1.
         -5    1    1    2    0  502 -0.54297922000E+02  0.29928485005E+02 -0.41967563031E+02  0.74984847102E+02  0.41800000000E+01 0. -1.
        -11    1    1    2    0    0 -0.44030036271E+02  0.23997954323E+01  0.24680847333E+02  0.50532636358E+02  0.00000000000E+00 0.  1.
         11    1    1    2    0    0  0.44049968767E+02 -0.20358146637E+02  0.16010083601E+02  0.51099673774E+02  0.00000000000E+00 0. -1.
</event>
<event>
 6    1  0.8989754E-006  0.1645392E+03  0.7561462E-02  0.1183665E+00
          3   -1    0    0  501    0  0.00000000000E+00  0.00000000000E+00  0.12637602607E+03  0.12637602607E+03  0.00000000000E+00 0. -1.
         -3   -1    0    0    0  501 -0.00000000000E+00 -0.00000000000E+00 -0.34025925034E+03  0.34025925034E+03  0.00000000000E+00 0.  1.
          5    1    1    2  502    0  0.91546151728E+02  0.51299191586E+02 -0.57584735145E+02  0.11977386641E+03  0.41800000000E+01 0.  1.
         -5    1    1    2    0  502  0.50033762286E+02 -0.19556096108E+02 -0.16669669142E+03  0.17518869140E+03  0.41800000000E+01 0.  1.
        -11    1    1    2    0    0 -0.15395527775E+03 -0.33817032201E+02  0.42098527749E+01  0.15768177471E+03  0.00000000000E+00 0.  1.
         11    1    1    2    0    0  0.12375363737E+02  0.20739367224E+01  0.61883495235E+01  0.13990943891E+02  0.00000000000E+00 0. -1.
</event>
<event>
 6    1  0.8989754E-006  0.8499516E+02  0.7561462E-02  0.1315445E+00
         -1   -1    0    0    0  501 -0.00000000000E+00  0.00000000000E+00  0.81350584023E+02  0.81350584023E+02  0.00000000000E+00 0.  1.
          1   -1    0    0  501    0  0.00000000000E+00 -0.00000000000E+00 -0.26592212170E+03  0.26592212170E+03  0.00000000000E+00 0. -1.
          5    1    1    2  502    0 -0.16249053419E+02  0.74389702511E+02 -0.42004842098E+02  0.87061695000E+02  0.41800000000E+01 0. -1.
         -5    1    1    2    0  502  0.23710216797E+02 -0.19208100510E+02  0.39247692130E+02  0.49889670707E+02  0.41800000000E+01 0. -1.
        -11    1    1    2    0    0  0.11059226240E+02 -0.27358177156E+02 -0.44589300627E+01  0.29843900543E+02  0.00000000000E+00 0.  1.
         11    1    1    2    0    0 -0.18520389618E+02 -0.27823424844E+02 -0.17735545764E+03  0.18047743947E+03  0.00000000000E+00 0. -1.
</event>
<event>
 6    1  0.8989754E-006  0.8718195E+02  0.7561462E-02  0.1309823E+00
          2   -1    0    0  501    0  0.00000000000E+00  0.00000000000E+00  0.10574783980E+03  0.10574783980E+03  0.00000000000E+00 0. -1.
         -2   -1    0    0    0  501 -0.00000000000E+00 -0.00000000000E+00 -0.15488250569E+03  0.15488250569E+03  0.00000000000E+00 0.  1.
          5    1    1    2  502    0 -0.15652043857E+02  0.80007028625E+00  0.39137695607E+02  0.42365766921E+02  0.41800000000E+01 0.  1.
         -5    1    1    2    0  502  0.81204868296E+02 -0.69200991973E+01 -0.58281452439E+02  0.10028119717E+03  0.41800000000E+01 0.  1.
        -11    1    1    2    0    0 -0.58007156037E+02 -0.98843560323E+01  0.22186881940E+02  0.62887108185E+02  0.00000000000E+00 0. -1.
         11    1    1    2    0    0 -0.75456684023E+01  0.16004384943E+02 -0.52177790991E+02  0.55096273212E+02  0.00000000000E+00 0.  1.
</event>
<event>
 6    1  0.8989754E-006  0.1020210E+03  0.7561462E-02  0.1276103E+00
         -2   -1    0    0    0  501 -0.00000000000E+00  0.00000000000E+00  0.36067294211E+03  0.36067294211E+03  0.00000000000E+00 0.  1.
          2   -1    0    0  501    0  0.00000000000E+00 -0.00000000000E+00 -0.39959163157E+02  0.39959163157E+02  0.00000000000E+00 0. -1.
          5    1    1    2  502    0  0.52849907747E+01 -0.45074764404E+02  0.72543644744E+02  0.85672155957E+02  0.41800000000E+01 0.  1.
         -5    1    1    2    0  502  0.18313607478E+02  0.86072393775E+02  0.13113636234E+03  0.15798121128E+03  0.41800000000E+01 0.  1.
        -11    1    1    2    0    0  0.13748211376E+02 -0.27340158936E+02 -0.27896465105E+01  0.30729134942E+02  0.00000000000E+00 0. -1.
         11    1    1    2    0    0 -0.37346809628E+02 -0.13657470436E+02  0.11982341838E+03  0.12624960309E+03  0.00000000000E+00 0.  1.
</event>
<event>
 6    1  0.8989754E-006  0.2172034E+03  0.7561462E-02  0.1135985E+00
          1   -1    0    0  501    0  0.00000000000E+00  0.00000000000E+00  0.66622898701E+02  0.66622898701E+02  0.00000000000E+00 0.  1.
         -1   -1    0    0    0  501 -0.00000000000E+00 -0.00000000000E+00 -0.85080678834E+03  0.85080678834E+03  0.00000000000E+00 0. -1.
          5    1    1    2  502    0  0.10053129473E+03 -0.75186932934E+02 -0.31903427466E+03  0.34287017501E+03  0.41800000000E+01 0. -1.
         -5    1    1    2    0  502  0.92926512524E+02  0.50525678422E+02 -0.24373456449E+03  0.26572954529E+03  0.41800000000E+01 0. -1.
        -11    1    1    2    0    0 -0.88262034752E+02 -0.16845035670E+02 -0.48199421397E+02  0.10196629947E+03  0.00000000000E+00 0.  1.
         11    1    1    2    0    0 -0.10519577250E+03  0.41506290182E+02 -0.17321562909E+03  0.20686366727E+03  0.00000000000E+00 0. -1.
</event>
<event>
 6    1  0.8989754E-006  0.1647546E+03  0.7561462E-02  0.1183431E+00
          3   -1    0    0  501    0  0.00000000000E+00  0.00000000000E+00  0.70063544036E+03  0.70063544036E+03  0.00000000000E+00 0. -1.
         -3   -1    0    0    0  501 -0.00000000000E+00 -0.00000000000E+00 -0.58829741009E+02  0.58829741009E+02  0.00000000000E+00 0.  1.
          5    1    1    2  502    0  0.11469511156E+03 -0.34597654546E+01  0.17172111968E+03  0.20657336212E+03  0.41800000000E+01 0. -1.
         -5    1    1    2    0  502  0.26604336978E+02  0.38507024745E+02 -0.55325860078E+01  0.47314517948E+02  0.41800000000E+01 0. -1.
        -11    1    1    2    0    0 -0.64174335683E+02 -0.58755704554E+02  0.29899077178E+03  0.31139373756E+03  0.00000000000E+00 0.  1.
         11    1    1    2    0    0 -0.77125112852E+02  0.23708445264E+02  0.17662639390E+03  0.19418356375E+03  0.00000000000E+00 0. -1.
</event>
<event>
 6    1  0.8989754E-006  0.1196491E+03  0.7561462E-02  0.1243677E+00
          2   -1    0    0  501    0  0.00000000000E+00  0.00000000000E+00  0.55813733049E+03  0.55813733049E+03  0.00000000000E+00 0. -1.
         -2   -1    0    0    0  501 -0.00000000000E+00 -0.00000000000E+00 -0.30353823475E+02  0.30353823475E+02  0.00000000000E+00 0.  1.
          5    1    1    2  502    0 -0.90636877352E+02  0.13662462174E+02  0.20480969465E+03  0.22442412934E+03  0.41800000000E+01 0.  1.
         -5    1    1    2    0  502  0.34074679022E+02  0.24058133711E+02  0.35677286981E+02  0.55047422777E+02  0.41800000000E+01 0.  1.
        -11    1    1    2    0    0  0.67264101577E+02 -0.89267146984E+00  0.12184550480E+03  0.13918183525E+03  0.00000000000E+00 0.  1.
         11    1    1    2    0    0 -0.10701903246E+02 -0.36827924415E+02  0.16545102059E+03  0.16983776660E+03  0.00000000000E+00 0. -1.
</event>
<event>
 6    1  0.8989754E-006  0.1872586E+03  0.7561462E-02  0.1160957E+00
         -3   -1    0    0    0  501 -0.00000000000E+00  0.00000000000E+00  0.56906371610E+03  0.56906371610E+03  0.00000000000E+00 0.  1.
          3   -1    0    0  501    0  0.00000000000E+00 -0.00000000000E+00 -0.84207329289E+02  0.84207329289E+02  0.00000000000E+00 0. -1.
          5    1    1    2  502    0  0.17826880274E+02  0.81661132649E+01 -0.76837310062E+01  0.21470798502E+02  0.41800000000E+01 0. -1.
         -5    1    1    2    0  502  0.83663291727E+02  0.14606187871E+03  0.33002077272E+03  0.37049264719E+03  0.41800000000E+01 0. -1.
        -11    1    1    2    0    0 -0.43336738785E+01 -0.19556882383E+02  0.66576280279E+02  0.69524481110E+02  0.00000000000E+00 0.  1.
         11    1    1    2    0    0 -0.97156498122E+02 -0.13467110960E+03  0.95943064817E+02  0.19178311858E+03  0.00000000000E+00 0. -1.
</event>
<event>
 6    1  0.8989754E-006  0.1237320E+03  0.7561462E-02  0.1237064E+00
          2   -1    0    0  501    0  0.00000000000E+00  0.00000000000E+00  0.70562099826E+02  0.70562099826E+02  0.00000000000E+00 0. -1.
         -2   -1    0    0    0  501 -0.00000000000E+00 -0.00000000000E+00 -0.31307125757E+03  0.31307125757E+03  0.00000000000E+00 0.  1.
          5    1    1    2  502    0 -0.78730070902E+02  0.32307836327E+02 -0.17373070038E+03  0.19349948064E+03  0.41800000000E+01 0. -1.
         -5    1    1    2    0  502 -0.17273754549E+02 -0.35311970711E+02  0.21004076823E+01  0.39587901992E+02  0.41800000000E+01 0. -1.
        -11    1    1    2    0    0 -0.10906522557E+02 -0.10289573421E+02 -0.33173278079E+02  0.36404586716E+02  0.00000000000E+00 0.  1.
         11    1    1    2    0    0  0.10691034801E+03  0.13293707805E+02 -0.37705586974E+02  0.11414138806E+03  0.00000000000E+00 0. -1.
</event>
<event>
 6    1  0.8989754E-006  0.1221471E+03  0.7561462E-02  0.1239597E+00
         -2   -1    0    0    0  501 -0.00000000000E+00  0.00000000000E+00  0.31691540249E+02  0.31691540249E+02  0.00000000000E+00 0.  1.
          2   -1    0    0  501    0  0.00000000000E+00 -0.00000000000E+00 -0.51394502893E+03  0.51394502893E+03  0.00000000000E+00 0. -1.
          5    1    1    2  502    0  0.43976786728E+02 -0.35673083765E+02 -0.12195681061E+03  0.13452681045E+03  0.41800000000E+01 0. -1.
         -5    1    1    2    0  502 -0.82124499037E+02 -0.17195224458E+02 -0.15666020461E+03  0.17776389171E+03  0.41800000000E+01 0. -1.
        -11    1    1    2    0    0  0.26453677890E+02  0.74421466852E+02 -0.18887469723E+03  0.20472421218E+03  0.00000000000E+00 0.  1.
         11    1    1    2    0    0  0.11694034418E+02 -0.21553158629E+02 -0.14761776231E+02  0.28621654832E+02  0.00000000000E+00 0. -1.
</event>
<event>
 6    1  0.8989754E-006  0.7972635E+02  0.7561462E-02  0.1329830E+00
         -2   -1    0    0    0  501 -0.00000000000E+00  0.00000000000E+00  0.11104459871E+03  0.11104459871E+03  0.00000000000E+00 0.  1.
          2   -1    0    0  501    0  0.00000000000E+00 -0.00000000000E+00 -0.10518430840E+03  0.10518430840E+03  0.00000000000E+00 0. -1.
          5    1    1    2  502    0 -0.63116096227E+02  0.29465721276E+01 -0.19539414297E+02  0.66269035011E+02  0.41800000000E+01 0. -1.
         -5    1    1    2    0  502  0.57994483569E+02  0.66849358009E+00  0.11354794072E+02  0.59247031626E+02  0.41800000000E+01 0. -1.
        -11    1    1    2    0    0 -0.10513192148E-01  0.16866351637E+02  0.47916924123E+02  0.50798676611E+02  0.00000000000E+00 0.  1.
         11    1    1    2    0    0  0.51321258500E+01 -0.20481417345E+02 -0.33872013585E+02  0.39914163859E+02  0.00000000000E+00 0. -1.
</event>
<event>
 6    1  0.8989754E-006  0.1206410E+03  0.7561462E-02  0.1242043E+00
          2   -1    0    0  501    0  0.00000000000E+00  0.00000000000E+00  0.73257312269E+03  0.73257312269E+03  0.00000000000E+00 0. -1.
         -2   -1    0    0    0  501 -0.00000000000E+00 -0.00000000000E+00 -0.23647239654E+02  0.23647239654E+02  0.00000000000E+00 0.  1.
          5    1    1    2  502    0 -0.29670111552E+02  0.23217603340E+02  0.54874887988E+02  0.66694065374E+02  0.41800000000E+01 0.  1.
         -5    1    1    2    0  502  0.96951957334E+02  0.14713423840E+02  0.37460423966E+03  0.38724924227E+03  0.41800000000E+01 0.  1.
        -11    1    1    2    0    0  0.12871554299E+02 -0.18861036704E+02  0.12655795854E+03  0.12860144823E+03  0.00000000000E+00 0. -1.
         11    1    1    2    0    0 -0.80153400081E+02 -0.19069990476E+02  0.15288879685E+03  0.17367560647E+03  0.00000000000E+00 0.  1.
</event>
<event>
 6    1  0.8989754E-006  0.1013137E+03  0.7561462E-02  0.1277557E+00
         -2   -1    0    0    0  501 -0.00000000000E+00  0.00000000000E+00  0.45731287007E+02  0.45731287007E+02  0.00000000000E+00 0.  1.
          2   -1    0    0  501    0  0.00000000000E+00 -0.00000000000E+00 -0.37528544556E+03  0.37528544556E+03  0.00000000000E+00 0. -1.
          5    1    1    2  502    0 -0.35892949918E+02  0.60015213320E+02 -0.22193987089E+02  0.73485883995E+02  0.41800000000E+01 0.  1.
         -5    1    1    2    0  502 -0.22494618405E+02 -0.56967915494E+01 -0.15880569741E+03  0.16054651419E+03  0.41800000000E+01 0.  1.
        -11    1    1    2    0    0 -0.13298752540E+02 -0.30801234674E+02 -0.23595580170E+02  0.41016146578E+02  0.00000000000E+00 0.  1.
         11    1    1    2    0    0  0.71686320864E+02 -0.23517187097E+02 -0.12495889389E+03  0.14596818780E+03  0.00000000000E+00 0. -1.
</event>
<event>
 6    1  0.8989754E-006  0.1358939E+03  0.7561462E-02  0.1218963E+00
          3   -1    0    0  501    0  0.00000000000E+00  0.00000000000E+00  0.95015574670E+02  0.95015574670E+02  0.00000000000E+00 0. -1.
         -3   -1    0    0    0  501 -0.00000000000E+00 -0.00000000000E+00 -0.24573718382E+03  0.24573718382E+03  0.00000000000E+00 0.  1.
          5    1    1    2  502    0 -0.87007554404E+02  0.38587992451E+02  0.65827103123E+01  0.95499487747E+02  0.41800000000E+01 0. -1.
         -5    1    1    2    0  502  0.11645900475E+02  0.36629710056E+02 -0.71204986286E+02  0.81024595825E+02  0.41800000000E+01 0. -1.
        -11    1    1    2    0    0  0.18210703592E+02 -0.78521911667E+02 -0.36503192469E+02  0.88486176308E+02  0.00000000000E+00 0.  1.
         11    1    1    2    0    0  0.57150950337E+02  0.33042091598E+01 -0.49596140708E+02  0.75742498611E+02  0.00000000000E+00 0. -1.
</event>
<event>
 6    1  0.8989754E-006  0.1832379E+03  0.7561462E-02  0.1164706E+00
          1   -1    0    0  501    0  0.00000000000E+00  0.00000000000E+00  0.16970156693E+03  0.16970156693E+03  0.00000000000E+00 0. -1.
         -1   -1    0    0    0  501 -0.00000000000E+00 -0.00000000000E+00 -0.23397402720E+03  0.23397402720E+03  0.00000000000E+00 0.  1.
          5    1    1    2  502    0 -0.19180869191E+02  0.36938878697E+02 -0.24526818952E+02  0.48491481213E+02  0.41800000000E+01 0.  1.
         -5    1    1    2    0  502  0.14955334552E+03  0.42468749629E+02 -0.88770053815E+02  0.17907370747E+03  0.41800000000E+01 0.  1.
        -11    1    1    2    0    0 -0.11772751487E+03 -0.34809659938E+02  0.36996891396E+02  0.12821953890E+03  0.00000000000E+00 0.  1.
         11    1    1    2    0    0 -0.12644961460E+02 -0.44597968389E+02  0.12027521110E+02  0.47890866549E+02  0.00000000000E+00 0. -1.
</event>
<event>
 6    1  0.8989754E-006  0.1024800E+03  0.7561462E-02  0.1275166E+00
          2   -1    0    0  501    0  0.00000000000E+00  0.00000000000E+00  0.58988003137E+03  0.58988003137E+03  0.00000000000E+00 0. -1.
         -2   -1    0    0    0  501 -0.00000000000E+00 -0.00000000000E+00 -0.35843195512E+02  0.35843195512E+02  0.00000000000E+00 0.  1.
          5    1    1    2  502    0  0.46992675503E+02  0.14691333897E+02  0.15925342070E+03  0.16674312954E+03  0.41800000000E+01 0. -1.
         -5    1    1    2    0  502 -0.18350479987E+02  0.58214757788E+02  0.17719215679E+02  0.63695691726E+02  0.41800000000E+01 0. -1.
        -11    1    1    2    0    0  0.12660041391E+02 -0.38763499997E+02  0.53272467728E+02  0.67088310441E+02  0.00000000000E+00 0.  1.
         11    1    1    2    0    0 -0.41302236907E+02 -0.34142591688E+02  0.32379173175E+03  0.32819609518E+03  0.00000000000E+00 0. -1.
</event>
<event>
 6    1  0.8989754E-006  0.7290085E+02  0.7561462E-02  0.1350497E+00
         -2   -1    0    0    0  501 -0.00000000000E+00  0.00000000000E+00  0.13421940274E+02  0.13421940274E+02  0.00000000000E+00 0.  1.
          2   -1    0    0  501    0  0.00000000000E+00 -0.00000000000E+00 -0.48817504890E+03  0.48817504890E+03  0.00000000000E+00 0. -1.
          5    1    1    2  502    0  0.58603329210E+02 -0.15624390321E+02 -0.28231341944E+03  0.28878506015E+03  0.41800000000E+01 0. -1.
         -5    1    1    2    0  502 -0.44541661198E+02  0.16258977418E+02 -0.75921832603E+02  0.89609770643E+02  0.41800000000E+01 0.  1.
        -11    1    1    2    0    0  0.11622679723E+02 -0.14310498961E+01 -0.59784173603E+02  0.60920292195E+02  0.00000000000E+00 0. -1.
         11    1    1    2    0    0 -0.25684347735E+02  0.79646279952E+00 -0.56733682978E+02  0.62281866187E+02  0.00000000000E+00 0.  1.
</event>
<event>
 6    1  0.8989754E-006  0.1130004E+03  0.7561462E-02  0.1255112E+00
          2   -1    0    0  501    0  0.00000000000E+00  0.00000000000E+00  0.43707659927E+02  0.43707659927E+02  0.00000000000E+00 0. -1.
         -2   -1    0    0    0  501 -0.00000000000E+00 -0.00000000000E+00 -0.46556956057E+03  0.46556956057E+03  0.00000000000E+00 0.  1.
          5    1    1    2  502    0  0.34218775437E+02 -0.23016091737E+02 -0.13178709254E+03  0.13815200046E+03  0.41800000000E+01 0. -1.
         -5    1    1    2    0  502 -0.65385970905E+02  0.60119925360E+02 -0.23893763380E+03  0.25494782969E+03  0.41800000000E+01 0.  1.
        -11    1    1    2    0    0  0.58021936480E+02 -0.12819076702E+02 -0.53413533561E+02  0.79899182773E+02  0.00000000000E+00 0.  1.
         11    1    1    2    0    0 -0.26854741012E+02 -0.24284756921E+02  0.22763592563E+01  0.36278207577E+02  0.00000000000E+00 0. -1.
</event>
<event>
 6    1  0.8989754E-006  0.1010835E+03  0.7561462E-02  0.1278034E+00
          2   -1    0    0  501    0  0.00000000000E+00  0.00000000000E+00  0.32446403642E+03  0.32446403642E+03  0.00000000000E+00 0. -1.
         -2   -1    0    0    0  501 -0.00000000000E+00 -0.00000000000E+00 -0.52854568772E+02  0.52854568772E+02  0.00000000000E+00 0.  1.
          5    1    1    2  502    0  0.71228727489E+02 -0.28030028310E+01  0.86468739670E+02  0.11214144544E+03  0.41800000000E+01 0. -1.
         -5    1    1    2    0  502 -0.28042898194E+02  0.42590665429E+02  0.58365046050E+00  0.51168173396E+02  0.41800000000E+01 0. -1.
        -11    1    1    2    0    0 -0.10638640249E+02  0.13479584355E+02 -0.19972007400E+01  0.17287818588E+02  0.00000000000E+00 0.  1.
         11    1    1    2    0    0 -0.32547189045E+02 -0.53267246953E+02  0.18655427826E+03  0.19672116777E+03  0.00000000000E+00 0. -1.
</event>
<event>
 6    1  0.8989754E-006  0.9020178E+02  0.7561462E-02  0.1302364E+00
          3   -1    0    0  501    0  0.00000000000E+00  0.00000000000E+00  0.11429207683E+03  0.11429207683E+03  0.00000000000E+00 0. -1.
         -3   -1    0    0    0  501 -0.00000000000E+00 -0.00000000000E+00 -0.11508423465E+03  0.11508423465E+03  0.00000000000E+00 0.  1.
          5    1    1    2  502    0 -0.38418339709E+02 -0.10090890546E+02 -0.59197612347E+02  0.71411655951E+02  0.41800000000E+01 0. -1.
         -5    1    1    2    0  502  0.26035387838E+02  0.33776200266E+02  0.39175855194E+02  0.58059393335E+02  0.41800000000E+01 0. -1.
        -11    1    1    2    0    0  0.21040474130E+02 -0.58274345983E+02  0.16657115500E+02  0.64156530830E+02  0.00000000000E+00 0. -1.
         11    1    1    2    0    0 -0.86575222588E+01  0.34589036264E+02  0.25724838324E+01  0.35748731368E+02  0.00000000000E+00 0.  1.
</event>
<event>
 6    1  0.8989754E-006  0.9610831E+02  0.7561462E-02  0.1288699E+00
          2   -1    0    0  501    0  0.00000000000E+00  0.00000000000E+00  0.40999752803E+03  0.40999752803E+03  0.00000000000E+00 0. -1.
         -2   -1    0    0    0  501 -0.00000000000E+00 -0.00000000000E+00 -0.88346372016E+02  0.88346372016E+02  0.00000000000E+00 0.  1.
          5    1    1    2  502    0  0.10381812930E+02 -0.39984238101E+02  0.95776405051E+02  0.10438924035E+03  0.41800000000E+01 0. -1.
         -5    1    1    2    0  502  0.21236749018E+02 -0.24384993249E+02 -0.68991960884E+02  0.76308521616E+02  0.41800000000E+01 0.  1.
        -11    1    1    2    0    0 -0.36150958575E+01 -0.24576280943E+02  0.65042796747E+02  0.69624908702E+02  0.00000000000E+00 0.  1.
         11    1    1    2    0    0 -0.28003466091E+02  0.88945512293E+02  0.22982391510E+03  0.24802122938E+03  0.00000000000E+00 0. -1.
</event>
<event>
 6    1  0.8989754E-006  0.9729407E+02  0.7561462E-02  0.1286091E+00
         -2   -1    0    0    0  501 -0.00000000000E+00  0.00000000000E+00  0.16060595023E+03  0.16060595023E+03  0.00000000000E+00 0. -1.
          2   -1    0    0  501    0  0.00000000000E+00 -0.00000000000E+00 -0.91906192391E+02  0.91906192391E+02  0.00000000000E+00 0.  1.
          5    1    1    2  502    0 -0.98542816965E+01 -0.64853731045E+02  0.37091306341E+02  0.75474172432E+02  0.41800000000E+01 0.  1.
         -5    1    1    2    0  502  0.32152273201E+02  0.51908435770E+02  0.51005513549E+02  0.79669876292E+02  0.41800000000E+01 0.  1.
        -11    1    1    2    0    0 -0.39573986094E+02 -0.81330525366E+01 -0.44648773378E+02  0.60214283049E+02  0.00000000000E+00 0.  1.
         11    1    1    2    0    0  0.17275994590E+02  0.21078347811E+02  0.25251711326E+02  0.37153810846E+02  0.00000000000E+00 0. -1.
</event>
<event>
 6    1  0.8989754E-006  0.8978298E+02  0.7561462E-02  0.1303378E+00
         -1   -1    0    0    0  501 -0.00000000000E+00  0.00000000000E+00  0.64735172306E+03  0.64735172306E+03  0.00000000000E+00 0.  1.
          1   -1    0    0  501    0  0.00000000000E+00 -0.00000000000E+00 -0.23807686681E+02  0.23807686681E+02  0.00000000000E+00 0. -1.
          5    1    1    2  502    0  0.40829720429E+02  0.33069790659E+02  0.38807400127E+03  0.39163705135E+03  0.41800000000E+01 0. -1.
         -5    1    1    2    0  502  0.15899338811E+02 -0.29685490181E+02  0.21025388921E+02  0.39919377264E+02  0.41800000000E+01 0. -1.
        -11    1    1    2    0    0 -0.41246406274E+02  0.33361669985E+02  0.59977909303E+02  0.80072571203E+02  0.00000000000E+00 0.  1.
         11    1    1    2    0    0 -0.15482652965E+02 -0.36745970462E+02  0.15446673689E+03  0.15953040993E+03  0.00000000000E+00 0. -1.
</event>
<event>
 6    1  0.8989754E-006  0.2191893E+03  0.7561462E-02  0.1134489E+00
         -1   -1    0    0    0  501 -0.00000000000E+00  0.00000000000E+00  0.61624324183E+02  0.61624324183E+02  0.00000000000E+00 0.  1.
          1   -1    0    0  501    0  0.00000000000E+00 -0.00000000000E+00 -0.83929140386E+03  0.83929140386E+03  0.00000000000E+00 0. -1.
          5    1    1    2  502    0 -0.24441271210E+02  0.97231580597E+02 -0.10446947888E+03  0.14485406595E+03  0.41800000000E+01 0.  1.
         -5    1    1    2    0  502 -0.12368253636E+03  0.28299386339E+02 -0.20871358974E+03  0.24428888638E+03  0.41800000000E+01 0.  1.
        -11    1    1    2    0    0  0.67989406593E+01 -0.50738111422E+02 -0.75615557319E+02  0.91314259858E+02  0.00000000000E+00 0.  1.
         11    1    1    2    0    0  0.14132486691E+03 -0.74792855514E+02 -0.38886845373E+03  0.42045851585E+03  0.00000000000E+00 0. -1.
</event>
<event>
 6    1  0.8989754E-006  0.1234541E+03  0.7561462E-02  0.1237505E+00
         -1   -1    0    0    0  501 -0.00000000000E+00  0.00000000000E+00  0.12749641423E+04  0.12749641423E+04  0.00000000000E+00 0.  1.
          1   -1    0    0  501    0  0.00000000000E+00 -0.00000000000E+00 -0.59446240285E+02  0.59446240285E+02  0.00000000000E+00 0. -1.
          5    1    1    2  502    0  0.25463369056E+02 -0.22660785298E+02  0.63799693875E+02  0.72455280640E+02  0.41800000000E+01 0. -1.
         -5    1    1    2    0  502  0.83718119899E+02  0.43074374286E+01  0.11103927425E+04  0.11135604126E+04  0.41800000000E+01 0. -1.
        -11    1    1    2    0    0 -0.10411929592E+03  0.36083482644E+02  0.82200670717E+01  0.11050074663E+03  0.00000000000E+00 0.  1.
         11    1    1    2    0    0 -0.50621930333E+01 -0.17730134775E+02  0.33105398637E+02  0.37893942740E+02  0.00000000000E+00 0. -1.
</event>
<event>
 6    1  0.8989754E-006  0.1678949E+03  0.7561462E-02  0.1180061E+00
         -2   -1    0    0    0  501 -0.00000000000E+00  0.00000000000E+00  0.15980975308E+03  0.15980975308E+03  0.00000000000E+00 0.  1.
          2   -1    0    0  501    0  0.00000000000E+00 -0.00000000000E+00 -0.51550497405E+03  0.51550497405E+03  0.00000000000E+00 0. -1.
          5    1    1    2  502    0 -0.21971764178E+02 -0.37390391287E+02 -0.75228532738E+01  0.44213860984E+02  0.41800000000E+01 0. -1.
         -5    1    1    2    0  502 -0.12153700200E+03  0.43414108678E+02  0.92581781085E+02  0.15888639424E+03  0.41800000000E+01 0.  1.
        -11    1    1    2    0    0  0.46149628484E+02 -0.38876545316E+02 -0.10516607993E+03  0.12124800350E+03  0.00000000000E+00 0.  1.
         11    1    1    2    0    0  0.97359137691E+02  0.32852827926E+02 -0.33558806884E+03  0.35096646840E+03  0.00000000000E+00 0. -1.
</event>
<event>
 6    1  0.8989754E-006  0.1691236E+03  0.7561462E-02  0.1178765E+00
          2   -1    0    0  501    0  0.00000000000E+00  0.00000000000E+00  0.81220497981E+03  0.81220497981E+03  0.00000000000E+00 0. -1.
         -2   -1    0    0    0  501 -0.00000000000E+00 -0.00000000000E+00 -0.56571198852E+02  0.56571198852E+02  0.00000000000E+00 0.  1.
          5    1    1    2  502    0 -0.24735396668E+02  0.93170719532E+01 -0.11956566665E+02  0.29310059101E+02  0.41800000000E+01 0. -1.
         -5    1    1    2    0  502 -0.94299097122E+02 -0.10267800980E+03  0.19006567047E+03  0.23574885982E+03  0.41800000000E+01 0. -1.
        -11    1    1    2    0    0  0.12664971511E+03  0.64426806458E+02  0.51743334906E+03  0.53658944683E+03  0.00000000000E+00 0.  1.
         11    1    1    2    0    0 -0.76152213161E+01  0.28934131387E+02  0.60091328087E+02  0.67127812910E+02  0.00000000000E+00 0. -1.
</event>
<event>
 6    1  0.8989754E-006  0.2420235E+03  0.7561462E-02  0.1118452E+00
         -1   -1    0    0    0  501 -0.00000000000E+00  0.00000000000E+00  0.23115365904E+03  0.23115365904E+03  0.00000000000E+00 0.  1.
          1   -1    0    0  501    0  0.00000000000E+00 -0.00000000000E+00 -0.28810656849E+03  0.28810656849E+03  0.00000000000E+00 0. -1.
          5    1    1    2  502    0  0.13293809967E+03 -0.11396465855E+03  0.18031190981E+02  0.17607690930E+03  0.41800000000E+01 0.  1.
         -5    1    1    2    0  502  0.75321350588E+02  0.30446363828E+02  0.18301409974E+02  0.83382857542E+02  0.41800000000E+01 0.  1.
        -11    1    1    2    0    0 -0.99248571582E+02  0.19560020311E+02 -0.86720622278E+02  0.13324165897E+03  0.00000000000E+00 0. -1.
         11    1    1    2    0    0 -0.10901087867E+03  0.63958274412E+02 -0.65648881233E+01  0.12655880171E+03  0.00000000000E+00 0.  1.
</event>
<event>
 6    1  0.8989754E-006  0.2891089E+03  0.7561462E-02  0.1090815E+00
         -2   -1    0    0    0  501 -0.00000000000E+00  0.00000000000E+00  0.52205218788E+02  0.52205218788E+02  0.00000000000E+00 0. -1.
          2   -1    0    0  501    0  0.00000000000E+00 -0.00000000000E+00 -0.16723320546E+04  0.16723320546E+04  0.00000000000E+00 0.  1.
          5    1    1    2  502    0 -0.17100685431E+03  0.55053408270E+02 -0.54628823173E+03  0.57508479941E+03  0.41800000000E+01 0.  1.
         -5    1    1    2    0  502 -0.10210524333E+03 -0.64501334399E+02 -0.36470093441E+03  0.38420065957E+03  0.41800000000E+01 0.  1.
        -11    1    1    2    0    0  0.12106755332E+03  0.28680293418E+02 -0.41957059590E+03  0.43762929134E+03  0.00000000000E+00 0.  1.
         11    1    1    2    0    0  0.15204454432E+03 -0.19232367290E+02 -0.28956707379E+03  0.32762252308E+03  0.00000000000E+00 0. -1.
</event>
<event>
 6    1  0.8989754E-006  0.1007752E+03  0.7561462E-02  0.1278674E+00
         -1   -1    0    0    0  501 -0.00000000000E+00  0.00000000000E+00  0.91626768733E+02  0.91626768733E+02  0.00000000000E+00 0.  1.
          1   -1    0    0  501    0  0.00000000000E+00 -0.00000000000E+00 -0.13432382472E+03  0.13432382472E+03  0.00000000000E+00 0. -1.
          5    1    1    2  502    0 -0.60912845697E+02  0.45060906518E+02 -0.11272551936E+02  0.76716379570E+02  0.41800000000E+01 0.  1.
         -5    1    1    2    0  502  0.34994212717E+02 -0.38279709307E+02 -0.81581834141E+01  0.52668391137E+02  0.41800000000E+01 0.  1.
        -11    1    1    2    0    0 -0.78008825888E+01 -0.31097720616E+02  0.19010081568E+02  0.37273384578E+02  0.00000000000E+00 0.  1.
         11    1    1    2    0    0  0.33719515568E+02  0.24316523405E+02 -0.42276402209E+02  0.59292438172E+02  0.00000000000E+00 0. -1.
</event>
<event>
 6    1  0.8989754E-006  0.9128622E+02  0.7561462E-02  0.1299766E+00
         -2   -1    0    0    0  501 -0.00000000000E+00  0.00000000000E+00  0.61297515369E+02  0.61297515369E+02  0.00000000000E+00 0.  1.
          2   -1    0    0  501    0  0.00000000000E+00 -0.00000000000E+00 -0.24353198044E+03  0.24353198044E+03  0.00000000000E+00 0. -1.
          5    1    1    2  502    0 -0.10081473829E+02 -0.29418546899E+02  0.83717328118E+01  0.32475303332E+02  0.41800000000E+01 0.  1.
         -5    1    1    2    0  502  0.26424575506E+02  0.81379570439E+02 -0.10097264112E+03  0.13241540443E+03  0.41800000000E+01 0.  1.
        -11    1    1    2    0    0 -0.25661365266E+02 -0.20880749084E+02 -0.10043302354E+03  0.10574168320E+03  0.00000000000E+00 0. -1.
         11    1    1    2    0    0  0.93182635891E+01 -0.31080274456E+02  0.10799466781E+02  0.34197104838E+02  0.00000000000E+00 0.  1.
</event>
<event>
 6    1  0.8989754E-006  0.1151240E+03  0.7561462E-02  0.1251365E+00
          2   -1    0    0  501    0  0.00000000000E+00  0.00000000000E+00  0.44907060117E+03  0.44907060117E+03  0.00000000000E+00 0. -1.
         -2   -1    0    0    0  501 -0.00000000000E+00 -0.00000000000E+00 -0.40622146325E+02  0.40622146325E+02  0.00000000000E+00 0.  1.
          5    1    1    2  502    0 -0.66681596671E+02 -0.79656335100E+01  0.48447758861E+02  0.82912872285E+02  0.41800000000E+01 0. -1.
         -5    1    1    2    0  502  0.44299247943E+02  0.48593928888E+02  0.57501561845E+02  0.87451102381E+02  0.41800000000E+01 0. -1.
        -11    1    1    2    0    0 -0.25992527671E+02 -0.41178899014E+02  0.10132086661E+03  0.11241544035E+03  0.00000000000E+00 0.  1.
         11    1    1    2    0    0  0.48374876400E+02  0.55060363613E+00  0.20117826753E+03  0.20691333248E+03  0.00000000000E+00 0. -1.
</event>
<event>
 6    1  0.8989754E-006  0.1631258E+03  0.7561462E-02  0.1185212E+00
          2   -1    0    0  501    0  0.00000000000E+00  0.00000000000E+00  0.90957904795E+03  0.90957904795E+03  0.00000000000E+00 0. -1.
         -2   -1    0    0    0  501 -0.00000000000E+00 -0.00000000000E+00 -0.42827494662E+02  0.42827494662E+02  0.00000000000E+00 0.  1.
          5    1    1    2  502    0  0.12917699139E+03 -0.76401976355E+02  0.22119393876E+03  0.26733534753E+03  0.41800000000E+01 0. -1.
         -5    1    1    2    0  502 -0.16416437335E+02  0.65551831575E+01 -0.14227823646E+01  0.18219949249E+02  0.41800000000E+01 0. -1.
        -11    1    1    2    0    0 -0.40628755956E+02  0.75352421280E+02  0.41946805874E+03  0.42811462893E+03  0.00000000000E+00 0.  1.
         11    1    1    2    0    0 -0.72131798097E+02 -0.55056280834E+01  0.22751233815E+03  0.23873661690E+03  0.00000000000E+00 0. -1.
</event>
<event>
 6    1  0.8989754E-006  0.2557477E+03  0.7561462E-02  0.1109725E+00
          1   -1    0    0  501    0  0.00000000000E+00  0.00000000000E+00  0.26714303352E+03  0.26714303352E+03  0.00000000000E+00 0. -1.
         -1   -1    0    0    0  501 -0.00000000000E+00 -0.00000000000E+00 -0.25951358197E+03  0.25951358197E+03  0.00000000000E+00 0.  1.
          5    1    1    2  502    0 -0.65687411088E+02  0.17235216158E+03 -0.17724858058E+02  0.18534224173E+03  0.41800000000E+01 0. -1.
         -5    1    1    2    0  502  0.52732397977E+02  0.65233504439E+02 -0.17290471044E+02  0.85747003952E+02  0.41800000000E+01 0. -1.
        -11    1    1    2    0    0 -0.11400443581E+02 -0.18166840823E+03  0.15662215791E+01  0.18203250730E+03  0.00000000000E+00 0.  1.
         11    1    1    2    0    0  0.24355456691E+02 -0.55917257785E+02  0.41078559071E+02  0.73534862509E+02  0.00000000000E+00 0. -1.
</event>
<event>
 6    1  0.8989754E-006  0.1314888E+03  0.7561462E-02  0.1225263E+00
         -3   -1    0    0    0  501 -0.00000000000E+00  0.00000000000E+00  0.10174885003E+03  0.10174885003E+03  0.00000000000E+00 0.  1.
          3   -1    0    0  501    0  0.00000000000E+00 -0.00000000000E+00 -0.21503445312E+03  0.21503445312E+03  0.00000000000E+00 0. -1.
          5    1    1    2  502    0  0.67173512527E+02 -0.55685812021E+02  0.22451656485E+02  0.90192791977E+02  0.41800000000E+01 0.  1.
         -5    1    1    2    0  502 -0.36526929362E+02 -0.33983648418E+02 -0.46956259977E+02  0.68640131697E+02  0.41800000000E+01 0.  1.
        -11    1    1    2    0    0 -0.57588304372E+02  0.43763242585E+02 -0.29054771505E+02  0.77947507652E+02  0.00000000000E+00 0.  1.
         11    1    1    2    0    0  0.26941721208E+02  0.45906217854E+02 -0.59726228093E+02  0.80002871833E+02  0.00000000000E+00 0. -1.
</event>
<event>
 6    1  0.8989754E-006  0.9606015E+02  0.7561462E-02  0.1288806E+00
          1   -1    0    0  501    0  0.00000000000E+00  0.00000000000E+00  0.33041564445E+03  0.33041564445E+03  0.00000000000E+00 0. -1.
         -1   -1    0    0    0  501 -0.00000000000E+00 -0.00000000000E+00 -0.43994472988E+02  0.43994472988E+02  0.00000000000E+00 0.  1.
          5    1    1    2  502    0 -0.50499682127E+02 -0.64505917985E+02  0.15336177510E+03  0.17392106777E+03  0.41800000000E+01 0.  1.
         -5    1    1    2    0  502  0.12345089635E+02  0.31389793370E+02  0.53950756485E+01  0.34413654371E+02  0.41800000000E+01 0.  1.
        -11    1    1    2    0    0  0.52958504930E+02  0.20987454728E+02  0.25987783844E+02  0.62613428348E+02  0.00000000000E+00 0.  1.
         11    1    1    2    0    0 -0.14803912438E+02  0.12128669886E+02  0.10167653687E+03  0.10346196696E+03  0.00000000000E+00 0. -1.
</event>
<event>
 6    1  0.8989754E-006  0.1623316E+03  0.7561462E-02  0.1186089E+00
         -2   -1    0    0    0  501 -0.00000000000E+00  0.00000000000E+00  0.26435047344E+03  0.26435047344E+03  0.00000000000E+00 0.  1.
          2   -1    0    0  501    0  0.00000000000E+00 -0.00000000000E+00 -0.11759849173E+04  0.11759849173E+04  0.00000000000E+00 0. -1.
          5    1    1    2  502    0  0.91938321964E+02  0.87334111638E+02 -0.83509517121E+03  0.84467823428E+03  0.41800000000E+01 0. -1.
         -5    1    1    2    0  502 -0.56740407346E+02 -0.87378335764E+02  0.24175737549E+03  0.26328415902E+03  0.41800000000E+01 0.  1.
        -11    1    1    2    0    0  0.24331161408E+02  0.19188914938E+02 -0.14121440972E+03  0.14457430403E+03  0.00000000000E+00 0. -1.
         11    1    1    2    0    0 -0.59529076025E+02 -0.19144690812E+02 -0.17708223840E+03  0.18779869338E+03  0.00000000000E+00 0.  1.
</event>
<event>
 6    1  0.8989754E-006  0.7462297E+02  0.7561462E-02  0.1345043E+00
          2   -1    0    0  501    0  0.00000000000E+00  0.00000000000E+00  0.15651702864E+03  0.15651702864E+03  0.00000000000E+00 0. -1.
         -2   -1    0    0    0  501 -0.00000000000E+00 -0.00000000000E+00 -0.78509509062E+02  0.78509509062E+02  0.00000000000E+00 0.  1.
          5    1    1    2  502    0 -0.49444350866E+02 -0.23193147113E+02  0.56413194271E+02  0.78629427019E+02  0.41800000000E+01 0. -1.
         -5    1    1    2    0  502  0.32779564751E+02  0.35930630132E+02 -0.20873878760E+02  0.53091442450E+02  0.41800000000E+01 0. -1.
        -11    1    1    2    0    0 -0.25090915635E+01 -0.23523657671E+02 -0.23754058900E+02  0.33524816553E+02  0.00000000000E+00 0.  1.
         11    1    1    2    0    0  0.19173877678E+02  0.10786174653E+02  0.66222262964E+02  0.69780851678E+02  0.00000000000E+00 0. -1.
</event>
<event>
 6    1  0.8989754E-006  0.8571791E+02  0.7561462E-02  0.1313566E+00
          1   -1    0    0  501    0  0.00000000000E+00  0.00000000000E+00  0.35138098694E+03  0.35138098694E+03  0.00000000000E+00 0. -1.
         -1   -1    0    0    0  501 -0.00000000000E+00 -0.00000000000E+00 -0.46107231781E+02  0.46107231781E+02  0.00000000000E+00 0.  1.
          5    1    1    2  502    0  0.73338174761E+01 -0.31384749007E+02 -0.21860685131E+02  0.39168218027E+02  0.41800000000E+01 0.  1.
         -5    1    1    2    0  502  0.40952873709E+02  0.86716673994E+01  0.12391975192E+03  0.13086601161E+03  0.41800000000E+01 0.  1.
        -11    1    1    2    0    0 -0.40909431384E+02  0.52285471281E+02  0.16932705851E+03  0.18187634488E+03  0.00000000000E+00 0. -1.
         11    1    1    2    0    0 -0.73772598012E+01 -0.29572389673E+02  0.33887629865E+02  0.45577644202E+02  0.00000000000E+00 0.  1.
</event>
<event>
 6    1  0.1471038E-005  0.8350093E+02  0.7561462E-02  0.1319400E+00
         -1   -1    0    0    0  501 -0.00000000000E+00  0.00000000000E+00  0.44110132097E+03  0.44110132097E+03  0.00000000000E+00 0.  1.
          1   -1    0    0  501    0  0.00000000000E+00 -0.00000000000E+00 -0.37949909102E+02  0.37949909102E+02  0.00000000000E+00 0. -1.
          5    1    1    2  502    0 -0.86004306000E+01 -0.63872522078E+01  0.22333877053E+03  0.22363461990E+03  0.41800000000E+01 0. -1.
         -5    1    1    2    0  502  0.71594288095E+02  0.32300503250E+01  0.64600673992E+02  0.96575849948E+02  0.41800000000E+01 0. -1.
        -11    1    1    2    0    0 -0.91523328620E+01 -0.22338376637E+02 -0.50220862862E+01  0.24657445493E+02  0.00000000000E+00 0.  1.
         11    1    1    2    0    0 -0.53841524633E+02  0.25495578520E+02  0.12023405364E+03  0.13418331473E+03  0.00000000000E+00 0. -1.
</event>
<event>
 6    1  0.8989754E-006  0.1784297E+03  0.7561462E-02  0.1169331E+00
         -1   -1    0    0    0  501 -0.00000000000E+00  0.00000000000E+00  0.69303527827E+02  0.69303527827E+02  0.00000000000E+00 0.  1.
          1   -1    0    0  501    0  0.00000000000E+00 -0.00000000000E+00 -0.59899489854E+03  0.59899489854E+03  0.00000000000E+00 0. -1.
          5    1    1    2  502    0 -0.27722584522E+02  0.36018982680E+02 -0.18618918712E+03  0.19170235942E+03  0.41800000000E+01 0.  1.
         -5    1    1    2    0  502  0.69111638177E+01  0.13299570277E+03 -0.11376666211E+03  0.17520258830E+03  0.41800000000E+01 0.  1.
        -11    1    1    2    0    0 -0.17471060376E+02 -0.54068103855E+02 -0.22042011101E+02  0.60946271900E+02  0.00000000000E+00 0.  1.
         11    1    1    2    0    0  0.38282481081E+02 -0.11494658159E+03 -0.20769351038E+03  0.24044720675E+03  0.00000000000E+00 0. -1.
</event>
<event>
 6    1  0.8989754E-006  0.1674440E+03  0.7561462E-02  0.1180540E+00
          1   -1    0    0  501    0  0.00000000000E+00  0.00000000000E+00  0.14540505341E+03  0.14540505341E+03  0.00000000000E+00 0. -1.
         -1   -1    0    0    0  501 -0.00000000000E+00 -0.00000000000E+00 -0.31509772898E+03  0.31509772898E+03  0.00000000000E+00 0.  1.
          5    1    1    2  502    0  0.90253034648E+01 -0.14971223744E+03 -0.78932753268E+02  0.16953778954E+03  0.41800000000E+01 0.  1.
         -5    1    1    2    0  502  0.17699458698E+02 -0.10613350263E+02 -0.10140796153E+03  0.10357104375E+03  0.41800000000E+01 0.  1.
        -11    1    1    2    0    0 -0.86893119329E+01  0.10975860337E+03 -0.36447238116E+02  0.11597782685E+03  0.00000000000E+00 0.  1.
         11    1    1    2    0    0 -0.18035450230E+02  0.50566984339E+02  0.47095277336E+02  0.71416122252E+02  0.00000000000E+00 0. -1.
</event>
<event>
 6    1  0.8989754E-006  0.8742570E+02  0.7561462E-02  0.1309208E+00
         -1   -1    0    0    0  501 -0.00000000000E+00  0.00000000000E+00  0.28992361993E+02  0.28992361993E+02  0.00000000000E+00 0.  1.
          1   -1    0    0  501    0  0.00000000000E+00 -0.00000000000E+00 -0.47345387296E+03  0.47345387296E+03  0.00000000000E+00 0. -1.
          5    1    1    2  502    0 -0.32652309394E+02  0.19745248781E+00 -0.10100412258E+02  0.34434038741E+02  0.41800000000E+01 0. -1.
         -5    1    1    2    0  502  0.31059587785E+02 -0.42138631725E+02 -0.27165583844E+03  0.27668525302E+03  0.41800000000E+01 0. -1.
        -11    1    1    2    0    0 -0.37782170657E+02  0.30081323481E+02 -0.13032803913E+03  0.13898840321E+03  0.00000000000E+00 0.  1.
         11    1    1    2    0    0  0.39374892267E+02  0.11859855756E+02 -0.32377221134E+02  0.52338539987E+02  0.00000000000E+00 0. -1.
</event>
<event>
 6    1  0.8989754E-006  0.1746813E+03  0.7561462E-02  0.1173052E+00
          1   -1    0    0  501    0  0.00000000000E+00  0.00000000000E+00  0.12158102155E+03  0.12158102155E+03  0.00000000000E+00 0. -1.
         -1   -1    0    0    0  501 -0.00000000000E+00 -0.00000000000E+00 -0.40456989353E+03  0.40456989353E+03  0.00000000000E+00 0.  1.
          5    1    1    2  502    0  0.11360628785E+03 -0.75212781142E+02  0.90419227276E+01  0.13661105319E+03  0.41800000000E+01 0. -1.
         -5    1    1    2    0  502 -0.12752626454E+03  0.72977168187E+02 -0.24622259779E+03  0.28676062367E+03  0.41800000000E+01 0.  1.
        -11    1    1    2    0    0  0.34907157403E+02  0.18502619492E+02 -0.60632424597E+02  0.72368138559E+02  0.00000000000E+00 0.  1.
         11    1    1    2    0    0 -0.20987180707E+02 -0.16267006536E+02  0.14824227686E+02  0.30411099654E+02  0.00000000000E+00 0. -1.
</event>
<event>
 6    1  0.8989754E-006  0.1123444E+03  0.7561462E-02  0.1256289E+00
         -2   -1    0    0    0  501 -0.00000000000E+00  0.00000000000E+00  0.20054383265E+02  0.20054383265E+02  0.00000000000E+00 0.  1.
          2   -1    0    0  501    0  0.00000000000E+00 -0.00000000000E+00 -0.72510152236E+03  0.72510152236E+03  0.00000000000E+00 0. -1.
          5    1    1    2  502    0  0.26484727320E+02 -0.45666313124E+02 -0.24056575247E+03  0.24632540794E+03  0.41800000000E+01 0.  1.
         -5    1    1    2    0  502 -0.12547640338E+02  0.61671300359E+02 -0.11441327291E+03  0.13064708946E+03  0.41800000000E+01 0.  1.
        -11    1    1    2    0    0  0.35359639348E+02  0.26003365205E+02 -0.89454353867E+02  0.99642162374E+02  0.00000000000E+00 0.  1.
         11    1    1    2    0    0 -0.49296726329E+02 -0.42008352440E+02 -0.26061375985E+03  0.26854124586E+03  0.00000000000E+00 0. -1.
</event>
<event>
 6    1  0.8989754E-006  0.9486133E+02  0.7561462E-02  0.1291489E+00
         -1   -1    0    0    0  501 -0.00000000000E+00  0.00000000000E+00  0.74299461127E+02  0.74299461127E+02  0.00000000000E+00 0.  1.
          1   -1    0    0  501    0  0.00000000000E+00 -0.00000000000E+00 -0.16514257924E+03  0.16514257924E+03  0.00000000000E+00 0. -1.
          5    1    1    2  502    0  0.57013961147E+02  0.10523181498E+02 -0.53356745794E+02  0.78903382921E+02  0.41800000000E+01 0. -1.
         -5    1    1    2    0  502 -0.31983210155E+02  0.13163203401E+02  0.26510070344E+02  0.43777298743E+02  0.41800000000E+01 0.  1.
        -11    1    1    2    0    0 -0.76163871965E+01 -0.57883083736E+02 -0.30737695610E+02  0.65979289691E+02  0.00000000000E+00 0. -1.
         11    1    1    2    0    0 -0.17414363796E+02  0.34196698837E+02 -0.33258747054E+02  0.50782069014E+02  0.00000000000E+00 0.  1.
</event>
<event>
 6    1  0.8989754E-006  0.2801253E+03  0.7561462E-02  0.1095621E+00
         -1   -1    0    0    0  501 -0.00000000000E+00  0.00000000000E+00  0.11057108356E+03  0.11057108356E+03  0.00000000000E+00 0.  1.
          1   -1    0    0  501    0  0.00000000000E+00 -0.00000000000E+00 -0.80444753410E+03  0.80444753410E+03  0.00000000000E+00 0. -1.
          5    1    1    2  502    0 -0.18529979810E+03 -0.14924134181E+02 -0.16210592467E+03  0.24668714634E+03  0.41800000000E+01 0. -1.
         -5    1    1    2    0  502 -0.56663727567E+02 -0.80797449015E+02 -0.44499527989E+02  0.10833598747E+03  0.41800000000E+01 0. -1.
        -11    1    1    2    0    0  0.21943280176E+03  0.50743922736E+02 -0.38550645620E+03  0.44647612249E+03  0.00000000000E+00 0. -1.
         11    1    1    2    0    0  0.22530723903E+02  0.44977660459E+02 -0.10176454169E+03  0.11351936137E+03  0.00000000000E+00 0.  1.
</event>
<event>
 6    1  0.8989754E-006  0.1126339E+03  0.7561462E-02  0.1255769E+00
         -4   -1    0    0    0  501 -0.00000000000E+00  0.00000000000E+00  0.54892171830E+03  0.54892171830E+03  0.00000000000E+00 0.  1.
          4   -1    0    0  501    0  0.00000000000E+00 -0.00000000000E+00 -0.23606133231E+02  0.23606133231E+02  0.00000000000E+00 0. -1.
          5    1    1    2  502    0 -0.16176062592E+02 -0.44421160736E+02  0.12652338831E+03  0.13513158296E+03  0.41800000000E+01 0. -1.
         -5    1    1    2    0  502  0.25217085211E+02  0.78095537887E+02  0.19098334227E+03  0.20791085554E+03  0.41800000000E+01 0. -1.
        -11    1    1    2    0    0 -0.49271244175E+02 -0.19256257845E+02  0.93180081118E+02  0.10714936531E+03  0.00000000000E+00 0.  1.
         11    1    1    2    0    0  0.40230221556E+02 -0.14418119306E+02  0.11462877337E+03  0.12233604773E+03  0.00000000000E+00 0. -1.
</event>
<event>
 6    1  0.8989754E-006  0.1093066E+03  0.7561462E-02  0.1261859E+00
         -1   -1    0    0    0  501 -0.00000000000E+00  0.00000000000E+00  0.17565207089E+03  0.17565207089E+03  0.00000000000E+00 0.  1.
          1   -1    0    0  501    0  0.00000000000E+00 -0.00000000000E+00 -0.12287162675E+03  0.12287162675E+03  0.00000000000E+00 0. -1.
          5    1    1    2  502    0  0.23030572507E+02 -0.47083083938E+01  0.82345964866E+02  0.85737423379E+02  0.41800000000E+01 0. -1.
         -5    1    1    2    0  502 -0.54128052895E+02  0.66526276243E+02  0.14872275512E+02  0.87144985627E+02  0.41800000000E+01 0. -1.
        -11    1    1    2    0    0 -0.76947550896E+01  0.18302087911E+02 -0.29228920884E+02  0.35334197229E+02  0.00000000000E+00 0.  1.
         11    1    1    2    0    0  0.38792235478E+02 -0.80120055760E+02 -0.15208875353E+02  0.90307091404E+02  0.00000000000E+00 0. -1.
</event>
<event>
 6    1  0.8989754E-006  0.8291548E+02  0.7561462E-02  0.1320976E+00
          1   -1    0    0  501    0  0.00000000000E+00  0.00000000000E+00  0.99776319924E+02  0.99776319924E+02  0.00000000000E+00 0. -1.
         -1   -1    0    0    0  501 -0.00000000000E+00 -0.00000000000E+00 -0.17522197449E+03  0.17522197449E+03  0.00000000000E+00 0.  1.
          5    1    1    2  502    0  0.34798860417E+01 -0.25177419305E+02  0.16396011343E+02  0.30533811385E+02  0.41800000000E+01 0. -1.
         -5    1    1    2    0  502  0.13657388879E+02  0.71702697471E+02 -0.11505207413E+03  0.13631673873E+03  0.41800000000E+01 0. -1.
        -11    1    1    2    0    0 -0.31998298561E+02 -0.38535662669E+02 -0.25779593848E+02  0.56333612232E+02  0.00000000000E+00 0.  1.
         11    1    1    2    0    0  0.14861023640E+02 -0.79896154967E+01  0.48990002069E+02  0.51814132069E+02  0.00000000000E+00 0. -1.
</event>
<event>
 6    1  0.8989754E-006  0.1207020E+03  0.7561462E-02  0.1241943E+00
         -1   -1    0    0    0  501 -0.00000000000E+00  0.00000000000E+00  0.16146392028E+02  0.16146392028E+02  0.00000000000E+00 0.  1.
          1   -1    0    0  501    0  0.00000000000E+00 -0.00000000000E+00 -0.10283430171E+04  0.10283430171E+04  0.00000000000E+00 0. -1.
          5    1    1    2  502    0 -0.81336648221E+02  0.48960500670E+02 -0.38183929870E+03  0.39348634462E+03  0.41800000000E+01 0. -1.
         -5    1    1    2    0  502  0.37399289953E+02 -0.93692180397E+01 -0.66622834099E+02  0.77088024745E+02  0.41800000000E+01 0.  1.
        -11    1    1    2    0    0  0.70278074394E+02 -0.15648603129E+02 -0.38287616624E+03  0.38958701877E+03  0.00000000000E+00 0.  1.
         11    1    1    2    0    0 -0.26340716125E+02 -0.23942679501E+02 -0.18085832603E+03  0.18432802099E+03  0.00000000000E+00 0. -1.
</event>
<event>
 6    1  0.8989754E-006  0.1570679E+03  0.7561462E-02  0.1192047E+00
         -1   -1    0    0    0  501 -0.00000000000E+00  0.00000000000E+00  0.11601452886E+03  0.11601452886E+03  0.00000000000E+00 0.  1.
          1   -1    0    0  501    0  0.00000000000E+00 -0.00000000000E+00 -0.26918191722E+03  0.26918191722E+03  0.00000000000E+00 0. -1.
          5    1    1    2  502    0 -0.57823977218E+02 -0.43535907421E+02  0.92385816754E+01  0.73087696418E+02  0.41800000000E+01 0.  1.
         -5    1    1    2    0  502 -0.48500800345E+02  0.82316505644E+02 -0.34662067608E+01  0.95696508426E+02  0.41800000000E+01 0.  1.
        -11    1    1    2    0    0  0.12183568463E+03 -0.44147424954E+02 -0.13282408440E+03  0.18556714843E+03  0.00000000000E+00 0.  1.
         11    1    1    2    0    0 -0.15510907069E+02  0.53668267306E+01 -0.26115678879E+02  0.30845092812E+02  0.00000000000E+00 0. -1.
</event>
<event>
 6    1  0.8989754E-006  0.8668016E+02  0.7561462E-02  0.1311096E+00
          2   -1    0    0  501    0  0.00000000000E+00  0.00000000000E+00  0.47584471182E+02  0.47584471182E+02  0.00000000000E+00 0. -1.
         -2   -1    0    0    0  501 -0.00000000000E+00 -0.00000000000E+00 -0.28628998683E+03  0.28628998683E+03  0.00000000000E+00 0.  1.
          5    1    1    2  502    0  0.41639986009E+02 -0.31257185279E+01 -0.20147029353E+02  0.46551409677E+02  0.41800000000E+01 0. -1.
         -5    1    1    2    0  502 -0.83414458263E+02  0.69672597530E+01 -0.11526101629E+03  0.14250996047E+03  0.41800000000E+01 0. -1.
        -11    1    1    2    0    0  0.22791817124E+02  0.91742046032E+01 -0.11596638364E+03  0.11854043653E+03  0.00000000000E+00 0.  1.
         11    1    1    2    0    0  0.18982655130E+02 -0.13015745828E+02  0.12668913642E+02  0.26272651334E+02  0.00000000000E+00 0. -1.
</event>
<event>
 6    1  0.8989754E-006  0.8893788E+02  0.7561462E-02  0.1305444E+00
          1   -1    0    0  501    0  0.00000000000E+00  0.00000000000E+00  0.17543198592E+03  0.17543198592E+03  0.00000000000E+00 0. -1.
         -1   -1    0    0    0  501 -0.00000000000E+00 -0.00000000000E+00 -0.93132882257E+02  0.93132882257E+02  0.00000000000E+00 0.  1.
          5    1    1    2  502    0  0.52877586943E+01 -0.23118929334E+02  0.58946544056E+02  0.63675841115E+02  0.41800000000E+01 0. -1.
         -5    1    1    2    0  502 -0.47374634017E+02 -0.42028130050E+01 -0.52862988994E+02  0.71231928170E+02  0.41800000000E+01 0. -1.
        -11    1    1    2    0    0  0.26742430463E+02  0.62331172320E+02  0.31362631847E+02  0.74725814188E+02  0.00000000000E+00 0. -1.
         11    1    1    2    0    0  0.15344444860E+02 -0.35009429981E+02  0.44852916758E+02  0.58931284708E+02  0.00000000000E+00 0.  1.
</event>
<event>
 6    1  0.8989754E-006  0.8131120E+02  0.7561462E-02  0.1325371E+00
         -1   -1    0    0    0  501 -0.00000000000E+00  0.00000000000E+00  0.39354709996E+03  0.39354709996E+03  0.00000000000E+00 0.  1.
          1   -1    0    0  501    0  0.00000000000E+00 -0.00000000000E+00 -0.73555472711E+02  0.73555472711E+02  0.00000000000E+00 0. -1.
          5    1    1    2  502    0 -0.73394678171E+01 -0.41296370089E+02  0.56734553007E+02  0.70679133237E+02  0.41800000000E+01 0. -1.
         -5    1    1    2    0  502  0.10308021907E+02  0.74243307697E+02  0.28537834232E+03  0.29508743572E+03  0.41800000000E+01 0. -1.
        -11    1    1    2    0    0  0.14097856890E+02 -0.13398308866E+02  0.34189041588E+02  0.39333888876E+02  0.00000000000E+00 0.  1.
         11    1    1    2    0    0 -0.17066410981E+02 -0.19548628743E+02 -0.56310309668E+02  0.62002114838E+02  0.00000000000E+00 0. -1.
</event>
<event>
 6    1  0.8989754E-006  0.9850443E+02  0.7561462E-02  0.1283473E+00
         -2   -1    0    0    0  501 -0.00000000000E+00  0.00000000000E+00  0.92181943232E+02  0.92181943232E+02  0.00000000000E+00 0. -1.
          2   -1    0    0  501    0  0.00000000000E+00 -0.00000000000E+00 -0.15639160406E+03  0.15639160406E+03  0.00000000000E+00 0.  1.
          5    1    1    2  502    0  0.19890803304E+02 -0.53766806763E+02  0.40031513360E+02  0.70046470485E+02  0.41800000000E+01 0.  1.
         -5    1    1    2    0  502  0.19837024614E+02  0.31573649945E+02 -0.51275537289E+02  0.63537831570E+02  0.41800000000E+01 0.  1.
        -11    1    1    2    0    0  0.31575523859E+01 -0.32416995235E+02 -0.18724052860E+02  0.37568895015E+02  0.00000000000E+00 0.  1.
         11    1    1    2    0    0 -0.42885380304E+02  0.54610152053E+02 -0.34241584038E+02  0.77420350222E+02  0.00000000000E+00 0. -1.
</event>
<event>
 6    1  0.8989754E-006  0.1957395E+03  0.7561462E-02  0.1153384E+00
         -1   -1    0    0    0  501 -0.00000000000E+00  0.00000000000E+00  0.14958489275E+03  0.14958489275E+03  0.00000000000E+00 0.  1.
          1   -1    0    0  501    0  0.00000000000E+00 -0.00000000000E+00 -0.46994096442E+03  0.46994096442E+03  0.00000000000E+00 0. -1.
          5    1    1    2  502    0 -0.15434891170E+03  0.10592491998E+03  0.43021974475E+02  0.19212505798E+03  0.41800000000E+01 0.  1.
         -5    1    1    2    0  502  0.15639755683E+02  0.12937321697E+02 -0.22051894650E+02  0.30261108839E+02  0.41800000000E+01 0.  1.
        -11    1    1    2    0    0  0.94495470708E+02 -0.69901015427E+02 -0.29199637921E+03  0.31476567699E+03  0.00000000000E+00 0. -1.
         11    1    1    2    0    0  0.44213685305E+02 -0.48961226249E+02 -0.49329772283E+02  0.82374013363E+02  0.00000000000E+00 0.  1.
</event>
<event>
 6    1  0.8989754E-006  0.1086210E+03  0.7561462E-02  0.1263145E+00
          2   -1    0    0  501    0  0.00000000000E+00  0.00000000000E+00  0.40478170410E+03  0.40478170410E+03  0.00000000000E+00 0. -1.
         -2   -1    0    0    0  501 -0.00000000000E+00 -0.00000000000E+00 -0.59143461366E+02  0.59143461366E+02  0.00000000000E+00 0.  1.
          5    1    1    2  502    0  0.66455473396E+02  0.41345075177E+01  0.81176420180E+02  0.10507382019E+03  0.41800000000E+01 0.  1.
         -5    1    1    2    0  502 -0.86312759355E+01 -0.47486278803E+02 -0.19215787454E+02  0.52116834961E+02  0.41800000000E+01 0.  1.
        -11    1    1    2    0    0 -0.20481719696E+02 -0.19946530723E+02  0.16262790985E+03  0.16512177928E+03  0.00000000000E+00 0. -1.
         11    1    1    2    0    0 -0.37342477764E+02  0.63298302008E+02  0.12104970016E+03  0.14161273103E+03  0.00000000000E+00 0.  1.
</event>
<event>
 6    1  0.8989754E-006  0.1531031E+03  0.7561462E-02  0.1196711E+00
         -3   -1    0    0    0  501 -0.00000000000E+00  0.00000000000E+00  0.36931288116E+02  0.36931288116E+02  0.00000000000E+00 0.  1.
          3   -1    0    0  501    0  0.00000000000E+00 -0.00000000000E+00 -0.80419869554E+03  0.80419869554E+03  0.00000000000E+00 0. -1.
          5    1    1    2  502    0 -0.40203801211E+02 -0.17682727893E+02 -0.38231045856E+02  0.58379018190E+02  0.41800000000E+01 0.  1.
         -5    1    1    2    0  502  0.85545818274E+02 -0.84643300496E+02 -0.18961632059E+03  0.22462056179E+03  0.41800000000E+01 0.  1.
        -11    1    1    2    0    0  0.14246247943E+02  0.74599830227E+02 -0.33061849279E+03  0.33922953590E+03  0.00000000000E+00 0. -1.
         11    1    1    2    0    0 -0.59588265006E+02  0.27726198162E+02 -0.20880154819E+03  0.21890086778E+03  0.00000000000E+00 0.  1.
</event>
<event>
 6    1  0.8989754E-006  0.1036735E+03  0.7561462E-02  0.1272755E+00
         -1   -1    0    0    0  501 -0.00000000000E+00  0.00000000000E+00  0.10413137154E+02  0.10413137154E+02  0.00000000000E+00 0.  1.
          1   -1    0    0  501    0  0.00000000000E+00 -0.00000000000E+00 -0.13626911722E+04  0.13626911722E+04  0.00000000000E+00 0. -1.
          5    1    1    2  502    0 -0.14683513244E+02  0.68083413070E+02 -0.75141316350E+03  0.75464572574E+03  0.41800000000E+01 0. -1.
         -5    1    1    2    0  502  0.27167563038E+02 -0.22054286328E+02 -0.79374666910E+02  0.86846290502E+02  0.41800000000E+01 0. -1.
        -11    1    1    2    0    0 -0.51292492768E+02 -0.17613963602E+02 -0.24087560657E+03  0.24690530446E+03  0.00000000000E+00 0.  1.
         11    1    1    2    0    0  0.38808442975E+02 -0.28415163140E+02 -0.28061459810E+03  0.28470698869E+03  0.00000000000E+00 0. -1.
</event>
<event>
 6    1  0.8989754E-006  0.7835277E+02  0.7561462E-02  0.1333792E+00
         -2   -1    0    0    0  501 -0.00000000000E+00  0.00000000000E+00  0.66841952805E+02  0.66841952805E+02  0.00000000000E+00 0.  1.
          2   -1    0    0  501    0  0.00000000000E+00 -0.00000000000E+00 -0.18756684900E+03  0.18756684900E+03  0.00000000000E+00 0. -1.
          5    1    1    2  502    0  0.78520388135E+01  0.21453850670E+02  0.33195133077E+02  0.40513102598E+02  0.41800000000E+01 0.  1.
         -5    1    1    2    0  502 -0.33133609323E+02 -0.19400665949E+02 -0.92480079234E+02  0.10022105249E+03  0.41800000000E+01 0.  1.
        -11    1    1    2    0    0  0.59840530825E+02  0.30817783635E+01 -0.45680315014E+02  0.75346384566E+02  0.00000000000E+00 0. -1.
         11    1    1    2    0    0 -0.34558960315E+02 -0.51349630840E+01 -0.15759635027E+02  0.38328262159E+02  0.00000000000E+00 0.  1.
</event>
<event>
 6    1  0.8989754E-006  0.5883691E+02  0.7561462E-02  0.1402779E+00
          1   -1    0    0  501    0  0.00000000000E+00  0.00000000000E+00  0.96958141598E+02  0.96958141598E+02  0.00000000000E+00 0. -1.
         -1   -1    0    0    0  501 -0.00000000000E+00 -0.00000000000E+00 -0.16552530728E+03  0.16552530728E+03  0.00000000000E+00 0.  1.
          5    1    1    2  502    0 -0.21432051255E+02 -0.39147910628E+01 -0.12321031609E+03  0.12519150451E+03  0.41800000000E+01 0.  1.
         -5    1    1    2    0  502 -0.13153830933E+02 -0.13889469318E+00  0.31089062096E+02  0.34015360383E+02  0.41800000000E+01 0.  1.
        -11    1    1    2    0    0  0.58033508894E+02  0.10061268960E+01 -0.13246477070E+02  0.59534608427E+02  0.00000000000E+00 0.  1.
         11    1    1    2    0    0 -0.23447626706E+02  0.30475588600E+01  0.36800565383E+02  0.43741975558E+02  0.00000000000E+00 0. -1.
</event>
<event>
 6    1  0.8989754E-006  0.1135006E+03  0.7561462E-02  0.1254221E+00
         -3   -1    0    0    0  501 -0.00000000000E+00  0.00000000000E+00  0.63356210055E+03  0.63356210055E+03  0.00000000000E+00 0.  1.
          3   -1    0    0  501    0  0.00000000000E+00 -0.00000000000E+00 -0.25152253236E+02  0.25152253236E+02  0.00000000000E+00 0. -1.
          5    1    1    2  502    0  0.40253948505E+01 -0.59441907727E+02  0.31523302633E+03  0.32084089123E+03  0.41800000000E+01 0. -1.
         -5    1    1    2    0  502  0.48016013915E+02  0.38777732062E+02  0.11349441068E+03  0.12925828311E+03  0.41800000000E+01 0. -1.
        -11    1    1    2    0    0 -0.29944780382E+02  0.56136867233E+02  0.11888009286E+03  0.13483513716E+03  0.00000000000E+00 0.  1.
         11    1    1    2    0    0 -0.22096628383E+02 -0.35472691568E+02  0.60802317445E+02  0.73780042286E+02  0.00000000000E+00 0. -1.
</event>
<event>
 6    1  0.8989754E-006  0.9472775E+02  0.7561462E-02  0.1291790E+00
          2   -1    0    0  501    0  0.00000000000E+00  0.00000000000E+00  0.43809425599E+03  0.43809425599E+03  0.00000000000E+00 0. -1.
         -2   -1    0    0    0  501 -0.00000000000E+00 -0.00000000000E+00 -0.28533405167E+02  0.28533405167E+02  0.00000000000E+00 0.  1.
          5    1    1    2  502    0 -0.51072685808E+02  0.33921129847E+02  0.18081074490E+03  0.19096874131E+03  0.41800000000E+01 0. -1.
         -5    1    1    2    0  502  0.25920478217E+02 -0.40693287246E+02  0.34707466510E+02  0.59580999064E+02  0.41800000000E+01 0. -1.
        -11    1    1    2    0    0  0.51631580508E+02  0.10913984292E+02  0.62347189656E+02  0.81682967728E+02  0.00000000000E+00 0.  1.
         11    1    1    2    0    0 -0.26479372917E+02 -0.41418268921E+01  0.13169544976E+03  0.13439495306E+03  0.00000000000E+00 0. -1.
</event>
<event>
 6    1  0.8989754E-006  0.9633075E+02  0.7561462E-02  0.1288207E+00
          1   -1    0    0  501    0  0.00000000000E+00  0.00000000000E+00  0.24733928167E+02  0.24733928167E+02  0.00000000000E+00 0. -1.
         -1   -1    0    0    0  501 -0.00000000000E+00 -0.00000000000E+00 -0.57481632031E+03  0.57481632031E+03  0.00000000000E+00 0.  1.
          5    1    1    2  502    0  0.48223855692E+02 -0.12440603180E+02 -0.95104956544E+02  0.10743711661E+03  0.41800000000E+01 0. -1.
         -5    1    1    2    0  502 -0.62596590106E+02  0.58412019688E+01 -0.33048124880E+03  0.33643391764E+03  0.41800000000E+01 0. -1.
        -11    1    1    2    0    0 -0.23263043493E+02 -0.22299931187E+02 -0.93759413715E+02  0.99142744483E+02  0.00000000000E+00 0.  1.
         11    1    1    2    0    0  0.37635777906E+02  0.28899332398E+02 -0.30736773090E+02  0.56536469748E+02  0.00000000000E+00 0. -1.
</event>
<event>
 6    1  0.8989754E-006  0.8743835E+02  0.7561462E-02  0.1309176E+00
          1   -1    0    0  501    0  0.00000000000E+00  0.00000000000E+00  0.11199488039E+03  0.11199488039E+03  0.00000000000E+00 0. -1.
         -1   -1    0    0    0  501 -0.00000000000E+00 -0.00000000000E+00 -0.17793035493E+03  0.17793035493E+03  0.00000000000E+00 0.  1.
          5    1    1    2  502    0 -0.40947953787E+02  0.11308064008E+02 -0.69231924033E+02  0.81333504390E+02  0.41800000000E+01 0.  1.
         -5    1    1    2    0  502 -0.44710440061E+02 -0.11088915520E+02  0.53926378043E+02  0.71045859462E+02  0.41800000000E+01 0.  1.
        -11    1    1    2    0    0  0.64544468245E+02  0.28146078403E+01 -0.78998640819E+02  0.10205241619E+03  0.00000000000E+00 0.  1.
         11    1    1    2    0    0  0.21113925603E+02 -0.30337563279E+01  0.28368712276E+02  0.35493455284E+02  0.00000000000E+00 0. -1.
</event>
<event>
 6    1  0.8989754E-006  0.1205574E+03  0.7561462E-02  0.1242180E+00
          2   -1    0    0  501    0  0.00000000000E+00  0.00000000000E+00  0.48360457704E+03  0.48360457704E+03  0.00000000000E+00 0. -1.
         -2   -1    0    0    0  501 -0.00000000000E+00 -0.00000000000E+00 -0.36511547738E+02  0.36511547738E+02  0.00000000000E+00 0.  1.
          5    1    1    2  502    0  0.21906596909E+01  0.91398752271E+02  0.15302052887E+03  0.17830110925E+03  0.41800000000E+01 0.  1.
         -5    1    1    2    0  502 -0.42980845828E+02 -0.30944013016E+02  0.79375356204E+02  0.95513374048E+02  0.41800000000E+01 0.  1.
        -11    1    1    2    0    0  0.62641040455E+01 -0.61605594499E+02  0.54717427628E+02  0.82634648661E+02  0.00000000000E+00 0.  1.
         11    1    1    2    0    0  0.34526082092E+02  0.11508552437E+01  0.15997971661E+03  0.16366699282E+03  0.00000000000E+00 0. -1.
</event>
<event>
 6    1  0.8989754E-006  0.1234548E+03  0.7561462E-02  0.1237504E+00
         -2   -1    0    0    0  501 -0.00000000000E+00  0.00000000000E+00  0.26898723225E+02  0.26898723225E+02  0.00000000000E+00 0.  1.
          2   -1    0    0  501    0  0.00000000000E+00 -0.00000000000E+00 -0.60508447628E+03  0.60508447628E+03  0.00000000000E+00 0. -1.
          5    1    1    2  502    0  0.62651473634E+02  0.50830839153E+02 -0.13477816273E+03  0.15713563220E+03  0.41800000000E+01 0. -1.
         -5    1    1    2    0  502  0.35542152633E+01 -0.58349401825E+02 -0.14771855458E+03  0.15891988204E+03  0.41800000000E+01 0. -1.
        -11    1    1    2    0    0 -0.24649023019E+02  0.45158370769E+02 -0.10132489468E+03  0.11363796490E+03  0.00000000000E+00 0.  1.
         11    1    1    2    0    0 -0.41556665878E+02 -0.37639808098E+02 -0.19436414107E+03  0.20228972037E+03  0.00000000000E+00 0. -1.
</event>
<event>
 6    1  0.8989754E-006  0.1044510E+03  0.7561462E-02  0.1271205E+00
         -1   -1    0    0    0  501 -0.00000000000E+00  0.00000000000E+00  0.12819136868E+03  0.12819136868E+03  0.00000000000E+00 0.  1.
          1   -1    0    0  501    0  0.00000000000E+00 -0.00000000000E+00 -0.19947675945E+03  0.19947675945E+03  0.00000000000E+00 0. -1.
          5    1    1    2  502    0  0.39398266383E+02  0.42172129813E+02 -0.31896343564E+02  0.66072392568E+02  0.41800000000E+01 0. -1.
         -5    1    1    2    0  502  0.36976282932E+01  0.27458720983E+02  0.82358859212E+02  0.86994872859E+02  0.41800000000E+01 0.  1.
        -11    1    1    2    0    0  0.25810418546E+02 -0.40898137788E+02 -0.32610409104E+02  0.58329016467E+02  0.00000000000E+00 0. -1.
         11    1    1    2    0    0 -0.68906313222E+02 -0.28732713007E+02 -0.89137497314E+02  0.11627184623E+03  0.00000000000E+00 0.  1.
</event>
<event>
 6    1  0.1885073E-005  0.3621287E+03  0.7561462E-02  0.1057744E+00
         -2   -1    0    0    0  501 -0.00000000000E+00  0.00000000000E+00  0.88441976424E+02  0.88441976424E+02  0.00000000000E+00 0.  1.
          2   -1    0    0  501    0  0.00000000000E+00 -0.00000000000E+00 -0.16748789368E+04  0.16748789368E+04  0.00000000000E+00 0. -1.
          5    1    1    2  502    0  0.15208104321E+03 -0.12263272369E+03 -0.20903225848E+03  0.28614574277E+03  0.41800000000E+01 0.  1.
         -5    1    1    2    0  502  0.12199878720E+03 -0.10835685930E+03 -0.39352048755E+03  0.42602905953E+03  0.41800000000E+01 0.  1.
        -11    1    1    2    0    0 -0.12725575210E+02  0.39849330582E+02 -0.69409825429E+02  0.81040935819E+02  0.00000000000E+00 0.  1.
         11    1    1    2    0    0 -0.26135425520E+03  0.19114025240E+03 -0.91447438896E+03  0.97010517515E+03  0.00000000000E+00 0. -1.
</event>
<event>
 6    1  0.8989754E-006  0.1918607E+03  0.7561462E-02  0.1156794E+00
         -1   -1    0    0    0  501 -0.00000000000E+00  0.00000000000E+00  0.11720997822E+03  0.11720997822E+03  0.00000000000E+00 0.  1.
          1   -1    0    0  501    0  0.00000000000E+00 -0.00000000000E+00 -0.41931708202E+03  0.41931708202E+03  0.00000000000E+00 0. -1.
          5    1    1    2  502    0  0.66526552839E+02  0.51970071190E+02  0.23339344708E+02  0.87686190153E+02  0.41800000000E+01 0. -1.
         -5    1    1    2    0  502  0.81069001628E+02 -0.38037336375E+02 -0.64946070607E+02  0.11069998406E+03  0.41800000000E+01 0. -1.
        -11    1    1    2    0    0  0.22910367189E+02 -0.30607829446E+02 -0.20838783997E+02  0.43542841738E+02  0.00000000000E+00 0.  1.
         11    1    1    2    0    0 -0.17050592166E+03  0.16675094631E+02 -0.23966159391E+03  0.29459804428E+03  0.00000000000E+00 0. -1.
</event>
<event>
 6    1  0.8989754E-006  0.1259668E+03  0.7561462E-02  0.1233566E+00
         -2   -1    0    0    0  501 -0.00000000000E+00  0.00000000000E+00  0.15829367052E+03  0.15829367052E+03  0.00000000000E+00 0. -1.
          2   -1    0    0  501    0  0.00000000000E+00 -0.00000000000E+00 -0.12233707429E+03  0.12233707429E+03  0.00000000000E+00 0.  1.
          5    1    1    2  502    0  0.44635208548E+02 -0.36940102910E+02  0.21036136783E+02  0.61780777721E+02  0.41800000000E+01 0. -1.
         -5    1    1    2    0  502  0.27221888591E+02  0.89279792277E+02  0.24526466431E+01  0.93463363962E+02  0.41800000000E+01 0. -1.
        -11    1    1    2    0    0 -0.59367067849E+02 -0.15275034684E+02 -0.29490572882E+02  0.68025504912E+02  0.00000000000E+00 0.  1.
         11    1    1    2    0    0 -0.12490029290E+02 -0.37064654684E+02  0.41958385692E+02  0.57361098214E+02  0.00000000000E+00 0. -1.
</event>
<event>
 6    1  0.8989754E-006  0.1046338E+03  0.7561462E-02  0.1270843E+00
          2   -1    0    0  501    0  0.00000000000E+00  0.00000000000E+00  0.31652322029E+02  0.31652322029E+02  0.00000000000E+00 0. -1.
         -2   -1    0    0    0  501 -0.00000000000E+00 -0.00000000000E+00 -0.40036034991E+03  0.40036034991E+03  0.00000000000E+00 0.  1.
          5    1    1    2  502    0 -0.38461075110E+02 -0.27695030933E+02 -0.56623956794E+02  0.73959542454E+02  0.41800000000E+01 0. -1.
         -5    1    1    2    0  502  0.55417296527E+02  0.41149329314E+02 -0.19819062501E+03  0.20990793291E+03  0.41800000000E+01 0.  1.
        -11    1    1    2    0    0 -0.22922510502E+02  0.36025480729E+02 -0.68580490458E+02  0.80787130293E+02  0.00000000000E+00 0.  1.
         11    1    1    2    0    0  0.59662890848E+01 -0.49479779111E+02 -0.45312955622E+02  0.67358066284E+02  0.00000000000E+00 0. -1.
</event>
<event>
 6    1  0.8989754E-006  0.1615945E+03  0.7561462E-02  0.1186908E+00
         -2   -1    0    0    0  501 -0.00000000000E+00  0.00000000000E+00  0.62959149606E+02  0.62959149606E+02  0.00000000000E+00 0.  1.
          2   -1    0    0  501    0  0.00000000000E+00 -0.00000000000E+00 -0.63578951883E+03  0.63578951883E+03  0.00000000000E+00 0. -1.
          5    1    1    2  502    0 -0.13877795906E+02 -0.31644013834E+01  0.13888441052E+02  0.20321610423E+02  0.41800000000E+01 0.  1.
         -5    1    1    2    0  502  0.87142526168E+02  0.11915586243E+03 -0.14490599663E+03  0.20689891174E+03  0.41800000000E+01 0.  1.
        -11    1    1    2    0    0 -0.60117604542E+02 -0.19368770487E+02 -0.22691263844E+03  0.23553900129E+03  0.00000000000E+00 0.  1.
         11    1    1    2    0    0 -0.13147125720E+02 -0.96622690561E+02 -0.21490017520E+03  0.23598914498E+03  0.00000000000E+00 0. -1.
</event>
<event>
 6    1  0.8989754E-006  0.8058252E+02  0.7561462E-02  0.1327406E+00
          1   -1    0    0  501    0  0.00000000000E+00  0.00000000000E+00  0.11769167819E+03  0.11769167819E+03  0.00000000000E+00 0. -1.
         -1   -1    0    0    0  501 -0.00000000000E+00 -0.00000000000E+00 -0.10819322822E+03  0.10819322822E+03  0.00000000000E+00 0.  1.
          5    1    1    2  502    0  0.47213627580E+02  0.84263324698E+01 -0.36315232658E+02  0.60302555760E+02  0.41800000000E+01 0.  1.
         -5    1    1    2    0  502 -0.39741598373E+02 -0.39346995186E+02  0.39868851705E+02  0.68808272815E+02  0.41800000000E+01 0.  1.
        -11    1    1    2    0    0 -0.27532989800E+02  0.15156448086E+02  0.42091076456E+02  0.52530392756E+02  0.00000000000E+00 0. -1.
         11    1    1    2    0    0  0.20060960594E+02  0.15764214631E+02 -0.36146245532E+02  0.44243685074E+02  0.00000000000E+00 0.  1.
</event>
<event>
 6    1  0.8989754E-006  0.1125589E+03  0.7561462E-02  0.1255903E+00
         -1   -1    0    0    0  501 -0.00000000000E+00  0.00000000000E+00  0.26194769576E+02  0.26194769576E+02  0.00000000000E+00 0.  1.
          1   -1    0    0  501    0  0.00000000000E+00 -0.00000000000E+00 -0.64564493547E+03  0.64564493547E+03  0.00000000000E+00 0. -1.
          5    1    1    2  502    0  0.24893793557E+02  0.64397103843E+02 -0.15999699578E+03  0.17430777091E+03  0.41800000000E+01 0.  1.
         -5    1    1    2    0  502 -0.48160930882E+02 -0.23770381605E+02 -0.44166846477E+02  0.69661244841E+02  0.41800000000E+01 0.  1.
        -11    1    1    2    0    0 -0.35116828757E+02 -0.18038453364E+02 -0.18936861198E+03  0.19344003893E+03  0.00000000000E+00 0.  1.
         11    1    1    2    0    0  0.58383966082E+02 -0.22588268874E+02 -0.22591771166E+03  0.23443065036E+03  0.00000000000E+00 0. -1.
</event>
<event>
 6    1  0.8989754E-006  0.1106262E+03  0.7561462E-02  0.1259415E+00
         -2   -1    0    0    0  501 -0.00000000000E+00  0.00000000000E+00  0.33345065871E+02  0.33345065871E+02  0.00000000000E+00 0.  1.
          2   -1    0    0  501    0  0.00000000000E+00 -0.00000000000E+00 -0.40870616013E+03  0.40870616013E+03  0.00000000000E+00 0. -1.
          5    1    1    2  502    0 -0.43242319169E+02 -0.40448701917E+02 -0.61843630236E+02  0.85721074740E+02  0.41800000000E+01 0.  1.
         -5    1    1    2    0  502  0.63998436979E+02  0.44916726253E+01 -0.15809293480E+03  0.17066582403E+03  0.41800000000E+01 0.  1.
        -11    1    1    2    0    0  0.34974451922E+02  0.12608669680E+02 -0.35634450920E+02  0.51497620632E+02  0.00000000000E+00 0.  1.
         11    1    1    2    0    0 -0.55730569732E+02  0.23348359612E+02 -0.11979007830E+03  0.13416670659E+03  0.00000000000E+00 0. -1.
</event>
<event>
 6    1  0.8989754E-006  0.6478600E+02  0.7561462E-02  0.1378778E+00
         -3   -1    0    0    0  501 -0.00000000000E+00  0.00000000000E+00  0.21627316061E+03  0.21627316061E+03  0.00000000000E+00 0.  1.
          3   -1    0    0  501    0  0.00000000000E+00 -0.00000000000E+00 -0.76478409336E+02  0.76478409336E+02  0.00000000000E+00 0. -1.
          5    1    1    2  502    0  0.12360019103E+01  0.12277096876E+02 -0.23273388186E+02  0.26671666728E+02  0.41800000000E+01 0. -1.
         -5    1    1    2    0  502 -0.31252501807E+02  0.40129980913E+02  0.16117839345E+03  0.16906531623E+03  0.41800000000E+01 0. -1.
        -11    1    1    2    0    0  0.32347997578E+02 -0.33907107675E+02 -0.33095376411E+02  0.57370626962E+02  0.00000000000E+00 0. -1.
         11    1    1    2    0    0 -0.23314976815E+01 -0.18499970114E+02  0.34985122418E+02  0.39643960022E+02  0.00000000000E+00 0.  1.
</event>
<event>
 6    1  0.8989754E-006  0.1216760E+03  0.7561462E-02  0.1240358E+00
         -1   -1    0    0    0  501 -0.00000000000E+00  0.00000000000E+00  0.34569397425E+03  0.34569397425E+03  0.00000000000E+00 0.  1.
          1   -1    0    0  501    0  0.00000000000E+00 -0.00000000000E+00 -0.48430448763E+02  0.48430448763E+02  0.00000000000E+00 0. -1.
          5    1    1    2  502    0  0.53764016244E+02  0.25506857026E+02  0.76285456509E+02  0.96840655062E+02  0.41800000000E+01 0.  1.
         -5    1    1    2    0  502 -0.18097349712E+02 -0.77726675876E+02  0.12836897215E+03  0.15121182368E+03  0.41800000000E+01 0.  1.
        -11    1    1    2    0    0 -0.61650346588E+02  0.26124641823E+02  0.29856681583E+02  0.73312233494E+02  0.00000000000E+00 0. -1.
         11    1    1    2    0    0  0.25983680056E+02  0.26095177027E+02  0.62752415245E+02  0.72759710777E+02  0.00000000000E+00 0.  1.
</event>
<event>
 6    1  0.8989754E-006  0.1252730E+03  0.7561462E-02  0.1234643E+00
         -2   -1    0    0    0  501 -0.00000000000E+00  0.00000000000E+00  0.18471031625E+03  0.18471031625E+03  0.00000000000E+00 0.  1.
          2   -1    0    0  501    0  0.00000000000E+00 -0.00000000000E+00 -0.99680213333E+02  0.99680213333E+02  0.00000000000E+00 0. -1.
          5    1    1    2  502    0  0.11443848861E+02  0.92583373801E+02  0.24665287382E+02  0.96584116617E+02  0.41800000000E+01 0.  1.
         -5    1    1    2    0  502  0.40679115759E+02 -0.34135278669E+02  0.14334534071E+01  0.53287286452E+02  0.41800000000E+01 0.  1.
        -11    1    1    2    0    0 -0.23285919386E+02 -0.69282673427E+02  0.70559624799E+02  0.10159224149E+03  0.00000000000E+00 0.  1.
         11    1    1    2    0    0 -0.28837045235E+02  0.10834578296E+02 -0.11628262671E+02  0.32926885025E+02  0.00000000000E+00 0. -1.
</event>
<event>
 6    1  0.8989754E-006  0.9672588E+02  0.7561462E-02  0.1287336E+00
          4   -1    0    0  501    0  0.00000000000E+00  0.00000000000E+00  0.10882705105E+03  0.10882705105E+03  0.00000000000E+00 0. -1.
         -4   -1    0    0    0  501 -0.00000000000E+00 -0.00000000000E+00 -0.11937802625E+03  0.11937802625E+03  0.00000000000E+00 0.  1.
          5    1    1    2  502    0  0.39532576090E+02 -0.87500324709E+01 -0.49435487306E+02  0.64036922519E+02  0.41800000000E+01 0. -1.
         -5    1    1    2    0  502 -0.53500619040E+02  0.11954799522E+02  0.31154235121E+02  0.63192501416E+02  0.41800000000E+01 0. -1.
        -11    1    1    2    0    0  0.55791396223E+02  0.36568033220E+00 -0.75590720770E+01  0.56302337298E+02  0.00000000000E+00 0.  1.
         11    1    1    2    0    0 -0.41823353274E+02 -0.35704473835E+01  0.15289349057E+02  0.44673316064E+02  0.00000000000E+00 0. -1.
</event>
<event>
 6    1  0.8989754E-006  0.1286977E+03  0.7561462E-02  0.1229401E+00
          1   -1    0    0  501    0  0.00000000000E+00  0.00000000000E+00  0.29316589287E+03  0.29316589287E+03  0.00000000000E+00 0. -1.
         -1   -1    0    0    0  501 -0.00000000000E+00 -0.00000000000E+00 -0.81163475762E+02  0.81163475762E+02  0.00000000000E+00 0.  1.
          5    1    1    2  502    0 -0.11779166359E+03  0.23717600616E+02  0.22718544144E+02  0.12235605926E+03  0.41800000000E+01 0.  1.
         -5    1    1    2    0  502  0.32216271603E+02  0.21349097489E+01  0.15578293752E+02  0.36091572865E+02  0.41800000000E+01 0.  1.
        -11    1    1    2    0    0  0.82965271397E+02 -0.44872779252E+01  0.17560994128E+03  0.19427357874E+03  0.00000000000E+00 0. -1.
         11    1    1    2    0    0  0.26101205890E+01 -0.21365232440E+02 -0.19043620729E+01  0.21608157756E+02  0.00000000000E+00 0.  1.
</event>
<event>
 6    1  0.8989754E-006  0.1908811E+03  0.7561462E-02  0.1157669E+00
          2   -1    0    0  501    0  0.00000000000E+00  0.00000000000E+00  0.89422625401E+02  0.89422625401E+02  0.00000000000E+00 0. -1.
         -2   -1    0    0    0  501 -0.00000000000E+00 -0.00000000000E+00 -0.52343341211E+03  0.52343341211E+03  0.00000000000E+00 0.  1.
          5    1    1    2  502    0 -0.12195214675E+03 -0.70113270116E+01 -0.26237783777E+03  0.28944962767E+03  0.41800000000E+01 0. -1.
         -5    1    1    2    0  502 -0.60760494235E+02 -0.13409796240E+02 -0.11632676666E+02  0.63438567617E+02  0.41800000000E+01 0. -1.
        -11    1    1    2    0    0  0.85317755558E+02  0.45375164699E+02 -0.11387775923E+03  0.14935249925E+03  0.00000000000E+00 0.  1.
         11    1    1    2    0    0  0.97394885428E+02 -0.24954041448E+02 -0.46122513040E+02  0.11061534297E+03  0.00000000000E+00 0. -1.
</event>
<event>
 6    1  0.8989754E-006  0.1513787E+03  0.7561462E-02  0.1198789E+00
         -1   -1    0    0    0  501 -0.00000000000E+00  0.00000000000E+00  0.48413193389E+03  0.48413193389E+03  0.00000000000E+00 0.  1.
          1   -1    0    0  501    0  0.00000000000E+00 -0.00000000000E+00 -0.48119752507E+02  0.48119752507E+02  0.00000000000E+00 0. -1.
          5    1    1    2  502    0  0.20283944316E+02  0.51728107567E+02  0.67304559952E+02  0.87376265082E+02  0.41800000000E+01 0. -1.
         -5    1    1    2    0  502  0.85449059231E+02 -0.66086596526E+02  0.16336740878E+03  0.19589630577E+03  0.41800000000E+01 0. -1.
        -11    1    1    2    0    0  0.59081894665E+01  0.26022510659E+02  0.57173396541E+02  0.63094175926E+02  0.00000000000E+00 0.  1.
         11    1    1    2    0    0 -0.11164119301E+03 -0.11664021699E+02  0.14816681612E+03  0.18588493962E+03  0.00000000000E+00 0. -1.
</event>
<event>
 6    1  0.8989754E-006  0.1958302E+03  0.7561462E-02  0.1153306E+00
         -1   -1    0    0    0  501 -0.00000000000E+00  0.00000000000E+00  0.20152204485E+02  0.20152204485E+02  0.00000000000E+00 0.  1.
          1   -1    0    0  501    0  0.00000000000E+00 -0.00000000000E+00 -0.21565045242E+04  0.21565045242E+04  0.00000000000E+00 0. -1.
          5    1    1    2  502    0  0.35970391613E+02  0.10613096999E+03 -0.94734046156E+03  0.95395444040E+03  0.41800000000E+01 0.  1.
         -5    1    1    2    0  502 -0.37778465879E+02  0.70744443370E+02 -0.24253472981E+03  0.25548494343E+03  0.41800000000E+01 0.  1.
        -11    1    1    2    0    0 -0.41821486161E+02 -0.12283102730E+03 -0.61148164692E+03  0.62509703446E+03  0.00000000000E+00 0. -1.
         11    1    1    2    0    0  0.43629560427E+02 -0.54044386061E+02 -0.33499548141E+03  0.34212031037E+03  0.00000000000E+00 0.  1.
</event>
<event>
 6    1  0.8989754E-006  0.1408464E+03  0.7561462E-02  0.1212195E+00
         -2   -1    0    0    0  501 -0.00000000000E+00  0.00000000000E+00  0.30000358522E+02  0.30000358522E+02  0.00000000000E+00 0.  1.
          2   -1    0    0  501    0  0.00000000000E+00 -0.00000000000E+00 -0.98062879610E+03  0.98062879610E+03  0.00000000000E+00 0. -1.
          5    1    1    2  502    0 -0.24809684785E+02 -0.36150367428E+02 -0.43132407561E+03  0.43356694999E+03  0.41800000000E+01 0. -1.
         -5    1    1    2    0  502  0.38390816526E+02 -0.88456791590E+02 -0.19918191108E+03  0.22133541260E+03  0.41800000000E+01 0. -1.
        -11    1    1    2    0    0 -0.34330962392E+02  0.34524184985E+02 -0.48160504632E+02  0.68483344939E+02  0.00000000000E+00 0.  1.
         11    1    1    2    0    0  0.20749830651E+02  0.90082974033E+02 -0.27196194626E+03  0.28724344709E+03  0.00000000000E+00 0. -1.
</event>
<event>
 6    1  0.8989754E-006  0.8544879E+02  0.7561462E-02  0.1314263E+00
          2   -1    0    0  501    0  0.00000000000E+00  0.00000000000E+00  0.19244358168E+03  0.19244358168E+03  0.00000000000E+00 0. -1.
         -2   -1    0    0    0  501 -0.00000000000E+00 -0.00000000000E+00 -0.61768640601E+02  0.61768640601E+02  0.00000000000E+00 0.  1.
          5    1    1    2  502    0 -0.49587891880E+02 -0.27038890873E+02  0.91328667622E+02  0.10746375468E+03  0.41800000000E+01 0. -1.
         -5    1    1    2    0  502  0.24964227469E+02  0.24455098770E+02 -0.18107162674E+02  0.39580377071E+02  0.41800000000E+01 0. -1.
        -11    1    1    2    0    0  0.18932408285E+02 -0.35674795352E+02  0.55234422101E+02  0.68424911339E+02  0.00000000000E+00 0. -1.
         11    1    1    2    0    0  0.56912561255E+01  0.38258587455E+02  0.22190140287E+01  0.38743179188E+02  0.00000000000E+00 0.  1.
</event>
<event>
 6    1  0.8989754E-006  0.1622650E+03  0.7561462E-02  0.1186163E+00
          2   -1    0    0  501    0  0.00000000000E+00  0.00000000000E+00  0.15644280144E+02  0.15644280144E+02  0.00000000000E+00 0.  1.
         -2   -1    0    0    0  501 -0.00000000000E+00 -0.00000000000E+00 -0.19594880525E+04  0.19594880525E+04  0.00000000000E+00 0. -1.
          5    1    1    2  502    0  0.14242347962E+03  0.30625562419E+02 -0.75572713254E+03  0.76965144311E+03  0.41800000000E+01 0.  1.
         -5    1    1    2    0  502 -0.15995220828E+02  0.17091958868E+02 -0.39509259990E+03  0.39580755051E+03  0.41800000000E+01 0.  1.
        -11    1    1    2    0    0 -0.11044644383E+03 -0.63094835577E+01 -0.66582577580E+03  0.67495347266E+03  0.00000000000E+00 0. -1.
         11    1    1    2    0    0 -0.15981814956E+02 -0.41408037729E+02 -0.12719826408E+03  0.13471986633E+03  0.00000000000E+00 0.  1.
</event>
<event>
 6    1  0.8989754E-006  0.8664457E+02  0.7561462E-02  0.1311187E+00
         -1   -1    0    0    0  501 -0.00000000000E+00  0.00000000000E+00  0.40063336909E+03  0.40063336909E+03  0.00000000000E+00 0.  1.
          1   -1    0    0  501    0  0.00000000000E+00 -0.00000000000E+00 -0.39389791979E+02  0.39389791979E+02  0.00000000000E+00 0. -1.
          5    1    1    2  502    0  0.18039574236E+02  0.60376448740E+02  0.61029222662E+02  0.87822435743E+02  0.41800000000E+01 0. -1.
         -5    1    1    2    0  502  0.40353079219E+01 -0.25625296776E+02  0.23146949915E+03  0.23295609239E+03  0.41800000000E+01 0. -1.
        -11    1    1    2    0    0 -0.45944154792E+02 -0.38191857048E+02  0.73443277190E+02  0.94675225211E+02  0.00000000000E+00 0.  1.
         11    1    1    2    0    0  0.23869272634E+02  0.34407050840E+01 -0.46984218922E+01  0.24569407723E+02  0.00000000000E+00 0. -1.
</event>
<event>
 6    1  0.8989754E-006  0.1490347E+03  0.7561462E-02  0.1201664E+00
         -3   -1    0    0    0  501 -0.00000000000E+00  0.00000000000E+00  0.94431248069E+03  0.94431248069E+03  0.00000000000E+00 0.  1.
          3   -1    0    0  501    0  0.00000000000E+00 -0.00000000000E+00 -0.34236173278E+02  0.34236173278E+02  0.00000000000E+00 0. -1.
          5    1    1    2  502    0  0.20164319164E+02 -0.38486554259E+02  0.14509878680E+03  0.15152209395E+03  0.41800000000E+01 0.  1.
         -5    1    1    2    0  502  0.84940525630E+02  0.97210965367E+02  0.54179272712E+03  0.55697548980E+03  0.41800000000E+01 0.  1.
        -11    1    1    2    0    0 -0.47555523496E+02 -0.46326205688E+02  0.19257753699E+03  0.20370015440E+03  0.00000000000E+00 0.  1.
         11    1    1    2    0    0 -0.57549321298E+02 -0.12398205419E+02  0.30607256518E+02  0.66350915826E+02  0.00000000000E+00 0. -1.
</event>
<event>
 6    1  0.8989754E-006  0.1828762E+03  0.7561462E-02  0.1165048E+00
         -2   -1    0    0    0  501 -0.00000000000E+00  0.00000000000E+00  0.58035120609E+02  0.58035120609E+02  0.00000000000E+00 0.  1.
          2   -1    0    0  501    0  0.00000000000E+00 -0.00000000000E+00 -0.77320126811E+03  0.77320126811E+03  0.00000000000E+00 0. -1.
          5    1    1    2  502    0 -0.47695837780E+02  0.18918629506E+02 -0.61404372212E+02  0.80129749848E+02  0.41800000000E+01 0. -1.
         -5    1    1    2    0  502  0.83262542533E+01 -0.15557633777E+03 -0.13795433441E+03  0.20813984282E+03  0.41800000000E+01 0.  1.
        -11    1    1    2    0    0  0.42903998618E+02  0.31565474270E+02 -0.91974420640E+02  0.10628464760E+03  0.00000000000E+00 0.  1.
         11    1    1    2    0    0 -0.35344150913E+01  0.10509223400E+03 -0.42383302024E+03  0.43668214846E+03  0.00000000000E+00 0. -1.
</event>
<event>
 6    1  0.8989754E-006  0.1081236E+03  0.7561462E-02  0.1264085E+00
         -1   -1    0    0    0  501 -0.00000000000E+00  0.00000000000E+00  0.77628350337E+02  0.77628350337E+02  0.00000000000E+00 0.  1.
          1   -1    0    0  501    0  0.00000000000E+00 -0.00000000000E+00 -0.24969817334E+03  0.24969817334E+03  0.00000000000E+00 0. -1.
          5    1    1    2  502    0 -0.61246208785E+02 -0.27273740384E+02 -0.17783390826E+02  0.69488678174E+02  0.41800000000E+01 0.  1.
         -5    1    1    2    0  502  0.56676937421E+02 -0.41815184631E+01  0.17378732592E+02  0.59575608084E+02  0.41800000000E+01 0.  1.
        -11    1    1    2    0    0  0.21832287082E+02  0.57124230782E+02 -0.14519774897E+03  0.15755066743E+03  0.00000000000E+00 0. -1.
         11    1    1    2    0    0 -0.17263015717E+02 -0.25668971935E+02 -0.26467415797E+02  0.40711569987E+02  0.00000000000E+00 0.  1.
</event>
<event>
 6    1  0.1204033E-005  0.1223319E+03  0.7561462E-02  0.1239299E+00
         -1   -1    0    0    0  501 -0.00000000000E+00  0.00000000000E+00  0.10431306195E+03  0.10431306195E+03  0.00000000000E+00 0.  1.
          1   -1    0    0  501    0  0.00000000000E+00 -0.00000000000E+00 -0.19568298962E+03  0.19568298962E+03  0.00000000000E+00 0. -1.
          5    1    1    2  502    0  0.51142991832E+02  0.81275974415E+02  0.29776443525E+02  0.10062553662E+03  0.41800000000E+01 0.  1.
         -5    1    1    2    0  502  0.11638013040E+02 -0.18483349597E+02 -0.49210942418E+02  0.54002470439E+02  0.41800000000E+01 0.  1.
        -11    1    1    2    0    0 -0.54778548260E+02  0.77386541290E+01 -0.32634537178E+02  0.64230749132E+02  0.00000000000E+00 0. -1.
         11    1    1    2    0    0 -0.80024566130E+01 -0.70531278947E+02 -0.39300891596E+02  0.81137295382E+02  0.00000000000E+00 0.  1.
</event>
<event>
 6    1  0.8989754E-006  0.1683676E+03  0.7561462E-02  0.1179561E+00
          1   -1    0    0  501    0  0.00000000000E+00  0.00000000000E+00  0.42633145124E+03  0.42633145124E+03  0.00000000000E+00 0. -1.
         -1   -1    0    0    0  501 -0.00000000000E+00 -0.00000000000E+00 -0.82121360168E+02  0.82121360168E+02  0.00000000000E+00 0.  1.
          5    1    1    2  502    0 -0.36075754553E+01 -0.37918204719E+02  0.90701834348E+02  0.98463698914E+02  0.41800000000E+01 0.  1.
         -5    1    1    2    0  502 -0.13009611766E+03 -0.28277615120E+02  0.52256597682E+02  0.14308335944E+03  0.41800000000E+01 0.  1.
        -11    1    1    2    0    0 -0.22569616998E+01  0.22202081422E+02  0.29961555041E+01  0.22516732521E+02  0.00000000000E+00 0.  1.
         11    1    1    2    0    0  0.13596065481E+03  0.43993738417E+02  0.19825550354E+03  0.24438902054E+03  0.00000000000E+00 0. -1.
</event>
<event>
 6    1  0.8989754E-006  0.1184833E+03  0.7561462E-02  0.1245620E+00
          2   -1    0    0  501    0  0.00000000000E+00  0.00000000000E+00  0.27265568608E+02  0.27265568608E+02  0.00000000000E+00 0. -1.
         -2   -1    0    0    0  501 -0.00000000000E+00 -0.00000000000E+00 -0.72288617193E+03  0.72288617193E+03  0.00000000000E+00 0.  1.
          5    1    1    2  502    0  0.10033191850E+03  0.42896517797E+00 -0.44116895787E+03  0.45245353316E+03  0.41800000000E+01 0. -1.
         -5    1    1    2    0  502 -0.14723390046E+02  0.11109325158E+02 -0.59871428733E+01  0.19837177211E+02  0.41800000000E+01 0. -1.
        -11    1    1    2    0    0 -0.70514100789E+02 -0.43104419685E+02 -0.21095182463E+03  0.22656324001E+03  0.00000000000E+00 0.  1.
         11    1    1    2    0    0 -0.15094427664E+02  0.31566129350E+02 -0.37512677950E+02  0.51297790163E+02  0.00000000000E+00 0. -1.
</event>
<event>
 6    1  0.8989754E-006  0.1112403E+03  0.7561462E-02  0.1258290E+00
         -3   -1    0    0    0  501 -0.00000000000E+00  0.00000000000E+00  0.18745089644E+03  0.18745089644E+03  0.00000000000E+00 0.  1.
          3   -1    0    0  501    0  0.00000000000E+00 -0.00000000000E+00 -0.12612643301E+03  0.12612643301E+03  0.00000000000E+00 0. -1.
          5    1    1    2  502    0  0.20439404531E+02  0.66552078359E+02 -0.87809178413E+01  0.70295983595E+02  0.41800000000E+01 0. -1.
         -5    1    1    2    0  502  0.28867414147E+02 -0.34875030585E+01  0.99464960845E+02  0.10371229972E+03  0.41800000000E+01 0. -1.
        -11    1    1    2    0    0  0.27884169236E+02 -0.97235692381E+01  0.17877986232E+02  0.34520965868E+02  0.00000000000E+00 0.  1.
         11    1    1    2    0    0 -0.77190987914E+02 -0.53341006062E+02 -0.47237565808E+02  0.10504808026E+03  0.00000000000E+00 0. -1.
</event>
<event>
 6    1  0.8989754E-006  0.1017098E+03  0.7561462E-02  0.1276741E+00
          1   -1    0    0  501    0  0.00000000000E+00  0.00000000000E+00  0.17007389254E+03  0.17007389254E+03  0.00000000000E+00 0. -1.
         -1   -1    0    0    0  501 -0.00000000000E+00 -0.00000000000E+00 -0.12028289606E+03  0.12028289606E+03  0.00000000000E+00 0.  1.
          5    1    1    2  502    0 -0.18205981364E+02  0.14469450825E+02  0.40450020004E+02  0.46845483058E+02  0.41800000000E+01 0. -1.
         -5    1    1    2    0  502 -0.16244825026E+02 -0.92562108387E+02 -0.45950003550E+02  0.10469247096E+03  0.41800000000E+01 0. -1.
        -11    1    1    2    0    0  0.10135048837E+02  0.32588248798E+02 -0.25747099415E+02  0.42750746227E+02  0.00000000000E+00 0.  1.
         11    1    1    2    0    0  0.24315757553E+02  0.45504408764E+02  0.81038079432E+02  0.96068088356E+02  0.00000000000E+00 0. -1.
</event>
<event>
 6    1  0.8989754E-006  0.2155312E+03  0.7561462E-02  0.1137259E+00
          1   -1    0    0  501    0  0.00000000000E+00  0.00000000000E+00  0.53638132957E+03  0.53638132957E+03  0.00000000000E+00 0. -1.
         -1   -1    0    0    0  501 -0.00000000000E+00 -0.00000000000E+00 -0.92053098864E+02  0.92053098864E+02  0.00000000000E+00 0.  1.
          5    1    1    2  502    0  0.83250967192E+02  0.50089710368E+02  0.79274566308E+02  0.12546566019E+03  0.41800000000E+01 0.  1.
         -5    1    1    2    0  502 -0.19124054780E+02  0.12699034229E+03  0.86499965923E+02  0.15489348925E+03  0.41800000000E+01 0.  1.
        -11    1    1    2    0    0  0.62219218111E+01 -0.10291055800E+03  0.17111837839E+03  0.19977686223E+03  0.00000000000E+00 0.  1.
         11    1    1    2    0    0 -0.70348834223E+02 -0.74169494657E+02  0.10743532008E+03  0.14829841676E+03  0.00000000000E+00 0. -1.
</event>
<event>
 6    1  0.8989754E-006  0.1145032E+03  0.7561462E-02  0.1252451E+00
          1   -1    0    0  501    0  0.00000000000E+00  0.00000000000E+00  0.47728097256E+03  0.47728097256E+03  0.00000000000E+00 0. -1.
         -1   -1    0    0    0  501 -0.00000000000E+00 -0.00000000000E+00 -0.28981328233E+02  0.28981328233E+02  0.00000000000E+00 0.  1.
          5    1    1    2  502    0 -0.17041726121E+02  0.74681398071E+02  0.13729815171E+03  0.15727678312E+03  0.41800000000E+01 0. -1.
         -5    1    1    2    0  502  0.16852189683E+02 -0.58425026645E+02  0.91132875173E+02  0.10963646005E+03  0.41800000000E+01 0.  1.
        -11    1    1    2    0    0  0.15142090960E+02  0.34900361286E+02  0.12346669108E+03  0.12919497646E+03  0.00000000000E+00 0. -1.
         11    1    1    2    0    0 -0.14952554522E+02 -0.51156732713E+02  0.96401926372E+02  0.11015408116E+03  0.00000000000E+00 0.  1.
</event>
<event>
 6    1  0.8989754E-006  0.4223165E+03  0.7561462E-02  0.1036315E+00
         -1   -1    0    0    0  501 -0.00000000000E+00  0.00000000000E+00  0.41338072311E+02  0.41338072311E+02  0.00000000000E+00 0.  1.
          1   -1    0    0  501    0  0.00000000000E+00 -0.00000000000E+00 -0.43417016083E+04  0.43417016083E+04  0.00000000000E+00 0. -1.
          5    1    1    2  502    0 -0.34955085790E+01  0.14298950638E+03 -0.83550172347E+03  0.84766669147E+03  0.41800000000E+01 0.  1.
         -5    1    1    2    0  502 -0.16957759231E+03  0.22631021978E+03 -0.14625992372E+04  0.14896935512E+04  0.41800000000E+01 0.  1.
        -11    1    1    2    0    0  0.27014004443E+02 -0.67435618670E+01 -0.16048201685E+03  0.16287943331E+03  0.00000000000E+00 0. -1.
         11    1    1    2    0    0  0.14605909644E+03 -0.36255616429E+03 -0.18417805585E+04  0.18828000046E+04  0.00000000000E+00 0.  1.
</event>
<event>
 6    1  0.8989754E-006  0.2042092E+03  0.7561462E-02  0.1146236E+00
          1   -1    0    0  501    0  0.00000000000E+00  0.00000000000E+00  0.14400885267E+04  0.14400885267E+04  0.00000000000E+00 0. -1.
         -1   -1    0    0    0  501 -0.00000000000E+00 -0.00000000000E+00 -0.35267435210E+02  0.35267435210E+02  0.00000000000E+00 0.  1.
          5    1    1    2  502    0 -0.63416785641E+02  0.11258729132E+03  0.32153127410E+03  0.34655074591E+03  0.41800000000E+01 0. -1.
         -5    1    1    2    0  502 -0.81348719661E+02  0.18764751568E+02  0.50803690481E+03  0.51486765207E+03  0.41800000000E+01 0. -1.
        -11    1    1    2    0    0  0.10229994869E+03 -0.89632362695E+02  0.26329366825E+03  0.29634911116E+03  0.00000000000E+00 0.  1.
         11    1    1    2    0    0  0.42465556612E+02 -0.41719680189E+02  0.31195924429E+03  0.31758845274E+03  0.00000000000E+00 0. -1.
</event>
<event>
 6    1  0.8989754E-006  0.1103149E+03  0.7561462E-02  0.1259988E+00
         -2   -1    0    0    0  501 -0.00000000000E+00  0.00000000000E+00  0.24591853156E+03  0.24591853156E+03  0.00000000000E+00 0.  1.
          2   -1    0    0  501    0  0.00000000000E+00 -0.00000000000E+00 -0.54465905956E+02  0.54465905956E+02  0.00000000000E+00 0. -1.
          5    1    1    2  502    0 -0.67946329502E+02 -0.42561515647E+02  0.38476228239E+02  0.89028528273E+02  0.41800000000E+01 0.  1.
         -5    1    1    2    0  502  0.31901698749E+02  0.28036674075E+02  0.65660005548E+02  0.78310166676E+02  0.41800000000E+01 0.  1.
        -11    1    1    2    0    0 -0.98415035691E+01  0.42702364293E+02  0.54707263360E+02  0.70094448946E+02  0.00000000000E+00 0.  1.
         11    1    1    2    0    0  0.45886134322E+02 -0.28177522721E+02  0.32609128455E+02  0.62951293619E+02  0.00000000000E+00 0. -1.
</event>
<event>
 6    1  0.8989754E-006  0.8681400E+02  0.7561462E-02  0.1310756E+00
          2   -1    0    0  501    0  0.00000000000E+00  0.00000000000E+00  0.33909716301E+03  0.33909716301E+03  0.00000000000E+00 0.  1.
         -2   -1    0    0    0  501 -0.00000000000E+00 -0.00000000000E+00 -0.39051908248E+02  0.39051908248E+02  0.00000000000E+00 0. -1.
          5    1    1    2  502    0 -0.31299154900E+02 -0.30512325422E+02  0.92865138454E+02  0.10272314949E+03  0.41800000000E+01 0.  1.
         -5    1    1    2    0  502  0.63549820779E+02  0.36037190400E+02  0.43196455414E+02  0.84974496017E+02  0.41800000000E+01 0.  1.
        -11    1    1    2    0    0  0.60912605479E+01 -0.15727224940E+02 -0.44215009970E+01  0.17435559367E+02  0.00000000000E+00 0. -1.
         11    1    1    2    0    0 -0.38341926427E+02  0.10202359962E+02  0.16840516189E+03  0.17301586639E+03  0.00000000000E+00 0.  1.
</event>
<event>
 6    1  0.8989754E-006  0.1330137E+03  0.7561462E-02  0.1223051E+00
         -4   -1    0    0    0  501 -0.00000000000E+00  0.00000000000E+00  0.78293330247E+02  0.78293330247E+02  0.00000000000E+00 0.  1.
          4   -1    0    0  501    0  0.00000000000E+00 -0.00000000000E+00 -0.26494451427E+03  0.26494451427E+03  0.00000000000E+00 0. -1.
          5    1    1    2  502    0  0.83986659089E+02 -0.81741607334E+02 -0.41885879308E+02  0.12452850501E+03  0.41800000000E+01 0.  1.
         -5    1    1    2    0  502 -0.22464163396E+02  0.24215213761E+02 -0.71996060868E+01  0.34063498680E+02  0.41800000000E+01 0.  1.
        -11    1    1    2    0    0 -0.11266484512E+02 -0.20067281124E+02 -0.58857391519E+01  0.23754396864E+02  0.00000000000E+00 0.  1.
         11    1    1    2    0    0 -0.50256011180E+02  0.77593674698E+02 -0.13167995947E+03  0.16089144396E+03  0.00000000000E+00 0. -1.
</event>
<event>
 6    1  0.8989754E-006  0.1139458E+03  0.7561462E-02  0.1253432E+00
          1   -1    0    0  501    0  0.00000000000E+00  0.00000000000E+00  0.42866902690E+02  0.42866902690E+02  0.00000000000E+00 0. -1.
         -1   -1    0    0    0  501 -0.00000000000E+00 -0.00000000000E+00 -0.41693126266E+03  0.41693126266E+03  0.00000000000E+00 0.  1.
          5    1    1    2  502    0 -0.19523184207E+02 -0.83511227557E+02 -0.22365155772E+03  0.23956788499E+03  0.41800000000E+01 0. -1.
         -5    1    1    2    0  502  0.17221799326E+02  0.41950475484E+02 -0.98628652721E+02  0.10863478404E+03  0.41800000000E+01 0. -1.
        -11    1    1    2    0    0  0.13728953485E+02 -0.25231080387E+02 -0.27061269194E+02  0.39463956615E+02  0.00000000000E+00 0.  1.
         11    1    1    2    0    0 -0.11427568605E+02  0.66791832460E+02 -0.24722880328E+02  0.72131539698E+02  0.00000000000E+00 0. -1.
</event>
<event>
 6    1  0.8989754E-006  0.1173682E+03  0.7561462E-02  0.1247503E+00
         -3   -1    0    0    0  501 -0.00000000000E+00  0.00000000000E+00  0.23489667220E+03  0.23489667220E+03  0.00000000000E+00 0.  1.
          3   -1    0    0  501    0  0.00000000000E+00 -0.00000000000E+00 -0.68362868133E+02  0.68362868133E+02  0.00000000000E+00 0. -1.
          5    1    1    2  502    0  0.35089749140E+02 -0.64769521266E+02  0.97688313382E+02  0.12242083299E+03  0.41800000000E+01 0.  1.
         -5    1    1    2    0  502 -0.50202172142E+02  0.11375314560E+02  0.12154937152E+02  0.53055355679E+02  0.41800000000E+01 0.  1.
        -11    1    1    2    0    0  0.52462002085E+02  0.12508813844E+02  0.47054776684E+02  0.71574325672E+02  0.00000000000E+00 0.  1.
         11    1    1    2    0    0 -0.37349579083E+02  0.40885392862E+02  0.96357768509E+01  0.56209025990E+02  0.00000000000E+00 0. -1.
</event>
<event>
 6    1  0.8989754E-006  0.7021303E+02  0.7561462E-02  0.1359370E+00
         -4   -1    0    0    0  501 -0.00000000000E+00  0.00000000000E+00  0.16421666387E+03  0.16421666387E+03  0.00000000000E+00 0.  1.
          4   -1    0    0  501    0  0.00000000000E+00 -0.00000000000E+00 -0.93030470908E+02  0.93030470908E+02  0.00000000000E+00 0. -1.
          5    1    1    2  502    0  0.47257418409E+02  0.37189474360E+02 -0.33391211165E+02  0.68911290663E+02  0.41800000000E+01 0.  1.
         -5    1    1    2    0  502  0.19263216892E+01 -0.30490451667E+01  0.75951549961E+02  0.76151938473E+02  0.41800000000E+01 0.  1.
        -11    1    1    2    0    0 -0.12925504707E+02 -0.36068736652E+02 -0.26206201457E+02  0.46419687961E+02  0.00000000000E+00 0. -1.
         11    1    1    2    0    0 -0.36258235391E+02  0.19283074585E+01  0.54832055624E+02  0.65764217682E+02  0.00000000000E+00 0.  1.
</event>
<event>
 6    1  0.8989754E-006  0.1933373E+03  0.7561462E-02  0.1155485E+00
         -2   -1    0    0    0  501 -0.00000000000E+00  0.00000000000E+00  0.23879724176E+02  0.23879724176E+02  0.00000000000E+00 0. -1.
          2   -1    0    0  501    0  0.00000000000E+00 -0.00000000000E+00 -0.17960169095E+04  0.17960169095E+04  0.00000000000E+00 0.  1.
          5    1    1    2  502    0  0.32347147741E+02  0.25579129236E+02 -0.61961332858E+02  0.74547360711E+02  0.41800000000E+01 0.  1.
         -5    1    1    2    0  502  0.18289582390E+01  0.14637160925E+03 -0.84810031875E+03  0.86065069346E+03  0.41800000000E+01 0.  1.
        -11    1    1    2    0    0  0.25859564918E+02 -0.10805677306E+03 -0.48573670941E+03  0.49828218328E+03  0.00000000000E+00 0.  1.
         11    1    1    2    0    0 -0.60035670898E+02 -0.63893965423E+02 -0.37633882428E+03  0.38641639620E+03  0.00000000000E+00 0. -1.
</event>
<event>
 6    1  0.8989754E-006  0.1426261E+03  0.7561462E-02  0.1209838E+00
         -1   -1    0    0    0  501 -0.00000000000E+00  0.00000000000E+00  0.52697861518E+02  0.52697861518E+02  0.00000000000E+00 0.  1.
          1   -1    0    0  501    0  0.00000000000E+00 -0.00000000000E+00 -0.52718815821E+03  0.52718815821E+03  0.00000000000E+00 0. -1.
          5    1    1    2  502    0  0.77026292542E+02  0.11028643878E+03 -0.14676910860E+03  0.19913510981E+03  0.41800000000E+01 0.  1.
         -5    1    1    2    0  502 -0.33592315716E+02 -0.34723445597E+01 -0.22113048984E+02  0.40582757265E+02  0.41800000000E+01 0.  1.
        -11    1    1    2    0    0 -0.10264673196E+02 -0.48265952860E+02 -0.32964620666E+02  0.59343339449E+02  0.00000000000E+00 0.  1.
         11    1    1    2    0    0 -0.33169303630E+02 -0.58548141360E+02 -0.27264351845E+03  0.28082481320E+03  0.00000000000E+00 0. -1.
</event>
<event>
 6    1  0.8989754E-006  0.1423996E+03  0.7561462E-02  0.1210136E+00
          2   -1    0    0  501    0  0.00000000000E+00  0.00000000000E+00  0.66040403396E+03  0.66040403396E+03  0.00000000000E+00 0. -1.
         -2   -1    0    0    0  501 -0.00000000000E+00 -0.00000000000E+00 -0.32792879295E+02  0.32792879295E+02  0.00000000000E+00 0.  1.
          5    1    1    2  502    0  0.93865206464E+02  0.80650183162E+02  0.20395783450E+03  0.23860301691E+03  0.41800000000E+01 0.  1.
         -5    1    1    2    0  502 -0.29387185349E+02 -0.71910018578E+01  0.96459186790E+02  0.10117887273E+03  0.41800000000E+01 0.  1.
        -11    1    1    2    0    0  0.89865356022E+01 -0.53576892742E+02  0.17522932240E+03  0.18345723394E+03  0.00000000000E+00 0. -1.
         11    1    1    2    0    0 -0.73464556718E+02 -0.19882288562E+02  0.15196481098E+03  0.16995778967E+03  0.00000000000E+00 0.  1.
</event>
<event>
 6    1  0.8989754E-006  0.8955040E+02  0.7561462E-02  0.1303944E+00
          2   -1    0    0  501    0  0.00000000000E+00  0.00000000000E+00  0.54905185044E+03  0.54905185044E+03  0.00000000000E+00 0. -1.
         -2   -1    0    0    0  501 -0.00000000000E+00 -0.00000000000E+00 -0.26356639008E+02  0.26356639008E+02  0.00000000000E+00 0.  1.
          5    1    1    2  502    0  0.31031531598E+01 -0.13053435322E+02 -0.87185334109E+01  0.16538045776E+02  0.41800000000E+01 0. -1.
         -5    1    1    2    0  502 -0.43127331252E+02  0.47202237844E+02  0.27459898139E+03  0.28197533746E+03  0.41800000000E+01 0. -1.
        -11    1    1    2    0    0  0.62778713676E+02 -0.36005240852E+01  0.12874902727E+03  0.14328448167E+03  0.00000000000E+00 0.  1.
         11    1    1    2    0    0 -0.22754535584E+02 -0.30548278436E+02  0.12806573618E+03  0.13361062453E+03  0.00000000000E+00 0. -1.
</event>
<event>
 6    1  0.8989754E-006  0.1220948E+03  0.7561462E-02  0.1239681E+00
         -3   -1    0    0    0  501 -0.00000000000E+00  0.00000000000E+00  0.93210592446E+03  0.93210592446E+03  0.00000000000E+00 0.  1.
          3   -1    0    0  501    0  0.00000000000E+00 -0.00000000000E+00 -0.20057114414E+02  0.20057114414E+02  0.00000000000E+00 0. -1.
          5    1    1    2  502    0 -0.36881469344E+02 -0.17762661758E+02  0.26692658991E+03  0.27007967664E+03  0.41800000000E+01 0. -1.
         -5    1    1    2    0  502  0.15995630028E+02  0.10767840624E+03  0.38403128568E+03  0.39918416819E+03  0.41800000000E+01 0. -1.
        -11    1    1    2    0    0  0.40734124032E+01 -0.56946725932E+02  0.81331315377E+02  0.99369538310E+02  0.00000000000E+00 0. -1.
         11    1    1    2    0    0  0.16812426913E+02 -0.32969018549E+02  0.17975961908E+03  0.18352965573E+03  0.00000000000E+00 0.  1.
</event>
<event>
 6    1  0.8989754E-006  0.1280150E+03  0.7561462E-02  0.1230431E+00
         -1   -1    0    0    0  501 -0.00000000000E+00  0.00000000000E+00  0.29205097046E+02  0.29205097046E+02  0.00000000000E+00 0.  1.
          1   -1    0    0  501    0  0.00000000000E+00 -0.00000000000E+00 -0.76953962982E+03  0.76953962982E+03  0.00000000000E+00 0. -1.
          5    1    1    2  502    0 -0.29388805064E+02 -0.15977189274E+02 -0.11509607361E+02  0.35621845851E+02  0.41800000000E+01 0. -1.
         -5    1    1    2    0  502  0.22918780917E+02  0.97599624941E+02 -0.29486899679E+03  0.31147416422E+03  0.41800000000E+01 0.  1.
        -11    1    1    2    0    0 -0.12977725618E+02  0.17038416403E+02 -0.44004436356E+02  0.48939957241E+02  0.00000000000E+00 0.  1.
         11    1    1    2    0    0  0.19447749765E+02 -0.98660852070E+02 -0.38995149227E+03  0.40270875956E+03  0.00000000000E+00 0. -1.
</event>
<event>
 6    1  0.8989754E-006  0.2669636E+03  0.7561462E-02  0.1103030E+00
         -2   -1    0    0    0  501 -0.00000000000E+00  0.00000000000E+00  0.68377023553E+03  0.68377023553E+03  0.00000000000E+00 0.  1.
          2   -1    0    0  501    0  0.00000000000E+00 -0.00000000000E+00 -0.27000208478E+03  0.27000208478E+03  0.00000000000E+00 0. -1.
          5    1    1    2  502    0  0.54942576688E+01  0.14775866433E+03  0.11538517398E+03  0.18760069437E+03  0.41800000000E+01 0. -1.
         -5    1    1    2    0  502  0.44402323548E+02  0.10548095349E+03  0.44292894622E+03  0.45749461383E+03  0.41800000000E+01 0.  1.
        -11    1    1    2    0    0 -0.39216566079E+02 -0.25714171126E+03 -0.13181518378E+03  0.29160768405E+03  0.00000000000E+00 0. -1.
         11    1    1    2    0    0 -0.10680015138E+02  0.39020934318E+01 -0.12730785666E+02  0.17069328053E+02  0.00000000000E+00 0.  1.
</event>
<event>
 6    1  0.8989754E-006  0.1127067E+03  0.7561462E-02  0.1255638E+00
         -1   -1    0    0    0  501 -0.00000000000E+00  0.00000000000E+00  0.80393751019E+02  0.80393751019E+02  0.00000000000E+00 0.  1.
          1   -1    0    0  501    0  0.00000000000E+00 -0.00000000000E+00 -0.17598416581E+03  0.17598416581E+03  0.00000000000E+00 0. -1.
          5    1    1    2  502    0 -0.14757371702E+02 -0.69854992696E+02 -0.16135438126E+01  0.71537234695E+02  0.41800000000E+01 0.  1.
         -5    1    1    2    0  502  0.24347990029E+02  0.38310397641E+02 -0.50212507024E+02  0.67817987639E+02  0.41800000000E+01 0.  1.
        -11    1    1    2    0    0  0.48553533838E+01 -0.37478074577E+02 -0.11734033586E+02  0.39571050967E+02  0.00000000000E+00 0.  1.
         11    1    1    2    0    0 -0.14445971711E+02  0.69022669633E+02 -0.32030330373E+02  0.77451643531E+02  0.00000000000E+00 0. -1.
</event>
<event>
 6    1  0.8989754E-006  0.1322516E+03  0.7561462E-02  0.1224153E+00
         -2   -1    0    0    0  501 -0.00000000000E+00  0.00000000000E+00  0.41496257835E+03  0.41496257835E+03  0.00000000000E+00 0.  1.
          2   -1    0    0  501    0  0.00000000000E+00 -0.00000000000E+00 -0.48231419704E+02  0.48231419704E+02  0.00000000000E+00 0. -1.
          5    1    1    2  502    0 -0.84720623912E+02  0.18733595894E+02  0.12606770559E+03  0.15309823814E+03  0.41800000000E+01 0. -1.
         -5    1    1    2    0  502  0.70748403471E+01 -0.63529201914E+02  0.54086375014E+02  0.83838065483E+02  0.41800000000E+01 0. -1.
        -11    1    1    2    0    0  0.82880758177E+02  0.16128044069E+02  0.82014975751E+02  0.11771062029E+03  0.00000000000E+00 0. -1.
         11    1    1    2    0    0 -0.52349746123E+01  0.28667561952E+02  0.10456210229E+03  0.10854707413E+03  0.00000000000E+00 0.  1.
</event>
<event>
 6    1  0.8989754E-006  0.1047263E+03  0.7561462E-02  0.1270660E+00
          1   -1    0    0  501    0  0.00000000000E+00  0.00000000000E+00  0.21337880285E+03  0.21337880285E+03  0.00000000000E+00 0. -1.
         -1   -1    0    0    0  501 -0.00000000000E+00 -0.00000000000E+00 -0.81941732417E+02  0.81941732417E+02  0.00000000000E+00 0.  1.
          5    1    1    2  502    0 -0.54795589661E+02  0.10698363574E+02 -0.23555013190E+02  0.60739794828E+02  0.41800000000E+01 0. -1.
         -5    1    1    2    0  502  0.47978500684E+02  0.44689531293E+02  0.40719280638E+02  0.77295685202E+02  0.41800000000E+01 0. -1.
        -11    1    1    2    0    0 -0.37343640587E+01 -0.69802168452E+02  0.39255768146E+02  0.80170465436E+02  0.00000000000E+00 0.  1.
         11    1    1    2    0    0  0.10551453035E+02  0.14414273584E+02  0.75017034840E+02  0.77114589802E+02  0.00000000000E+00 0. -1.
</event>
<event>
 6    1  0.8989754E-006  0.9518957E+02  0.7561462E-02  0.1290750E+00
          1   -1    0    0  501    0  0.00000000000E+00  0.00000000000E+00  0.53040181406E+02  0.53040181406E+02  0.00000000000E+00 0. -1.
         -1   -1    0    0    0  501 -0.00000000000E+00 -0.00000000000E+00 -0.24345019948E+03  0.24345019948E+03  0.00000000000E+00 0.  1.
          5    1    1    2  502    0  0.13923843560E+02 -0.58406058714E+02 -0.19707689205E+02  0.63332507670E+02  0.41800000000E+01 0.  1.
         -5    1    1    2    0  502 -0.20936798057E+02  0.58665453238E+02 -0.50415976124E+02  0.80244800237E+02  0.41800000000E+01 0.  1.
        -11    1    1    2    0    0 -0.22323216369E+02  0.21688082107E+02 -0.44741576075E+01  0.31443870322E+02  0.00000000000E+00 0. -1.
         11    1    1    2    0    0  0.29336170867E+02 -0.21947476631E+02 -0.11581219514E+03  0.12146920266E+03  0.00000000000E+00 0.  1.
</event>
<event>
 6    1  0.8989754E-006  0.1170116E+03  0.7561462E-02  0.1248110E+00
          1   -1    0    0  501    0  0.00000000000E+00  0.00000000000E+00  0.14940942824E+03  0.14940942824E+03  0.00000000000E+00 0. -1.
         -1   -1    0    0    0  501 -0.00000000000E+00 -0.00000000000E+00 -0.98806837195E+02  0.98806837195E+02  0.00000000000E+00 0.  1.
          5    1    1    2  502    0  0.50806086274E+02  0.61685581023E+02  0.36633703778E+01  0.80107814795E+02  0.41800000000E+01 0. -1.
         -5    1    1    2    0  502 -0.32901511735E+02 -0.50593367317E+02 -0.29106860782E+01  0.60565194496E+02  0.41800000000E+01 0.  1.
        -11    1    1    2    0    0 -0.50689340697E+02 -0.26590686920E+02  0.40421643140E+02  0.70074125933E+02  0.00000000000E+00 0.  1.
         11    1    1    2    0    0  0.32784766157E+02  0.15498473215E+02  0.94282636024E+01  0.37469130208E+02  0.00000000000E+00 0. -1.
</event>
<event>
 6    1  0.8989754E-006  0.1328010E+03  0.7561462E-02  0.1223358E+00
         -4   -1    0    0    0  501 -0.00000000000E+00  0.00000000000E+00  0.65961091101E+02  0.65961091101E+02  0.00000000000E+00 0.  1.
          4   -1    0    0  501    0  0.00000000000E+00 -0.00000000000E+00 -0.48314065805E+03  0.48314065805E+03  0.00000000000E+00 0. -1.
          5    1    1    2  502    0 -0.45096243817E+02  0.49310121310E+02 -0.11907407069E+03  0.13660624429E+03  0.41800000000E+01 0.  1.
         -5    1    1    2    0  502 -0.14682210722E+01  0.60707424838E+02  0.18327445787E+02  0.63568189943E+02  0.41800000000E+01 0.  1.
        -11    1    1    2    0    0 -0.94364946005E+01 -0.65675659701E+02 -0.21398696144E+03  0.22403740619E+03  0.00000000000E+00 0.  1.
         11    1    1    2    0    0  0.56000959489E+02 -0.44341886447E+02 -0.10244598061E+03  0.12488990872E+03  0.00000000000E+00 0. -1.
</event>
<event>
 6    1  0.8989754E-006  0.1890362E+03  0.7561462E-02  0.1159334E+00
          1   -1    0    0  501    0  0.00000000000E+00  0.00000000000E+00  0.15397962290E+03  0.15397962290E+03  0.00000000000E+00 0.  1.
         -1   -1    0    0    0  501 -0.00000000000E+00 -0.00000000000E+00 -0.26536875791E+03  0.26536875791E+03  0.00000000000E+00 0. -1.
          5    1    1    2  502    0  0.27015948246E+02  0.37952773998E+02  0.39877666189E+01  0.46943042044E+02  0.41800000000E+01 0.  1.
         -5    1    1    2    0  502 -0.12349036515E+03  0.10129058830E+03 -0.63028436539E+02  0.17175479550E+03  0.41800000000E+01 0.  1.
        -11    1    1    2    0    0  0.75852217782E+02 -0.12583614671E+03 -0.76951297890E+02  0.16586077598E+03  0.00000000000E+00 0. -1.
         11    1    1    2    0    0  0.20622199125E+02 -0.13407215589E+02  0.24602832798E+02  0.34789767292E+02  0.00000000000E+00 0.  1.
</event>
<event>
 6    1  0.8989754E-006  0.1584900E+03  0.7561462E-02  0.1190412E+00
         -2   -1    0    0    0  501 -0.00000000000E+00  0.00000000000E+00  0.90641705591E+02  0.90641705591E+02  0.00000000000E+00 0.  1.
          2   -1    0    0  501    0  0.00000000000E+00 -0.00000000000E+00 -0.40396298471E+03  0.40396298471E+03  0.00000000000E+00 0. -1.
          5    1    1    2  502    0  0.69078847008E+02  0.11768375618E+03 -0.32721290844E+02  0.14039055826E+03  0.41800000000E+01 0.  1.
         -5    1    1    2    0  502  0.92118084324E+01 -0.31151899750E+02  0.42656144801E+01  0.33029776558E+02  0.41800000000E+01 0.  1.
        -11    1    1    2    0    0 -0.23924722302E+02 -0.90097643878E+02 -0.19404327726E+03  0.21527371233E+03  0.00000000000E+00 0. -1.
         11    1    1    2    0    0 -0.54365933139E+02  0.35657874464E+01 -0.90822325495E+02  0.10591064316E+03  0.00000000000E+00 0.  1.
</event>
<event>
 6    1  0.8989754E-006  0.2091959E+03  0.7561462E-02  0.1142204E+00
         -2   -1    0    0    0  501 -0.00000000000E+00  0.00000000000E+00  0.12339093820E+03  0.12339093820E+03  0.00000000000E+00 0.  1.
          2   -1    0    0  501    0  0.00000000000E+00 -0.00000000000E+00 -0.62266285088E+03  0.62266285088E+03  0.00000000000E+00 0. -1.
          5    1    1    2  502    0  0.10398212174E+03 -0.22281071183E+02 -0.77009907691E+02  0.13136485853E+03  0.41800000000E+01 0. -1.
         -5    1    1    2    0  502  0.97160131321E+02  0.46603423535E+02  0.28763678397E+02  0.11160999865E+03  0.41800000000E+01 0. -1.
        -11    1    1    2    0    0 -0.92688179138E+02 -0.23705164421E+02 -0.11289750053E+03  0.14798269831E+03  0.00000000000E+00 0. -1.
         11    1    1    2    0    0 -0.10845407392E+03 -0.61718793052E+00 -0.33812818285E+03  0.35509623359E+03  0.00000000000E+00 0.  1.
</event>
<event>
 6    1  0.8989754E-006  0.1779754E+03  0.7561462E-02  0.1169777E+00
          2   -1    0    0  501    0  0.00000000000E+00  0.00000000000E+00  0.59778033341E+03  0.59778033341E+03  0.00000000000E+00 0. -1.
         -2   -1    0    0    0  501 -0.00000000000E+00 -0.00000000000E+00 -0.62100739668E+02  0.62100739668E+02  0.00000000000E+00 0.  1.
          5    1    1    2  502    0 -0.44756758767E+00  0.40869941506E+02  0.44381268911E+01  0.41324590812E+02  0.41800000000E+01 0. -1.
         -5    1    1    2    0  502 -0.14078074843E+03 -0.67985801841E+01  0.27152732820E+03  0.30595751696E+03  0.41800000000E+01 0.  1.
        -11    1    1    2    0    0  0.42243303360E+02  0.33579820826E+02  0.85929555400E+02  0.10146915559E+03  0.00000000000E+00 0.  1.
         11    1    1    2    0    0  0.98985012657E+02 -0.67651182148E+02  0.17378458324E+03  0.21112980971E+03  0.00000000000E+00 0. -1.
</event>
<event>
 6    1  0.8989754E-006  0.1588060E+03  0.7561462E-02  0.1190051E+00
          3   -1    0    0  501    0  0.00000000000E+00  0.00000000000E+00  0.11294849563E+04  0.11294849563E+04  0.00000000000E+00 0. -1.
         -3   -1    0    0    0  501 -0.00000000000E+00 -0.00000000000E+00 -0.25560435872E+02  0.25560435872E+02  0.00000000000E+00 0.  1.
          5    1    1    2  502    0  0.81829517433E+01 -0.69278341315E+02  0.41400647853E+03  0.41986341344E+03  0.41800000000E+01 0.  1.
         -5    1    1    2    0  502 -0.84614913255E+02 -0.36425032295E+02  0.20092453265E+03  0.22107602029E+03  0.41800000000E+01 0.  1.
        -11    1    1    2    0    0  0.92935738886E+02  0.70566985849E+02  0.31725363898E+03  0.33803346358E+03  0.00000000000E+00 0.  1.
         11    1    1    2    0    0 -0.16503777374E+02  0.35136387762E+02  0.17173987026E+03  0.17607249487E+03  0.00000000000E+00 0. -1.
</event>
<event>
 6    1  0.8989754E-006  0.1199219E+03  0.7561462E-02  0.1243226E+00
         -1   -1    0    0    0  501 -0.00000000000E+00  0.00000000000E+00  0.54229972232E+02  0.54229972232E+02  0.00000000000E+00 0.  1.
          1   -1    0    0  501    0  0.00000000000E+00 -0.00000000000E+00 -0.27882087845E+03  0.27882087845E+03  0.00000000000E+00 0. -1.
          5    1    1    2  502    0  0.26906210725E+02  0.84567767753E+02 -0.50828224589E+02  0.10235542161E+03  0.41800000000E+01 0.  1.
         -5    1    1    2    0  502 -0.34999522935E+02 -0.28648042433E+02 -0.52721724847E+02  0.69589723464E+02  0.41800000000E+01 0.  1.
        -11    1    1    2    0    0  0.37861119241E+02  0.45946718890E+01 -0.34824096115E+02  0.51645842331E+02  0.00000000000E+00 0.  1.
         11    1    1    2    0    0 -0.29767807031E+02 -0.60514397209E+02 -0.86216860667E+02  0.10945986328E+03  0.00000000000E+00 0. -1.
</event>
<event>
 6    1  0.8989754E-006  0.1080454E+03  0.7561462E-02  0.1264233E+00
         -1   -1    0    0    0  501 -0.00000000000E+00  0.00000000000E+00  0.18466020253E+03  0.18466020253E+03  0.00000000000E+00 0.  1.
          1   -1    0    0  501    0  0.00000000000E+00 -0.00000000000E+00 -0.97461357911E+02  0.97461357911E+02  0.00000000000E+00 0. -1.
          5    1    1    2  502    0 -0.59482425579E+02  0.33000574078E+02  0.10281086122E+02  0.68922927782E+02  0.41800000000E+01 0.  1.
         -5    1    1    2    0  502 -0.40428112035E+00 -0.48398901931E+02  0.92176239625E+02  0.10419476332E+03  0.41800000000E+01 0.  1.
        -11    1    1    2    0    0  0.75356781344E+02 -0.28802590453E+01 -0.29688983786E+02  0.81045518969E+02  0.00000000000E+00 0. -1.
         11    1    1    2    0    0 -0.15470074645E+02  0.18278586898E+02  0.14430502656E+02  0.27958350370E+02  0.00000000000E+00 0.  1.
</event>
<event>
 6    1  0.8989754E-006  0.2754158E+03  0.7561462E-02  0.1098219E+00
         -2   -1    0    0    0  501 -0.00000000000E+00  0.00000000000E+00  0.34658857336E+03  0.34658857336E+03  0.00000000000E+00 0.  1.
          2   -1    0    0  501    0  0.00000000000E+00 -0.00000000000E+00 -0.30545143958E+03  0.30545143958E+03  0.00000000000E+00 0. -1.
          5    1    1    2  502    0  0.38537973962E+02  0.23708513127E+03  0.18166526625E+03  0.30118810778E+03  0.41800000000E+01 0.  1.
         -5    1    1    2    0  502 -0.34018870392E+02  0.22163927112E+02  0.32023497922E+01  0.40942040154E+02  0.41800000000E+01 0.  1.
        -11    1    1    2    0    0  0.34262406610E+02 -0.14969495268E+03 -0.52942208138E+02  0.16243573735E+03  0.00000000000E+00 0. -1.
         11    1    1    2    0    0 -0.38781510180E+02 -0.10955410570E+03 -0.90788274123E+02  0.14747412765E+03  0.00000000000E+00 0.  1.
</event>
<event>
 6    1  0.8989754E-006  0.4753303E+02  0.7561462E-02  0.1459121E+00
          1   -1    0    0  501    0  0.00000000000E+00  0.00000000000E+00  0.19850984457E+03  0.19850984457E+03  0.00000000000E+00 0. -1.
         -1   -1    0    0    0  501 -0.00000000000E+00 -0.00000000000E+00 -0.67974217177E+02  0.67974217177E+02  0.00000000000E+00 0.  1.
          5    1    1    2  502    0 -0.25871596982E+02  0.95451417024E+01 -0.43020290368E+02  0.51270528024E+02  0.41800000000E+01 0.  1.
         -5    1    1    2    0  502  0.17682447379E+02 -0.62457037016E+01  0.75621987104E+02  0.78024580060E+02  0.41800000000E+01 0.  1.
        -11    1    1    2    0    0  0.51013537664E+01  0.21944401365E+02 -0.11179580197E+02  0.25150816585E+02  0.00000000000E+00 0.  1.
         11    1    1    2    0    0  0.30877958370E+01 -0.25243839366E+02  0.10911351086E+03  0.11203813708E+03  0.00000000000E+00 0. -1.
</event>
<event>
 6    1  0.8989754E-006  0.1090918E+03  0.7561462E-02  0.1262261E+00
         -2   -1    0    0    0  501 -0.00000000000E+00  0.00000000000E+00  0.34744393309E+03  0.34744393309E+03  0.00000000000E+00 0.  1.
          2   -1    0    0  501    0  0.00000000000E+00 -0.00000000000E+00 -0.45417879226E+02  0.45417879226E+02  0.00000000000E+00 0. -1.
          5    1    1    2  502    0 -0.65745074560E+02  0.10556591476E+02  0.13603688937E+03  0.15151687735E+03  0.41800000000E+01 0. -1.
         -5    1    1    2    0  502  0.58922214836E+02  0.14052668751E+01  0.12738624286E+03  0.14042268138E+03  0.41800000000E+01 0. -1.
        -11    1    1    2    0    0  0.35286072748E+02  0.26784884453E+02  0.11658012947E+02  0.45808800803E+02  0.00000000000E+00 0.  1.
         11    1    1    2    0    0 -0.28463213024E+02 -0.38746742804E+02  0.26944908690E+02  0.55113452785E+02  0.00000000000E+00 0. -1.
</event>
<event>
 6    1  0.8989754E-006  0.1012050E+03  0.7561462E-02  0.1277782E+00
         -1   -1    0    0    0  501 -0.00000000000E+00  0.00000000000E+00  0.96965930008E+02  0.96965930008E+02  0.00000000000E+00 0.  1.
          1   -1    0    0  501    0  0.00000000000E+00 -0.00000000000E+00 -0.14313859054E+03  0.14313859054E+03  0.00000000000E+00 0. -1.
          5    1    1    2  502    0  0.49352578773E+02  0.72958016813E+00 -0.30664710866E+02  0.58258099963E+02  0.41800000000E+01 0. -1.
         -5    1    1    2    0  502 -0.52281875650E+02  0.28197449476E+02  0.37453558896E+02  0.70347225619E+02  0.41800000000E+01 0. -1.
        -11    1    1    2    0    0 -0.39440637530E+02  0.40340286221E+01 -0.58475173078E+01  0.40075313278E+02  0.00000000000E+00 0. -1.
         11    1    1    2    0    0  0.42369934406E+02 -0.32961058266E+02 -0.47113991259E+02  0.71423881692E+02  0.00000000000E+00 0.  1.
</event>
<event>
 6    1  0.8989754E-006  0.1108481E+03  0.7561462E-02  0.1259007E+00
          1   -1    0    0  501    0  0.00000000000E+00  0.00000000000E+00  0.61624633516E+03  0.61624633516E+03  0.00000000000E+00 0. -1.
         -1   -1    0    0    0  501 -0.00000000000E+00 -0.00000000000E+00 -0.23293036825E+02  0.23293036825E+02  0.00000000000E+00 0.  1.
          5    1    1    2  502    0  0.53124539517E+02 -0.12229661565E+01  0.10255662969E+03  0.11558134382E+03  0.41800000000E+01 0. -1.
         -5    1    1    2    0  502 -0.54323775485E+02  0.45916837857E+02  0.29916313627E+03  0.30753127172E+03  0.41800000000E+01 0. -1.
        -11    1    1    2    0    0  0.23198118695E+02 -0.63873226694E+02  0.10219022221E+03  0.12272238310E+03  0.00000000000E+00 0.  1.
         11    1    1    2    0    0 -0.21998882726E+02  0.19179354993E+02  0.89043310162E+02  0.93704373344E+02  0.00000000000E+00 0. -1.
</event>
<event>
 6    1  0.8989754E-006  0.1720556E+03  0.7561462E-02  0.1175721E+00
          1   -1    0    0  501    0  0.00000000000E+00  0.00000000000E+00  0.54132415101E+02  0.54132415101E+02  0.00000000000E+00 0. -1.
         -1   -1    0    0    0  501 -0.00000000000E+00 -0.00000000000E+00 -0.63153912693E+03  0.63153912693E+03  0.00000000000E+00 0.  1.
          5    1    1    2  502    0  0.11250983674E+02  0.17352565472E+02 -0.86883593286E+02  0.89408765478E+02  0.41800000000E+01 0.  1.
         -5    1    1    2    0  502 -0.57004037662E+02 -0.15309835388E+03 -0.29632405253E+03  0.33839914713E+03  0.41800000000E+01 0.  1.
        -11    1    1    2    0    0  0.64358177239E+02  0.11453286044E+03 -0.11792942659E+03  0.17654206511E+03  0.00000000000E+00 0. -1.
         11    1    1    2    0    0 -0.18605123251E+02  0.21212927966E+02 -0.76269639425E+02  0.81321564311E+02  0.00000000000E+00 0.  1.
</event>
<event>
 6    1  0.8989754E-006  0.1089717E+03  0.7561462E-02  0.1262486E+00
          2   -1    0    0  501    0  0.00000000000E+00  0.00000000000E+00  0.14242701031E+03  0.14242701031E+03  0.00000000000E+00 0. -1.
         -2   -1    0    0    0  501 -0.00000000000E+00 -0.00000000000E+00 -0.94035220587E+02  0.94035220587E+02  0.00000000000E+00 0.  1.
          5    1    1    2  502    0 -0.72430049161E+02 -0.24609090035E+02 -0.67482221588E+01  0.76907283375E+02  0.41800000000E+01 0. -1.
         -5    1    1    2    0  502  0.45251520030E+02  0.23543418779E+02  0.16552732029E+01  0.51207469789E+02  0.41800000000E+01 0. -1.
        -11    1    1    2    0    0  0.53259673862E+02  0.21076717047E+02  0.18149375876E+02  0.60085112183E+02  0.00000000000E+00 0.  1.
         11    1    1    2    0    0 -0.26081144730E+02 -0.20011045791E+02  0.35335362806E+02  0.48262365553E+02  0.00000000000E+00 0. -1.
</event>
<event>
 6    1  0.8989754E-006  0.9939948E+02  0.7561462E-02  0.1281564E+00
          1   -1    0    0  501    0  0.00000000000E+00  0.00000000000E+00  0.58102758339E+03  0.58102758339E+03  0.00000000000E+00 0. -1.
         -1   -1    0    0    0  501 -0.00000000000E+00 -0.00000000000E+00 -0.23380711303E+02  0.23380711303E+02  0.00000000000E+00 0.  1.
          5    1    1    2  502    0  0.20013090156E+02 -0.19822143599E+02  0.11354726208E+02  0.30656864838E+02  0.41800000000E+01 0. -1.
         -5    1    1    2    0  502 -0.73576694332E+02  0.79961230741E+01  0.30726532090E+03  0.31608055581E+03  0.41800000000E+01 0. -1.
        -11    1    1    2    0    0  0.59803621506E+02 -0.20539900798E+02  0.16047125329E+03  0.17248009683E+03  0.00000000000E+00 0.  1.
         11    1    1    2    0    0 -0.62400173304E+01  0.32365921323E+02  0.78555571687E+02  0.85190777215E+02  0.00000000000E+00 0. -1.
</event>
<event>
 6    1  0.8989754E-006  0.2290042E+03  0.7561462E-02  0.1127343E+00
          2   -1    0    0  501    0  0.00000000000E+00  0.00000000000E+00  0.52854541201E+03  0.52854541201E+03  0.00000000000E+00 0. -1.
         -2   -1    0    0    0  501 -0.00000000000E+00 -0.00000000000E+00 -0.12806474896E+03  0.12806474896E+03  0.00000000000E+00 0.  1.
          5    1    1    2  502    0 -0.49972366291E+02 -0.18495936409E+03  0.60013040700E+02  0.20081394676E+03  0.41800000000E+01 0.  1.
         -5    1    1    2    0  502 -0.54234803206E+02  0.39263624924E+00  0.13581044431E+02  0.56066792399E+02  0.41800000000E+01 0.  1.
        -11    1    1    2    0    0  0.87432191057E+02  0.15706538517E+03  0.20042195293E+03  0.26922645202E+03  0.00000000000E+00 0.  1.
         11    1    1    2    0    0  0.16774978441E+02  0.27501342668E+02  0.12646462499E+03  0.13050296979E+03  0.00000000000E+00 0. -1.
</event>
<event>
 6    1  0.1066914E-005  0.2141138E+03  0.7561462E-02  0.1138349E+00
          1   -1    0    0  501    0  0.00000000000E+00  0.00000000000E+00  0.39593692966E+03  0.39593692966E+03  0.00000000000E+00 0. -1.
         -1   -1    0    0    0  501 -0.00000000000E+00 -0.00000000000E+00 -0.12647767033E+03  0.12647767033E+03  0.00000000000E+00 0.  1.
          5    1    1    2  502    0 -0.70026359118E+02 -0.19520943383E+03  0.80144396227E+02  0.22237583204E+03  0.41800000000E+01 0. -1.
         -5    1    1    2    0  502  0.68518253356E+01  0.12608470560E+02  0.28440384779E+02  0.32128630949E+02  0.41800000000E+01 0. -1.
        -11    1    1    2    0    0  0.55683503874E+02  0.55810947970E+02  0.99211254226E+02  0.12672169302E+03  0.00000000000E+00 0.  1.
         11    1    1    2    0    0  0.74910299081E+01  0.12679001530E+03  0.61663224098E+02  0.14118844398E+03  0.00000000000E+00 0. -1.
</event>
<event>
 6    1  0.8989754E-006  0.1294198E+03  0.7561462E-02  0.1228319E+00
         -1   -1    0    0    0  501 -0.00000000000E+00  0.00000000000E+00  0.81665479186E+02  0.81665479186E+02  0.00000000000E+00 0.  1.
          1   -1    0    0  501    0  0.00000000000E+00 -0.00000000000E+00 -0.29331587914E+03  0.29331587914E+03  0.00000000000E+00 0. -1.
          5    1    1    2  502    0 -0.27640743014E+02  0.35289630504E+02 -0.19991348131E+02  0.49259467065E+02  0.41800000000E+01 0.  1.
         -5    1    1    2    0  502  0.10387144460E+03  0.88465525590E+00 -0.85947895736E+01  0.10431396083E+03  0.41800000000E+01 0.  1.
        -11    1    1    2    0    0  0.90010398229E+01 -0.21587708989E+02 -0.56788075222E+01  0.24068584341E+02  0.00000000000E+00 0.  1.
         11    1    1    2    0    0 -0.85231741405E+02 -0.14586576770E+02 -0.17738545473E+03  0.19733934609E+03  0.00000000000E+00 0. -1.
</event>
<event>
 6    1  0.8989754E-006  0.2082619E+03  0.7561462E-02  0.1142950E+00
         -2   -1    0    0    0  501 -0.00000000000E+00  0.00000000000E+00  0.56050414287E+02  0.56050414287E+02  0.00000000000E+00 0. -1.
          2   -1    0    0  501    0  0.00000000000E+00 -0.00000000000E+00 -0.85021913337E+03  0.85021913337E+03  0.00000000000E+00 0.  1.
          5    1    1    2  502    0 -0.12215090222E+03 -0.15462707951E+02 -0.17949518529E+03  0.21770606834E+03  0.41800000000E+01 0.  1.
         -5    1    1    2    0  502 -0.57860102964E+02  0.65322559650E+02 -0.28933511133E+03  0.30223683985E+03  0.41800000000E+01 0.  1.
        -11    1    1    2    0    0  0.59519185146E+02 -0.60667402127E+02 -0.16350732917E+03  0.18427618884E+03  0.00000000000E+00 0.  1.
         11    1    1    2    0    0  0.12049182004E+03  0.10807550428E+02 -0.16183109328E+03  0.20205045062E+03  0.00000000000E+00 0. -1.
</event>
<event>
 6    1  0.8989754E-006  0.8795157E+02  0.7561462E-02  0.1307889E+00
          1   -1    0    0  501    0  0.00000000000E+00  0.00000000000E+00  0.32668381711E+03  0.32668381711E+03  0.00000000000E+00 0. -1.
         -1   -1    0    0    0  501 -0.00000000000E+00 -0.00000000000E+00 -0.36556634684E+02  0.36556634684E+02  0.00000000000E+00 0.  1.
          5    1    1    2  502    0 -0.54264391710E+01  0.58463923699E+02  0.66990437872E+02  0.89177731428E+02  0.41800000000E+01 0. -1.
         -5    1    1    2    0  502  0.66526209507E+01 -0.65990927872E+02  0.79233787972E+02  0.10341433887E+03  0.41800000000E+01 0. -1.
        -11    1    1    2    0    0  0.10817411735E+02 -0.18766967208E+02 -0.21423305669E+01  0.21767063080E+02  0.00000000000E+00 0.  1.
         11    1    1    2    0    0 -0.12043593515E+02  0.26293971381E+02  0.14604528715E+03  0.14888131842E+03  0.00000000000E+00 0. -1.
</event>
<event>
 6    1  0.8989754E-006  0.9188748E+02  0.7561462E-02  0.1298344E+00
         -1   -1    0    0    0  501 -0.00000000000E+00  0.00000000000E+00  0.14302052660E+03  0.14302052660E+03  0.00000000000E+00 0.  1.
          1   -1    0    0  501    0  0.00000000000E+00 -0.00000000000E+00 -0.92901276312E+02  0.92901276312E+02  0.00000000000E+00 0. -1.
          5    1    1    2  502    0  0.16887244012E+02 -0.20259440614E+02 -0.31332227835E+02  0.41168007547E+02  0.41800000000E+01 0.  1.
         -5    1    1    2    0  502 -0.37725522893E+02  0.45145412541E+02  0.74645909985E+02  0.95135732659E+02  0.41800000000E+01 0.  1.
        -11    1    1    2    0    0 -0.73829121854E+01 -0.55768335987E+02 -0.40413171264E+01  0.56399884177E+02  0.00000000000E+00 0.  1.
         11    1    1    2    0    0  0.28221191067E+02  0.30882364060E+02  0.10846885260E+02  0.43218178524E+02  0.00000000000E+00 0. -1.
</event>
<event>
 6    1  0.8989754E-006  0.1071183E+03  0.7561462E-02  0.1266001E+00
         -2   -1    0    0    0  501 -0.00000000000E+00  0.00000000000E+00  0.75855922570E+02  0.75855922570E+02  0.00000000000E+00 0.  1.
          2   -1    0    0  501    0  0.00000000000E+00 -0.00000000000E+00 -0.20827848243E+03  0.20827848243E+03  0.00000000000E+00 0. -1.
          5    1    1    2  502    0 -0.53729841829E+02 -0.18903693807E+02 -0.35668983922E+01  0.57222728934E+02  0.41800000000E+01 0.  1.
         -5    1    1    2    0  502  0.69863815261E+02  0.27110726578E+01 -0.26687883712E+01  0.70092063953E+02  0.41800000000E+01 0.  1.
        -11    1    1    2    0    0 -0.47162008437E+02  0.26858597535E+02 -0.49696258178E+02  0.73589111819E+02  0.00000000000E+00 0. -1.
         11    1    1    2    0    0  0.31028035005E+02 -0.10665976386E+02 -0.76490614915E+02  0.83230500291E+02  0.00000000000E+00 0.  1.
</event>
<event>
 6    1  0.8989754E-006  0.1150205E+03  0.7561462E-02  0.1251545E+00
          2   -1    0    0  501    0  0.00000000000E+00  0.00000000000E+00  0.95729014406E+02  0.95729014406E+02  0.00000000000E+00 0. -1.
         -2   -1    0    0    0  501 -0.00000000000E+00 -0.00000000000E+00 -0.16379998747E+03  0.16379998747E+03  0.00000000000E+00 0.  1.
          5    1    1    2  502    0 -0.35404495168E+01  0.74338072667E+02 -0.70558217425E+02  0.10263828855E+03  0.41800000000E+01 0. -1.
         -5    1    1    2    0  502 -0.34739623430E+02 -0.36688128919E+02 -0.19020796136E+00  0.50698804904E+02  0.41800000000E+01 0. -1.
        -11    1    1    2    0    0 -0.15444666625E+02  0.20478324126E+02 -0.66319199871E+01  0.26493052842E+02  0.00000000000E+00 0.  1.
         11    1    1    2    0    0  0.53724739572E+02 -0.58128267875E+02  0.93093723067E+01  0.79698855581E+02  0.00000000000E+00 0. -1.
</event>
<event>
 6    1  0.8989754E-006  0.2003943E+03  0.7561462E-02  0.1149407E+00
          2   -1    0    0  501    0  0.00000000000E+00  0.00000000000E+00  0.31863456423E+03  0.31863456423E+03  0.00000000000E+00 0. -1.
         -2   -1    0    0    0  501 -0.00000000000E+00 -0.00000000000E+00 -0.13565305661E+03  0.13565305661E+03  0.00000000000E+00 0.  1.
          5    1    1    2  502    0 -0.17269104276E+03  0.15095528078E+02  0.12951825504E+03  0.21643133323E+03  0.41800000000E+01 0. -1.
         -5    1    1    2    0  502  0.59206040135E+01 -0.35272788319E+02  0.24757500201E+02  0.43699306217E+02  0.41800000000E+01 0. -1.
        -11    1    1    2    0    0  0.89164073589E+02  0.56640547429E+02  0.23737481141E+02  0.10826750040E+03  0.00000000000E+00 0.  1.
         11    1    1    2    0    0  0.77606365155E+02 -0.36463287188E+02  0.49682712470E+01  0.85889480988E+02  0.00000000000E+00 0. -1.
</event>
<event>
 6    1  0.8989754E-006  0.1058246E+03  0.7561462E-02  0.1268503E+00
          2   -1    0    0  501    0  0.00000000000E+00  0.00000000000E+00  0.27618877987E+03  0.27618877987E+03  0.00000000000E+00 0. -1.
         -2   -1    0    0    0  501 -0.00000000000E+00 -0.00000000000E+00 -0.62942814390E+02  0.62942814390E+02  0.00000000000E+00 0.  1.
          5    1    1    2  502    0 -0.42981508364E+02 -0.22310137173E+02 -0.11528816330E+02  0.49955362954E+02  0.41800000000E+01 0. -1.
         -5    1    1    2    0  502  0.26586937628E+02  0.66788143520E+02  0.55309460364E+02  0.90797192540E+02  0.41800000000E+01 0. -1.
        -11    1    1    2    0    0  0.47349471923E+02 -0.34236473155E+02  0.14858531810E+03  0.15966122053E+03  0.00000000000E+00 0. -1.
         11    1    1    2    0    0 -0.30954901187E+02 -0.10241533193E+02  0.20880003353E+02  0.38717818245E+02  0.00000000000E+00 0.  1.
</event>
<event>
 6    1  0.8989754E-006  0.1257631E+03  0.7561462E-02  0.1233881E+00
         -2   -1    0    0    0  501 -0.00000000000E+00  0.00000000000E+00  0.34237114198E+02  0.34237114198E+02  0.00000000000E+00 0.  1.
          2   -1    0    0  501    0  0.00000000000E+00 -0.00000000000E+00 -0.57664724479E+03  0.57664724479E+03  0.00000000000E+00 0. -1.
          5    1    1    2  502    0  0.43905515006E+02 -0.25112190306E+02 -0.95141668194E+02  0.10783193301E+03  0.41800000000E+01 0.  1.
         -5    1    1    2    0  502 -0.84231543771E+02 -0.39620142168E+02 -0.10820539170E+03  0.14279561557E+03  0.41800000000E+01 0.  1.
        -11    1    1    2    0    0 -0.46986897397E+00 -0.16599331401E+02 -0.11269303732E+02  0.20068776406E+02  0.00000000000E+00 0.  1.
         11    1    1    2    0    0  0.40795897738E+02  0.81331663875E+02 -0.32779376696E+03  0.34018803401E+03  0.00000000000E+00 0. -1.
</event>
<event>
 6    1  0.8989754E-006  0.1413501E+03  0.7561462E-02  0.1211524E+00
         -2   -1    0    0    0  501 -0.00000000000E+00  0.00000000000E+00  0.22498774853E+02  0.22498774853E+02  0.00000000000E+00 0.  1.
          2   -1    0    0  501    0  0.00000000000E+00 -0.00000000000E+00 -0.92942833493E+03  0.92942833493E+03  0.00000000000E+00 0. -1.
          5    1    1    2  502    0  0.49608534418E+02 -0.36193374177E+02 -0.16536584783E+03  0.17644915145E+03  0.41800000000E+01 0. -1.
         -5    1    1    2    0  502  0.30224787493E+02  0.89218453559E+02 -0.34909793169E+03  0.36160794867E+03  0.41800000000E+01 0. -1.
        -11    1    1    2    0    0 -0.63177023934E+02  0.79259033753E+01 -0.25072108445E+03  0.25867976049E+03  0.00000000000E+00 0.  1.
         11    1    1    2    0    0 -0.16656297977E+02 -0.60950982757E+02 -0.14174469611E+03  0.15519024917E+03  0.00000000000E+00 0. -1.
</event>
<event>
 6    1  0.8989754E-006  0.9990273E+02  0.7561462E-02  0.1280501E+00
         -4   -1    0    0    0  501 -0.00000000000E+00  0.00000000000E+00  0.33512104004E+02  0.33512104004E+02  0.00000000000E+00 0.  1.
          4   -1    0    0  501    0  0.00000000000E+00 -0.00000000000E+00 -0.55484041332E+03  0.55484041332E+03  0.00000000000E+00 0. -1.
          5    1    1    2  502    0  0.23404578953E+02  0.42523416564E+02 -0.15169102984E+03  0.15932249121E+03  0.41800000000E+01 0. -1.
         -5    1    1    2    0  502  0.32847420114E+02 -0.35642713213E+02 -0.47967577099E+01  0.48885962176E+02  0.41800000000E+01 0. -1.
        -11    1    1    2    0    0  0.11438910214E+02  0.25090958809E+02 -0.15299853720E+03  0.15546368472E+03  0.00000000000E+00 0. -1.
         11    1    1    2    0    0 -0.67690909281E+02 -0.31971662160E+02 -0.21184198456E+03  0.22468037922E+03  0.00000000000E+00 0.  1.
</event>
<event>
 6    1  0.8989754E-006  0.1091579E+03  0.7561462E-02  0.1262137E+00
         -1   -1    0    0    0  501 -0.00000000000E+00  0.00000000000E+00  0.51096635511E+03  0.51096635511E+03  0.00000000000E+00 0.  1.
          1   -1    0    0  501    0  0.00000000000E+00 -0.00000000000E+00 -0.46077366182E+02  0.46077366182E+02  0.00000000000E+00 0. -1.
          5    1    1    2  502    0 -0.46235488218E+02  0.40951110610E+01  0.34169578136E+03  0.34485934772E+03  0.41800000000E+01 0.  1.
         -5    1    1    2    0  502 -0.35371102468E+02 -0.25463490392E+02  0.22231883735E+02  0.49104310271E+02  0.41800000000E+01 0.  1.
        -11    1    1    2    0    0 -0.13693226354E+02  0.29256601029E+02  0.28881919808E+02  0.43331494822E+02  0.00000000000E+00 0.  1.
         11    1    1    2    0    0  0.95299817040E+02 -0.78882216978E+01  0.72079404016E+02  0.11974856848E+03  0.00000000000E+00 0. -1.
</event>
<event>
 6    1  0.8989754E-006  0.1146969E+03  0.7561462E-02  0.1252111E+00
         -1   -1    0    0    0  501 -0.00000000000E+00  0.00000000000E+00  0.48046876361E+02  0.48046876361E+02  0.00000000000E+00 0.  1.
          1   -1    0    0  501    0  0.00000000000E+00 -0.00000000000E+00 -0.38389569923E+03  0.38389569923E+03  0.00000000000E+00 0. -1.
          5    1    1    2  502    0  0.27543782243E+02  0.90079657834E+02 -0.73335766897E+02  0.11945129469E+03  0.41800000000E+01 0.  1.
         -5    1    1    2    0  502 -0.41230785322E+02 -0.10309689401E+02 -0.10236531101E+03  0.11091616948E+03  0.41800000000E+01 0.  1.
        -11    1    1    2    0    0 -0.55761968548E+01 -0.71025797338E+02 -0.16512819228E+03  0.17984181312E+03  0.00000000000E+00 0. -1.
         11    1    1    2    0    0  0.19263199933E+02 -0.87441710954E+01  0.49804473215E+01  0.21733298308E+02  0.00000000000E+00 0.  1.
</event>
<event>
 6    1  0.8989754E-006  0.7072334E+02  0.7561462E-02  0.1357650E+00
          1   -1    0    0  501    0  0.00000000000E+00  0.00000000000E+00  0.12383439649E+03  0.12383439649E+03  0.00000000000E+00 0. -1.
         -1   -1    0    0    0  501 -0.00000000000E+00 -0.00000000000E+00 -0.11367778292E+03  0.11367778292E+03  0.00000000000E+00 0.  1.
          5    1    1    2  502    0 -0.29146114669E+02  0.16488640258E+02 -0.63934067412E+02  0.72293904541E+02  0.41800000000E+01 0. -1.
         -5    1    1    2    0  502 -0.13131141306E+02  0.93597111300E+00  0.59385259057E+02  0.60970355971E+02  0.41800000000E+01 0. -1.
        -11    1    1    2    0    0  0.61336280853E+02 -0.32658197897E+02  0.29743577114E+02  0.75586887873E+02  0.00000000000E+00 0. -1.
         11    1    1    2    0    0 -0.19059024878E+02  0.15233586526E+02 -0.15038155194E+02  0.28661031024E+02  0.00000000000E+00 0.  1.
</event>
<event>
 6    1  0.8989754E-006  0.1385514E+03  0.7561462E-02  0.1215292E+00
          1   -1    0    0  501    0  0.00000000000E+00  0.00000000000E+00  0.17732610182E+03  0.17732610182E+03  0.00000000000E+00 0. -1.
         -1   -1    0    0    0  501 -0.00000000000E+00 -0.00000000000E+00 -0.18159081241E+03  0.18159081241E+03  0.00000000000E+00 0.  1.
          5    1    1    2  502    0 -0.36458484141E+01  0.91605825091E+02 -0.93851871463E+02  0.13126524894E+03  0.41800000000E+01 0. -1.
         -5    1    1    2    0  502  0.58851090097E+02  0.53364876829E+01  0.31283243962E+01  0.59322742013E+02  0.41800000000E+01 0. -1.
        -11    1    1    2    0    0 -0.43087459717E+02 -0.18795856866E+02  0.74869340175E+02  0.88403798100E+02  0.00000000000E+00 0.  1.
         11    1    1    2    0    0 -0.12117781966E+02 -0.78146455909E+02  0.11589496300E+02  0.79925125182E+02  0.00000000000E+00 0. -1.
</event>
<event>
 6    1  0.8989754E-006  0.1255318E+03  0.7561462E-02  0.1234241E+00
          1   -1    0    0  501    0  0.00000000000E+00  0.00000000000E+00  0.48041180501E+03  0.48041180501E+03  0.00000000000E+00 0. -1.
         -1   -1    0    0    0  501 -0.00000000000E+00 -0.00000000000E+00 -0.34167015600E+02  0.34167015600E+02  0.00000000000E+00 0.  1.
          5    1    1    2  502    0 -0.31469455030E+02  0.18987518042E+02  0.65207496473E+02  0.74968943153E+02  0.41800000000E+01 0.  1.
         -5    1    1    2    0  502  0.90065541686E+02 -0.54978193895E+02  0.16438602493E+03  0.19538331862E+03  0.41800000000E+01 0.  1.
        -11    1    1    2    0    0 -0.79944606231E+02  0.34495665663E+02  0.19607814422E+03  0.21454074124E+03  0.00000000000E+00 0. -1.
         11    1    1    2    0    0  0.21348519576E+02  0.14950101900E+01  0.20573123797E+02  0.29685817595E+02  0.00000000000E+00 0.  1.
</event>
<event>
 6    1  0.8989754E-006  0.7978335E+02  0.7561462E-02  0.1329667E+00
         -2   -1    0    0    0  501 -0.00000000000E+00  0.00000000000E+00  0.15696526763E+03  0.15696526763E+03  0.00000000000E+00 0. -1.
          2   -1    0    0  501    0  0.00000000000E+00 -0.00000000000E+00 -0.10134047904E+03  0.10134047904E+03  0.00000000000E+00 0.  1.
          5    1    1    2  502    0  0.21308223353E+02  0.46511889707E+01  0.94086122909E+02  0.96671323904E+02  0.41800000000E+01 0.  1.
         -5    1    1    2    0  502  0.35600171905E+02 -0.15683477256E+02 -0.35779020489E+02  0.53018434584E+02  0.41800000000E+01 0.  1.
        -11    1    1    2    0    0  0.23851003931E+01 -0.27446152764E+02  0.20375406547E+02  0.34265685421E+02  0.00000000000E+00 0. -1.
         11    1    1    2    0    0 -0.59293495651E+02  0.38478441050E+02 -0.23057720379E+02  0.74350302765E+02  0.00000000000E+00 0.  1.
</event>
<event>
 6    1  0.8989754E-006  0.1565932E+03  0.7561462E-02  0.1192598E+00
         -2   -1    0    0    0  501 -0.00000000000E+00  0.00000000000E+00  0.94815035715E+02  0.94815035715E+02  0.00000000000E+00 0. -1.
          2   -1    0    0  501    0  0.00000000000E+00 -0.00000000000E+00 -0.45244327061E+03  0.45244327061E+03  0.00000000000E+00 0.  1.
          5    1    1    2  502    0  0.63405012965E+02  0.48188297217E+02 -0.26706563007E+02  0.84101251865E+02  0.41800000000E+01 0. -1.
         -5    1    1    2    0  502  0.63886268048E+02 -0.75314423654E+02 -0.33928329511E+01  0.98907539504E+02  0.41800000000E+01 0. -1.
        -11    1    1    2    0    0 -0.49997291260E+02  0.27972009556E+02 -0.49621139259E+02  0.75791951507E+02  0.00000000000E+00 0. -1.
         11    1    1    2    0    0 -0.77293989753E+02 -0.84588311861E+00 -0.27790769967E+03  0.28845756344E+03  0.00000000000E+00 0.  1.
</event>
<event>
 6    1  0.8989754E-006  0.1440148E+03  0.7561462E-02  0.1208027E+00
          2   -1    0    0  501    0  0.00000000000E+00  0.00000000000E+00  0.56967080401E+03  0.56967080401E+03  0.00000000000E+00 0. -1.
         -2   -1    0    0    0  501 -0.00000000000E+00 -0.00000000000E+00 -0.41952684010E+02  0.41952684010E+02  0.00000000000E+00 0.  1.
          5    1    1    2  502    0 -0.31703783012E+02 -0.22272050654E+02  0.60488198114E+02  0.71954628821E+02  0.41800000000E+01 0.  1.
         -5    1    1    2    0  502  0.11314877351E+02  0.11816885820E+03  0.12890814748E+03  0.17529029746E+03  0.41800000000E+01 0.  1.
        -11    1    1    2    0    0 -0.33129892646E+02 -0.48816851510E+02  0.20342557989E+03  0.21180802943E+03  0.00000000000E+00 0. -1.
         11    1    1    2    0    0  0.53518798308E+02 -0.47079956038E+02  0.13489619452E+03  0.15257053230E+03  0.00000000000E+00 0.  1.
</event>
<event>
 6    1  0.8989754E-006  0.7855773E+02  0.7561462E-02  0.1333195E+00
          1   -1    0    0  501    0  0.00000000000E+00  0.00000000000E+00  0.44804134513E+03  0.44804134513E+03  0.00000000000E+00 0. -1.
         -1   -1    0    0    0  501 -0.00000000000E+00 -0.00000000000E+00 -0.35018303742E+02  0.35018303742E+02  0.00000000000E+00 0.  1.
          5    1    1    2  502    0  0.17193447835E+02  0.33611875505E+01 -0.16629634361E+02  0.24513860756E+02  0.41800000000E+01 0.  1.
         -5    1    1    2    0  502  0.31737116307E+02 -0.33962737623E+02  0.19698676250E+03  0.20244003828E+03  0.41800000000E+01 0.  1.
        -11    1    1    2    0    0  0.16505814019E+02  0.20344917553E+02  0.18875228338E+02  0.32289809716E+02  0.00000000000E+00 0.  1.
         11    1    1    2    0    0 -0.65436378161E+02  0.10256632520E+02  0.21379068491E+03  0.22381594012E+03  0.00000000000E+00 0. -1.
</event>
<event>
 6    1  0.8989754E-006  0.7753279E+02  0.7561462E-02  0.1336202E+00
         -3   -1    0    0    0  501 -0.00000000000E+00  0.00000000000E+00  0.75606653704E+02  0.75606653704E+02  0.00000000000E+00 0.  1.
          3   -1    0    0  501    0  0.00000000000E+00 -0.00000000000E+00 -0.19990557467E+03  0.19990557467E+03  0.00000000000E+00 0. -1.
          5    1    1    2  502    0  0.66883433520E+01 -0.47463721848E+02 -0.76322733714E+02  0.90222895709E+02  0.41800000000E+01 0.  1.
         -5    1    1    2    0  502 -0.41291632819E+02  0.92798656371E+01  0.30820239892E+02  0.52521180814E+02  0.41800000000E+01 0.  1.
        -11    1    1    2    0    0  0.11734055596E+02  0.39803439829E+02  0.86306104167E+01  0.42385012907E+02  0.00000000000E+00 0.  1.
         11    1    1    2    0    0  0.22869233871E+02 -0.16195836185E+01 -0.87427037558E+02  0.90383138943E+02  0.00000000000E+00 0. -1.
</event>
<event>
 6    1  0.8989754E-006  0.1534369E+03  0.7561462E-02  0.1196312E+00
          2   -1    0    0  501    0  0.00000000000E+00  0.00000000000E+00  0.67084188526E+03  0.67084188526E+03  0.00000000000E+00 0. -1.
         -2   -1    0    0    0  501 -0.00000000000E+00 -0.00000000000E+00 -0.53761134242E+02  0.53761134242E+02  0.00000000000E+00 0.  1.
          5    1    1    2  502    0  0.12603705535E+03 -0.37863603801E+02  0.80588519358E+02  0.15437283979E+03  0.41800000000E+01 0.  1.
         -5    1    1    2    0  502  0.10101008410E+02 -0.31954741882E+01  0.12360057284E+03  0.12412419359E+03  0.41800000000E+01 0.  1.
        -11    1    1    2    0    0 -0.28095910495E+02  0.47928369721E+02  0.92318616352E+02  0.10774616344E+03  0.00000000000E+00 0.  1.
         11    1    1    2    0    0 -0.10804215326E+03 -0.68692917322E+01  0.32057304247E+03  0.33835982269E+03  0.00000000000E+00 0. -1.
</event>
<event>
 6    1  0.8989754E-006  0.1170361E+03  0.7561462E-02  0.1248068E+00
          1   -1    0    0  501    0  0.00000000000E+00  0.00000000000E+00  0.73255076126E+02  0.73255076126E+02  0.00000000000E+00 0. -1.
         -1   -1    0    0    0  501 -0.00000000000E+00 -0.00000000000E+00 -0.26865814758E+03  0.26865814758E+03  0.00000000000E+00 0.  1.
          5    1    1    2  502    0  0.87471959288E+02 -0.76489271754E+01 -0.10448250137E+03  0.13654272314E+03  0.41800000000E+01 0. -1.
         -5    1    1    2    0  502 -0.20520699809E+02 -0.52037095255E+02 -0.14315963490E+02  0.57891084062E+02  0.41800000000E+01 0. -1.
        -11    1    1    2    0    0 -0.12406201267E+02  0.15654460317E+02  0.19904352307E+02  0.28198567312E+02  0.00000000000E+00 0. -1.
         11    1    1    2    0    0 -0.54545058211E+02  0.44031562113E+02 -0.96508958903E+02  0.11928084920E+03  0.00000000000E+00 0.  1.
</event>
<event>
 6    1  0.8989754E-006  0.2469159E+03  0.7561462E-02  0.1115270E+00
          1   -1    0    0  501    0  0.00000000000E+00  0.00000000000E+00  0.12537228329E+04  0.12537228329E+04  0.00000000000E+00 0. -1.
         -1   -1    0    0    0  501 -0.00000000000E+00 -0.00000000000E+00 -0.78194251179E+02  0.78194251179E+02  0.00000000000E+00 0.  1.
          5    1    1    2  502    0 -0.14474565950E+03  0.16641312642E+03  0.14481962475E+03  0.26388412363E+03  0.41800000000E+01 0. -1.
         -5    1    1    2    0  502  0.11268709626E+03 -0.13420291524E+03  0.71436454315E+03  0.73555623648E+03  0.41800000000E+01 0.  1.
        -11    1    1    2    0    0  0.42817646132E+02  0.18110132569E+02  0.10286058296E+03  0.11287881665E+03  0.00000000000E+00 0. -1.
         11    1    1    2    0    0 -0.10759082889E+02 -0.50320343746E+02  0.21348383088E+03  0.21959790734E+03  0.00000000000E+00 0.  1.
</event>
<event>
 6    1  0.8989754E-006  0.1074239E+03  0.7561462E-02  0.1265416E+00
         -2   -1    0    0    0  501 -0.00000000000E+00  0.00000000000E+00  0.16847107536E+02  0.16847107536E+02  0.00000000000E+00 0.  1.
          2   -1    0    0  501    0  0.00000000000E+00 -0.00000000000E+00 -0.81750012029E+03  0.81750012029E+03  0.00000000000E+00 0. -1.
          5    1    1    2  502    0 -0.31219258647E+02  0.31713661673E+02 -0.64845617105E+02  0.78758014861E+02  0.41800000000E+01 0.  1.
         -5    1    1    2    0  502  0.70404274258E+02 -0.10508337519E+02 -0.33678262351E+03  0.34424873985E+03  0.41800000000E+01 0.  1.
        -11    1    1    2    0    0 -0.61631304843E+02  0.78482564879E+01 -0.22086441879E+03  0.22943649308E+03  0.00000000000E+00 0.  1.
         11    1    1    2    0    0  0.22446289233E+02 -0.29053580642E+02 -0.17816035335E+03  0.18190398004E+03  0.00000000000E+00 0. -1.
</event>
<event>
 6    1  0.8989754E-006  0.1273141E+03  0.7561462E-02  0.1231496E+00
          2   -1    0    0  501    0  0.00000000000E+00  0.00000000000E+00  0.61260765762E+03  0.61260765762E+03  0.00000000000E+00 0.  1.
         -2   -1    0    0    0  501 -0.00000000000E+00 -0.00000000000E+00 -0.32000295725E+02  0.32000295725E+02  0.00000000000E+00 0. -1.
          5    1    1    2  502    0 -0.91167867875E+02  0.30657982365E+02  0.12095285370E+03  0.15459158203E+03  0.41800000000E+01 0.  1.
         -5    1    1    2    0  502  0.21163478361E+02 -0.41216564211E+02  0.78620111555E+02  0.91352571516E+02  0.41800000000E+01 0.  1.
        -11    1    1    2    0    0  0.39378415170E+02 -0.37804295851E+02  0.12656493589E+03  0.13783507305E+03  0.00000000000E+00 0.  1.
         11    1    1    2    0    0  0.30625974344E+02  0.48362877697E+02  0.25446946075E+03  0.26082872675E+03  0.00000000000E+00 0. -1.
</event>
<event>
 6    1  0.8989754E-006  0.1555171E+03  0.7561462E-02  0.1193853E+00
         -1   -1    0    0    0  501 -0.00000000000E+00  0.00000000000E+00  0.17235800613E+03  0.17235800613E+03  0.00000000000E+00 0.  1.
          1   -1    0    0  501    0  0.00000000000E+00 -0.00000000000E+00 -0.18556715002E+03  0.18556715002E+03  0.00000000000E+00 0. -1.
          5    1    1    2  502    0  0.78729022209E+02 -0.12834583544E+03  0.45188143518E+02  0.15725887297E+03  0.41800000000E+01 0. -1.
         -5    1    1    2    0  502 -0.14554315989E+02  0.14423864155E+02  0.12754152147E+02  0.24495239702E+02  0.41800000000E+01 0.  1.
        -11    1    1    2    0    0 -0.10963705477E+02  0.68975153627E+02  0.85040971079E+01  0.70356906720E+02  0.00000000000E+00 0.  1.
         11    1    1    2    0    0 -0.53211000742E+02  0.44946817659E+02 -0.79655536659E+02  0.10581413676E+03  0.00000000000E+00 0. -1.
</event>
<event>
 6    1  0.8989754E-006  0.8328144E+02  0.7561462E-02  0.1319989E+00
          1   -1    0    0  501    0  0.00000000000E+00  0.00000000000E+00  0.13457985393E+03  0.13457985393E+03  0.00000000000E+00 0. -1.
         -1   -1    0    0    0  501 -0.00000000000E+00 -0.00000000000E+00 -0.92981717702E+02  0.92981717702E+02  0.00000000000E+00 0.  1.
          5    1    1    2  502    0  0.27371310781E+02 -0.59086334977E+02 -0.11032725894E+02  0.66178373171E+02  0.41800000000E+01 0.  1.
         -5    1    1    2    0  502 -0.19335767814E+02  0.55667044402E+02  0.57171065582E+01  0.59353596831E+02  0.41800000000E+01 0.  1.
        -11    1    1    2    0    0 -0.61130541450E+01 -0.18883090139E+02  0.68266731888E+02  0.71093510300E+02  0.00000000000E+00 0. -1.
         11    1    1    2    0    0 -0.19224888221E+01  0.22302380713E+02 -0.21352976325E+02  0.30936091329E+02  0.00000000000E+00 0.  1.
</event>
<event>
 6    1  0.8989754E-006  0.2549617E+03  0.7561462E-02  0.1110209E+00
          2   -1    0    0  501    0  0.00000000000E+00  0.00000000000E+00  0.40753186723E+03  0.40753186723E+03  0.00000000000E+00 0.  1.
         -2   -1    0    0    0  501 -0.00000000000E+00 -0.00000000000E+00 -0.16805904424E+03  0.16805904424E+03  0.00000000000E+00 0. -1.
          5    1    1    2  502    0  0.80098155683E+02  0.61772807730E+02  0.36047872655E+02  0.10746402115E+03  0.41800000000E+01 0.  1.
         -5    1    1    2    0  502 -0.15019788493E+02  0.16541183345E+03  0.57348560330E+02  0.17576404201E+03  0.41800000000E+01 0.  1.
        -11    1    1    2    0    0 -0.22115319715E+02 -0.16776335240E+03  0.13845846634E+03  0.21864212009E+03  0.00000000000E+00 0.  1.
         11    1    1    2    0    0 -0.42963047475E+02 -0.59421288778E+02  0.76179236617E+01  0.73720728220E+02  0.00000000000E+00 0. -1.
</event>
<event>
 6    1  0.8989754E-006  0.1176973E+03  0.7561462E-02  0.1246945E+00
         -1   -1    0    0    0  501 -0.00000000000E+00  0.00000000000E+00  0.24860936850E+02  0.24860936850E+02  0.00000000000E+00 0.  1.
          1   -1    0    0  501    0  0.00000000000E+00 -0.00000000000E+00 -0.73901595590E+03  0.73901595590E+03  0.00000000000E+00 0. -1.
          5    1    1    2  502    0  0.31529394169E+02  0.15513076387E+02 -0.20767345495E+02  0.41030638242E+02  0.41800000000E+01 0. -1.
         -5    1    1    2    0  502 -0.27203947034E+02 -0.84033190346E+02 -0.24752672059E+03  0.26284706888E+03  0.41800000000E+01 0. -1.
        -11    1    1    2    0    0  0.26414917348E+02  0.75561411212E+02 -0.35182801124E+03  0.36081882464E+03  0.00000000000E+00 0. -1.
         11    1    1    2    0    0 -0.30740364482E+02 -0.70412972528E+01 -0.94032941722E+02  0.99180360981E+02  0.00000000000E+00 0.  1.
</event>
<event>
 6    1  0.8989754E-006  0.7827656E+02  0.7561462E-02  0.1334015E+00
          2   -1    0    0  501    0  0.00000000000E+00  0.00000000000E+00  0.18205430868E+03  0.18205430868E+03  0.00000000000E+00 0. -1.
         -2   -1    0    0    0  501 -0.00000000000E+00 -0.00000000000E+00 -0.97427327705E+02  0.97427327705E+02  0.00000000000E+00 0.  1.
          5    1    1    2  502    0 -0.50252765634E+02 -0.26818473826E+02  0.49967978036E+02  0.75887035923E+02  0.41800000000E+01 0.  1.
         -5    1    1    2    0  502  0.15099485890E+02 -0.28890121718E+02 -0.56836035574E+02  0.65653948448E+02  0.41800000000E+01 0.  1.
        -11    1    1    2    0    0  0.28885109201E+02  0.37620638167E+02  0.31387321222E+01  0.47534341155E+02  0.00000000000E+00 0.  1.
         11    1    1    2    0    0  0.62681705430E+01  0.18087957377E+02  0.88356306393E+02  0.90406310861E+02  0.00000000000E+00 0. -1.
</event>
<event>
 6    1  0.8989754E-006  0.1276273E+03  0.7561462E-02  0.1231019E+00
          2   -1    0    0  501    0  0.00000000000E+00  0.00000000000E+00  0.18270909474E+03  0.18270909474E+03  0.00000000000E+00 0.  1.
         -2   -1    0    0    0  501 -0.00000000000E+00 -0.00000000000E+00 -0.92481332594E+02  0.92481332594E+02  0.00000000000E+00 0. -1.
          5    1    1    2  502    0 -0.68861622171E+02 -0.64351525837E+01  0.29959382112E+02  0.75487556414E+02  0.41800000000E+01 0. -1.
         -5    1    1    2    0  502  0.32888093849E+02  0.60551186584E+02  0.20366223417E+01  0.69062965070E+02  0.41800000000E+01 0. -1.
        -11    1    1    2    0    0  0.24620597981E+01 -0.76560829090E+02  0.37335771076E+02  0.85214917069E+02  0.00000000000E+00 0.  1.
         11    1    1    2    0    0  0.33511468524E+02  0.22444795090E+02  0.20895986619E+02  0.45424988784E+02  0.00000000000E+00 0. -1.
</event>
<event>
 6    1  0.8989754E-006  0.1012060E+03  0.7561462E-02  0.1277780E+00
         -1   -1    0    0    0  501 -0.00000000000E+00  0.00000000000E+00  0.20457627625E+02  0.20457627625E+02  0.00000000000E+00 0.  1.
          1   -1    0    0  501    0  0.00000000000E+00 -0.00000000000E+00 -0.90903822656E+03  0.90903822656E+03  0.00000000000E+00 0. -1.
          5    1    1    2  502    0  0.33877710718E+02  0.41897333993E+02 -0.51298319145E+02  0.74512252860E+02  0.41800000000E+01 0. -1.
         -5    1    1    2    0  502  0.27619621235E+02  0.10619865170E+02 -0.39208771005E+03  0.39322496079E+03  0.41800000000E+01 0. -1.
        -11    1    1    2    0    0 -0.58526855657E+02  0.69551583791E+01 -0.16243883191E+03  0.17280087145E+03  0.00000000000E+00 0.  1.
         11    1    1    2    0    0 -0.29704762958E+01 -0.59472357543E+02 -0.28275573783E+03  0.28895776909E+03  0.00000000000E+00 0. -1.
</event>
<event>
 6    1  0.8989754E-006  0.1770155E+03  0.7561462E-02  0.1170723E+00
         -2   -1    0    0    0  501 -0.00000000000E+00  0.00000000000E+00  0.46069078572E+02  0.46069078572E+02  0.00000000000E+00 0.  1.
          2   -1    0    0  501    0  0.00000000000E+00 -0.00000000000E+00 -0.79261595684E+03  0.79261595684E+03  0.00000000000E+00 0. -1.
          5    1    1    2  502    0 -0.24758586054E+02 -0.20967965926E+02 -0.66132715432E+02  0.73781106178E+02  0.41800000000E+01 0. -1.
         -5    1    1    2    0  502 -0.38601513047E+02  0.15148534254E+03 -0.19130787367E+03  0.24709119924E+03  0.41800000000E+01 0. -1.
        -11    1    1    2    0    0  0.58446164546E+02 -0.32653937275E+02 -0.13948866032E+03  0.15472336645E+03  0.00000000000E+00 0. -1.
         11    1    1    2    0    0  0.49139345553E+01 -0.97863439340E+02 -0.34961762885E+03  0.36308936353E+03  0.00000000000E+00 0.  1.
</event>
<event>
 6    1  0.8989754E-006  0.9390471E+02  0.7561462E-02  0.1293662E+00
         -1   -1    0    0    0  501 -0.00000000000E+00  0.00000000000E+00  0.75831187991E+02  0.75831187991E+02  0.00000000000E+00 0.  1.
          1   -1    0    0  501    0  0.00000000000E+00 -0.00000000000E+00 -0.38573758895E+03  0.38573758895E+03  0.00000000000E+00 0. -1.
          5    1    1    2  502    0 -0.31576281666E+02  0.58790762697E+02  0.34704205775E+02  0.75334385514E+02  0.41800000000E+01 0. -1.
         -5    1    1    2    0  502  0.16176433605E+02 -0.42494759489E+02 -0.25092550048E+02  0.52101727957E+02  0.41800000000E+01 0. -1.
        -11    1    1    2    0    0 -0.22871793396E+02  0.13696926926E+02 -0.28285684672E+02  0.38869071223E+02  0.00000000000E+00 0.  1.
         11    1    1    2    0    0  0.38271641457E+02 -0.29992930134E+02 -0.29123237201E+03  0.29526359224E+03  0.00000000000E+00 0. -1.
</event>
<event>
 6    1  0.8989754E-006  0.2334792E+03  0.7561462E-02  0.1124215E+00
          2   -1    0    0  501    0  0.00000000000E+00  0.00000000000E+00  0.17670084883E+03  0.17670084883E+03  0.00000000000E+00 0. -1.
         -2   -1    0    0    0  501 -0.00000000000E+00 -0.00000000000E+00 -0.40959907437E+03  0.40959907437E+03  0.00000000000E+00 0.  1.
          5    1    1    2  502    0 -0.13858048969E+03  0.15801975932E+03 -0.29642790554E+00  0.21021978196E+03  0.41800000000E+01 0. -1.
         -5    1    1    2    0  502  0.10183870026E+03 -0.87177875518E+02 -0.21216711474E+03  0.25100490001E+03  0.41800000000E+01 0.  1.
        -11    1    1    2    0    0 -0.10012431929E+02 -0.75012254547E+02 -0.57663029382E+01  0.75896886464E+02  0.00000000000E+00 0.  1.
         11    1    1    2    0    0  0.46754221361E+02  0.41703707419E+01 -0.14668379953E+02  0.49178354768E+02  0.00000000000E+00 0. -1.
</event>
<event>
 6    1  0.8989754E-006  0.1344352E+03  0.7561462E-02  0.1221019E+00
         -2   -1    0    0    0  501 -0.00000000000E+00  0.00000000000E+00  0.59572620703E+03  0.59572620703E+03  0.00000000000E+00 0.  1.
          2   -1    0    0  501    0  0.00000000000E+00 -0.00000000000E+00 -0.33137194948E+02  0.33137194948E+02  0.00000000000E+00 0. -1.
          5    1    1    2  502    0 -0.33464319330E+02  0.19493203940E+02  0.56541669780E+02  0.68660603621E+02  0.41800000000E+01 0.  1.
         -5    1    1    2    0  502  0.10181043993E+03  0.34051100179E+02  0.31759712867E+03  0.33527638098E+03  0.41800000000E+01 0.  1.
        -11    1    1    2    0    0  0.80798366884E+01  0.16780490374E+02  0.34752228795E+02  0.39428238920E+02  0.00000000000E+00 0.  1.
         11    1    1    2    0    0 -0.76425957292E+02 -0.70324794493E+02  0.15369798483E+03  0.18549817846E+03  0.00000000000E+00 0. -1.
</event>
<event>
 6    1  0.8989754E-006  0.1450318E+03  0.7561462E-02  0.1206714E+00
          1   -1    0    0  501    0  0.00000000000E+00  0.00000000000E+00  0.22308442590E+02  0.22308442590E+02  0.00000000000E+00 0. -1.
         -1   -1    0    0    0  501 -0.00000000000E+00 -0.00000000000E+00 -0.10538186456E+04  0.10538186456E+04  0.00000000000E+00 0.  1.
          5    1    1    2  502    0 -0.33430512353E+02  0.27743668200E+02 -0.21912028510E+03  0.22342444366E+03  0.41800000000E+01 0. -1.
         -5    1    1    2    0  502  0.11006329159E+03  0.36887185951E+02 -0.48608670581E+03  0.49977229876E+03  0.41800000000E+01 0. -1.
        -11    1    1    2    0    0 -0.53927916329E+02  0.76806519165E+01 -0.18140285172E+03  0.18940487635E+03  0.00000000000E+00 0.  1.
         11    1    1    2    0    0 -0.22704862913E+02 -0.72311506067E+02 -0.14490036035E+03  0.16352546939E+03  0.00000000000E+00 0. -1.
</event>
<event>
 6    1  0.8989754E-006  0.1499173E+03  0.7561462E-02  0.1200575E+00
          1   -1    0    0  501    0  0.00000000000E+00  0.00000000000E+00  0.12467635429E+03  0.12467635429E+03  0.00000000000E+00 0. -1.
         -1   -1    0    0    0  501 -0.00000000000E+00 -0.00000000000E+00 -0.22334724546E+03  0.22334724546E+03  0.00000000000E+00 0.  1.
          5    1    1    2  502    0 -0.10972108525E+03  0.82078872245E+02 -0.14430946943E+02  0.13784550209E+03  0.41800000000E+01 0. -1.
         -5    1    1    2    0  502  0.34441388103E+02  0.16660411508E+02 -0.12342360855E+02  0.40417629786E+02  0.41800000000E+01 0. -1.
        -11    1    1    2    0    0  0.16259457096E+02 -0.24764153855E+02 -0.68989506174E+02  0.75081190876E+02  0.00000000000E+00 0.  1.
         11    1    1    2    0    0  0.59020240055E+02 -0.73975129898E+02 -0.29080771918E+01  0.94679276996E+02  0.00000000000E+00 0. -1.
</event>
<event>
 6    1  0.8989754E-006  0.9501564E+02  0.7561462E-02  0.1291141E+00
         -2   -1    0    0    0  501 -0.00000000000E+00  0.00000000000E+00  0.38303232972E+02  0.38303232972E+02  0.00000000000E+00 0.  1.
          2   -1    0    0  501    0  0.00000000000E+00 -0.00000000000E+00 -0.47868574677E+03  0.47868574677E+03  0.00000000000E+00 0. -1.
          5    1    1    2  502    0 -0.58042121863E+02  0.63062193841E+01 -0.16700565811E+01  0.58556962031E+02  0.41800000000E+01 0. -1.
         -5    1    1    2    0  502  0.29562975037E+02  0.17918935404E+02 -0.10315187449E+03  0.10887074607E+03  0.41800000000E+01 0. -1.
        -11    1    1    2    0    0  0.47367006161E+01 -0.56450869930E+02 -0.16831591944E+03  0.17759331572E+03  0.00000000000E+00 0.  1.
         11    1    1    2    0    0  0.23742446210E+02  0.32225715142E+02 -0.16724466329E+03  0.17196795593E+03  0.00000000000E+00 0. -1.
</event>
<event>
 6    1  0.8989754E-006  0.1210072E+03  0.7561462E-02  0.1241445E+00
         -4   -1    0    0    0  501 -0.00000000000E+00  0.00000000000E+00  0.11687521891E+03  0.11687521891E+03  0.00000000000E+00 0.  1.
          4   -1    0    0  501    0  0.00000000000E+00 -0.00000000000E+00 -0.16727911492E+03  0.16727911492E+03  0.00000000000E+00 0. -1.
          5    1    1    2  502    0  0.29423638450E+01  0.65888204563E+02  0.18895965693E+01  0.66113205797E+02  0.41800000000E+01 0.  1.
         -5    1    1    2    0  502  0.79132959705E+02 -0.33237738789E+02 -0.18708875100E+02  0.87944681471E+02  0.41800000000E+01 0.  1.
        -11    1    1    2    0    0 -0.50195281994E+02 -0.10791126730E+02 -0.63181725327E+02  0.81412192980E+02  0.00000000000E+00 0. -1.
         11    1    1    2    0    0 -0.31880041556E+02 -0.21859339044E+02  0.29597107847E+02  0.48684253573E+02  0.00000000000E+00 0.  1.
</event>
<event>
 6    1  0.8989754E-006  0.9458908E+02  0.7561462E-02  0.1292104E+00
          2   -1    0    0  501    0  0.00000000000E+00  0.00000000000E+00  0.28017859370E+03  0.28017859370E+03  0.00000000000E+00 0.  1.
         -2   -1    0    0    0  501 -0.00000000000E+00 -0.00000000000E+00 -0.64776862071E+02  0.64776862071E+02  0.00000000000E+00 0. -1.
          5    1    1    2  502    0 -0.31754988563E+02 -0.15858386424E+02  0.65566270645E+02  0.74674466620E+02  0.41800000000E+01 0. -1.
         -5    1    1    2    0  502  0.10876226344E+02  0.65933605805E+02 -0.18677838299E+02  0.69511630088E+02  0.41800000000E+01 0. -1.
        -11    1    1    2    0    0 -0.14295463776E+02 -0.49267427541E+02  0.33552131170E+02  0.61297513874E+02  0.00000000000E+00 0.  1.
         11    1    1    2    0    0  0.35174225995E+02 -0.80779183953E+00  0.13496116811E+03  0.13947184519E+03  0.00000000000E+00 0. -1.
</event>
<event>
 6    1  0.8989754E-006  0.1361783E+03  0.7561462E-02  0.1218566E+00
          2   -1    0    0  501    0  0.00000000000E+00  0.00000000000E+00  0.46133447223E+03  0.46133447223E+03  0.00000000000E+00 0. -1.
         -2   -1    0    0    0  501 -0.00000000000E+00 -0.00000000000E+00 -0.59693510590E+02  0.59693510590E+02  0.00000000000E+00 0.  1.
          5    1    1    2  502    0 -0.25886557791E+02 -0.27452398931E+02 -0.15965322782E+02  0.41183880498E+02  0.41800000000E+01 0.  1.
         -5    1    1    2    0  502 -0.56295151992E+02 -0.60976822937E+02  0.17810248364E+03  0.19653316298E+03  0.41800000000E+01 0.  1.
        -11    1    1    2    0    0  0.57713503821E+02 -0.18687424444E+01  0.94560454696E+02  0.11079720355E+03  0.00000000000E+00 0. -1.
         11    1    1    2    0    0  0.24468205962E+02  0.90297964312E+02  0.14494334609E+03  0.17251373579E+03  0.00000000000E+00 0.  1.
</event>
<event>
 6    1  0.8989754E-006  0.9702903E+02  0.7561462E-02  0.1286670E+00
          2   -1    0    0  501    0  0.00000000000E+00  0.00000000000E+00  0.21808239330E+02  0.21808239330E+02  0.00000000000E+00 0. -1.
         -2   -1    0    0    0  501 -0.00000000000E+00 -0.00000000000E+00 -0.95094177383E+03  0.95094177383E+03  0.00000000000E+00 0.  1.
          5    1    1    2  502    0  0.30850960337E+02 -0.95816991715E+01 -0.59620911590E+03  0.59709829425E+03  0.41800000000E+01 0.  1.
         -5    1    1    2    0  502 -0.16711577205E+02 -0.55375677711E+02 -0.12368621108E+03  0.13660707780E+03  0.41800000000E+01 0.  1.
        -11    1    1    2    0    0  0.28625593916E+02  0.38175015355E+01 -0.18663839515E+02  0.34385125425E+02  0.00000000000E+00 0. -1.
         11    1    1    2    0    0 -0.42764977048E+02  0.61139875347E+02 -0.19057436800E+03  0.20465951568E+03  0.00000000000E+00 0.  1.
</event>
<event>
 6    1  0.8989754E-006  0.1007886E+03  0.7561462E-02  0.1278646E+00
         -1   -1    0    0    0  501 -0.00000000000E+00  0.00000000000E+00  0.41908738236E+02  0.41908738236E+02  0.00000000000E+00 0.  1.
          1   -1    0    0  501    0  0.00000000000E+00 -0.00000000000E+00 -0.36378451082E+03  0.36378451082E+03  0.00000000000E+00 0. -1.
          5    1    1    2  502    0 -0.59283247488E+02 -0.45392753612E+02 -0.19553930054E+03  0.20935160847E+03  0.41800000000E+01 0. -1.
         -5    1    1    2    0  502  0.21271736861E+02  0.93968570101E+01  0.87438918936E+01  0.25193565770E+02  0.41800000000E+01 0.  1.
        -11    1    1    2    0    0  0.61661789559E+02  0.19247588332E+01 -0.64282258289E+02  0.89095957927E+02  0.00000000000E+00 0.  1.
         11    1    1    2    0    0 -0.23650278933E+02  0.34071137769E+02 -0.70798105641E+02  0.82052116882E+02  0.00000000000E+00 0. -1.
</event>
<event>
 6    1  0.8989754E-006  0.9652171E+02  0.7561462E-02  0.1287785E+00
         -4   -1    0    0    0  501 -0.00000000000E+00  0.00000000000E+00  0.11210026491E+03  0.11210026491E+03  0.00000000000E+00 0.  1.
          4   -1    0    0  501    0  0.00000000000E+00 -0.00000000000E+00 -0.12849508188E+03  0.12849508188E+03  0.00000000000E+00 0. -1.
          5    1    1    2  502    0 -0.10678834491E+02 -0.58999502477E+02  0.74791761412E+00  0.60108323711E+02  0.41800000000E+01 0.  1.
         -5    1    1    2    0  502  0.48767576531E+02  0.49189911915E+02  0.23383173345E+02  0.73226833541E+02  0.41800000000E+01 0.  1.
        -11    1    1    2    0    0  0.11376688185E+02 -0.42136037045E+01  0.22717693197E+02  0.25754166157E+02  0.00000000000E+00 0.  1.
         11    1    1    2    0    0 -0.49465430224E+02  0.14023194267E+02 -0.63243601119E+02  0.81506023380E+02  0.00000000000E+00 0. -1.
</event>
<event>
 6    1  0.8989754E-006  0.2007533E+03  0.7561462E-02  0.1149105E+00
          2   -1    0    0  501    0  0.00000000000E+00  0.00000000000E+00  0.29866568863E+03  0.29866568863E+03  0.00000000000E+00 0.  1.
         -2   -1    0    0    0  501 -0.00000000000E+00 -0.00000000000E+00 -0.13729678564E+03  0.13729678564E+03  0.00000000000E+00 0. -1.
          5    1    1    2  502    0  0.14092971959E+03  0.98207384905E+02  0.66182999844E+02  0.18412913453E+03  0.41800000000E+01 0. -1.
         -5    1    1    2    0  502 -0.25488172537E+02  0.29833249214E+02  0.30069173301E+02  0.49611463202E+02  0.41800000000E+01 0. -1.
        -11    1    1    2    0    0 -0.14319117549E+02  0.11169860458E+02 -0.24888510152E+00  0.18162181968E+02  0.00000000000E+00 0.  1.
         11    1    1    2    0    0 -0.10112242950E+03 -0.13921049458E+03  0.65365614956E+02  0.18405969458E+03  0.00000000000E+00 0. -1.
</event>
<event>
 6    1  0.8989754E-006  0.1454270E+03  0.7561462E-02  0.1206208E+00
          2   -1    0    0  501    0  0.00000000000E+00  0.00000000000E+00  0.92925957059E+03  0.92925957059E+03  0.00000000000E+00 0. -1.
         -2   -1    0    0    0  501 -0.00000000000E+00 -0.00000000000E+00 -0.58385807240E+02  0.58385807240E+02  0.00000000000E+00 0.  1.
          5    1    1    2  502    0  0.11412073139E+02 -0.15652149669E+02  0.98386141283E+02  0.10036199679E+03  0.41800000000E+01 0. -1.
         -5    1    1    2    0  502  0.34773159859E+02 -0.10606724553E+03  0.14672535631E+02  0.11265961532E+03  0.41800000000E+01 0. -1.
        -11    1    1    2    0    0 -0.52460207936E+02  0.18050637634E+02  0.22125744946E+03  0.22810690011E+03  0.00000000000E+00 0.  1.
         11    1    1    2    0    0  0.62749749379E+01  0.10366875757E+03  0.53655763697E+03  0.54651686561E+03  0.00000000000E+00 0. -1.
</event>
<event>
 6    1  0.8989754E-006  0.1515105E+03  0.7561462E-02  0.1198629E+00
          1   -1    0    0  501    0  0.00000000000E+00  0.00000000000E+00  0.99651760713E+02  0.99651760713E+02  0.00000000000E+00 0. -1.
         -1   -1    0    0    0  501 -0.00000000000E+00 -0.00000000000E+00 -0.42547867536E+03  0.42547867536E+03  0.00000000000E+00 0.  1.
          5    1    1    2  502    0 -0.14349675069E+03 -0.17654349087E+02 -0.59054941152E+02  0.15623044509E+03  0.41800000000E+01 0. -1.
         -5    1    1    2    0  502  0.82141185153E-02  0.93753601183E+00 -0.17871360302E+03  0.17876493880E+03  0.41800000000E+01 0.  1.
        -11    1    1    2    0    0  0.11075622292E+03 -0.10873806490E+02 -0.95544162210E+02  0.14667606320E+03  0.00000000000E+00 0. -1.
         11    1    1    2    0    0  0.32732313651E+02  0.27590619564E+02  0.74857917369E+01  0.43458988976E+02  0.00000000000E+00 0.  1.
</event>
<event>
 6    1  0.8989754E-006  0.1091428E+03  0.7561462E-02  0.1262166E+00
          3   -1    0    0  501    0  0.00000000000E+00  0.00000000000E+00  0.28923195515E+03  0.28923195515E+03  0.00000000000E+00 0. -1.
         -3   -1    0    0    0  501 -0.00000000000E+00 -0.00000000000E+00 -0.70498020290E+02  0.70498020290E+02  0.00000000000E+00 0.  1.
          5    1    1    2  502    0  0.32907389182E+01  0.51997667711E+02  0.13957445435E+03  0.14904055528E+03  0.41800000000E+01 0. -1.
         -5    1    1    2    0  502 -0.15315870249E+02  0.39719915046E+02 -0.19961722897E+02  0.47203710805E+02  0.41800000000E+01 0. -1.
        -11    1    1    2    0    0 -0.33052237669E+02 -0.58697974562E+02  0.27781624244E+02  0.72867834318E+02  0.00000000000E+00 0. -1.
         11    1    1    2    0    0  0.45077369000E+02 -0.33019608195E+02  0.71339579155E+02  0.90617875032E+02  0.00000000000E+00 0.  1.
</event>
<event>
 6    1  0.8989754E-006  0.1070912E+03  0.7561462E-02  0.1266053E+00
         -2   -1    0    0    0  501 -0.00000000000E+00  0.00000000000E+00  0.29745599024E+02  0.29745599024E+02  0.00000000000E+00 0.  1.
          2   -1    0    0  501    0  0.00000000000E+00 -0.00000000000E+00 -0.69997870182E+03  0.69997870182E+03  0.00000000000E+00 0. -1.
          5    1    1    2  502    0 -0.28661897648E+02 -0.50183271119E+02 -0.41063991462E+02  0.71018229151E+02  0.41800000000E+01 0. -1.
         -5    1    1    2    0  502 -0.51794300067E+02 -0.30010209237E-01 -0.29962353299E+03  0.30409601171E+03  0.41800000000E+01 0. -1.
        -11    1    1    2    0    0  0.65593595290E+02  0.57946339479E+02 -0.32592131461E+03  0.33746851901E+03  0.00000000000E+00 0. -1.
         11    1    1    2    0    0  0.14862602425E+02 -0.77330581514E+01 -0.36242637307E+01  0.17141540970E+02  0.00000000000E+00 0.  1.
</event>
<event>
 6    1  0.8989754E-006  0.1012596E+03  0.7561462E-02  0.1277669E+00
         -3   -1    0    0    0  501 -0.00000000000E+00  0.00000000000E+00  0.31966880806E+03  0.31966880806E+03  0.00000000000E+00 0.  1.
          3   -1    0    0  501    0  0.00000000000E+00 -0.00000000000E+00 -0.69793173830E+02  0.69793173830E+02  0.00000000000E+00 0. -1.
          5    1    1    2  502    0 -0.37773110759E+02 -0.21781663435E+02  0.19082226461E+03  0.19578523394E+03  0.41800000000E+01 0. -1.
         -5    1    1    2    0  502  0.28870883229E+01 -0.38209633405E+01 -0.19617177824E+02  0.20621374969E+02  0.41800000000E+01 0. -1.
        -11    1    1    2    0    0  0.90745304998E+02 -0.39567570854E+00  0.33806022942E+02  0.96838598325E+02  0.00000000000E+00 0.  1.
         11    1    1    2    0    0 -0.55859282562E+02  0.25998302484E+02  0.44864524504E+02  0.76216774658E+02  0.00000000000E+00 0. -1.
</event>
<event>
 6    1  0.8989754E-006  0.1735579E+03  0.7561462E-02  0.1174187E+00
          1   -1    0    0  501    0  0.00000000000E+00  0.00000000000E+00  0.28158029432E+03  0.28158029432E+03  0.00000000000E+00 0. -1.
         -1   -1    0    0    0  501 -0.00000000000E+00 -0.00000000000E+00 -0.11929622043E+03  0.11929622043E+03  0.00000000000E+00 0.  1.
          5    1    1    2  502    0  0.61716395607E+02  0.46515986514E+02  0.41421851870E+02  0.87783214230E+02  0.41800000000E+01 0. -1.
         -5    1    1    2    0  502 -0.45443503341E+02  0.93571289453E+02 -0.49512695628E+01  0.10422420869E+03  0.41800000000E+01 0. -1.
        -11    1    1    2    0    0 -0.10069808690E+02  0.10703109376E+02  0.49097268662E+01  0.15493967061E+02  0.00000000000E+00 0. -1.
         11    1    1    2    0    0 -0.62030835756E+01 -0.15079038534E+03  0.12090376471E+03  0.19337512477E+03  0.00000000000E+00 0.  1.
</event>
<event>
 6    1  0.8989754E-006  0.6470579E+02  0.7561462E-02  0.1379082E+00
         -1   -1    0    0    0  501 -0.00000000000E+00  0.00000000000E+00  0.83237328906E+02  0.83237328906E+02  0.00000000000E+00 0.  1.
          1   -1    0    0  501    0  0.00000000000E+00 -0.00000000000E+00 -0.18556458506E+03  0.18556458506E+03  0.00000000000E+00 0. -1.
          5    1    1    2  502    0  0.47254483938E+02 -0.17810210452E+02 -0.62723144196E+02  0.80634081296E+02  0.41800000000E+01 0.  1.
         -5    1    1    2    0  502 -0.79841928157E+00  0.30275658776E+02  0.45153159612E+02  0.54530112879E+02  0.41800000000E+01 0.  1.
        -11    1    1    2    0    0 -0.30643640535E+02 -0.69726750679E+01 -0.10370070530E+03  0.10835814313E+03  0.00000000000E+00 0. -1.
         11    1    1    2    0    0 -0.15812424121E+02 -0.54927732555E+01  0.18943433731E+02  0.25279576661E+02  0.00000000000E+00 0.  1.
</event>
<event>
 6    1  0.8989754E-006  0.9321070E+02  0.7561462E-02  0.1295258E+00
          1   -1    0    0  501    0  0.00000000000E+00  0.00000000000E+00  0.57069676744E+02  0.57069676744E+02  0.00000000000E+00 0. -1.
         -1   -1    0    0    0  501 -0.00000000000E+00 -0.00000000000E+00 -0.21785513641E+03  0.21785513641E+03  0.00000000000E+00 0.  1.
          5    1    1    2  502    0  0.52353266955E+02 -0.18537669222E+02 -0.88091942783E+02  0.10422174689E+03  0.41800000000E+01 0. -1.
         -5    1    1    2    0  502 -0.49687555422E+02  0.36538320115E+02 -0.29784173101E+02  0.68618301989E+02  0.41800000000E+01 0. -1.
        -11    1    1    2    0    0  0.11087092671E+02  0.23070393057E+02 -0.51882172641E+02  0.57852627405E+02  0.00000000000E+00 0.  1.
         11    1    1    2    0    0 -0.13752804205E+02 -0.41071043950E+02  0.89728288573E+01  0.44232136873E+02  0.00000000000E+00 0. -1.
</event>
<event>
 6    1  0.8989754E-006  0.1380081E+03  0.7561462E-02  0.1216035E+00
         -1   -1    0    0    0  501 -0.00000000000E+00  0.00000000000E+00  0.31683308088E+02  0.31683308088E+02  0.00000000000E+00 0.  1.
          1   -1    0    0  501    0  0.00000000000E+00 -0.00000000000E+00 -0.63744756944E+03  0.63744756944E+03  0.00000000000E+00 0. -1.
          5    1    1    2  502    0 -0.80621550165E+02 -0.63268232290E+02 -0.18199927657E+03  0.20891125542E+03  0.41800000000E+01 0. -1.
         -5    1    1    2    0  502 -0.72188295575E+01  0.50118997069E+02 -0.94867362652E+02  0.10761651483E+03  0.41800000000E+01 0. -1.
        -11    1    1    2    0    0  0.66843081786E+02 -0.31052922577E+02 -0.14994498152E+03  0.16708015761E+03  0.00000000000E+00 0.  1.
         11    1    1    2    0    0  0.20997297937E+02  0.44202157797E+02 -0.17895264061E+03  0.18552294967E+03  0.00000000000E+00 0. -1.
</event>
<event>
 6    1  0.8989754E-006  0.1046343E+03  0.7561462E-02  0.1270842E+00
         -2   -1    0    0    0  501 -0.00000000000E+00  0.00000000000E+00  0.59754913193E+02  0.59754913193E+02  0.00000000000E+00 0.  1.
          2   -1    0    0  501    0  0.00000000000E+00 -0.00000000000E+00 -0.24891419221E+03  0.24891419221E+03  0.00000000000E+00 0. -1.
          5    1    1    2  502    0 -0.29361681410E+02  0.85492070449E+02 -0.41277305815E+02  0.99459996080E+02  0.41800000000E+01 0.  1.
         -5    1    1    2    0  502  0.10348539306E+02 -0.38171463201E+02 -0.48595212657E+02  0.62794266951E+02  0.41800000000E+01 0.  1.
        -11    1    1    2    0    0  0.35545620985E+02 -0.50909896324E+02 -0.19835610126E+02  0.65182514097E+02  0.00000000000E+00 0.  1.
         11    1    1    2    0    0 -0.16532478881E+02  0.35892890767E+01 -0.79451150423E+02  0.81232328279E+02  0.00000000000E+00 0. -1.
</event>
<event>
 6    1  0.8989754E-006  0.9044140E+02  0.7561462E-02  0.1301786E+00
         -1   -1    0    0    0  501 -0.00000000000E+00  0.00000000000E+00  0.20189184679E+03  0.20189184679E+03  0.00000000000E+00 0.  1.
          1   -1    0    0  501    0  0.00000000000E+00 -0.00000000000E+00 -0.93209105779E+02  0.93209105779E+02  0.00000000000E+00 0. -1.
          5    1    1    2  502    0 -0.61918001855E+02 -0.68771508542E+01  0.13403344985E+02  0.63861226220E+02  0.41800000000E+01 0.  1.
         -5    1    1    2    0  502  0.30734445100E+02 -0.42794609261E+02  0.10723786439E+03  0.11955507792E+03  0.41800000000E+01 0.  1.
        -11    1    1    2    0    0 -0.36736776658E+01  0.18395886172E+02 -0.48682092531E+02  0.52171358702E+02  0.00000000000E+00 0. -1.
         11    1    1    2    0    0  0.34857234420E+02  0.31275873942E+02  0.36723624170E+02  0.59513289730E+02  0.00000000000E+00 0.  1.
</event>
<event>
 6    1  0.8989754E-006  0.7067043E+02  0.7561462E-02  0.1357828E+00
          1   -1    0    0  501    0  0.00000000000E+00  0.00000000000E+00  0.83617172147E+02  0.83617172147E+02  0.00000000000E+00 0. -1.
         -1   -1    0    0    0  501 -0.00000000000E+00 -0.00000000000E+00 -0.30616941914E+03  0.30616941914E+03  0.00000000000E+00 0.  1.
          5    1    1    2  502    0 -0.42093779829E+02 -0.88350965936E+01 -0.17412433275E+02  0.46589810739E+02  0.41800000000E+01 0. -1.
         -5    1    1    2    0  502  0.23588479193E+02 -0.24821046163E+02 -0.23704321925E+03  0.23954010286E+03  0.41800000000E+01 0. -1.
        -11    1    1    2    0    0  0.65653502461E+01 -0.13486724583E+02  0.49666964433E+02  0.51882587829E+02  0.00000000000E+00 0. -1.
         11    1    1    2    0    0  0.11939950390E+02  0.47142867339E+02 -0.17763558900E+02  0.51774089862E+02  0.00000000000E+00 0.  1.
</event>
<event>
 6    1  0.8989754E-006  0.1062012E+03  0.7561462E-02  0.1267771E+00
         -2   -1    0    0    0  501 -0.00000000000E+00  0.00000000000E+00  0.80523605996E+03  0.80523605996E+03  0.00000000000E+00 0.  1.
          2   -1    0    0  501    0  0.00000000000E+00 -0.00000000000E+00 -0.16750363845E+02  0.16750363845E+02  0.00000000000E+00 0. -1.
          5    1    1    2  502    0  0.86384566294E+02 -0.13256143864E+02  0.39434427808E+03  0.40393427770E+03  0.41800000000E+01 0. -1.
         -5    1    1    2    0  502 -0.38904016230E+02  0.79730622608E+01  0.87714932806E+02  0.96376729753E+02  0.41800000000E+01 0. -1.
        -11    1    1    2    0    0  0.14218106902E+02  0.17011946527E+02  0.25393311301E+02  0.33710252852E+02  0.00000000000E+00 0. -1.
         11    1    1    2    0    0 -0.61698656966E+02 -0.11728864924E+02  0.28103317392E+03  0.28796516350E+03  0.00000000000E+00 0.  1.
</event>
<event>
 6    1  0.8989754E-006  0.1128834E+03  0.7561462E-02  0.1255322E+00
          3   -1    0    0  501    0  0.00000000000E+00  0.00000000000E+00  0.24021241806E+03  0.24021241806E+03  0.00000000000E+00 0. -1.
         -3   -1    0    0    0  501 -0.00000000000E+00 -0.00000000000E+00 -0.76385778761E+02  0.76385778761E+02  0.00000000000E+00 0.  1.
          5    1    1    2  502    0  0.89280762618E+02  0.13845601162E+02  0.59627041240E+02  0.10833102830E+03  0.41800000000E+01 0. -1.
         -5    1    1    2    0  502 -0.18613202563E+02 -0.48028705503E+02  0.20669038767E+01  0.51719941547E+02  0.41800000000E+01 0. -1.
        -11    1    1    2    0    0 -0.64586270054E+02  0.19054504302E+02  0.16438772574E+02  0.69315897581E+02  0.00000000000E+00 0.  1.
         11    1    1    2    0    0 -0.60812900011E+01  0.15128600039E+02  0.85693921604E+02  0.87231329390E+02  0.00000000000E+00 0. -1.
</event>
<event>
 6    1  0.8989754E-006  0.2096889E+03  0.7561462E-02  0.1141813E+00
         -2   -1    0    0    0  501 -0.00000000000E+00  0.00000000000E+00  0.49295183022E+03  0.49295183022E+03  0.00000000000E+00 0.  1.
          2   -1    0    0  501    0  0.00000000000E+00 -0.00000000000E+00 -0.14499942660E+03  0.14499942660E+03  0.00000000000E+00 0. -1.
          5    1    1    2  502    0  0.12529147045E+02  0.26030853425E+02  0.54177874696E+00  0.29195047181E+02  0.41800000000E+01 0. -1.
         -5    1    1    2    0  502  0.29774346700E+02  0.17014880567E+03  0.34844391361E+03  0.38893156355E+03  0.41800000000E+01 0.  1.
        -11    1    1    2    0    0 -0.16980735415E+02  0.24580468907E+01 -0.90908799270E+01  0.19417298154E+02  0.00000000000E+00 0.  1.
         11    1    1    2    0    0 -0.25322758330E+02 -0.19863770599E+03  0.80575911909E+01  0.20040734793E+03  0.00000000000E+00 0. -1.
</event>
<event>
 6    1  0.8989754E-006  0.2464074E+03  0.7561462E-02  0.1115597E+00
         -4   -1    0    0    0  501 -0.00000000000E+00  0.00000000000E+00  0.14616323434E+03  0.14616323434E+03  0.00000000000E+00 0.  1.
          4   -1    0    0  501    0  0.00000000000E+00 -0.00000000000E+00 -0.45427351516E+03  0.45427351516E+03  0.00000000000E+00 0. -1.
          5    1    1    2  502    0  0.14890188490E+03  0.72562921042E+02 -0.36750175820E+02  0.16972093760E+03  0.41800000000E+01 0.  1.
         -5    1    1    2    0  502  0.70437967940E+02 -0.27768466445E+02 -0.85791219160E+02  0.11449978490E+03  0.41800000000E+01 0.  1.
        -11    1    1    2    0    0 -0.88760586007E+02 -0.76206765482E+02 -0.11686731799E+03  0.16535985833E+03  0.00000000000E+00 0. -1.
         11    1    1    2    0    0 -0.13057926683E+03  0.31412310885E+02 -0.68701567856E+02  0.15085616868E+03  0.00000000000E+00 0.  1.
</event>
<event>
 6    1  0.8989754E-006  0.1498464E+03  0.7561462E-02  0.1200662E+00
         -2   -1    0    0    0  501 -0.00000000000E+00  0.00000000000E+00  0.48160055768E+02  0.48160055768E+02  0.00000000000E+00 0.  1.
          2   -1    0    0  501    0  0.00000000000E+00 -0.00000000000E+00 -0.67778811016E+03  0.67778811016E+03  0.00000000000E+00 0. -1.
          5    1    1    2  502    0 -0.80425937698E+02  0.28395261734E+02 -0.65817383956E+02  0.10781476139E+03  0.41800000000E+01 0. -1.
         -5    1    1    2    0  502 -0.62709800108E+02 -0.32646224620E+02 -0.25954967121E+03  0.26903865751E+03  0.41800000000E+01 0. -1.
        -11    1    1    2    0    0  0.28777907601E+02  0.44436809970E+01 -0.17113502422E+03  0.17359467383E+03  0.00000000000E+00 0. -1.
         11    1    1    2    0    0  0.11435783021E+03 -0.19271811165E+00 -0.13312597501E+03  0.17550007320E+03  0.00000000000E+00 0.  1.
</event>
<event>
 6    1  0.8989754E-006  0.1569356E+03  0.7561462E-02  0.1192201E+00
         -1   -1    0    0    0  501 -0.00000000000E+00  0.00000000000E+00  0.38222875550E+03  0.38222875550E+03  0.00000000000E+00 0.  1.
          1   -1    0    0  501    0  0.00000000000E+00 -0.00000000000E+00 -0.96092014131E+02  0.96092014131E+02  0.00000000000E+00 0. -1.
          5    1    1    2  502    0 -0.57252819713E+02 -0.16902269590E+02  0.84005130146E+02  0.10314022675E+03  0.41800000000E+01 0.  1.
         -5    1    1    2    0  502  0.46907881462E+02 -0.10294799729E+03  0.19219175690E+03  0.22305556103E+03  0.41800000000E+01 0.  1.
        -11    1    1    2    0    0  0.34541836047E+02  0.24245105806E+02  0.29622683744E+02  0.51560323750E+02  0.00000000000E+00 0.  1.
         11    1    1    2    0    0 -0.24196897796E+02  0.95605161072E+02 -0.19682829412E+02  0.10056465811E+03  0.00000000000E+00 0. -1.
</event>
<event>
 6    1  0.8989754E-006  0.1027136E+03  0.7561462E-02  0.1274691E+00
         -2   -1    0    0    0  501 -0.00000000000E+00  0.00000000000E+00  0.59598451058E+03  0.59598451058E+03  0.00000000000E+00 0.  1.
          2   -1    0    0  501    0  0.00000000000E+00 -0.00000000000E+00 -0.19157637511E+02  0.19157637511E+02  0.00000000000E+00 0. -1.
          5    1    1    2  502    0  0.59373555123E+02  0.16163460328E+02  0.13224595915E+03  0.14592101496E+03  0.41800000000E+01 0.  1.
         -5    1    1    2    0  502 -0.57922768108E+02 -0.74654498193E+01  0.23334147658E+03  0.24057534599E+03  0.41800000000E+01 0.  1.
        -11    1    1    2    0    0 -0.31758606777E+02 -0.33408625331E+02  0.87859941074E+02  0.99217511541E+02  0.00000000000E+00 0. -1.
         11    1    1    2    0    0  0.30307819762E+02  0.24710614822E+02  0.12337949627E+03  0.12942827559E+03  0.00000000000E+00 0.  1.
</event>
<event>
 6    1  0.8989754E-006  0.1199144E+03  0.7561462E-02  0.1243238E+00
         -1   -1    0    0    0  501 -0.00000000000E+00  0.00000000000E+00  0.20157486568E+02  0.20157486568E+02  0.00000000000E+00 0.  1.
          1   -1    0    0  501    0  0.00000000000E+00 -0.00000000000E+00 -0.73241960943E+03  0.73241960943E+03  0.00000000000E+00 0. -1.
          5    1    1    2  502    0 -0.32185219480E+02 -0.35192996276E+02 -0.10936949394E+03  0.11938841630E+03  0.41800000000E+01 0.  1.
         -5    1    1    2    0  502  0.62802448395E+01  0.90086203797E+02 -0.26176892631E+03  0.27693935938E+03  0.41800000000E+01 0.  1.
        -11    1    1    2    0    0 -0.29241807623E+02 -0.11663339494E+02 -0.13183984036E+03  0.13554652451E+03  0.00000000000E+00 0.  1.
         11    1    1    2    0    0  0.55146782264E+02 -0.43229868026E+02 -0.20928386224E+03  0.22070279581E+03  0.00000000000E+00 0. -1.
</event>
<event>
 6    1  0.8989754E-006  0.1151071E+03  0.7561462E-02  0.1251394E+00
          1   -1    0    0  501    0  0.00000000000E+00  0.00000000000E+00  0.21821746214E+03  0.21821746214E+03  0.00000000000E+00 0. -1.
         -1   -1    0    0    0  501 -0.00000000000E+00 -0.00000000000E+00 -0.88997400670E+02  0.88997400670E+02  0.00000000000E+00 0.  1.
          5    1    1    2  502    0  0.11278835607E+03 -0.95025533855E+00  0.28062582183E+02  0.11630604958E+03  0.41800000000E+01 0.  1.
         -5    1    1    2    0  502 -0.33919894931E+02 -0.75044125116E+01  0.37398236410E+01  0.35189972438E+02  0.41800000000E+01 0.  1.
        -11    1    1    2    0    0 -0.29821779443E+02 -0.75483819153E+01  0.99438259791E+02  0.10408786725E+03  0.00000000000E+00 0. -1.
         11    1    1    2    0    0 -0.49046681699E+02  0.16003049765E+02 -0.20206041441E+01  0.51630973539E+02  0.00000000000E+00 0.  1.
</event>
<event>
 6    1  0.8989754E-006  0.1125420E+03  0.7561462E-02  0.1255934E+00
          1   -1    0    0  501    0  0.00000000000E+00  0.00000000000E+00  0.10922391916E+03  0.10922391916E+03  0.00000000000E+00 0. -1.
         -1   -1    0    0    0  501 -0.00000000000E+00 -0.00000000000E+00 -0.14828701482E+03  0.14828701482E+03  0.00000000000E+00 0.  1.
          5    1    1    2  502    0 -0.78693698414E+02  0.22480927982E+02 -0.60615931649E+02  0.10193063260E+03  0.41800000000E+01 0. -1.
         -5    1    1    2    0  502  0.28097142895E+02 -0.38337001809E+02 -0.22323092873E+01  0.47766418657E+02  0.41800000000E+01 0. -1.
        -11    1    1    2    0    0 -0.21745793932E+02  0.41357869729E+01  0.26436864125E+02  0.34480314273E+02  0.00000000000E+00 0.  1.
         11    1    1    2    0    0  0.72342349451E+02  0.11720286854E+02 -0.26517188490E+01  0.73333568445E+02  0.00000000000E+00 0. -1.
</event>
<event>
 6    1  0.8989754E-006  0.2328333E+03  0.7561462E-02  0.1124661E+00
          1   -1    0    0  501    0  0.00000000000E+00  0.00000000000E+00  0.32061393818E+03  0.32061393818E+03  0.00000000000E+00 0. -1.
         -1   -1    0    0    0  501 -0.00000000000E+00 -0.00000000000E+00 -0.23024461527E+03  0.23024461527E+03  0.00000000000E+00 0.  1.
          5    1    1    2  502    0 -0.12456883373E+02 -0.16951832243E+03 -0.10017129796E+03  0.19734081412E+03  0.41800000000E+01 0.  1.
         -5    1    1    2    0  502 -0.14518833228E+02 -0.53014690017E+02  0.37786201363E+02  0.66832800999E+02  0.41800000000E+01 0.  1.
        -11    1    1    2    0    0 -0.20942623771E+02  0.16181871424E+03  0.12070404900E+03  0.20296146731E+03  0.00000000000E+00 0.  1.
         11    1    1    2    0    0  0.47918340372E+02  0.60714298201E+02  0.32050370510E+02  0.83723471021E+02  0.00000000000E+00 0. -1.
</event>
<event>
 6    1  0.8989754E-006  0.1083545E+03  0.7561462E-02  0.1263648E+00
          1   -1    0    0  501    0  0.00000000000E+00  0.00000000000E+00  0.61290742697E+02  0.61290742697E+02  0.00000000000E+00 0. -1.
         -1   -1    0    0    0  501 -0.00000000000E+00 -0.00000000000E+00 -0.22645431600E+03  0.22645431600E+03  0.00000000000E+00 0.  1.
          5    1    1    2  502    0 -0.15604085990E+02  0.71512557674E+02 -0.53116267387E+02  0.90533660402E+02  0.41800000000E+01 0.  1.
         -5    1    1    2    0  502  0.27037739743E+02 -0.44631345953E+02 -0.69860247958E+02  0.87297898352E+02  0.41800000000E+01 0.  1.
        -11    1    1    2    0    0  0.17822738765E+02 -0.50431220367E+02 -0.76488645478E-01  0.53487978605E+02  0.00000000000E+00 0. -1.
         11    1    1    2    0    0 -0.29256392518E+02  0.23550008646E+02 -0.42110569309E+02  0.56425521335E+02  0.00000000000E+00 0.  1.
</event>
<event>
 6    1  0.8989754E-006  0.2148438E+03  0.7561462E-02  0.1137787E+00
          3   -1    0    0  501    0  0.00000000000E+00  0.00000000000E+00  0.12536327266E+03  0.12536327266E+03  0.00000000000E+00 0. -1.
         -3   -1    0    0    0  501 -0.00000000000E+00 -0.00000000000E+00 -0.41650929526E+03  0.41650929526E+03  0.00000000000E+00 0.  1.
          5    1    1    2  502    0  0.14776465551E+02 -0.71740944661E+01 -0.32836701691E+02  0.36953118184E+02  0.41800000000E+01 0. -1.
         -5    1    1    2    0  502 -0.19159738454E+03  0.87282400711E+02 -0.17749563007E+03  0.27540868964E+03  0.41800000000E+01 0. -1.
        -11    1    1    2    0    0  0.13277110718E+03 -0.85283968226E+02 -0.93444989888E+02  0.18339435180E+03  0.00000000000E+00 0.  1.
         11    1    1    2    0    0  0.44049811811E+02  0.51756619817E+01  0.12631299046E+02  0.46116408286E+02  0.00000000000E+00 0. -1.
</event>
<event>
 6    1  0.8989754E-006  0.1242284E+03  0.7561462E-02  0.1236280E+00
         -2   -1    0    0    0  501 -0.00000000000E+00  0.00000000000E+00  0.13155583010E+04  0.13155583010E+04  0.00000000000E+00 0.  1.
          2   -1    0    0  501    0  0.00000000000E+00 -0.00000000000E+00 -0.20151635258E+02  0.20151635258E+02  0.00000000000E+00 0. -1.
          5    1    1    2  502    0  0.22520362921E+02 -0.79386409855E+02  0.50717498807E+03  0.51386117750E+03  0.41800000000E+01 0.  1.
         -5    1    1    2    0  502 -0.56305755808E+02  0.15541379444E+02  0.55434586400E+03  0.55743042790E+03  0.41800000000E+01 0.  1.
        -11    1    1    2    0    0  0.57937600988E+02  0.28775924248E+02  0.70966777039E+02  0.96026573759E+02  0.00000000000E+00 0. -1.
         11    1    1    2    0    0 -0.24152208101E+02  0.35069106162E+02  0.16291903662E+03  0.16839175709E+03  0.00000000000E+00 0.  1.
</event>
<event>
 6    1  0.8989754E-006  0.1480606E+03  0.7561462E-02  0.1202877E+00
          1   -1    0    0  501    0  0.00000000000E+00  0.00000000000E+00  0.25306543013E+03  0.25306543013E+03  0.00000000000E+00 0.  1.
         -1   -1    0    0    0  501 -0.00000000000E+00 -0.00000000000E+00 -0.10603380392E+03  0.10603380392E+03  0.00000000000E+00 0. -1.
          5    1    1    2  502    0 -0.89540041861E+02  0.58568771700E+02 -0.59262998423E+01  0.10723951485E+03  0.41800000000E+01 0. -1.
         -5    1    1    2    0  502  0.21650737364E+02  0.40338979788E+02  0.57435632544E+02  0.73568417167E+02  0.41800000000E+01 0. -1.
        -11    1    1    2    0    0  0.34287827147E+02  0.42785297764E+01  0.13047779532E+01  0.34578365389E+02  0.00000000000E+00 0. -1.
         11    1    1    2    0    0  0.33601477350E+02 -0.10318628126E+03  0.94217515552E+02  0.14371293664E+03  0.00000000000E+00 0.  1.
</event>
<event>
 6    1  0.8989754E-006  0.1137154E+03  0.7561462E-02  0.1253840E+00
          1   -1    0    0  501    0  0.00000000000E+00  0.00000000000E+00  0.63532321711E+02  0.63532321711E+02  0.00000000000E+00 0. -1.
         -1   -1    0    0    0  501 -0.00000000000E+00 -0.00000000000E+00 -0.26769211636E+03  0.26769211636E+03  0.00000000000E+00 0.  1.
          5    1    1    2  502    0 -0.16929076369E+02 -0.41954243166E+02 -0.99247406171E+02  0.10915251796E+03  0.41800000000E+01 0. -1.
         -5    1    1    2    0  502 -0.42865159210E+02  0.67984240252E+02 -0.70606884389E+02  0.10706111955E+03  0.41800000000E+01 0.  1.
        -11    1    1    2    0    0  0.19714461475E+02 -0.50739150019E+02  0.36158758890E+01  0.54554522218E+02  0.00000000000E+00 0. -1.
         11    1    1    2    0    0  0.40079774104E+02  0.24709152933E+02 -0.37921379980E+02  0.60456278338E+02  0.00000000000E+00 0.  1.
</event>
<event>
 6    1  0.8989754E-006  0.6863055E+02  0.7561462E-02  0.1364813E+00
          1   -1    0    0  501    0  0.00000000000E+00  0.00000000000E+00  0.73679470970E+02  0.73679470970E+02  0.00000000000E+00 0. -1.
         -1   -1    0    0    0  501 -0.00000000000E+00 -0.00000000000E+00 -0.28012795043E+03  0.28012795043E+03  0.00000000000E+00 0.  1.
          5    1    1    2  502    0 -0.23634937986E+02 -0.23040600778E+02 -0.22663489074E+03  0.22906402092E+03  0.41800000000E+01 0. -1.
         -5    1    1    2    0  502  0.37910414598E+02 -0.14929538716E+02 -0.10795720191E+02  0.42356943182E+02  0.41800000000E+01 0. -1.
        -11    1    1    2    0    0  0.56224662934E+01  0.42297116959E+02  0.41452570528E+02  0.59489274946E+02  0.00000000000E+00 0. -1.
         11    1    1    2    0    0 -0.19897942906E+02 -0.43269774649E+01 -0.10470439061E+02  0.22897182359E+02  0.00000000000E+00 0.  1.
</event>
<event>
 6    1  0.1097897E-005  0.3492814E+03  0.7561462E-02  0.1062910E+00
         -1   -1    0    0    0  501 -0.00000000000E+00  0.00000000000E+00  0.17139714926E+03  0.17139714926E+03  0.00000000000E+00 0.  1.
          1   -1    0    0  501    0  0.00000000000E+00 -0.00000000000E+00 -0.81166661447E+03  0.81166661447E+03  0.00000000000E+00 0. -1.
          5    1    1    2  502    0  0.20082148059E+02 -0.15920392997E+03 -0.71629719295E+02  0.17577677058E+03  0.41800000000E+01 0. -1.
         -5    1    1    2    0  502  0.14761277937E+03 -0.13356412635E+03 -0.10374980733E+03  0.22452261223E+03  0.41800000000E+01 0. -1.
        -11    1    1    2    0    0 -0.64730505150E+02  0.14535885685E+03 -0.14240145633E+03  0.21353550133E+03  0.00000000000E+00 0.  1.
         11    1    1    2    0    0 -0.10296442228E+03  0.14740919946E+03 -0.32248848225E+03  0.36922887959E+03  0.00000000000E+00 0. -1.
</event>
<event>
 6    1  0.8989754E-006  0.1457565E+03  0.7561462E-02  0.1205786E+00
         -1   -1    0    0    0  501 -0.00000000000E+00  0.00000000000E+00  0.82196863880E+02  0.82196863880E+02  0.00000000000E+00 0.  1.
          1   -1    0    0  501    0  0.00000000000E+00 -0.00000000000E+00 -0.35292636943E+03  0.35292636943E+03  0.00000000000E+00 0. -1.
          5    1    1    2  502    0  0.40811823254E+02  0.80289177391E+02 -0.27953011309E-02  0.90163348048E+02  0.41800000000E+01 0. -1.
         -5    1    1    2    0  502 -0.35324643887E+02  0.50657580905E+02 -0.97749056202E+02  0.11569948728E+03  0.41800000000E+01 0. -1.
        -11    1    1    2    0    0 -0.25150343558E+02 -0.47825720937E+02 -0.11187153809E+03  0.12423799901E+03  0.00000000000E+00 0. -1.
         11    1    1    2    0    0  0.19663164191E+02 -0.83121037358E+02 -0.61106115955E+02  0.10502239897E+03  0.00000000000E+00 0.  1.
</event>
<event>
 6    1  0.8989754E-006  0.1643615E+03  0.7561462E-02  0.1183859E+00
          2   -1    0    0  501    0  0.00000000000E+00  0.00000000000E+00  0.51138078771E+03  0.51138078771E+03  0.00000000000E+00 0. -1.
         -2   -1    0    0    0  501 -0.00000000000E+00 -0.00000000000E+00 -0.71940454783E+02  0.71940454783E+02  0.00000000000E+00 0.  1.
          5    1    1    2  502    0 -0.99012251536E+02 -0.91091339989E+02  0.54270439026E+02  0.14513376977E+03  0.41800000000E+01 0.  1.
         -5    1    1    2    0  502 -0.18061256451E+02 -0.51271891505E+01  0.10801320794E+03  0.10971245391E+03  0.41800000000E+01 0.  1.
        -11    1    1    2    0    0  0.18833267538E+02  0.71003357448E+02  0.96289115882E+02  0.12111053865E+03  0.00000000000E+00 0.  1.
         11    1    1    2    0    0  0.98240240449E+02  0.25215171691E+02  0.18086757008E+03  0.20736448016E+03  0.00000000000E+00 0. -1.
</event>
<event>
 6    1  0.8989754E-006  0.1346556E+03  0.7561462E-02  0.1220707E+00
         -2   -1    0    0    0  501 -0.00000000000E+00  0.00000000000E+00  0.54964118779E+02  0.54964118779E+02  0.00000000000E+00 0.  1.
          2   -1    0    0  501    0  0.00000000000E+00 -0.00000000000E+00 -0.48514120738E+03  0.48514120738E+03  0.00000000000E+00 0. -1.
          5    1    1    2  502    0  0.14490759907E+02 -0.64168126847E+02 -0.91864718226E+01  0.66553694790E+02  0.41800000000E+01 0.  1.
         -5    1    1    2    0  502 -0.76226102870E+02 -0.53600830509E+01 -0.90236487565E+02  0.11831840659E+03  0.41800000000E+01 0.  1.
        -11    1    1    2    0    0  0.67503863286E+02  0.11409011790E+02 -0.21402864181E+03  0.22471136292E+03  0.00000000000E+00 0.  1.
         11    1    1    2    0    0 -0.57685203227E+01  0.58119198108E+02 -0.11672548740E+03  0.13052186186E+03  0.00000000000E+00 0. -1.
</event>
<event>
 6    1  0.8989754E-006  0.7536428E+02  0.7561462E-02  0.1342747E+00
         -2   -1    0    0    0  501 -0.00000000000E+00  0.00000000000E+00  0.68094766271E+02  0.68094766271E+02  0.00000000000E+00 0.  1.
          2   -1    0    0  501    0  0.00000000000E+00 -0.00000000000E+00 -0.23527168721E+03  0.23527168721E+03  0.00000000000E+00 0. -1.
          5    1    1    2  502    0 -0.49129269802E+02  0.24048421666E+01 -0.57826928757E+02  0.76032193882E+02  0.41800000000E+01 0.  1.
         -5    1    1    2    0  502  0.35724705164E+02  0.26091185685E+02  0.32992587996E+02  0.55344266118E+02  0.41800000000E+01 0.  1.
        -11    1    1    2    0    0 -0.43298255958E+01  0.11979439180E+02  0.81643734745E+01  0.15129816489E+02  0.00000000000E+00 0.  1.
         11    1    1    2    0    0  0.17734390234E+02 -0.40475467031E+02 -0.15050695365E+03  0.15686017699E+03  0.00000000000E+00 0. -1.
</event>
<event>
 6    1  0.8989754E-006  0.1089390E+03  0.7561462E-02  0.1262547E+00
          3   -1    0    0  501    0  0.00000000000E+00  0.00000000000E+00  0.35032675002E+03  0.35032675002E+03  0.00000000000E+00 0. -1.
         -3   -1    0    0    0  501 -0.00000000000E+00 -0.00000000000E+00 -0.64254825546E+02  0.64254825546E+02  0.00000000000E+00 0.  1.
          5    1    1    2  502    0  0.13824913626E+02  0.12538725394E+02  0.61233561808E+02  0.64151144674E+02  0.41800000000E+01 0.  1.
         -5    1    1    2    0  502 -0.34294348382E+02 -0.84900416220E+02 -0.61170143597E+01  0.91864428752E+02  0.41800000000E+01 0.  1.
        -11    1    1    2    0    0  0.39069162482E+02  0.78350398345E+02  0.21851525085E+03  0.23540199496E+03  0.00000000000E+00 0. -1.
         11    1    1    2    0    0 -0.18599727726E+02 -0.59887075185E+01  0.12440126171E+02  0.23164007174E+02  0.00000000000E+00 0.  1.
</event>
<event>
 6    1  0.8989754E-006  0.7700959E+02  0.7561462E-02  0.1337759E+00
          2   -1    0    0  501    0  0.00000000000E+00  0.00000000000E+00  0.91948718429E+02  0.91948718429E+02  0.00000000000E+00 0. -1.
         -2   -1    0    0    0  501 -0.00000000000E+00 -0.00000000000E+00 -0.18369154421E+03  0.18369154421E+03  0.00000000000E+00 0.  1.
          5    1    1    2  502    0 -0.20659314181E+02 -0.26737248687E+01  0.18541129340E+02  0.28199325246E+02  0.41800000000E+01 0.  1.
         -5    1    1    2    0  502  0.70587342009E+02  0.18090124934E+02 -0.12269084200E+03  0.14275973026E+03  0.41800000000E+01 0.  1.
        -11    1    1    2    0    0 -0.42328651621E+02  0.29671532506E+00 -0.34515276713E+02  0.54617827810E+02  0.00000000000E+00 0.  1.
         11    1    1    2    0    0 -0.75993762062E+01 -0.15713115390E+02  0.46922163590E+02  0.50063379330E+02  0.00000000000E+00 0. -1.
</event>
<event>
 6    1  0.8989754E-006  0.1461462E+03  0.7561462E-02  0.1205290E+00
          4   -1    0    0  501    0  0.00000000000E+00  0.00000000000E+00  0.25471146628E+03  0.25471146628E+03  0.00000000000E+00 0. -1.
         -4   -1    0    0    0  501 -0.00000000000E+00 -0.00000000000E+00 -0.96927201125E+02  0.96927201125E+02  0.00000000000E+00 0.  1.
          5    1    1    2  502    0 -0.42426890713E+02  0.31062741284E+02  0.55116599029E+02  0.76290542272E+02  0.41800000000E+01 0.  1.
         -5    1    1    2    0  502  0.60364362455E+02  0.77478444717E+02 -0.27136575443E+01  0.98344303280E+02  0.41800000000E+01 0.  1.
        -11    1    1    2    0    0  0.28426549315E+02 -0.84205603202E+02  0.56110614722E+02  0.10510496373E+03  0.00000000000E+00 0. -1.
         11    1    1    2    0    0 -0.46364021058E+02 -0.24335582799E+02  0.49270708952E+02  0.71898858124E+02  0.00000000000E+00 0.  1.
</event>
<event>
 6    1  0.1301516E-005  0.1279175E+03  0.7561462E-02  0.1230579E+00
          1   -1    0    0  501    0  0.00000000000E+00  0.00000000000E+00  0.57761267847E+03  0.57761267847E+03  0.00000000000E+00 0. -1.
         -1   -1    0    0    0  501 -0.00000000000E+00 -0.00000000000E+00 -0.44233126584E+02  0.44233126584E+02  0.00000000000E+00 0.  1.
          5    1    1    2  502    0 -0.65048248774E+02 -0.36546335994E+02  0.71175547988E+02  0.10320048631E+03  0.41800000000E+01 0. -1.
         -5    1    1    2    0  502 -0.19037758088E+02  0.79698351561E+02  0.79861932772E+02  0.11449744181E+03  0.41800000000E+01 0. -1.
        -11    1    1    2    0    0  0.22246905339E+02 -0.27307405019E+02  0.30594359917E+02  0.46654410560E+02  0.00000000000E+00 0.  1.
         11    1    1    2    0    0  0.61839101523E+02 -0.15844610547E+02  0.35174771121E+03  0.35749346638E+03  0.00000000000E+00 0. -1.
</event>
<event>
 6    1  0.8989754E-006  0.7933584E+02  0.7561462E-02  0.1330947E+00
         -1   -1    0    0    0  501 -0.00000000000E+00  0.00000000000E+00  0.40549276025E+02  0.40549276025E+02  0.00000000000E+00 0.  1.
          1   -1    0    0  501    0  0.00000000000E+00 -0.00000000000E+00 -0.33111017517E+03  0.33111017517E+03  0.00000000000E+00 0. -1.
          5    1    1    2  502    0  0.10569837429E+01 -0.41666519379E+02 -0.12823859047E+03  0.13490672532E+03  0.41800000000E+01 0. -1.
         -5    1    1    2    0  502 -0.50057290321E+02  0.16642694923E+01  0.10553738976E+02  0.51355193638E+02  0.41800000000E+01 0.  1.
        -11    1    1    2    0    0  0.18915607556E+02  0.28727130797E+02 -0.10012322633E+03  0.10586646638E+03  0.00000000000E+00 0. -1.
         11    1    1    2    0    0  0.30084699022E+02  0.11275119090E+02 -0.72752821330E+02  0.79531065863E+02  0.00000000000E+00 0.  1.
</event>
<event>
 6    1  0.8989754E-006  0.9205556E+02  0.7561462E-02  0.1297949E+00
          1   -1    0    0  501    0  0.00000000000E+00  0.00000000000E+00  0.11747525158E+03  0.11747525158E+03  0.00000000000E+00 0. -1.
         -1   -1    0    0    0  501 -0.00000000000E+00 -0.00000000000E+00 -0.14398588681E+03  0.14398588681E+03  0.00000000000E+00 0.  1.
          5    1    1    2  502    0  0.45628197029E+01  0.43611400763E+02  0.23343283572E+02  0.49851327847E+02  0.41800000000E+01 0. -1.
         -5    1    1    2    0  502 -0.67680834819E+02 -0.25766958761E+02 -0.64962300790E+02  0.97376611614E+02  0.41800000000E+01 0. -1.
        -11    1    1    2    0    0  0.18514985240E+02  0.21568999023E+01 -0.37833016811E+02  0.42175751998E+02  0.00000000000E+00 0.  1.
         11    1    1    2    0    0  0.44603029876E+02 -0.20001341905E+02  0.52941398798E+02  0.72057446935E+02  0.00000000000E+00 0. -1.
</event>
<event>
 6    1  0.8989754E-006  0.1051502E+03  0.7561462E-02  0.1269824E+00
          1   -1    0    0  501    0  0.00000000000E+00  0.00000000000E+00  0.13249496100E+03  0.13249496100E+03  0.00000000000E+00 0. -1.
         -1   -1    0    0    0  501 -0.00000000000E+00 -0.00000000000E+00 -0.11099673972E+03  0.11099673972E+03  0.00000000000E+00 0.  1.
          5    1    1    2  502    0 -0.58631991383E+02  0.52098992430E+01 -0.22602661354E+02  0.63191820388E+02  0.41800000000E+01 0.  1.
         -5    1    1    2    0  502  0.58331855496E+02  0.37138563438E+02  0.77275988311E+01  0.69707004265E+02  0.41800000000E+01 0.  1.
        -11    1    1    2    0    0 -0.61856510953E+01 -0.61490493065E+02  0.55280132941E+02  0.82917043572E+02  0.00000000000E+00 0. -1.
         11    1    1    2    0    0  0.64857869823E+01  0.19142030384E+02 -0.18906849142E+02  0.27675832498E+02  0.00000000000E+00 0.  1.
</event>
<event>
 6    1  0.8989754E-006  0.1141025E+03  0.7561462E-02  0.1253156E+00
         -3   -1    0    0    0  501 -0.00000000000E+00  0.00000000000E+00  0.49834413105E+02  0.49834413105E+02  0.00000000000E+00 0.  1.
          3   -1    0    0  501    0  0.00000000000E+00 -0.00000000000E+00 -0.29980648613E+03  0.29980648613E+03  0.00000000000E+00 0. -1.
          5    1    1    2  502    0  0.32290843406E+02  0.40312843247E+02 -0.27274112244E+02  0.58559145291E+02  0.41800000000E+01 0. -1.
         -5    1    1    2    0  502 -0.69177914632E+02 -0.36774904819E+02 -0.51494462512E+02  0.93846308221E+02  0.41800000000E+01 0. -1.
        -11    1    1    2    0    0 -0.27824379826E+02 -0.15899904350E+02 -0.55000037909E+02  0.63655378729E+02  0.00000000000E+00 0.  1.
         11    1    1    2    0    0  0.64711451052E+02  0.12361965923E+02 -0.11620346036E+03  0.13358006699E+03  0.00000000000E+00 0. -1.
</event>
<event>
 6    1  0.8989754E-006  0.1105681E+03  0.7561462E-02  0.1259521E+00
          1   -1    0    0  501    0  0.00000000000E+00  0.00000000000E+00  0.71297590036E+02  0.71297590036E+02  0.00000000000E+00 0. -1.
         -1   -1    0    0    0  501 -0.00000000000E+00 -0.00000000000E+00 -0.24648669477E+03  0.24648669477E+03  0.00000000000E+00 0.  1.
          5    1    1    2  502    0 -0.13518423766E+02  0.86100365785E+02 -0.12983979382E+03  0.15643485938E+03  0.41800000000E+01 0. -1.
         -5    1    1    2    0  502 -0.21373756524E+02 -0.38848972076E+02 -0.24879744569E+02  0.51015234872E+02  0.41800000000E+01 0. -1.
        -11    1    1    2    0    0 -0.93654226779E+01 -0.43979298042E+02 -0.41532105179E+02  0.61211155510E+02  0.00000000000E+00 0.  1.
         11    1    1    2    0    0  0.44257602967E+02 -0.32720956674E+01  0.21062538830E+02  0.49123035049E+02  0.00000000000E+00 0. -1.
</event>
<event>
 6    1  0.8989754E-006  0.1411171E+03  0.7561462E-02  0.1211834E+00
         -1   -1    0    0    0  501 -0.00000000000E+00  0.00000000000E+00  0.34080561232E+03  0.34080561232E+03  0.00000000000E+00 0.  1.
          1   -1    0    0  501    0  0.00000000000E+00 -0.00000000000E+00 -0.79659696945E+02  0.79659696945E+02  0.00000000000E+00 0. -1.
          5    1    1    2  502    0 -0.26921471274E+02 -0.63165587216E+02  0.11861882934E+03  0.13712241282E+03  0.41800000000E+01 0. -1.
         -5    1    1    2    0  502 -0.86338596546E+02  0.39207250644E+02  0.76158586569E+02  0.12169291049E+03  0.41800000000E+01 0. -1.
        -11    1    1    2    0    0  0.94286725696E+02  0.29444308380E+02  0.88047776388E+02  0.13232295668E+03  0.00000000000E+00 0.  1.
         11    1    1    2    0    0  0.18973342123E+02 -0.54859718080E+01 -0.21679276919E+02  0.29327029269E+02  0.00000000000E+00 0. -1.
</event>
<event>
 6    1  0.8989754E-006  0.8160889E+02  0.7561462E-02  0.1324547E+00
          1   -1    0    0  501    0  0.00000000000E+00  0.00000000000E+00  0.11477577824E+03  0.11477577824E+03  0.00000000000E+00 0. -1.
         -1   -1    0    0    0  501 -0.00000000000E+00 -0.00000000000E+00 -0.23886732327E+03  0.23886732327E+03  0.00000000000E+00 0.  1.
          5    1    1    2  502    0  0.10809709235E+02  0.32583189027E+02  0.25804497124E+02  0.43149258311E+02  0.41800000000E+01 0. -1.
         -5    1    1    2    0  502 -0.59398420279E+02 -0.28053590978E+02 -0.18868128815E+03  0.19983312337E+03  0.41800000000E+01 0.  1.
        -11    1    1    2    0    0  0.40967881169E+02  0.13583357516E+02 -0.20805198792E+02  0.47913789097E+02  0.00000000000E+00 0.  1.
         11    1    1    2    0    0  0.76208298750E+01 -0.18112955565E+02  0.59590444779E+02  0.62746930731E+02  0.00000000000E+00 0. -1.
</event>
<event>
 6    1  0.8989754E-006  0.3334027E+03  0.7561462E-02  0.1069641E+00
          3   -1    0    0  501    0  0.00000000000E+00  0.00000000000E+00  0.61437986467E+02  0.61437986467E+02  0.00000000000E+00 0. -1.
         -3   -1    0    0    0  501 -0.00000000000E+00 -0.00000000000E+00 -0.23558924665E+04  0.23558924665E+04  0.00000000000E+00 0.  1.
          5    1    1    2  502    0 -0.85966147745E+02  0.18184942285E+02 -0.28775246848E+03  0.30089836523E+03  0.41800000000E+01 0.  1.
         -5    1    1    2    0  502 -0.22482375635E+03 -0.11083721416E+03 -0.14015782506E+04  0.14238222061E+04  0.41800000000E+01 0.  1.
        -11    1    1    2    0    0  0.26397199504E+03  0.96754000136E+02 -0.56387862228E+03  0.63008067053E+03  0.00000000000E+00 0.  1.
         11    1    1    2    0    0  0.46817909063E+02 -0.41017282634E+01 -0.41245138644E+02  0.62529211138E+02  0.00000000000E+00 0. -1.
</event>
<event>
 6    1  0.8989754E-006  0.1111326E+03  0.7561462E-02  0.1258487E+00
         -1   -1    0    0    0  501 -0.00000000000E+00  0.00000000000E+00  0.96192471315E+02  0.96192471315E+02  0.00000000000E+00 0. -1.
          1   -1    0    0  501    0  0.00000000000E+00 -0.00000000000E+00 -0.13942861837E+03  0.13942861837E+03  0.00000000000E+00 0.  1.
          5    1    1    2  502    0 -0.37653686906E+01 -0.85952624969E+02 -0.81949203359E+01  0.86525492543E+02  0.41800000000E+01 0.  1.
         -5    1    1    2    0  502  0.12632928198E+01  0.42124487598E+02 -0.28425903660E+02  0.51005615015E+02  0.41800000000E+01 0.  1.
        -11    1    1    2    0    0 -0.25638857130E+02  0.57154357460E+02 -0.17608665813E+02  0.65069475819E+02  0.00000000000E+00 0.  1.
         11    1    1    2    0    0  0.28140933001E+02 -0.13326220089E+02  0.10993342754E+02  0.33020506309E+02  0.00000000000E+00 0. -1.
</event>
<event>
 6    1  0.8989754E-006  0.8596850E+02  0.7561462E-02  0.1312919E+00
         -1   -1    0    0    0  501 -0.00000000000E+00  0.00000000000E+00  0.30095589758E+03  0.30095589758E+03  0.00000000000E+00 0.  1.
          1   -1    0    0  501    0  0.00000000000E+00 -0.00000000000E+00 -0.45787080480E+02  0.45787080480E+02  0.00000000000E+00 0. -1.
          5    1    1    2  502    0 -0.63456554110E+02 -0.14907495323E+02  0.34602997725E+02  0.73917572524E+02  0.41800000000E+01 0.  1.
         -5    1    1    2    0  502  0.29779195389E+02 -0.15212427336E+01  0.14526048355E+03  0.14834822257E+03  0.41800000000E+01 0.  1.
        -11    1    1    2    0    0 -0.18992845392E+02  0.14338966823E+02 -0.86708636468E+01  0.25328206057E+02  0.00000000000E+00 0. -1.
         11    1    1    2    0    0  0.52670204112E+02  0.20897712326E+01  0.83976199473E+02  0.99148976913E+02  0.00000000000E+00 0.  1.
</event>
<event>
 6    1  0.8989754E-006  0.1864437E+03  0.7561462E-02  0.1161709E+00
          1   -1    0    0  501    0  0.00000000000E+00  0.00000000000E+00  0.57595378770E+03  0.57595378770E+03  0.00000000000E+00 0. -1.
         -1   -1    0    0    0  501 -0.00000000000E+00 -0.00000000000E+00 -0.69007872422E+02  0.69007872422E+02  0.00000000000E+00 0.  1.
          5    1    1    2  502    0 -0.35284917419E+02  0.43869025043E+02  0.79056462344E+02  0.97143776918E+02  0.41800000000E+01 0. -1.
         -5    1    1    2    0  502  0.85211113756E+02 -0.14669863015E+03  0.12453227329E+03  0.21049271124E+03  0.41800000000E+01 0.  1.
        -11    1    1    2    0    0 -0.54628825529E+01 -0.17561862327E+02  0.50861774890E+02  0.54084953907E+02  0.00000000000E+00 0.  1.
         11    1    1    2    0    0 -0.44463313784E+02  0.12039146743E+03  0.25249540475E+03  0.28324021805E+03  0.00000000000E+00 0. -1.
</event>
<event>
 6    1  0.8989754E-006  0.9221049E+02  0.7561462E-02  0.1297585E+00
          2   -1    0    0  501    0  0.00000000000E+00  0.00000000000E+00  0.71377987056E+03  0.71377987056E+03  0.00000000000E+00 0.  1.
         -2   -1    0    0    0  501 -0.00000000000E+00 -0.00000000000E+00 -0.28976740170E+02  0.28976740170E+02  0.00000000000E+00 0. -1.
          5    1    1    2  502    0  0.66552727698E+02  0.41935245021E+02  0.28299359501E+03  0.29375274902E+03  0.41800000000E+01 0. -1.
         -5    1    1    2    0  502  0.10879384218E+02 -0.48745196614E+01 -0.11609137811E+02  0.17157110002E+02  0.41800000000E+01 0. -1.
        -11    1    1    2    0    0 -0.26146011837E+02  0.50808924952E+01  0.21176424463E+02  0.34027494127E+02  0.00000000000E+00 0. -1.
         11    1    1    2    0    0 -0.51286100079E+02 -0.42141617855E+02  0.39224224873E+03  0.39781925758E+03  0.00000000000E+00 0.  1.
</event>
<event>
 6    1  0.8989754E-006  0.2405262E+03  0.7561462E-02  0.1119443E+00
         -2   -1    0    0    0  501 -0.00000000000E+00  0.00000000000E+00  0.44827680824E+03  0.44827680824E+03  0.00000000000E+00 0.  1.
          2   -1    0    0  501    0  0.00000000000E+00 -0.00000000000E+00 -0.18288406398E+03  0.18288406398E+03  0.00000000000E+00 0. -1.
          5    1    1    2  502    0  0.32593904264E+01  0.24891429209E+02 -0.40678265536E+02  0.47983336285E+02  0.41800000000E+01 0. -1.
         -5    1    1    2    0  502 -0.20375409407E+03  0.74790234611E+02  0.25775486386E+03  0.33699310421E+03  0.41800000000E+01 0.  1.
        -11    1    1    2    0    0  0.11781213547E+03 -0.10195379348E+03  0.49455174796E+02  0.16346280795E+03  0.00000000000E+00 0. -1.
         11    1    1    2    0    0  0.82682568177E+02  0.22721296610E+01 -0.11390288637E+01  0.82721623777E+02  0.00000000000E+00 0.  1.
</event>
<event>
 6    1  0.8989754E-006  0.1309210E+03  0.7561462E-02  0.1226096E+00
         -2   -1    0    0    0  501 -0.00000000000E+00  0.00000000000E+00  0.25075553259E+03  0.25075553259E+03  0.00000000000E+00 0.  1.
          2   -1    0    0  501    0  0.00000000000E+00 -0.00000000000E+00 -0.11424404473E+03  0.11424404473E+03  0.00000000000E+00 0. -1.
          5    1    1    2  502    0 -0.76252583450E+02  0.80067228328E+01  0.13016955521E+03  0.15112957883E+03  0.41800000000E+01 0. -1.
         -5    1    1    2    0  502 -0.37662804900E+02  0.41261930803E+02 -0.16697413690E+02  0.58457761080E+02  0.41800000000E+01 0. -1.
        -11    1    1    2    0    0  0.39881376226E+02  0.39802829317E+00 -0.31569689776E+02  0.50865783280E+02  0.00000000000E+00 0. -1.
         11    1    1    2    0    0  0.74034012125E+02 -0.49666681929E+02  0.54609036121E+02  0.10454645413E+03  0.00000000000E+00 0.  1.
</event>
<event>
 6    1  0.8989754E-006  0.9922017E+02  0.7561462E-02  0.1281944E+00
          1   -1    0    0  501    0  0.00000000000E+00  0.00000000000E+00  0.57703812848E+02  0.57703812848E+02  0.00000000000E+00 0. -1.
         -1   -1    0    0    0  501 -0.00000000000E+00 -0.00000000000E+00 -0.31578330013E+03  0.31578330013E+03  0.00000000000E+00 0.  1.
          5    1    1    2  502    0  0.41937344374E+01  0.78190207030E+01 -0.11686463954E+03  0.11727549134E+03  0.41800000000E+01 0. -1.
         -5    1    1    2    0  502  0.66725033326E+02  0.24724742714E+02 -0.68766585685E+00  0.71284558349E+02  0.41800000000E+01 0. -1.
        -11    1    1    2    0    0 -0.49083452392E+02 -0.63007946207E+02 -0.11320498946E+03  0.13854441967E+03  0.00000000000E+00 0.  1.
         11    1    1    2    0    0 -0.21835315371E+02  0.30464182790E+02 -0.27322192431E+02  0.46382643625E+02  0.00000000000E+00 0. -1.
</event>
<event>
 6    1  0.1091176E-005  0.1641660E+03  0.7561462E-02  0.1184072E+00
          3   -1    0    0  501    0  0.00000000000E+00  0.00000000000E+00  0.24564980432E+02  0.24564980432E+02  0.00000000000E+00 0. -1.
         -3   -1    0    0    0  501 -0.00000000000E+00 -0.00000000000E+00 -0.12056979265E+04  0.12056979265E+04  0.00000000000E+00 0.  1.
          5    1    1    2  502    0 -0.13603919836E+03  0.48034009390E+02 -0.61235000230E+03  0.62912949960E+03  0.41800000000E+01 0.  1.
         -5    1    1    2    0  502  0.27731671006E+02  0.16851837074E+02 -0.17483596318E+03  0.17787106681E+03  0.41800000000E+01 0.  1.
        -11    1    1    2    0    0  0.60778149181E+02  0.10976085293E+02 -0.20645161426E+03  0.21549182559E+03  0.00000000000E+00 0.  1.
         11    1    1    2    0    0  0.47529378170E+02 -0.75861931757E+02 -0.18749536636E+03  0.20777051495E+03  0.00000000000E+00 0. -1.
</event>
<event>
 6    1  0.8989754E-006  0.1162148E+03  0.7561462E-02  0.1249475E+00
         -1   -1    0    0    0  501 -0.00000000000E+00  0.00000000000E+00  0.79962997658E+02  0.79962997658E+02  0.00000000000E+00 0.  1.
          1   -1    0    0  501    0  0.00000000000E+00 -0.00000000000E+00 -0.31880078168E+03  0.31880078168E+03  0.00000000000E+00 0. -1.
          5    1    1    2  502    0  0.82024332090E+01  0.10440024310E+02  0.18344523176E+02  0.23027547605E+02  0.41800000000E+01 0. -1.
         -5    1    1    2    0  502  0.63276423224E+02  0.68029526129E+02 -0.20730598937E+03  0.22721172459E+03  0.41800000000E+01 0. -1.
        -11    1    1    2    0    0 -0.29576157331E+02 -0.78198333354E+02 -0.29185444047E+00  0.83605105113E+02  0.00000000000E+00 0.  1.
         11    1    1    2    0    0 -0.41902699102E+02 -0.27121708462E+00 -0.49584463382E+02  0.64919402028E+02  0.00000000000E+00 0. -1.
</event>
<event>
 6    1  0.8989754E-006  0.1427054E+03  0.7561462E-02  0.1209734E+00
          3   -1    0    0  501    0  0.00000000000E+00  0.00000000000E+00  0.37609405330E+02  0.37609405330E+02  0.00000000000E+00 0. -1.
         -3   -1    0    0    0  501 -0.00000000000E+00 -0.00000000000E+00 -0.64289871933E+03  0.64289871933E+03  0.00000000000E+00 0.  1.
          5    1    1    2  502    0 -0.70451015586E+02  0.22495241620E+02 -0.27311124652E+03  0.28297810317E+03  0.41800000000E+01 0.  1.
         -5    1    1    2    0  502 -0.10615131416E+02 -0.78772068217E+02 -0.16472181630E+03  0.18294389553E+03  0.41800000000E+01 0.  1.
        -11    1    1    2    0    0  0.87439209612E+02  0.13476831323E+02 -0.92235470471E+02  0.12780697310E+03  0.00000000000E+00 0. -1.
         11    1    1    2    0    0 -0.63730626098E+01  0.42799995273E+02 -0.75220780705E+02  0.86779152867E+02  0.00000000000E+00 0.  1.
</event>
<event>
 6    1  0.8989754E-006  0.1256125E+03  0.7561462E-02  0.1234115E+00
          2   -1    0    0  501    0  0.00000000000E+00  0.00000000000E+00  0.73347191211E+03  0.73347191211E+03  0.00000000000E+00 0. -1.
         -2   -1    0    0    0  501 -0.00000000000E+00 -0.00000000000E+00 -0.23687936230E+02  0.23687936230E+02  0.00000000000E+00 0.  1.
          5    1    1    2  502    0 -0.52278743191E+02 -0.45334019920E+02  0.11311452943E+03  0.13266728881E+03  0.41800000000E+01 0.  1.
         -5    1    1    2    0  502  0.65525726860E+02 -0.22985689346E+02  0.19641737854E+03  0.20837279522E+03  0.41800000000E+01 0.  1.
        -11    1    1    2    0    0  0.18470957046E+02  0.77215433411E+02  0.25021489997E+03  0.26250884857E+03  0.00000000000E+00 0.  1.
         11    1    1    2    0    0 -0.31717940715E+02 -0.88957241451E+01  0.15003716794E+03  0.15361091574E+03  0.00000000000E+00 0. -1.
</event>
<event>
 6    1  0.8989754E-006  0.9700661E+02  0.7561462E-02  0.1286720E+00
          1   -1    0    0  501    0  0.00000000000E+00  0.00000000000E+00  0.18446042154E+03  0.18446042154E+03  0.00000000000E+00 0. -1.
         -1   -1    0    0    0  501 -0.00000000000E+00 -0.00000000000E+00 -0.70208071520E+02  0.70208071520E+02  0.00000000000E+00 0.  1.
          5    1    1    2  502    0 -0.51900954149E+02  0.33839794093E+02  0.24709942644E+02  0.66834829029E+02  0.41800000000E+01 0.  1.
         -5    1    1    2    0  502  0.58753705255E+02 -0.20497526571E+02  0.47487369929E+01  0.62547337111E+02  0.41800000000E+01 0.  1.
        -11    1    1    2    0    0 -0.23376546531E+02  0.21007987754E+02  0.81115315959E+02  0.86991338421E+02  0.00000000000E+00 0. -1.
         11    1    1    2    0    0  0.16523795426E+02 -0.34350255276E+02  0.36783544244E+01  0.38294988498E+02  0.00000000000E+00 0.  1.
</event>
<event>
 6    1  0.8989754E-006  0.2310229E+03  0.7561462E-02  0.1125922E+00
         -4   -1    0    0    0  501 -0.00000000000E+00  0.00000000000E+00  0.24113889033E+03  0.24113889033E+03  0.00000000000E+00 0.  1.
          4   -1    0    0  501    0  0.00000000000E+00 -0.00000000000E+00 -0.25840359041E+03  0.25840359041E+03  0.00000000000E+00 0. -1.
          5    1    1    2  502    0  0.15019466129E+03 -0.13646527720E+02  0.51911501900E+02  0.15955231251E+03  0.41800000000E+01 0. -1.
         -5    1    1    2    0  502  0.32115205403E+02 -0.85257323085E+02  0.24700529693E+02  0.94486962724E+02  0.41800000000E+01 0. -1.
        -11    1    1    2    0    0 -0.79525595648E+02  0.84749989145E+02 -0.79379991563E+02  0.14074112435E+03  0.00000000000E+00 0.  1.
         11    1    1    2    0    0 -0.10278427104E+03  0.14153861661E+02 -0.14496740115E+02  0.10476208115E+03  0.00000000000E+00 0. -1.
</event>
<event>
 6    1  0.8989754E-006  0.1254170E+03  0.7561462E-02  0.1234419E+00
          2   -1    0    0  501    0  0.00000000000E+00  0.00000000000E+00  0.91314008672E+02  0.91314008672E+02  0.00000000000E+00 0. -1.
         -2   -1    0    0    0  501 -0.00000000000E+00 -0.00000000000E+00 -0.18168140957E+03  0.18168140957E+03  0.00000000000E+00 0.  1.
          5    1    1    2  502    0 -0.57941227038E+02 -0.39906671190E+02 -0.16514897531E+02  0.72387446678E+02  0.41800000000E+01 0.  1.
         -5    1    1    2    0  502  0.61424822534E+02 -0.26446223486E+02 -0.52789946373E+02  0.85303355140E+02  0.41800000000E+01 0.  1.
        -11    1    1    2    0    0 -0.45416112884E+02  0.51970412846E+02 -0.11890356807E+02  0.70035189054E+02  0.00000000000E+00 0. -1.
         11    1    1    2    0    0  0.41932517388E+02  0.14382481830E+02 -0.91722001844E+01  0.45269427369E+02  0.00000000000E+00 0.  1.
</event>
<event>
 6    1  0.8989754E-006  0.9255511E+02  0.7561462E-02  0.1296779E+00
         -1   -1    0    0    0  501 -0.00000000000E+00  0.00000000000E+00  0.28052439084E+02  0.28052439084E+02  0.00000000000E+00 0.  1.
          1   -1    0    0  501    0  0.00000000000E+00 -0.00000000000E+00 -0.62101958481E+03  0.62101958481E+03  0.00000000000E+00 0. -1.
          5    1    1    2  502    0  0.87944644546E+02  0.10131776297E+02 -0.14440178394E+03  0.16942922121E+03  0.41800000000E+01 0. -1.
         -5    1    1    2    0  502 -0.19007264395E+02  0.43528284311E+00 -0.23995175453E+03  0.24074007243E+03  0.41800000000E+01 0. -1.
        -11    1    1    2    0    0 -0.18975283105E+02 -0.18417710573E+02 -0.23713082739E+01  0.26549887657E+02  0.00000000000E+00 0.  1.
         11    1    1    2    0    0 -0.49962097045E+02  0.78506514337E+01 -0.20624229898E+03  0.21235284260E+03  0.00000000000E+00 0. -1.
</event>
<event>
 6    1  0.8989754E-006  0.1926917E+03  0.7561462E-02  0.1156056E+00
         -1   -1    0    0    0  501 -0.00000000000E+00  0.00000000000E+00  0.52843572460E+02  0.52843572460E+02  0.00000000000E+00 0.  1.
          1   -1    0    0  501    0  0.00000000000E+00 -0.00000000000E+00 -0.90577377923E+03  0.90577377923E+03  0.00000000000E+00 0. -1.
          5    1    1    2  502    0 -0.12776124509E+02  0.12584354504E+03 -0.31554713261E+03  0.33998131196E+03  0.41800000000E+01 0.  1.
         -5    1    1    2    0  502 -0.38761729458E+02  0.53695456632E+02 -0.31348568987E+02  0.73388547547E+02  0.41800000000E+01 0.  1.
        -11    1    1    2    0    0  0.12077062008E+02 -0.12258892532E+03 -0.23298797355E+03  0.26354752106E+03  0.00000000000E+00 0.  1.
         11    1    1    2    0    0  0.39460791959E+02 -0.56950076344E+02 -0.27304653162E+03  0.28169997112E+03  0.00000000000E+00 0. -1.
</event>
<event>
 6    1  0.8989754E-006  0.1098817E+03  0.7561462E-02  0.1260789E+00
          2   -1    0    0  501    0  0.00000000000E+00  0.00000000000E+00  0.15791668407E+03  0.15791668407E+03  0.00000000000E+00 0. -1.
         -2   -1    0    0    0  501 -0.00000000000E+00 -0.00000000000E+00 -0.10003978450E+03  0.10003978450E+03  0.00000000000E+00 0.  1.
          5    1    1    2  502    0  0.13586585860E+02  0.58229669885E+02  0.30488155625E+02  0.67247972487E+02  0.41800000000E+01 0. -1.
         -5    1    1    2    0  502 -0.58381820606E+02 -0.10938766788E+02 -0.30899405369E+02  0.67084567884E+02  0.41800000000E+01 0.  1.
        -11    1    1    2    0    0 -0.21806519298E+02 -0.10764957740E+02 -0.49119651988E+01  0.24809998008E+02  0.00000000000E+00 0.  1.
         11    1    1    2    0    0  0.66601754043E+02 -0.36525945357E+02  0.63200114515E+02  0.98813930195E+02  0.00000000000E+00 0. -1.
</event>
<event>
 6    1  0.8989754E-006  0.8144209E+02  0.7561462E-02  0.1325008E+00
          2   -1    0    0  501    0  0.00000000000E+00  0.00000000000E+00  0.53602607674E+02  0.53602607674E+02  0.00000000000E+00 0. -1.
         -2   -1    0    0    0  501 -0.00000000000E+00 -0.00000000000E+00 -0.25135946516E+03  0.25135946516E+03  0.00000000000E+00 0.  1.
          5    1    1    2  502    0 -0.85648369293E+01  0.67870400263E+02 -0.13686921862E+03  0.15306992869E+03  0.41800000000E+01 0.  1.
         -5    1    1    2    0  502  0.97160910974E+01 -0.44337562436E+02 -0.22316145790E+02  0.50751400295E+02  0.41800000000E+01 0.  1.
        -11    1    1    2    0    0 -0.20591949192E+02 -0.35661428092E+01 -0.61562671499E+02  0.65013139197E+02  0.00000000000E+00 0.  1.
         11    1    1    2    0    0  0.19440695024E+02 -0.19966695017E+02  0.22991178421E+02  0.36127604655E+02  0.00000000000E+00 0. -1.
</event>
<event>
 6    1  0.8989754E-006  0.1122002E+03  0.7561462E-02  0.1256549E+00
         -1   -1    0    0    0  501 -0.00000000000E+00  0.00000000000E+00  0.41823764535E+03  0.41823764535E+03  0.00000000000E+00 0.  1.
          1   -1    0    0  501    0  0.00000000000E+00 -0.00000000000E+00 -0.43802917618E+02  0.43802917618E+02  0.00000000000E+00 0. -1.
          5    1    1    2  502    0  0.12716312486E+02 -0.36167849229E+02 -0.42129588252E+01  0.38794836553E+02  0.41800000000E+01 0.  1.
         -5    1    1    2    0  502 -0.63099342016E+02 -0.22739535657E+02  0.17044965623E+03  0.18321891593E+03  0.41800000000E+01 0.  1.
        -11    1    1    2    0    0 -0.16623818141E+02  0.47932623593E+02  0.10303986963E+03  0.11485252486E+03  0.00000000000E+00 0. -1.
         11    1    1    2    0    0  0.67006847671E+02  0.10974761293E+02  0.10515816070E+03  0.12517428563E+03  0.00000000000E+00 0.  1.
</event>
<event>
 6    1  0.8989754E-006  0.1384549E+03  0.7561462E-02  0.1215423E+00
         -2   -1    0    0    0  501 -0.00000000000E+00  0.00000000000E+00  0.31687994919E+02  0.31687994919E+02  0.00000000000E+00 0. -1.
          2   -1    0    0  501    0  0.00000000000E+00 -0.00000000000E+00 -0.96767458051E+03  0.96767458051E+03  0.00000000000E+00 0.  1.
          5    1    1    2  502    0  0.21413043953E+02 -0.61929894372E+02 -0.18038380329E+03  0.19196254623E+03  0.41800000000E+01 0.  1.
         -5    1    1    2    0  502  0.71907007690E+02  0.20964961167E+02 -0.53349650021E+02  0.92053272125E+02  0.41800000000E+01 0.  1.
        -11    1    1    2    0    0 -0.79731230959E+02  0.68764857258E+02 -0.54612266463E+03  0.55617950305E+03  0.00000000000E+00 0.  1.
         11    1    1    2    0    0 -0.13588820684E+02 -0.27799924053E+02 -0.15613046764E+03  0.15916725402E+03  0.00000000000E+00 0. -1.
</event>
<event>
 6    1  0.8989754E-006  0.8386121E+02  0.7561462E-02  0.1318438E+00
         -1   -1    0    0    0  501 -0.00000000000E+00  0.00000000000E+00  0.16713950388E+03  0.16713950388E+03  0.00000000000E+00 0.  1.
          1   -1    0    0  501    0  0.00000000000E+00 -0.00000000000E+00 -0.97286627261E+02  0.97286627261E+02  0.00000000000E+00 0. -1.
          5    1    1    2  502    0 -0.60465122829E+00 -0.48410473100E+02  0.10436498015E+03  0.11512367694E+03  0.41800000000E+01 0. -1.
         -5    1    1    2    0  502 -0.17123711719E+02  0.43757655621E+02  0.95590799373E+01  0.48133172945E+02  0.41800000000E+01 0.  1.
        -11    1    1    2    0    0 -0.26149657994E+02  0.94708181876E+01  0.11589334200E+02  0.30129946524E+02  0.00000000000E+00 0.  1.
         11    1    1    2    0    0  0.43878020941E+02 -0.48180007093E+01 -0.55660517670E+02  0.71039334737E+02  0.00000000000E+00 0. -1.
</event>
<event>
 6    1  0.8989754E-006  0.1590475E+03  0.7561462E-02  0.1189776E+00
         -3   -1    0    0    0  501 -0.00000000000E+00  0.00000000000E+00  0.81210265681E+03  0.81210265681E+03  0.00000000000E+00 0.  1.
          3   -1    0    0  501    0  0.00000000000E+00 -0.00000000000E+00 -0.36762611678E+02  0.36762611678E+02  0.00000000000E+00 0. -1.
          5    1    1    2  502    0 -0.13408256455E+03  0.71058105402E+02  0.42696528912E+03  0.45314922373E+03  0.41800000000E+01 0. -1.
         -5    1    1    2    0  502  0.15505951758E+02 -0.21530049204E+02  0.58194249816E+02  0.64093842687E+02  0.41800000000E+01 0. -1.
        -11    1    1    2    0    0  0.21605332867E+02 -0.35347129418E+02  0.17756971029E+03  0.18233818026E+03  0.00000000000E+00 0.  1.
         11    1    1    2    0    0  0.96971279920E+02 -0.14180926780E+02  0.11261079591E+03  0.14928402181E+03  0.00000000000E+00 0. -1.
</event>
<event>
 6    1  0.8989754E-006  0.1860652E+03  0.7561462E-02  0.1162059E+00
          1   -1    0    0  501    0  0.00000000000E+00  0.00000000000E+00  0.41416187194E+03  0.41416187194E+03  0.00000000000E+00 0. -1.
         -1   -1    0    0    0  501 -0.00000000000E+00 -0.00000000000E+00 -0.13737607764E+03  0.13737607764E+03  0.00000000000E+00 0.  1.
          5    1    1    2  502    0  0.47674686386E+01  0.63881270038E+02  0.68774259925E+02  0.94079310409E+02  0.41800000000E+01 0. -1.
         -5    1    1    2    0  502 -0.89083145464E+01  0.12041195243E+03 -0.47267054934E+02  0.12973065651E+03  0.41800000000E+01 0. -1.
        -11    1    1    2    0    0  0.16592377471E+02 -0.61497371980E+02  0.29023630787E+02  0.69997177762E+02  0.00000000000E+00 0.  1.
         11    1    1    2    0    0 -0.12451531563E+02 -0.12279585049E+03  0.22625495852E+03  0.25773080490E+03  0.00000000000E+00 0. -1.
</event>
<event>
 6    1  0.8989754E-006  0.1166701E+03  0.7561462E-02  0.1248694E+00
         -1   -1    0    0    0  501 -0.00000000000E+00  0.00000000000E+00  0.14951017616E+02  0.14951017616E+02  0.00000000000E+00 0.  1.
          1   -1    0    0  501    0  0.00000000000E+00 -0.00000000000E+00 -0.10514420512E+04  0.10514420512E+04  0.00000000000E+00 0. -1.
          5    1    1    2  502    0 -0.88330432762E+02  0.18233964140E+02 -0.27945026311E+03  0.29367441964E+03  0.41800000000E+01 0. -1.
         -5    1    1    2    0  502  0.37193750279E+02  0.18718136480E+02 -0.27672962340E+03  0.27987586634E+03  0.41800000000E+01 0. -1.
        -11    1    1    2    0    0  0.71970067890E+02 -0.21022748249E+02 -0.42580301067E+03  0.43235384873E+03  0.00000000000E+00 0. -1.
         11    1    1    2    0    0 -0.20833385408E+02 -0.15929352371E+02 -0.54508136405E+02  0.60488934103E+02  0.00000000000E+00 0.  1.
</event>
<event>
 6    1  0.8989754E-006  0.3126097E+03  0.7561462E-02  0.1079102E+00
         -2   -1    0    0    0  501 -0.00000000000E+00  0.00000000000E+00  0.40032822777E+03  0.40032822777E+03  0.00000000000E+00 0.  1.
          2   -1    0    0  501    0  0.00000000000E+00 -0.00000000000E+00 -0.33238774535E+03  0.33238774535E+03  0.00000000000E+00 0. -1.
          5    1    1    2  502    0  0.67923697292E+02  0.57469831988E+02  0.11241195881E+03  0.14342360728E+03  0.41800000000E+01 0. -1.
         -5    1    1    2    0  502  0.72168070672E+02  0.21654768427E+03  0.88748415397E+02  0.24493853030E+03  0.41800000000E+01 0. -1.
        -11    1    1    2    0    0 -0.62979356351E+02 -0.13179532794E+03 -0.21259601130E+02  0.14760886976E+03  0.00000000000E+00 0. -1.
         11    1    1    2    0    0 -0.77112411613E+02 -0.14222218832E+03 -0.11196029066E+03  0.19674496578E+03  0.00000000000E+00 0.  1.
</event>
<event>
 6    1  0.8989754E-006  0.5129304E+02  0.7561462E-02  0.1438489E+00
          1   -1    0    0  501    0  0.00000000000E+00  0.00000000000E+00  0.21823545985E+03  0.21823545985E+03  0.00000000000E+00 0. -1.
         -1   -1    0    0    0  501 -0.00000000000E+00 -0.00000000000E+00 -0.57947847754E+02  0.57947847754E+02  0.00000000000E+00 0.  1.
          5    1    1    2  502    0 -0.60712490021E+01 -0.16330805388E+02  0.14043914909E+03  0.14157747797E+03  0.41800000000E+01 0.  1.
         -5    1    1    2    0  502 -0.14417518405E+02  0.15692236514E+02 -0.22707191181E+02  0.31419739895E+02  0.41800000000E+01 0.  1.
        -11    1    1    2    0    0  0.83333093933E+01  0.30020576809E+02 -0.17133302210E+02  0.35555999803E+02  0.00000000000E+00 0.  1.
         11    1    1    2    0    0  0.12155458014E+02 -0.29382007935E+02  0.59688956394E+02  0.67630089940E+02  0.00000000000E+00 0. -1.
</event>
<event>
 6    1  0.8989754E-006  0.1359813E+03  0.7561462E-02  0.1218841E+00
          4   -1    0    0  501    0  0.00000000000E+00  0.00000000000E+00  0.38273621321E+02  0.38273621321E+02  0.00000000000E+00 0. -1.
         -4   -1    0    0    0  501 -0.00000000000E+00 -0.00000000000E+00 -0.61662400572E+03  0.61662400572E+03  0.00000000000E+00 0.  1.
          5    1    1    2  502    0  0.17081604499E+02  0.10943613042E+00 -0.79978845186E+00  0.17604125939E+02  0.41800000000E+01 0.  1.
         -5    1    1    2    0  502 -0.11308262924E+03  0.49050250264E+02 -0.32679416659E+03  0.34929286824E+03  0.41800000000E+01 0.  1.
        -11    1    1    2    0    0  0.10871843047E+03 -0.44992758817E+02 -0.24777086567E+03  0.27428898509E+03  0.00000000000E+00 0.  1.
         11    1    1    2    0    0 -0.12717405729E+02 -0.41669275773E+01 -0.29855636913E+01  0.13711647766E+02  0.00000000000E+00 0. -1.
</event>
<event>
 6    1  0.8989754E-006  0.9082954E+02  0.7561462E-02  0.1300855E+00
          2   -1    0    0  501    0  0.00000000000E+00  0.00000000000E+00  0.49152099802E+03  0.49152099802E+03  0.00000000000E+00 0. -1.
         -2   -1    0    0    0  501 -0.00000000000E+00 -0.00000000000E+00 -0.22021825387E+02  0.22021825387E+02  0.00000000000E+00 0.  1.
          5    1    1    2  502    0  0.35971759462E+02 -0.36995290188E+02  0.19942778406E+03  0.20603769662E+03  0.41800000000E+01 0. -1.
         -5    1    1    2    0  502 -0.34093899866E+02  0.22393327118E+02  0.30733444222E+02  0.51243263959E+02  0.41800000000E+01 0.  1.
        -11    1    1    2    0    0  0.25863468028E+02 -0.27955635664E+02  0.13411368383E+03  0.13941634314E+03  0.00000000000E+00 0. -1.
         11    1    1    2    0    0 -0.27741327625E+02  0.42557598734E+02  0.10522426053E+03  0.11684551969E+03  0.00000000000E+00 0.  1.
</event>
<event>
 6    1  0.8989754E-006  0.1041579E+03  0.7561462E-02  0.1271788E+00
         -1   -1    0    0    0  501 -0.00000000000E+00  0.00000000000E+00  0.42130050746E+03  0.42130050746E+03  0.00000000000E+00 0.  1.
          1   -1    0    0  501    0  0.00000000000E+00 -0.00000000000E+00 -0.34678464021E+02  0.34678464021E+02  0.00000000000E+00 0. -1.
          5    1    1    2  502    0 -0.16890335787E+02 -0.34165292047E+02  0.19471641972E+03  0.19845530261E+03  0.41800000000E+01 0. -1.
         -5    1    1    2    0  502  0.13837486284E+02  0.71678387361E+02  0.99709704719E+02  0.12364774505E+03  0.41800000000E+01 0. -1.
        -11    1    1    2    0    0  0.41770613356E+02  0.16225821487E+01  0.44250046660E+02  0.60872683055E+02  0.00000000000E+00 0. -1.
         11    1    1    2    0    0 -0.38717763853E+02 -0.39135677463E+02  0.47945872338E+02  0.73003240766E+02  0.00000000000E+00 0.  1.
</event>
<event>
 6    1  0.8989754E-006  0.5866256E+02  0.7561462E-02  0.1403532E+00
          1   -1    0    0  501    0  0.00000000000E+00  0.00000000000E+00  0.17169437718E+03  0.17169437718E+03  0.00000000000E+00 0. -1.
         -1   -1    0    0    0  501 -0.00000000000E+00 -0.00000000000E+00 -0.75493584307E+02  0.75493584307E+02  0.00000000000E+00 0.  1.
          5    1    1    2  502    0 -0.28983225237E+02  0.25142928398E+02 -0.29333564674E+02  0.48478083811E+02  0.41800000000E+01 0. -1.
         -5    1    1    2    0  502  0.37541852295E+02  0.82399376644E+01  0.83704229435E+02  0.92201722716E+02  0.41800000000E+01 0. -1.
        -11    1    1    2    0    0 -0.14026157777E+02 -0.13580157709E+02 -0.27766341439E+02  0.33942944809E+02  0.00000000000E+00 0.  1.
         11    1    1    2    0    0  0.54675307186E+01 -0.19802708353E+02  0.69596469546E+02  0.72565210146E+02  0.00000000000E+00 0. -1.
</event>
<event>
 6    1  0.8989754E-006  0.2994844E+03  0.7561462E-02  0.1085499E+00
          3   -1    0    0  501    0  0.00000000000E+00  0.00000000000E+00  0.13078971990E+04  0.13078971990E+04  0.00000000000E+00 0. -1.
         -3   -1    0    0    0  501 -0.00000000000E+00 -0.00000000000E+00 -0.72253868237E+02  0.72253868237E+02  0.00000000000E+00 0.  1.
          5    1    1    2  502    0  0.68068683040E+02  0.78238845616E+02  0.22576292310E+03  0.24847742839E+03  0.41800000000E+01 0. -1.
         -5    1    1    2    0  502  0.20623786351E+03  0.11163444348E+02  0.49380950776E+03  0.53527934874E+03  0.41800000000E+01 0.  1.
        -11    1    1    2    0    0 -0.17053213404E+03 -0.51899512067E+02  0.23895476246E+03  0.29811767240E+03  0.00000000000E+00 0.  1.
         11    1    1    2    0    0 -0.10377441250E+03 -0.37502777897E+02  0.27711613748E+03  0.29827661774E+03  0.00000000000E+00 0. -1.
</event>
<event>
 6    1  0.8989754E-006  0.9193630E+02  0.7561462E-02  0.1298229E+00
         -1   -1    0    0    0  501 -0.00000000000E+00  0.00000000000E+00  0.48651420092E+02  0.48651420092E+02  0.00000000000E+00 0.  1.
          1   -1    0    0  501    0  0.00000000000E+00 -0.00000000000E+00 -0.21782949762E+03  0.21782949762E+03  0.00000000000E+00 0. -1.
          5    1    1    2  502    0 -0.48115876305E+02 -0.14214537009E+02 -0.53534384658E+02  0.73488729447E+02  0.41800000000E+01 0. -1.
         -5    1    1    2    0  502  0.58090470515E+02  0.38279666177E+02 -0.14201579269E+02  0.71126597423E+02  0.41800000000E+01 0. -1.
        -11    1    1    2    0    0  0.24453360249E+02 -0.71710103005E+01 -0.22058691247E+02  0.33704244180E+02  0.00000000000E+00 0. -1.
         11    1    1    2    0    0 -0.34427954460E+02 -0.16894118867E+02 -0.79383422358E+02  0.88161346665E+02  0.00000000000E+00 0.  1.
</event>
<event>
 6    1  0.9056490E-006  0.6434862E+02  0.7561462E-02  0.1380439E+00
         -1   -1    0    0    0  501 -0.00000000000E+00  0.00000000000E+00  0.45421330890E+02  0.45421330890E+02  0.00000000000E+00 0.  1.
          1   -1    0    0  501    0  0.00000000000E+00 -0.00000000000E+00 -0.28238505248E+03  0.28238505248E+03  0.00000000000E+00 0. -1.
          5    1    1    2  502    0 -0.14856169181E+02 -0.22817060530E+02  0.21149283022E+02  0.34728786134E+02  0.41800000000E+01 0.  1.
         -5    1    1    2    0  502  0.30890949603E+02  0.23166401655E+01 -0.12820870528E+03  0.13196424553E+03  0.41800000000E+01 0.  1.
        -11    1    1    2    0    0 -0.14763560198E+02 -0.22479371028E+02 -0.11087863135E+03  0.11409362700E+03  0.00000000000E+00 0. -1.
         11    1    1    2    0    0 -0.12712202231E+01  0.42979791393E+02 -0.19025667975E+02  0.47019724701E+02  0.00000000000E+00 0.  1.
</event>
<event>
 6    1  0.8989754E-006  0.1074083E+03  0.7561462E-02  0.1265446E+00
         -2   -1    0    0    0  501 -0.00000000000E+00  0.00000000000E+00  0.50880728183E+02  0.50880728183E+02  0.00000000000E+00 0.  1.
          2   -1    0    0  501    0  0.00000000000E+00 -0.00000000000E+00 -0.28759762106E+03  0.28759762106E+03  0.00000000000E+00 0. -1.
          5    1    1    2  502    0 -0.81231701867E+02 -0.30940347841E+02 -0.11855245250E+03  0.14706478473E+03  0.41800000000E+01 0. -1.
         -5    1    1    2    0  502  0.28124885799E+02  0.29568513108E+02 -0.15508106033E+02  0.43855215441E+02  0.41800000000E+01 0. -1.
        -11    1    1    2    0    0  0.66306775940E+02 -0.12660650759E+02 -0.10818265722E+03  0.12751614775E+03  0.00000000000E+00 0. -1.
         11    1    1    2    0    0 -0.13199959872E+02  0.14032485492E+02  0.55263228738E+01  0.20042201331E+02  0.00000000000E+00 0.  1.
</event>
<event>
 6    1  0.8989754E-006  0.1061589E+03  0.7561462E-02  0.1267853E+00
          1   -1    0    0  501    0  0.00000000000E+00  0.00000000000E+00  0.94875252954E+02  0.94875252954E+02  0.00000000000E+00 0. -1.
         -1   -1    0    0    0  501 -0.00000000000E+00 -0.00000000000E+00 -0.13713264681E+03  0.13713264681E+03  0.00000000000E+00 0.  1.
          5    1    1    2  502    0 -0.33180804169E+02 -0.42665493944E+02  0.16244074484E+00  0.54210782375E+02  0.41800000000E+01 0. -1.
         -5    1    1    2    0  502  0.17552263640E+02  0.71509717535E+02 -0.21815312715E+02  0.76909699842E+02  0.41800000000E+01 0. -1.
        -11    1    1    2    0    0 -0.30458546580E+02 -0.92559036835E+00 -0.33700868076E+02  0.45434879624E+02  0.00000000000E+00 0.  1.
         11    1    1    2    0    0  0.46087087109E+02 -0.27918633223E+02  0.13096346186E+02  0.55452537928E+02  0.00000000000E+00 0. -1.
</event>
<event>
 6    1  0.8989754E-006  0.1070261E+03  0.7561462E-02  0.1266178E+00
         -2   -1    0    0    0  501 -0.00000000000E+00  0.00000000000E+00  0.15331525260E+03  0.15331525260E+03  0.00000000000E+00 0.  1.
          2   -1    0    0  501    0  0.00000000000E+00 -0.00000000000E+00 -0.14864172170E+03  0.14864172170E+03  0.00000000000E+00 0. -1.
          5    1    1    2  502    0 -0.20963110123E+02 -0.40767900444E+02 -0.29793281726E+02  0.54832341995E+02  0.41800000000E+01 0.  1.
         -5    1    1    2    0  502 -0.36664679511E+02  0.26055968321E+01  0.95596726353E+02  0.10250509425E+03  0.41800000000E+01 0.  1.
        -11    1    1    2    0    0  0.91435617269E+02  0.25500777583E+02 -0.45847282354E+02  0.10541695813E+03  0.00000000000E+00 0.  1.
         11    1    1    2    0    0 -0.33807827634E+02  0.12661526029E+02 -0.15282631377E+02  0.39202579921E+02  0.00000000000E+00 0. -1.
</event>
<event>
 6    1  0.8989754E-006  0.1052347E+03  0.7561462E-02  0.1269658E+00
         -2   -1    0    0    0  501 -0.00000000000E+00  0.00000000000E+00  0.24451894898E+02  0.24451894898E+02  0.00000000000E+00 0. -1.
          2   -1    0    0  501    0  0.00000000000E+00 -0.00000000000E+00 -0.50663652895E+03  0.50663652895E+03  0.00000000000E+00 0.  1.
          5    1    1    2  502    0 -0.15433983670E+02  0.59632679149E+02 -0.14259368378E+03  0.15538563424E+03  0.41800000000E+01 0.  1.
         -5    1    1    2    0  502  0.13392437759E+02 -0.56764340557E+02 -0.68984322165E+02  0.90431503651E+02  0.41800000000E+01 0.  1.
        -11    1    1    2    0    0  0.13480445209E+02 -0.44805021607E+02 -0.13664591145E+03  0.14443447469E+03  0.00000000000E+00 0. -1.
         11    1    1    2    0    0 -0.11438899298E+02  0.41936683015E+02 -0.13396071666E+03  0.14083681127E+03  0.00000000000E+00 0.  1.
</event>
<event>
 6    1  0.8989754E-006  0.1266673E+03  0.7561462E-02  0.1232486E+00
          2   -1    0    0  501    0  0.00000000000E+00  0.00000000000E+00  0.49576977218E+03  0.49576977218E+03  0.00000000000E+00 0. -1.
         -2   -1    0    0    0  501 -0.00000000000E+00 -0.00000000000E+00 -0.74228237615E+02  0.74228237615E+02  0.00000000000E+00 0.  1.
          5    1    1    2  502    0 -0.59933321676E+02 -0.25747747349E+02  0.18851568596E+03  0.19952590256E+03  0.41800000000E+01 0. -1.
         -5    1    1    2    0  502  0.34225368867E+02 -0.52051929549E+02 -0.26132233477E+02  0.67684158193E+02  0.41800000000E+01 0.  1.
        -11    1    1    2    0    0 -0.34248808842E+02  0.11458513575E+02  0.91303295771E+01  0.37251058490E+02  0.00000000000E+00 0.  1.
         11    1    1    2    0    0  0.59956761652E+02  0.66341163323E+02  0.25002775251E+03  0.26553689055E+03  0.00000000000E+00 0. -1.
</event>
<event>
 6    1  0.8989754E-006  0.3084715E+03  0.7561462E-02  0.1081081E+00
          2   -1    0    0  501    0  0.00000000000E+00  0.00000000000E+00  0.79364567908E+03  0.79364567908E+03  0.00000000000E+00 0. -1.
         -2   -1    0    0    0  501 -0.00000000000E+00 -0.00000000000E+00 -0.12433122981E+03  0.12433122981E+03  0.00000000000E+00 0.  1.
          5    1    1    2  502    0 -0.18359020429E+03 -0.20562401239E+01  0.23403237606E+03  0.29748649831E+03  0.41800000000E+01 0.  1.
         -5    1    1    2    0  502 -0.88760184123E+02 -0.97599358531E+02  0.18392680456E+03  0.22638583637E+03  0.41800000000E+01 0.  1.
        -11    1    1    2    0    0  0.15591703245E+03  0.99330840476E+02  0.17708637005E+03  0.25600062370E+03  0.00000000000E+00 0. -1.
         11    1    1    2    0    0  0.11643335596E+03  0.32475817925E+00  0.74268898600E+02  0.13810395051E+03  0.00000000000E+00 0.  1.
</event>
<event>
 6    1  0.8989754E-006  0.1057743E+03  0.7561462E-02  0.1268601E+00
          1   -1    0    0  501    0  0.00000000000E+00  0.00000000000E+00  0.29332341411E+03  0.29332341411E+03  0.00000000000E+00 0.  1.
         -1   -1    0    0    0  501 -0.00000000000E+00 -0.00000000000E+00 -0.72901640528E+02  0.72901640528E+02  0.00000000000E+00 0. -1.
          5    1    1    2  502    0  0.20390705980E+02 -0.35816111986E+02  0.94461948003E+02  0.10314604592E+03  0.41800000000E+01 0. -1.
         -5    1    1    2    0  502  0.44602919068E+02 -0.18752400278E+02 -0.34395818888E+02  0.59511491853E+02  0.41800000000E+01 0. -1.
        -11    1    1    2    0    0 -0.86472900851E+02  0.38108413550E+02  0.10088885587E+03  0.13823304599E+03  0.00000000000E+00 0. -1.
         11    1    1    2    0    0  0.21479275803E+02  0.16460098714E+02  0.59466788596E+02  0.65334470876E+02  0.00000000000E+00 0.  1.
</event>
<event>
 6    1  0.8989754E-006  0.1595027E+03  0.7561462E-02  0.1189259E+00
          1   -1    0    0  501    0  0.00000000000E+00  0.00000000000E+00  0.21184159292E+03  0.21184159292E+03  0.00000000000E+00 0. -1.
         -1   -1    0    0    0  501 -0.00000000000E+00 -0.00000000000E+00 -0.13767788719E+03  0.13767788719E+03  0.00000000000E+00 0.  1.
          5    1    1    2  502    0 -0.10210364495E+02  0.12597188211E+02 -0.21860683827E+02  0.27537294553E+02  0.41800000000E+01 0.  1.
         -5    1    1    2    0  502  0.36407689509E+02 -0.14125960980E+03  0.59934897671E+02  0.15776394257E+03  0.41800000000E+01 0.  1.
        -11    1    1    2    0    0  0.24311029807E+02  0.88545986852E+02  0.33505155090E+01  0.91883860999E+02  0.00000000000E+00 0.  1.
         11    1    1    2    0    0 -0.50508354821E+02  0.40116434736E+02  0.32738976377E+02  0.72334381983E+02  0.00000000000E+00 0. -1.
</event>
<event>
 6    1  0.8989754E-006  0.1125473E+03  0.7561462E-02  0.1255924E+00
          2   -1    0    0  501    0  0.00000000000E+00  0.00000000000E+00  0.10171090825E+03  0.10171090825E+03  0.00000000000E+00 0. -1.
         -2   -1    0    0    0  501 -0.00000000000E+00 -0.00000000000E+00 -0.17626555284E+03  0.17626555284E+03  0.00000000000E+00 0.  1.
          5    1    1    2  502    0  0.88998151955E+02 -0.52509042600E+02 -0.37287684459E+02  0.10993504636E+03  0.41800000000E+01 0.  1.
         -5    1    1    2    0  502 -0.16755639657E+02  0.35760305244E+02 -0.32738039948E+02  0.51466518738E+02  0.41800000000E+01 0.  1.
        -11    1    1    2    0    0 -0.66973474086E+02  0.27755098356E+01 -0.40020748129E+02  0.78069263906E+02  0.00000000000E+00 0.  1.
         11    1    1    2    0    0 -0.52690382121E+01  0.13973227521E+02  0.35491827943E+02  0.38505632079E+02  0.00000000000E+00 0. -1.
</event>
<event>
 6    1  0.8989754E-006  0.2459236E+03  0.7561462E-02  0.1115908E+00
          2   -1    0    0  501    0  0.00000000000E+00  0.00000000000E+00  0.72606371625E+03  0.72606371625E+03  0.00000000000E+00 0. -1.
         -2   -1    0    0    0  501 -0.00000000000E+00 -0.00000000000E+00 -0.95823362071E+02  0.95823362071E+02  0.00000000000E+00 0.  1.
          5    1    1    2  502    0 -0.41921190517E+02  0.68625057057E+02  0.18695167781E+03  0.20355634823E+03  0.41800000000E+01 0.  1.
         -5    1    1    2    0  502 -0.17590596739E+03  0.16393123044E+02  0.22020235880E+03  0.28234410754E+03  0.41800000000E+01 0.  1.
        -11    1    1    2    0    0  0.13475442379E+03 -0.62443815535E+02  0.79206643321E+02  0.16832016272E+03  0.00000000000E+00 0.  1.
         11    1    1    2    0    0  0.83072734109E+02 -0.22574364566E+02  0.14387967426E+03  0.16766645983E+03  0.00000000000E+00 0. -1.
</event>
<event>
 6    1  0.8989754E-006  0.9945638E+02  0.7561462E-02  0.1281443E+00
         -1   -1    0    0    0  501 -0.00000000000E+00  0.00000000000E+00  0.33122224708E+02  0.33122224708E+02  0.00000000000E+00 0.  1.
          1   -1    0    0  501    0  0.00000000000E+00 -0.00000000000E+00 -0.42721554148E+03  0.42721554148E+03  0.00000000000E+00 0. -1.
          5    1    1    2  502    0 -0.11743066345E+02 -0.69343257541E+02 -0.14084585483E+03  0.15748464749E+03  0.41800000000E+01 0. -1.
         -5    1    1    2    0  502  0.21643261530E+02  0.35597802662E+02 -0.12880438125E+02  0.43806533877E+02  0.41800000000E+01 0. -1.
        -11    1    1    2    0    0 -0.36834728243E+02 -0.72447182170E+01 -0.50368027340E+02  0.62818956732E+02  0.00000000000E+00 0.  1.
         11    1    1    2    0    0  0.26934533058E+02  0.40990173096E+02 -0.18999899649E+03  0.19622762809E+03  0.00000000000E+00 0. -1.
</event>
<event>
 6    1  0.8989754E-006  0.2724406E+03  0.7561462E-02  0.1099891E+00
         -2   -1    0    0    0  501 -0.00000000000E+00  0.00000000000E+00  0.12215320359E+03  0.12215320359E+03  0.00000000000E+00 0. -1.
          2   -1    0    0  501    0  0.00000000000E+00 -0.00000000000E+00 -0.95547755470E+03  0.95547755470E+03  0.00000000000E+00 0.  1.
          5    1    1    2  502    0  0.18146716361E+02 -0.31308157567E+01  0.21207175092E+02  0.28395809503E+02  0.41800000000E+01 0. -1.
         -5    1    1    2    0  502  0.20712284741E+03 -0.14571913579E+03 -0.16332073317E+03  0.30137198731E+03  0.41800000000E+01 0. -1.
        -11    1    1    2    0    0 -0.14265351860E+03  0.11578883606E+03 -0.35065981792E+03  0.39587799741E+03  0.00000000000E+00 0.  1.
         11    1    1    2    0    0 -0.82616045165E+02  0.33061115483E+02 -0.34055097511E+03  0.35198496406E+03  0.00000000000E+00 0. -1.
</event>
<event>
 6    1  0.8989754E-006  0.1484670E+03  0.7561462E-02  0.1202370E+00
         -1   -1    0    0    0  501 -0.00000000000E+00  0.00000000000E+00  0.23335696683E+02  0.23335696683E+02  0.00000000000E+00 0.  1.
          1   -1    0    0  501    0  0.00000000000E+00 -0.00000000000E+00 -0.13148324549E+04  0.13148324549E+04  0.00000000000E+00 0. -1.
          5    1    1    2  502    0 -0.75514477876E+01  0.11464415929E+03 -0.71203508295E+03  0.72125705499E+03  0.41800000000E+01 0.  1.
         -5    1    1    2    0  502 -0.26410123345E+02  0.18174771241E+02 -0.31679553969E+02  0.45264593939E+02  0.41800000000E+01 0.  1.
        -11    1    1    2    0    0  0.51054128737E+02 -0.10847688414E+03 -0.50810878219E+03  0.52206157969E+03  0.00000000000E+00 0. -1.
         11    1    1    2    0    0 -0.17092557604E+02 -0.24342046395E+02 -0.39673339069E+02  0.49584922920E+02  0.00000000000E+00 0.  1.
</event>
<event>
 6    1  0.8989754E-006  0.2699703E+03  0.7561462E-02  0.1101297E+00
          2   -1    0    0  501    0  0.00000000000E+00  0.00000000000E+00  0.35165847425E+03  0.35165847425E+03  0.00000000000E+00 0. -1.
         -2   -1    0    0    0  501 -0.00000000000E+00 -0.00000000000E+00 -0.77781588995E+03  0.77781588995E+03  0.00000000000E+00 0.  1.
          5    1    1    2  502    0  0.36649903226E+02 -0.24266725930E+03 -0.62683976784E+03  0.67318361618E+03  0.41800000000E+01 0. -1.
         -5    1    1    2    0  502  0.27562416365E+02  0.71534492227E+01 -0.68275027176E+02  0.74093254535E+02  0.41800000000E+01 0. -1.
        -11    1    1    2    0    0  0.29300027414E+02  0.62874754161E+02  0.38104951010E+02  0.79143626457E+02  0.00000000000E+00 0.  1.
         11    1    1    2    0    0 -0.93512347006E+02  0.17263905591E+03  0.23085242830E+03  0.30305386703E+03  0.00000000000E+00 0. -1.
</event>
<event>
 6    1  0.8989754E-006  0.1008863E+03  0.7561462E-02  0.1278443E+00
         -1   -1    0    0    0  501 -0.00000000000E+00  0.00000000000E+00  0.88288078876E+02  0.88288078876E+02  0.00000000000E+00 0.  1.
          1   -1    0    0  501    0  0.00000000000E+00 -0.00000000000E+00 -0.15017547037E+03  0.15017547037E+03  0.00000000000E+00 0. -1.
          5    1    1    2  502    0  0.52702056870E+02  0.61585578381E+02  0.29590067555E+01  0.81218953353E+02  0.41800000000E+01 0.  1.
         -5    1    1    2    0  502 -0.15591491315E+02 -0.41422167429E+02 -0.29763867658E+02  0.53500007233E+02  0.41800000000E+01 0.  1.
        -11    1    1    2    0    0  0.18016012101E+02 -0.79273488111E+01 -0.42456277422E+02  0.46796955497E+02  0.00000000000E+00 0. -1.
         11    1    1    2    0    0 -0.55126577656E+02 -0.12236062141E+02  0.73737468300E+01  0.56947633165E+02  0.00000000000E+00 0.  1.
</event>
<event>
 6    1  0.8989754E-006  0.1869188E+03  0.7561462E-02  0.1161270E+00
         -3   -1    0    0    0  501 -0.00000000000E+00  0.00000000000E+00  0.13648812060E+03  0.13648812060E+03  0.00000000000E+00 0.  1.
          3   -1    0    0  501    0  0.00000000000E+00 -0.00000000000E+00 -0.38002952282E+03  0.38002952282E+03  0.00000000000E+00 0. -1.
          5    1    1    2  502    0 -0.20092181293E+02 -0.24331108307E+02  0.27409758658E+02  0.42005545470E+02  0.41800000000E+01 0. -1.
         -5    1    1    2    0  502 -0.11129866826E+03  0.11511489589E+03 -0.17297619559E+02  0.16110714713E+03  0.41800000000E+01 0. -1.
        -11    1    1    2    0    0  0.12132730882E+03 -0.36609518669E+02 -0.19803391235E+03  0.23511274564E+03  0.00000000000E+00 0. -1.
         11    1    1    2    0    0  0.10063540731E+02 -0.54174268917E+02 -0.55619628973E+02  0.78292205179E+02  0.00000000000E+00 0.  1.
</event>
<event>
 6    1  0.8989754E-006  0.1252903E+03  0.7561462E-02  0.1234616E+00
          2   -1    0    0  501    0  0.00000000000E+00  0.00000000000E+00  0.14530583093E+03  0.14530583093E+03  0.00000000000E+00 0. -1.
         -2   -1    0    0    0  501 -0.00000000000E+00 -0.00000000000E+00 -0.13770617537E+03  0.13770617537E+03  0.00000000000E+00 0.  1.
          5    1    1    2  502    0  0.30376154980E+02 -0.41186304803E+01  0.45555099282E+02  0.55067353114E+02  0.41800000000E+01 0. -1.
         -5    1    1    2    0  502 -0.51449641759E+01  0.91502056324E+02 -0.39096601772E+02  0.99725190589E+02  0.41800000000E+01 0. -1.
        -11    1    1    2    0    0 -0.54993881436E+02 -0.28539121897E+02 -0.39242534089E+01  0.62082269924E+02  0.00000000000E+00 0. -1.
         11    1    1    2    0    0  0.29762690632E+02 -0.58844303947E+02  0.50654114597E+01  0.66137192667E+02  0.00000000000E+00 0.  1.
</event>
<event>
 6    1  0.8989754E-006  0.1221064E+03  0.7561462E-02  0.1239662E+00
          1   -1    0    0  501    0  0.00000000000E+00  0.00000000000E+00  0.57862633716E+02  0.57862633716E+02  0.00000000000E+00 0. -1.
         -1   -1    0    0    0  501 -0.00000000000E+00 -0.00000000000E+00 -0.31301517232E+03  0.31301517232E+03  0.00000000000E+00 0.  1.
          5    1    1    2  502    0  0.29647467077E+02 -0.19592463996E+02 -0.88747827272E+01  0.36865581752E+02  0.41800000000E+01 0.  1.
         -5    1    1    2    0  502 -0.11104059782E+02  0.90853196914E+02 -0.17364765703E+03  0.19633793502E+03  0.41800000000E+01 0.  1.
        -11    1    1    2    0    0  0.18599997814E+02  0.14345737830E+02 -0.11858210894E+02  0.26313062881E+02  0.00000000000E+00 0.  1.
         11    1    1    2    0    0 -0.37143405108E+02 -0.85606470748E+02 -0.60771887945E+02  0.11136122638E+03  0.00000000000E+00 0. -1.
</event>
<event>
 6    1  0.8989754E-006  0.1406862E+03  0.7561462E-02  0.1212409E+00
         -2   -1    0    0    0  501 -0.00000000000E+00  0.00000000000E+00  0.50747031739E+02  0.50747031739E+02  0.00000000000E+00 0.  1.
          2   -1    0    0  501    0  0.00000000000E+00 -0.00000000000E+00 -0.48801298536E+03  0.48801298536E+03  0.00000000000E+00 0. -1.
          5    1    1    2  502    0  0.28589907010E+02  0.75042047163E+02 -0.76908690254E+02  0.11127043930E+03  0.41800000000E+01 0.  1.
         -5    1    1    2    0  502 -0.65273000199E+02  0.28858301955E+02 -0.19473631633E+03  0.20744414054E+03  0.41800000000E+01 0.  1.
        -11    1    1    2    0    0  0.59103908394E+01  0.99285831363E+01 -0.62007763991E+02  0.63075132011E+02  0.00000000000E+00 0. -1.
         11    1    1    2    0    0  0.30772702349E+02 -0.11382893225E+03 -0.10361318304E+03  0.15697030524E+03  0.00000000000E+00 0.  1.
</event>
<event>
 6    1  0.8989754E-006  0.9926189E+02  0.7561462E-02  0.1281856E+00
         -2   -1    0    0    0  501 -0.00000000000E+00  0.00000000000E+00  0.52089619283E+02  0.52089619283E+02  0.00000000000E+00 0.  1.
          2   -1    0    0  501    0  0.00000000000E+00 -0.00000000000E+00 -0.42469977383E+03  0.42469977383E+03  0.00000000000E+00 0. -1.
          5    1    1    2  502    0  0.37308107721E+02 -0.25480214102E+02 -0.14317644117E+03  0.15019354819E+03  0.41800000000E+01 0. -1.
         -5    1    1    2    0  502  0.22307136609E+02  0.39400527727E+02  0.23107574599E+02  0.51004336411E+02  0.41800000000E+01 0.  1.
        -11    1    1    2    0    0  0.23145278146E+01  0.31056966032E+02 -0.48197418394E+02  0.57383650267E+02  0.00000000000E+00 0.  1.
         11    1    1    2    0    0 -0.61929772145E+02 -0.44977279657E+02 -0.20434386958E+03  0.21820785824E+03  0.00000000000E+00 0. -1.
</event>
<event>
 6    1  0.8989754E-006  0.1092448E+03  0.7561462E-02  0.1261975E+00
          2   -1    0    0  501    0  0.00000000000E+00  0.00000000000E+00  0.32524035619E+03  0.32524035619E+03  0.00000000000E+00 0.  1.
         -2   -1    0    0    0  501 -0.00000000000E+00 -0.00000000000E+00 -0.66801917682E+02  0.66801917682E+02  0.00000000000E+00 0. -1.
          5    1    1    2  502    0  0.16330166397E+02  0.32420557817E+02 -0.23985304251E+02  0.43709657099E+02  0.41800000000E+01 0. -1.
         -5    1    1    2    0  502  0.72272889655E+02 -0.95628068298E+01  0.11440067113E+03  0.13571957783E+03  0.41800000000E+01 0. -1.
        -11    1    1    2    0    0 -0.47981443143E+02  0.18060922575E+02  0.13881327125E+03  0.14797817435E+03  0.00000000000E+00 0.  1.
         11    1    1    2    0    0 -0.40621612909E+02 -0.40918673562E+02  0.29209800384E+02  0.64634864584E+02  0.00000000000E+00 0. -1.
</event>
<event>
 6    1  0.8989754E-006  0.9809833E+02  0.7561462E-02  0.1284346E+00
          4   -1    0    0  501    0  0.00000000000E+00  0.00000000000E+00  0.10824520202E+03  0.10824520202E+03  0.00000000000E+00 0. -1.
         -4   -1    0    0    0  501 -0.00000000000E+00 -0.00000000000E+00 -0.11141234697E+03  0.11141234697E+03  0.00000000000E+00 0.  1.
          5    1    1    2  502    0 -0.42001243795E+02 -0.61092770744E+02 -0.46857719819E+02  0.87804039908E+02  0.41800000000E+01 0.  1.
         -5    1    1    2    0  502  0.42488165135E+02  0.23522199408E+02  0.58542333154E+01  0.49094627906E+02  0.41800000000E+01 0.  1.
        -11    1    1    2    0    0  0.28367819278E+01  0.55191833409E+02  0.24717400156E+02  0.60540364033E+02  0.00000000000E+00 0.  1.
         11    1    1    2    0    0 -0.33237032676E+01 -0.17621262073E+02  0.13118941405E+02  0.22218517143E+02  0.00000000000E+00 0. -1.
</event>
<event>
 6    1  0.8989754E-006  0.1536678E+03  0.7561462E-02  0.1196037E+00
         -1   -1    0    0    0  501 -0.00000000000E+00  0.00000000000E+00  0.14215301337E+03  0.14215301337E+03  0.00000000000E+00 0.  1.
          1   -1    0    0  501    0  0.00000000000E+00 -0.00000000000E+00 -0.23789090377E+03  0.23789090377E+03  0.00000000000E+00 0. -1.
          5    1    1    2  502    0  0.25367565177E+02 -0.46160569053E+01 -0.14608031043E+02  0.29928052314E+02  0.41800000000E+01 0.  1.
         -5    1    1    2    0  502 -0.11819815919E+03 -0.76057174258E+02  0.48420036864E+02  0.14871943707E+03  0.41800000000E+01 0.  1.
        -11    1    1    2    0    0  0.92495079265E+01  0.51114359011E+02 -0.10552762908E+02  0.53005583659E+02  0.00000000000E+00 0.  1.
         11    1    1    2    0    0  0.83581086091E+02  0.29558872152E+02 -0.11899713332E+03  0.14839084410E+03  0.00000000000E+00 0. -1.
</event>
<event>
 6    1  0.8989754E-006  0.9700469E+02  0.7561462E-02  0.1286724E+00
         -1   -1    0    0    0  501 -0.00000000000E+00  0.00000000000E+00  0.71466200700E+03  0.71466200700E+03  0.00000000000E+00 0.  1.
          1   -1    0    0  501    0  0.00000000000E+00 -0.00000000000E+00 -0.26963438496E+02  0.26963438496E+02  0.00000000000E+00 0. -1.
          5    1    1    2  502    0 -0.35128722227E+02 -0.19943956746E+02  0.34327920301E+03  0.34567307121E+03  0.41800000000E+01 0. -1.
         -5    1    1    2    0  502  0.43960735227E+02  0.64109770498E+02  0.22984841919E+03  0.24267339599E+03  0.41800000000E+01 0. -1.
        -11    1    1    2    0    0  0.17432363037E+02 -0.46030905366E+02  0.16776298091E+02  0.52001689468E+02  0.00000000000E+00 0. -1.
         11    1    1    2    0    0 -0.26264376037E+02  0.18650916145E+01  0.97794648211E+02  0.10127728884E+03  0.00000000000E+00 0.  1.
</event>
<event>
 6    1  0.8989754E-006  0.1861731E+03  0.7561462E-02  0.1161959E+00
          4   -1    0    0  501    0  0.00000000000E+00  0.00000000000E+00  0.63858646740E+03  0.63858646740E+03  0.00000000000E+00 0. -1.
         -4   -1    0    0    0  501 -0.00000000000E+00 -0.00000000000E+00 -0.62193793490E+02  0.62193793490E+02  0.00000000000E+00 0.  1.
          5    1    1    2  502    0 -0.12717877366E+02 -0.20659879400E+02  0.85562218713E+02  0.89033368422E+02  0.41800000000E+01 0.  1.
         -5    1    1    2    0  502  0.15813275912E+03 -0.56150438425E+02  0.15993918025E+03  0.23185524583E+03  0.41800000000E+01 0.  1.
        -11    1    1    2    0    0 -0.72577056640E+02 -0.19357192639E+01  0.18558409149E+03  0.19928028295E+03  0.00000000000E+00 0. -1.
         11    1    1    2    0    0 -0.72837825118E+02  0.78746037089E+02  0.14530718346E+03  0.18061136368E+03  0.00000000000E+00 0.  1.
</event>
<event>
 6    1  0.8989754E-006  0.2538002E+03  0.7561462E-02  0.1110926E+00
          2   -1    0    0  501    0  0.00000000000E+00  0.00000000000E+00  0.24304005194E+03  0.24304005194E+03  0.00000000000E+00 0. -1.
         -2   -1    0    0    0  501 -0.00000000000E+00 -0.00000000000E+00 -0.27976561422E+03  0.27976561422E+03  0.00000000000E+00 0.  1.
          5    1    1    2  502    0 -0.19983818381E+03 -0.13793767952E+03 -0.54874739315E+02  0.24897954244E+03  0.41800000000E+01 0. -1.
         -5    1    1    2    0  502  0.15959986298E+02 -0.58495409390E+00 -0.14704367328E+02  0.22107784883E+02  0.41800000000E+01 0. -1.
        -11    1    1    2    0    0  0.17373024070E+02  0.63092300469E+02  0.20197825375E+02  0.68486586231E+02  0.00000000000E+00 0.  1.
         11    1    1    2    0    0  0.16650517344E+03  0.75430333144E+02  0.12655718997E+02  0.18323175261E+03  0.00000000000E+00 0. -1.
</event>
<event>
 6    1  0.8989754E-006  0.1361399E+03  0.7561462E-02  0.1218619E+00
         -1   -1    0    0    0  501 -0.00000000000E+00  0.00000000000E+00  0.53948519261E+02  0.53948519261E+02  0.00000000000E+00 0. -1.
          1   -1    0    0  501    0  0.00000000000E+00 -0.00000000000E+00 -0.52854941552E+03  0.52854941552E+03  0.00000000000E+00 0.  1.
          5    1    1    2  502    0  0.84270864218E+02  0.50902747881E+02 -0.54098096559E+02  0.11241327657E+03  0.41800000000E+01 0.  1.
         -5    1    1    2    0  502  0.31041574216E+02  0.75793164861E+01 -0.17981406969E+03  0.18267894632E+03  0.41800000000E+01 0.  1.
        -11    1    1    2    0    0 -0.70841844614E+01 -0.28275554595E+02 -0.10018168517E+02  0.30822984242E+02  0.00000000000E+00 0. -1.
         11    1    1    2    0    0 -0.10822825397E+03 -0.30206509772E+02 -0.23067056148E+03  0.25658272765E+03  0.00000000000E+00 0.  1.
</event>
<event>
 6    1  0.8989754E-006  0.1026625E+03  0.7561462E-02  0.1274795E+00
         -2   -1    0    0    0  501 -0.00000000000E+00  0.00000000000E+00  0.51552235453E+02  0.51552235453E+02  0.00000000000E+00 0.  1.
          2   -1    0    0  501    0  0.00000000000E+00 -0.00000000000E+00 -0.25839689906E+03  0.25839689906E+03  0.00000000000E+00 0. -1.
          5    1    1    2  502    0  0.41177338867E+02  0.35301099081E+02 -0.70193067805E+02  0.88804729606E+02  0.41800000000E+01 0.  1.
         -5    1    1    2    0  502 -0.63455312278E+02 -0.13337269854E+02 -0.18026547085E+02  0.67430617847E+02  0.41800000000E+01 0.  1.
        -11    1    1    2    0    0 -0.30069086865E+02 -0.13347752076E+02 -0.84388150787E+02  0.90574126900E+02  0.00000000000E+00 0. -1.
         11    1    1    2    0    0  0.52347060276E+02 -0.86160771508E+01 -0.34236897926E+02  0.63139660156E+02  0.00000000000E+00 0.  1.
</event>
<event>
 6    1  0.8989754E-006  0.1035427E+03  0.7561462E-02  0.1273018E+00
          2   -1    0    0  501    0  0.00000000000E+00  0.00000000000E+00  0.87030667508E+02  0.87030667508E+02  0.00000000000E+00 0. -1.
         -2   -1    0    0    0  501 -0.00000000000E+00 -0.00000000000E+00 -0.35819186237E+03  0.35819186237E+03  0.00000000000E+00 0.  1.
          5    1    1    2  502    0 -0.34107441871E+02  0.41297976268E+02 -0.25753953664E+03  0.26308349581E+03  0.41800000000E+01 0. -1.
         -5    1    1    2    0  502  0.48784951408E+02  0.20028192132E+02 -0.41830199235E+02  0.67441366623E+02  0.41800000000E+01 0. -1.
        -11    1    1    2    0    0 -0.92058890653E+01 -0.80241874775E+02  0.41631799331E+02  0.90866460130E+02  0.00000000000E+00 0. -1.
         11    1    1    2    0    0 -0.54716204713E+01  0.18915706375E+02 -0.13423258320E+02  0.23831207317E+02  0.00000000000E+00 0.  1.
</event>
<event>
 6    1  0.8989754E-006  0.8381298E+02  0.7561462E-02  0.1318566E+00
         -2   -1    0    0    0  501 -0.00000000000E+00  0.00000000000E+00  0.66778867059E+02  0.66778867059E+02  0.00000000000E+00 0.  1.
          2   -1    0    0  501    0  0.00000000000E+00 -0.00000000000E+00 -0.24759712281E+03  0.24759712281E+03  0.00000000000E+00 0. -1.
          5    1    1    2  502    0 -0.22647442295E+02  0.39332801274E+02  0.29899150644E+02  0.54510618304E+02  0.41800000000E+01 0.  1.
         -5    1    1    2    0  502 -0.31313195007E+02 -0.84073301079E+01 -0.93346239765E+02  0.98904965797E+02  0.41800000000E+01 0.  1.
        -11    1    1    2    0    0  0.35272116698E+02 -0.50948639239E+02 -0.28952931893E+02  0.68397063693E+02  0.00000000000E+00 0.  1.
         11    1    1    2    0    0  0.18688520605E+02  0.20023168073E+02 -0.88418234736E+02  0.92563342074E+02  0.00000000000E+00 0. -1.
</event>
<event>
 6    1  0.8989754E-006  0.3095764E+03  0.7561462E-02  0.1080549E+00
         -1   -1    0    0    0  501 -0.00000000000E+00  0.00000000000E+00  0.45857367152E+02  0.45857367152E+02  0.00000000000E+00 0.  1.
          1   -1    0    0  501    0  0.00000000000E+00 -0.00000000000E+00 -0.22612525573E+04  0.22612525573E+04  0.00000000000E+00 0. -1.
          5    1    1    2  502    0  0.39097718471E+02 -0.16441826875E+03 -0.52530793620E+03  0.55184046510E+03  0.41800000000E+01 0.  1.
         -5    1    1    2    0  502  0.12213202557E+03 -0.80747286690E+02 -0.33122922878E+03  0.36216933937E+03  0.41800000000E+01 0.  1.
        -11    1    1    2    0    0 -0.47165601178E+01  0.64178557371E+02 -0.21219755391E+03  0.22174069327E+03  0.00000000000E+00 0.  1.
         11    1    1    2    0    0 -0.15651318392E+03  0.18098699807E+03 -0.11466604713E+04  0.11713594267E+04  0.00000000000E+00 0. -1.
</event>
<event>
 6    1  0.8989754E-006  0.1445884E+03  0.7561462E-02  0.1207285E+00
         -4   -1    0    0    0  501 -0.00000000000E+00  0.00000000000E+00  0.22619207700E+03  0.22619207700E+03  0.00000000000E+00 0.  1.
          4   -1    0    0  501    0  0.00000000000E+00 -0.00000000000E+00 -0.11939727960E+03  0.11939727960E+03  0.00000000000E+00 0. -1.
          5    1    1    2  502    0 -0.10327254960E+03  0.66500423099E+02  0.93995302798E+02  0.15472593552E+03  0.41800000000E+01 0.  1.
         -5    1    1    2    0  502 -0.10570803715E+02 -0.41345826657E+02  0.58230888678E+01  0.43273548931E+02  0.41800000000E+01 0.  1.
        -11    1    1    2    0    0  0.72431207934E+02 -0.35568197235E+02  0.43257620267E+02  0.91556530343E+02  0.00000000000E+00 0.  1.
         11    1    1    2    0    0  0.41412145384E+02  0.10413600793E+02 -0.36281214529E+02  0.56033341811E+02  0.00000000000E+00 0. -1.
</event>
<event>
 6    1  0.8989754E-006  0.7494394E+02  0.7561462E-02  0.1344045E+00
          3   -1    0    0  501    0  0.00000000000E+00  0.00000000000E+00  0.11684773959E+03  0.11684773959E+03  0.00000000000E+00 0. -1.
         -3   -1    0    0    0  501 -0.00000000000E+00 -0.00000000000E+00 -0.12504821118E+03  0.12504821118E+03  0.00000000000E+00 0.  1.
          5    1    1    2  502    0 -0.28539971691E+02 -0.14899580653E+02  0.34269222158E+02  0.47205714432E+02  0.41800000000E+01 0.  1.
         -5    1    1    2    0  502 -0.15858002870E+01  0.38778704928E+02 -0.84292038564E+02  0.92891995800E+02  0.41800000000E+01 0.  1.
        -11    1    1    2    0    0  0.47225125513E+02  0.21155218778E+01 -0.28497612762E+01  0.47358304994E+02  0.00000000000E+00 0.  1.
         11    1    1    2    0    0 -0.17099353536E+02 -0.25994646152E+02  0.44672106089E+02  0.54439935547E+02  0.00000000000E+00 0. -1.
</event>
<event>
 6    1  0.8989754E-006  0.1009921E+03  0.7561462E-02  0.1278224E+00
         -2   -1    0    0    0  501 -0.00000000000E+00  0.00000000000E+00  0.76320289143E+02  0.76320289143E+02  0.00000000000E+00 0.  1.
          2   -1    0    0  501    0  0.00000000000E+00 -0.00000000000E+00 -0.19363050991E+03  0.19363050991E+03  0.00000000000E+00 0. -1.
          5    1    1    2  502    0 -0.42538357727E+02 -0.60756395911E+02 -0.66535287886E+02  0.99725966810E+02  0.41800000000E+01 0.  1.
         -5    1    1    2    0  502  0.20137117530E+02  0.17931632277E+02  0.28710027385E+02  0.39607890766E+02  0.41800000000E+01 0.  1.
        -11    1    1    2    0    0  0.20789842370E+02 -0.25030546743E+02 -0.41836221455E+02  0.53000143789E+02  0.00000000000E+00 0. -1.
         11    1    1    2    0    0  0.16113978272E+01  0.67855310376E+02 -0.37648738811E+02  0.77616797687E+02  0.00000000000E+00 0.  1.
</event>
<event>
 6    1  0.8989754E-006  0.1008467E+03  0.7561462E-02  0.1278525E+00
         -2   -1    0    0    0  501 -0.00000000000E+00  0.00000000000E+00  0.24165477346E+03  0.24165477346E+03  0.00000000000E+00 0. -1.
          2   -1    0    0  501    0  0.00000000000E+00 -0.00000000000E+00 -0.81886789291E+02  0.81886789291E+02  0.00000000000E+00 0.  1.
          5    1    1    2  502    0 -0.87137017131E+02 -0.46517711825E+02  0.14009221898E+03  0.17146445546E+03  0.41800000000E+01 0.  1.
         -5    1    1    2    0  502  0.18120106707E+02 -0.60993336581E+00 -0.15227120439E+02  0.24042626367E+02  0.41800000000E+01 0.  1.
        -11    1    1    2    0    0  0.26289036291E+02  0.24201804376E+02  0.62681580085E+02  0.72151377299E+02  0.00000000000E+00 0. -1.
         11    1    1    2    0    0  0.42727874134E+02  0.22925840815E+02 -0.27778694457E+02  0.55883103626E+02  0.00000000000E+00 0.  1.
</event>
<event>
 6    1  0.8989754E-006  0.9950926E+02  0.7561462E-02  0.1281331E+00
         -1   -1    0    0    0  501 -0.00000000000E+00  0.00000000000E+00  0.18780782881E+03  0.18780782881E+03  0.00000000000E+00 0.  1.
          1   -1    0    0  501    0  0.00000000000E+00 -0.00000000000E+00 -0.76612431649E+02  0.76612431649E+02  0.00000000000E+00 0. -1.
          5    1    1    2  502    0 -0.76286530437E+01  0.62030396788E+02  0.31491958479E+02  0.70108361283E+02  0.41800000000E+01 0.  1.
         -5    1    1    2    0  502  0.31089705861E+02 -0.50393803915E+02  0.79137446890E+02  0.98925796352E+02  0.41800000000E+01 0.  1.
        -11    1    1    2    0    0 -0.46450182006E+02  0.75724069865E+01 -0.27353550844E+02  0.54435076006E+02  0.00000000000E+00 0.  1.
         11    1    1    2    0    0  0.22989129188E+02 -0.19208999860E+02  0.27919542634E+02  0.40951026817E+02  0.00000000000E+00 0. -1.
</event>
<event>
 6    1  0.8989754E-006  0.9919737E+02  0.7561462E-02  0.1281993E+00
          3   -1    0    0  501    0  0.00000000000E+00  0.00000000000E+00  0.15303418077E+03  0.15303418077E+03  0.00000000000E+00 0. -1.
         -3   -1    0    0    0  501 -0.00000000000E+00 -0.00000000000E+00 -0.83639968216E+02  0.83639968216E+02  0.00000000000E+00 0.  1.
          5    1    1    2  502    0  0.27861721021E+02 -0.40852826501E+02 -0.36939323512E+01  0.49762902524E+02  0.41800000000E+01 0. -1.
         -5    1    1    2    0  502 -0.31951709125E+02  0.68434314221E+02  0.28144346066E+02  0.80707767250E+02  0.41800000000E+01 0. -1.
        -11    1    1    2    0    0  0.22271459063E+02  0.14983218105E+02 -0.14781084556E+02  0.30643028151E+02  0.00000000000E+00 0.  1.
         11    1    1    2    0    0 -0.18181470959E+02 -0.42564705826E+02  0.59724883399E+02  0.75560451066E+02  0.00000000000E+00 0. -1.
</event>
<event>
 6    1  0.8989754E-006  0.1591272E+03  0.7561462E-02  0.1189686E+00
          1   -1    0    0  501    0  0.00000000000E+00  0.00000000000E+00  0.30450468095E+02  0.30450468095E+02  0.00000000000E+00 0. -1.
         -1   -1    0    0    0  501 -0.00000000000E+00 -0.00000000000E+00 -0.98918656928E+03  0.98918656928E+03  0.00000000000E+00 0.  1.
          5    1    1    2  502    0 -0.70842485311E+02  0.11736398252E+03 -0.56148212499E+03  0.57799014801E+03  0.41800000000E+01 0.  1.
         -5    1    1    2    0  502 -0.20221566740E+02 -0.22413039271E+02 -0.39981412500E+02  0.50271680261E+02  0.41800000000E+01 0.  1.
        -11    1    1    2    0    0  0.26329731697E+02  0.92915745302E+01 -0.26177812260E+02  0.38273567683E+02  0.00000000000E+00 0. -1.
         11    1    1    2    0    0  0.64734320354E+02 -0.10424251778E+03 -0.33109475143E+03  0.35310164141E+03  0.00000000000E+00 0.  1.
</event>
<event>
 6    1  0.8989754E-006  0.1003708E+03  0.7561462E-02  0.1279518E+00
         -2   -1    0    0    0  501 -0.00000000000E+00  0.00000000000E+00  0.12130043219E+04  0.12130043219E+04  0.00000000000E+00 0.  1.
          2   -1    0    0  501    0  0.00000000000E+00 -0.00000000000E+00 -0.13339058689E+02  0.13339058689E+02  0.00000000000E+00 0. -1.
          5    1    1    2  502    0  0.19806908973E+02 -0.19627209118E+02  0.62578989403E+03  0.62642477988E+03  0.41800000000E+01 0. -1.
         -5    1    1    2    0  502 -0.67989823285E+02  0.62600807475E+00  0.22551403513E+03  0.23557814074E+03  0.41800000000E+01 0. -1.
        -11    1    1    2    0    0 -0.27248289817E+02  0.53055955663E+01  0.12944937167E+03  0.13239244113E+03  0.00000000000E+00 0. -1.
         11    1    1    2    0    0  0.75431204130E+02  0.13695605477E+02  0.21891196235E+03  0.23194801880E+03  0.00000000000E+00 0.  1.
</event>
<event>
 6    1  0.8989754E-006  0.1166257E+03  0.7561462E-02  0.1248770E+00
         -2   -1    0    0    0  501 -0.00000000000E+00  0.00000000000E+00  0.35840485052E+02  0.35840485052E+02  0.00000000000E+00 0.  1.
          2   -1    0    0  501    0  0.00000000000E+00 -0.00000000000E+00 -0.48693690590E+03  0.48693690590E+03  0.00000000000E+00 0. -1.
          5    1    1    2  502    0  0.45603353292E+02  0.47850834335E+01 -0.62047512633E+02  0.77265316144E+02  0.41800000000E+01 0.  1.
         -5    1    1    2    0  502 -0.75324347244E+02 -0.39383268128E+02 -0.69119417645E+02  0.10963469064E+03  0.41800000000E+01 0.  1.
        -11    1    1    2    0    0  0.11796080796E+02 -0.31491648747E+02 -0.11442552505E+03  0.11926471501E+03  0.00000000000E+00 0. -1.
         11    1    1    2    0    0  0.17924913156E+02  0.66089833442E+02 -0.20550396552E+03  0.21661266916E+03  0.00000000000E+00 0.  1.
</event>
<event>
 6    1  0.1212239E-005  0.3681472E+03  0.7561462E-02  0.1055404E+00
         -1   -1    0    0    0  501 -0.00000000000E+00  0.00000000000E+00  0.73647557786E+03  0.73647557786E+03  0.00000000000E+00 0.  1.
          1   -1    0    0  501    0  0.00000000000E+00 -0.00000000000E+00 -0.19549019279E+03  0.19549019279E+03  0.00000000000E+00 0. -1.
          5    1    1    2  502    0 -0.15465220741E+02 -0.84484027110E+02  0.13681184207E+03  0.16159107779E+03  0.41800000000E+01 0. -1.
         -5    1    1    2    0  502 -0.19410377033E+03 -0.20440330968E+03  0.20992596468E+03  0.35148736779E+03  0.41800000000E+01 0. -1.
        -11    1    1    2    0    0  0.89589093769E+02  0.53915431777E+02  0.32832679683E+02  0.10959500153E+03  0.00000000000E+00 0.  1.
         11    1    1    2    0    0  0.11997989730E+03  0.23497190502E+03  0.16141489863E+03  0.30929232355E+03  0.00000000000E+00 0. -1.
</event>
<event>
 6    1  0.8989754E-006  0.6103831E+02  0.7561462E-02  0.1393525E+00
         -1   -1    0    0    0  501 -0.00000000000E+00  0.00000000000E+00  0.86861203164E+02  0.86861203164E+02  0.00000000000E+00 0.  1.
          1   -1    0    0  501    0  0.00000000000E+00 -0.00000000000E+00 -0.15043559535E+03  0.15043559535E+03  0.00000000000E+00 0. -1.
          5    1    1    2  502    0  0.90060185405E+00 -0.12054515756E+02  0.56939401793E+02  0.58358292559E+02  0.41800000000E+01 0. -1.
         -5    1    1    2    0  502  0.28235023405E+02  0.29531943833E+01 -0.64524074906E+02  0.70617041472E+02  0.41800000000E+01 0. -1.
        -11    1    1    2    0    0 -0.68798278626E+00  0.39182674330E+02 -0.54196070367E+02  0.66880261148E+02  0.00000000000E+00 0. -1.
         11    1    1    2    0    0 -0.28447642473E+02 -0.30081352957E+02 -0.17936487038E+01  0.41441203332E+02  0.00000000000E+00 0.  1.
</event>
<event>
 6    1  0.8989754E-006  0.1713326E+03  0.7561462E-02  0.1176465E+00
         -1   -1    0    0    0  501 -0.00000000000E+00  0.00000000000E+00  0.39747927680E+03  0.39747927680E+03  0.00000000000E+00 0.  1.
          1   -1    0    0  501    0  0.00000000000E+00 -0.00000000000E+00 -0.90865771627E+02  0.90865771627E+02  0.00000000000E+00 0. -1.
          5    1    1    2  502    0 -0.92215050992E+02 -0.13647911572E+03  0.22478448229E+03  0.27870360696E+03  0.41800000000E+01 0.  1.
         -5    1    1    2    0  502  0.13488717266E+02  0.12642355085E+02  0.21321973372E+01  0.19073366275E+02  0.41800000000E+01 0.  1.
        -11    1    1    2    0    0 -0.68370489573E+01  0.34781943370E+02 -0.11256099524E+02  0.37191781344E+02  0.00000000000E+00 0. -1.
         11    1    1    2    0    0  0.85563382684E+02  0.89054817265E+02  0.90952925077E+02  0.15337629385E+03  0.00000000000E+00 0.  1.
</event>
<event>
 6    1  0.8989754E-006  0.1066401E+03  0.7561462E-02  0.1266921E+00
          2   -1    0    0  501    0  0.00000000000E+00  0.00000000000E+00  0.17167912106E+02  0.17167912106E+02  0.00000000000E+00 0.  1.
         -2   -1    0    0    0  501 -0.00000000000E+00 -0.00000000000E+00 -0.75898709085E+03  0.75898709085E+03  0.00000000000E+00 0. -1.
          5    1    1    2  502    0 -0.62658694389E+01 -0.70506064042E+02 -0.38983467328E+03  0.39623088103E+03  0.41800000000E+01 0.  1.
         -5    1    1    2    0  502  0.50548719483E+01  0.48377545242E+02 -0.12893499821E+03  0.13786821525E+03  0.41800000000E+01 0.  1.
        -11    1    1    2    0    0 -0.10472721034E+02  0.56389856829E+02 -0.12473822230E+03  0.13729208987E+03  0.00000000000E+00 0.  1.
         11    1    1    2    0    0  0.11683718525E+02 -0.34261338028E+02 -0.98311284957E+02  0.10476381681E+03  0.00000000000E+00 0. -1.
</event>
<event>
 6    1  0.8989754E-006  0.5358035E+02  0.7561462E-02  0.1426934E+00
         -2   -1    0    0    0  501 -0.00000000000E+00  0.00000000000E+00  0.12131260546E+03  0.12131260546E+03  0.00000000000E+00 0.  1.
          2   -1    0    0  501    0  0.00000000000E+00 -0.00000000000E+00 -0.11894284364E+03  0.11894284364E+03  0.00000000000E+00 0. -1.
          5    1    1    2  502    0  0.79919853815E+01  0.11709247554E+02 -0.38445750401E+02  0.41188911524E+02  0.41800000000E+01 0. -1.
         -5    1    1    2    0  502 -0.44235684796E+01 -0.22413846202E+02  0.92810404275E+02  0.95672315752E+02  0.41800000000E+01 0. -1.
        -11    1    1    2    0    0 -0.31041132017E+02 -0.12234117880E+02  0.72821053899E+01  0.34150469632E+02  0.00000000000E+00 0.  1.
         11    1    1    2    0    0  0.27472715115E+02  0.22938716528E+02 -0.59276997446E+02  0.69243752194E+02  0.00000000000E+00 0. -1.
</event>
<event>
 6    1  0.8989754E-006  0.1102623E+03  0.7561462E-02  0.1260085E+00
         -1   -1    0    0    0  501 -0.00000000000E+00  0.00000000000E+00  0.17749084668E+03  0.17749084668E+03  0.00000000000E+00 0.  1.
          1   -1    0    0  501    0  0.00000000000E+00 -0.00000000000E+00 -0.96667433578E+02  0.96667433578E+02  0.00000000000E+00 0. -1.
          5    1    1    2  502    0  0.45028358970E+02  0.13378279056E+02  0.72959402415E+02  0.86873921650E+02  0.41800000000E+01 0. -1.
         -5    1    1    2    0  502 -0.24687089304E+02  0.57055772566E+02 -0.23096860450E+02  0.66451116800E+02  0.41800000000E+01 0. -1.
        -11    1    1    2    0    0  0.17178121816E+02  0.11683191480E+02 -0.83157767963E+01  0.22377152991E+02  0.00000000000E+00 0. -1.
         11    1    1    2    0    0 -0.37519391482E+02 -0.82117243102E+02  0.39276647930E+02  0.98456088813E+02  0.00000000000E+00 0.  1.
</event>
<event>
 6    1  0.8989754E-006  0.1599368E+03  0.7561462E-02  0.1188768E+00
         -1   -1    0    0    0  501 -0.00000000000E+00  0.00000000000E+00  0.25935855120E+03  0.25935855120E+03  0.00000000000E+00 0.  1.
          1   -1    0    0  501    0  0.00000000000E+00 -0.00000000000E+00 -0.11085889072E+03  0.11085889072E+03  0.00000000000E+00 0. -1.
          5    1    1    2  502    0  0.15319955704E+02  0.14596316028E+02  0.48195335742E+02  0.52801669212E+02  0.41800000000E+01 0. -1.
         -5    1    1    2    0  502 -0.61211242619E+00 -0.14112366806E+03  0.67991398186E+02  0.15670535089E+03  0.41800000000E+01 0.  1.
        -11    1    1    2    0    0 -0.53587425611E+02  0.82551584955E+02  0.15341748830E+02  0.99607959619E+02  0.00000000000E+00 0. -1.
         11    1    1    2    0    0  0.38879582333E+02  0.43975767080E+02  0.16971177722E+02  0.61102462193E+02  0.00000000000E+00 0.  1.
</event>
<event>
 6    1  0.8989754E-006  0.8404449E+02  0.7561462E-02  0.1317950E+00
          1   -1    0    0  501    0  0.00000000000E+00  0.00000000000E+00  0.92137633262E+02  0.92137633262E+02  0.00000000000E+00 0. -1.
         -1   -1    0    0    0  501 -0.00000000000E+00 -0.00000000000E+00 -0.16454580441E+03  0.16454580441E+03  0.00000000000E+00 0.  1.
          5    1    1    2  502    0 -0.49328952346E+02  0.34069928923E+02  0.18856088593E+02  0.62985157564E+02  0.41800000000E+01 0.  1.
         -5    1    1    2    0  502  0.32675813757E+02  0.11451939319E+01 -0.88593552678E+02  0.94526770018E+02  0.41800000000E+01 0.  1.
        -11    1    1    2    0    0 -0.24603628462E+02 -0.92600134577E+01 -0.32673002745E+02  0.41935802021E+02  0.00000000000E+00 0.  1.
         11    1    1    2    0    0  0.41256767051E+02 -0.25955109398E+02  0.30002295686E+02  0.57235708065E+02  0.00000000000E+00 0. -1.
</event>
<event>
 6    1  0.8989754E-006  0.1066414E+03  0.7561462E-02  0.1266919E+00
         -1   -1    0    0    0  501 -0.00000000000E+00  0.00000000000E+00  0.18300900579E+02  0.18300900579E+02  0.00000000000E+00 0.  1.
          1   -1    0    0  501    0  0.00000000000E+00 -0.00000000000E+00 -0.71351752284E+03  0.71351752284E+03  0.00000000000E+00 0. -1.
          5    1    1    2  502    0 -0.64904286696E+02 -0.15267759641E+02 -0.20157566702E+03  0.21235793569E+03  0.41800000000E+01 0. -1.
         -5    1    1    2    0  502  0.56507738510E+02 -0.43596428701E+01 -0.10388994972E+03  0.11841758759E+03  0.41800000000E+01 0. -1.
        -11    1    1    2    0    0  0.45359343762E+02 -0.43818834876E+01 -0.13439298558E+03  0.14190893398E+03  0.00000000000E+00 0.  1.
         11    1    1    2    0    0 -0.36962795576E+02  0.24009285999E+02 -0.25535801995E+03  0.25913396617E+03  0.00000000000E+00 0. -1.
</event>
<event>
 6    1  0.8989754E-006  0.9679843E+02  0.7561462E-02  0.1287176E+00
          1   -1    0    0  501    0  0.00000000000E+00  0.00000000000E+00  0.86357266793E+02  0.86357266793E+02  0.00000000000E+00 0. -1.
         -1   -1    0    0    0  501 -0.00000000000E+00 -0.00000000000E+00 -0.21181910586E+03  0.21181910586E+03  0.00000000000E+00 0.  1.
          5    1    1    2  502    0 -0.57918179217E+02 -0.25178770113E+02  0.20276037767E+02  0.66461086778E+02  0.41800000000E+01 0. -1.
         -5    1    1    2    0  502 -0.72539480777E+01 -0.20308923128E+02 -0.98931477189E+02  0.10134091819E+03  0.41800000000E+01 0. -1.
        -11    1    1    2    0    0 -0.11551305415E+02  0.27073887536E+02 -0.42050403502E+02  0.51328982825E+02  0.00000000000E+00 0.  1.
         11    1    1    2    0    0  0.76723432710E+02  0.18413805705E+02 -0.47559961385E+01  0.79045384854E+02  0.00000000000E+00 0. -1.
</event>
<event>
 6    1  0.8989754E-006  0.1679571E+03  0.7561462E-02  0.1179995E+00
          2   -1    0    0  501    0  0.00000000000E+00  0.00000000000E+00  0.15250864525E+03  0.15250864525E+03  0.00000000000E+00 0. -1.
         -2   -1    0    0    0  501 -0.00000000000E+00 -0.00000000000E+00 -0.21459980139E+03  0.21459980139E+03  0.00000000000E+00 0.  1.
          5    1    1    2  502    0 -0.13559770002E+02 -0.14669941747E+03 -0.48708773285E+02  0.15522436485E+03  0.41800000000E+01 0.  1.
         -5    1    1    2    0  502 -0.34117962334E+02  0.16915387399E+02 -0.22048040983E+02  0.44201291790E+02  0.41800000000E+01 0.  1.
        -11    1    1    2    0    0  0.50721199224E+02  0.52940917271E+02 -0.32792340640E+02  0.80316364316E+02  0.00000000000E+00 0.  1.
         11    1    1    2    0    0 -0.30434668881E+01  0.76843112802E+02  0.41457998766E+02  0.87366425688E+02  0.00000000000E+00 0. -1.
</event>
<event>
 6    1  0.8989754E-006  0.8711081E+02  0.7561462E-02  0.1310003E+00
          3   -1    0    0  501    0  0.00000000000E+00  0.00000000000E+00  0.12179703066E+03  0.12179703066E+03  0.00000000000E+00 0. -1.
         -3   -1    0    0    0  501 -0.00000000000E+00 -0.00000000000E+00 -0.11275193861E+03  0.11275193861E+03  0.00000000000E+00 0.  1.
          5    1    1    2  502    0 -0.33105216419E+02  0.13601839009E+02 -0.46058586739E+02  0.58479322765E+02  0.41800000000E+01 0. -1.
         -5    1    1    2    0  502  0.55094396254E+02 -0.41632721137E+02  0.24435500793E+02  0.73370580390E+02  0.41800000000E+01 0. -1.
        -11    1    1    2    0    0 -0.24288036539E+02 -0.13245795102E+02  0.49937116829E+02  0.57088312675E+02  0.00000000000E+00 0. -1.
         11    1    1    2    0    0  0.22988567042E+01  0.41276677231E+02 -0.19268938837E+02  0.45610753439E+02  0.00000000000E+00 0.  1.
</event>
<event>
 6    1  0.8989754E-006  0.1898186E+03  0.7561462E-02  0.1158625E+00
          1   -1    0    0  501    0  0.00000000000E+00  0.00000000000E+00  0.21533787326E+03  0.21533787326E+03  0.00000000000E+00 0.  1.
         -1   -1    0    0    0  501 -0.00000000000E+00 -0.00000000000E+00 -0.22432591244E+03  0.22432591244E+03  0.00000000000E+00 0. -1.
          5    1    1    2  502    0 -0.17279881953E+02 -0.47124073274E+01 -0.58132440789E+02  0.60972569039E+02  0.41800000000E+01 0.  1.
         -5    1    1    2    0  502 -0.16787324657E+03 -0.50074110646E+01  0.81724372455E+01  0.16819857969E+03  0.41800000000E+01 0.  1.
        -11    1    1    2    0    0  0.12525190115E+03 -0.19222353795E+02 -0.93714943496E+01  0.12706440309E+03  0.00000000000E+00 0.  1.
         11    1    1    2    0    0  0.59901227381E+02  0.28942172187E+02  0.50343458711E+02  0.83428233876E+02  0.00000000000E+00 0. -1.
</event>
<event>
 6    1  0.8989754E-006  0.9205589E+02  0.7561462E-02  0.1297948E+00
         -4   -1    0    0    0  501 -0.00000000000E+00  0.00000000000E+00  0.35896020164E+02  0.35896020164E+02  0.00000000000E+00 0.  1.
          4   -1    0    0  501    0  0.00000000000E+00 -0.00000000000E+00 -0.47183069361E+03  0.47183069361E+03  0.00000000000E+00 0. -1.
          5    1    1    2  502    0 -0.16976961485E+02 -0.57633193004E+02 -0.10479830426E+02  0.61131836246E+02  0.41800000000E+01 0. -1.
         -5    1    1    2    0  502 -0.14151100745E+02  0.75463626729E+01 -0.14915964307E+03  0.15007755583E+03  0.41800000000E+01 0. -1.
        -11    1    1    2    0    0 -0.30694299980E+02  0.57347267917E+01 -0.70431228536E+02  0.77042748496E+02  0.00000000000E+00 0.  1.
         11    1    1    2    0    0  0.61822362209E+02  0.44352103539E+02 -0.20586397141E+03  0.21947457320E+03  0.00000000000E+00 0. -1.
</event>
<event>
 6    1  0.8989754E-006  0.1185321E+03  0.7561462E-02  0.1245538E+00
         -4   -1    0    0    0  501 -0.00000000000E+00  0.00000000000E+00  0.49154757921E+02  0.49154757921E+02  0.00000000000E+00 0.  1.
          4   -1    0    0  501    0  0.00000000000E+00 -0.00000000000E+00 -0.32226440776E+03  0.32226440776E+03  0.00000000000E+00 0. -1.
          5    1    1    2  502    0 -0.74476641601E+02 -0.62342983538E+02 -0.71800998867E+02  0.12085641720E+03  0.41800000000E+01 0. -1.
         -5    1    1    2    0  502  0.14111232813E+02  0.29076038234E+02 -0.37227028310E+02  0.49475922706E+02  0.41800000000E+01 0.  1.
        -11    1    1    2    0    0  0.90269013970E+01  0.51873913467E+02 -0.11952555816E+03  0.13060913789E+03  0.00000000000E+00 0. -1.
         11    1    1    2    0    0  0.51338507391E+02 -0.18606968163E+02 -0.44556064504E+02  0.70477687884E+02  0.00000000000E+00 0.  1.
</event>
<event>
 6    1  0.8989754E-006  0.1166805E+03  0.7561462E-02  0.1248676E+00
          1   -1    0    0  501    0  0.00000000000E+00  0.00000000000E+00  0.15127877716E+03  0.15127877716E+03  0.00000000000E+00 0. -1.
         -1   -1    0    0    0  501 -0.00000000000E+00 -0.00000000000E+00 -0.16167320527E+03  0.16167320527E+03  0.00000000000E+00 0.  1.
          5    1    1    2  502    0  0.49927288101E+02 -0.99444074636E+02 -0.78780739910E+02  0.13640284256E+03  0.41800000000E+01 0. -1.
         -5    1    1    2    0  502  0.44996576763E+01  0.13631979372E+02  0.28717158416E+02  0.32376308751E+02  0.41800000000E+01 0. -1.
        -11    1    1    2    0    0 -0.26236437648E+02  0.69954313503E+02 -0.19078287808E+02  0.77109906652E+02  0.00000000000E+00 0.  1.
         11    1    1    2    0    0 -0.28190508129E+02  0.15857781760E+02  0.58747441195E+02  0.67062924466E+02  0.00000000000E+00 0. -1.
</event>
<event>
 6    1  0.8989754E-006  0.8193450E+02  0.7561462E-02  0.1323650E+00
         -2   -1    0    0    0  501 -0.00000000000E+00  0.00000000000E+00  0.14392160831E+02  0.14392160831E+02  0.00000000000E+00 0.  1.
          2   -1    0    0  501    0  0.00000000000E+00 -0.00000000000E+00 -0.88536970797E+03  0.88536970797E+03  0.00000000000E+00 0. -1.
          5    1    1    2  502    0  0.36659370827E-01 -0.39949680624E+02 -0.35480793887E+02  0.53594192416E+02  0.41800000000E+01 0. -1.
         -5    1    1    2    0  502 -0.96370093517E+01  0.27618531637E+02 -0.36650320648E+03  0.36769243669E+03  0.41800000000E+01 0. -1.
        -11    1    1    2    0    0 -0.17633759547E+02  0.46922664053E+02 -0.27695858945E+03  0.28145824939E+03  0.00000000000E+00 0. -1.
         11    1    1    2    0    0  0.27234109528E+02 -0.34591515066E+02 -0.19203495733E+03  0.19701699031E+03  0.00000000000E+00 0.  1.
</event>
<event>
 6    1  0.8989754E-006  0.8385309E+02  0.7561462E-02  0.1318459E+00
          2   -1    0    0  501    0  0.00000000000E+00  0.00000000000E+00  0.69780887287E+02  0.69780887287E+02  0.00000000000E+00 0.  1.
         -2   -1    0    0    0  501 -0.00000000000E+00 -0.00000000000E+00 -0.21558496379E+03  0.21558496379E+03  0.00000000000E+00 0. -1.
          5    1    1    2  502    0  0.10921565124E+02  0.45116484016E+02  0.57241534601E+01  0.46957598401E+02  0.41800000000E+01 0.  1.
         -5    1    1    2    0  502  0.12381633333E+02 -0.17728671920E+02 -0.13398255619E+03  0.13578073654E+03  0.41800000000E+01 0.  1.
        -11    1    1    2    0    0 -0.20699456877E+01  0.34028284977E+02  0.36238878563E+01  0.34283252717E+02  0.00000000000E+00 0.  1.
         11    1    1    2    0    0 -0.21233252769E+02 -0.61416097073E+02 -0.21169561630E+02  0.68344263421E+02  0.00000000000E+00 0. -1.
</event>
<event>
 6    1  0.8989754E-006  0.8721230E+02  0.7561462E-02  0.1309746E+00
          2   -1    0    0  501    0  0.00000000000E+00  0.00000000000E+00  0.39135296616E+02  0.39135296616E+02  0.00000000000E+00 0. -1.
         -2   -1    0    0    0  501 -0.00000000000E+00 -0.00000000000E+00 -0.32386431113E+03  0.32386431113E+03  0.00000000000E+00 0.  1.
          5    1    1    2  502    0 -0.17779101351E+02 -0.57346339296E+02 -0.38129126100E+02  0.71246064682E+02  0.41800000000E+01 0.  1.
         -5    1    1    2    0  502  0.34897935974E+02  0.23779540259E+02 -0.16420495015E+03  0.16959973622E+03  0.41800000000E+01 0.  1.
        -11    1    1    2    0    0 -0.15354399690E+02  0.51522648547E+02 -0.20260487297E+02  0.57452834993E+02  0.00000000000E+00 0. -1.
         11    1    1    2    0    0 -0.17644349323E+01 -0.17955849510E+02 -0.62134450959E+02  0.64700971849E+02  0.00000000000E+00 0.  1.
</event>
<event>
 6    1  0.8989754E-006  0.1140724E+03  0.7561462E-02  0.1253209E+00
         -2   -1    0    0    0  501 -0.00000000000E+00  0.00000000000E+00  0.68303416730E+02  0.68303416730E+02  0.00000000000E+00 0.  1.
          2   -1    0    0  501    0  0.00000000000E+00 -0.00000000000E+00 -0.20548373250E+03  0.20548373250E+03  0.00000000000E+00 0. -1.
          5    1    1    2  502    0  0.19215020557E+02  0.24337144163E+02  0.27790678804E+01  0.31411927978E+02  0.41800000000E+01 0. -1.
         -5    1    1    2    0  502 -0.61580428025E+02 -0.64029729349E+02 -0.75340268112E+02  0.11655721237E+03  0.41800000000E+01 0.  1.
        -11    1    1    2    0    0 -0.21607155047E+01 -0.27352376103E+02 -0.15042638586E+02  0.31290607946E+02  0.00000000000E+00 0.  1.
         11    1    1    2    0    0  0.44526122972E+02  0.67044961289E+02 -0.49576476957E+02  0.94527400941E+02  0.00000000000E+00 0. -1.
</event>
<event>
 6    1  0.8989754E-006  0.1454895E+03  0.7561462E-02  0.1206128E+00
          1   -1    0    0  501    0  0.00000000000E+00  0.00000000000E+00  0.37537402715E+03  0.37537402715E+03  0.00000000000E+00 0. -1.
         -1   -1    0    0    0  501 -0.00000000000E+00 -0.00000000000E+00 -0.65493900961E+02  0.65493900961E+02  0.00000000000E+00 0.  1.
          5    1    1    2  502    0 -0.11351235688E+03  0.11798223427E+02  0.10594070503E+03  0.15577277883E+03  0.41800000000E+01 0. -1.
         -5    1    1    2    0  502  0.91908403432E+02  0.22953846156E+01  0.50672045233E+02  0.10505975433E+03  0.41800000000E+01 0.  1.
        -11    1    1    2    0    0  0.49690904613E+01 -0.47324507528E+02  0.44711497013E+02  0.65294860731E+02  0.00000000000E+00 0.  1.
         11    1    1    2    0    0  0.16634862990E+02  0.33230899486E+02  0.10855587891E+03  0.11474053422E+03  0.00000000000E+00 0. -1.
</event>
<event>
 6    1  0.8989754E-006  0.1118735E+03  0.7561462E-02  0.1257139E+00
         -1   -1    0    0    0  501 -0.00000000000E+00  0.00000000000E+00  0.44453876586E+02  0.44453876586E+02  0.00000000000E+00 0.  1.
          1   -1    0    0  501    0  0.00000000000E+00 -0.00000000000E+00 -0.46511235640E+03  0.46511235640E+03  0.00000000000E+00 0. -1.
          5    1    1    2  502    0 -0.31177172996E+02  0.30722818172E+02 -0.17184399826E+03  0.17738021257E+03  0.41800000000E+01 0.  1.
         -5    1    1    2    0  502  0.64727502270E+02  0.56174832541E+02 -0.71682814286E+02  0.11180858476E+03  0.41800000000E+01 0.  1.
        -11    1    1    2    0    0 -0.12233173001E+02 -0.17350176107E+02  0.70360010457E+01  0.22364803673E+02  0.00000000000E+00 0.  1.
         11    1    1    2    0    0 -0.21317156273E+02 -0.69547474606E+02 -0.18416766831E+03  0.19801263198E+03  0.00000000000E+00 0. -1.
</event>
<event>
 6    1  0.8989754E-006  0.8622576E+02  0.7561462E-02  0.1312258E+00
         -2   -1    0    0    0  501 -0.00000000000E+00  0.00000000000E+00  0.16137586554E+03  0.16137586554E+03  0.00000000000E+00 0. -1.
          2   -1    0    0  501    0  0.00000000000E+00 -0.00000000000E+00 -0.92437865887E+02  0.92437865887E+02  0.00000000000E+00 0.  1.
          5    1    1    2  502    0  0.24859823489E+02 -0.70991551912E+02  0.65335179403E+02  0.99719453139E+02  0.41800000000E+01 0. -1.
         -5    1    1    2    0  502  0.82700877513E+01  0.31708597078E+02 -0.24970732856E+02  0.41410619162E+02  0.41800000000E+01 0. -1.
        -11    1    1    2    0    0 -0.13120503027E+02  0.41896413738E+02 -0.28369159760E+02  0.52271084829E+02  0.00000000000E+00 0.  1.
         11    1    1    2    0    0 -0.20009408214E+02 -0.26134589041E+01  0.56942712863E+02  0.60412574293E+02  0.00000000000E+00 0. -1.
</event>
<event>
 6    1  0.8989754E-006  0.2386463E+03  0.7561462E-02  0.1120698E+00
          2   -1    0    0  501    0  0.00000000000E+00  0.00000000000E+00  0.86062263364E+02  0.86062263364E+02  0.00000000000E+00 0. -1.
         -2   -1    0    0    0  501 -0.00000000000E+00 -0.00000000000E+00 -0.73042517811E+03  0.73042517811E+03  0.00000000000E+00 0.  1.
          5    1    1    2  502    0  0.62822457096E+02  0.54203307350E+02 -0.60733276712E+02  0.10291094666E+03  0.41800000000E+01 0. -1.
         -5    1    1    2    0  502 -0.32339228018E+02  0.16477810794E+03 -0.19856068392E+03  0.26007973416E+03  0.41800000000E+01 0. -1.
        -11    1    1    2    0    0 -0.25328373913E+02 -0.41058709160E+02 -0.31399665708E+02  0.57561125159E+02  0.00000000000E+00 0.  1.
         11    1    1    2    0    0 -0.51548551639E+01 -0.17792270613E+03 -0.35366928841E+03  0.39593563549E+03  0.00000000000E+00 0. -1.
</event>
<event>
 6    1  0.8989754E-006  0.8416517E+02  0.7561462E-02  0.1317630E+00
         -4   -1    0    0    0  501 -0.00000000000E+00  0.00000000000E+00  0.34170203362E+03  0.34170203362E+03  0.00000000000E+00 0.  1.
          4   -1    0    0  501    0  0.00000000000E+00 -0.00000000000E+00 -0.34152096036E+02  0.34152096036E+02  0.00000000000E+00 0. -1.
          5    1    1    2  502    0  0.38553270296E+02  0.13105032707E+02  0.68120269351E+01  0.41496658224E+02  0.41800000000E+01 0.  1.
         -5    1    1    2    0  502 -0.41876265446E+02 -0.12633495938E+02  0.16692991128E+03  0.17261603201E+03  0.41800000000E+01 0.  1.
        -11    1    1    2    0    0 -0.21609321261E+02 -0.34839973494E+02  0.97886648771E+02  0.10612531520E+03  0.00000000000E+00 0.  1.
         11    1    1    2    0    0  0.24932316411E+02  0.34368436725E+02  0.35921350593E+02  0.55616124218E+02  0.00000000000E+00 0. -1.
</event>
<event>
 6    1  0.8989754E-006  0.7339671E+02  0.7561462E-02  0.1348909E+00
         -1   -1    0    0    0  501 -0.00000000000E+00  0.00000000000E+00  0.48808488791E+02  0.48808488791E+02  0.00000000000E+00 0.  1.
          1   -1    0    0  501    0  0.00000000000E+00 -0.00000000000E+00 -0.24966000912E+03  0.24966000912E+03  0.00000000000E+00 0. -1.
          5    1    1    2  502    0  0.33837671930E+02 -0.48564289075E+01 -0.11749041364E+03  0.12243382964E+03  0.41800000000E+01 0.  1.
         -5    1    1    2    0  502 -0.21260177937E+02  0.63824224837E+01  0.24971727178E+02  0.33671798896E+02  0.41800000000E+01 0.  1.
        -11    1    1    2    0    0  0.35005615982E+02 -0.18063906789E+02 -0.31262513697E+02  0.50289587803E+02  0.00000000000E+00 0.  1.
         11    1    1    2    0    0 -0.47583109974E+02  0.16537913213E+02 -0.77070320170E+02  0.92073281571E+02  0.00000000000E+00 0. -1.
</event>
<event>
 6    1  0.8989754E-006  0.1095199E+03  0.7561462E-02  0.1261461E+00
         -3   -1    0    0    0  501 -0.00000000000E+00  0.00000000000E+00  0.11946744121E+03  0.11946744121E+03  0.00000000000E+00 0.  1.
          3   -1    0    0  501    0  0.00000000000E+00 -0.00000000000E+00 -0.13861620205E+03  0.13861620205E+03  0.00000000000E+00 0. -1.
          5    1    1    2  502    0 -0.35881714963E+02  0.14654617389E+02  0.40934941390E+02  0.56527843636E+02  0.41800000000E+01 0. -1.
         -5    1    1    2    0  502  0.33377012074E+02 -0.75250781812E+02 -0.17977834574E+02  0.84364566224E+02  0.41800000000E+01 0. -1.
        -11    1    1    2    0    0  0.24497076848E+02 -0.78601003217E+01 -0.37056755487E+02  0.45111983755E+02  0.00000000000E+00 0. -1.
         11    1    1    2    0    0 -0.21992373958E+02  0.68456264745E+02 -0.50491121707E+01  0.72079249641E+02  0.00000000000E+00 0.  1.
</event>
<event>
 6    1  0.8989754E-006  0.9371703E+02  0.7561462E-02  0.1294092E+00
          2   -1    0    0  501    0  0.00000000000E+00  0.00000000000E+00  0.17479396837E+03  0.17479396837E+03  0.00000000000E+00 0. -1.
         -2   -1    0    0    0  501 -0.00000000000E+00 -0.00000000000E+00 -0.10020137971E+03  0.10020137971E+03  0.00000000000E+00 0.  1.
          5    1    1    2  502    0 -0.21608315557E+02  0.16028271948E+02 -0.31248706786E+02  0.41446096060E+02  0.41800000000E+01 0. -1.
         -5    1    1    2    0  502  0.77854388189E+02 -0.51288813122E+02  0.36660567094E+02  0.10026623405E+03  0.41800000000E+01 0. -1.
        -11    1    1    2    0    0 -0.23707841364E+02  0.19658808019E+02 -0.20241456599E+02  0.36854403266E+02  0.00000000000E+00 0.  1.
         11    1    1    2    0    0 -0.32538231268E+02  0.15601733156E+02  0.89422184948E+02  0.96428614697E+02  0.00000000000E+00 0. -1.
</event>
<event>
 6    1  0.8989754E-006  0.1000613E+03  0.7561462E-02  0.1280167E+00
         -1   -1    0    0    0  501 -0.00000000000E+00  0.00000000000E+00  0.55345751169E+02  0.55345751169E+02  0.00000000000E+00 0.  1.
          1   -1    0    0  501    0  0.00000000000E+00 -0.00000000000E+00 -0.25773276980E+03  0.25773276980E+03  0.00000000000E+00 0. -1.
          5    1    1    2  502    0  0.75940826118E+02  0.28821931328E+02 -0.61763889283E+02  0.10212719137E+03  0.41800000000E+01 0. -1.
         -5    1    1    2    0  502 -0.37651996716E+02 -0.25322424046E+02 -0.83270991675E+01  0.46321819878E+02  0.41800000000E+01 0. -1.
        -11    1    1    2    0    0 -0.17811786032E+02 -0.32888674045E+02 -0.12163731764E+03  0.12725785494E+03  0.00000000000E+00 0. -1.
         11    1    1    2    0    0 -0.20477043370E+02  0.29389166763E+02 -0.10658712542E+02  0.37371654783E+02  0.00000000000E+00 0.  1.
</event>
<event>
 6    1  0.8989754E-006  0.1304126E+03  0.7561462E-02  0.1226845E+00
         -1   -1    0    0    0  501 -0.00000000000E+00  0.00000000000E+00  0.63085800307E+02  0.63085800307E+02  0.00000000000E+00 0.  1.
          1   -1    0    0  501    0  0.00000000000E+00 -0.00000000000E+00 -0.39753566276E+03  0.39753566276E+03  0.00000000000E+00 0. -1.
          5    1    1    2  502    0 -0.85864901766E+02 -0.27779072437E+02 -0.56807291425E+02  0.10671925309E+03  0.41800000000E+01 0. -1.
         -5    1    1    2    0  502 -0.37669218189E+01  0.52301438452E+02 -0.69336916512E+01  0.53058257077E+02  0.41800000000E+01 0.  1.
        -11    1    1    2    0    0  0.39143412938E+01 -0.31625885384E+02 -0.24962126226E+02  0.40479951085E+02  0.00000000000E+00 0. -1.
         11    1    1    2    0    0  0.85717482291E+02  0.71035193690E+01 -0.24574675315E+03  0.26036400181E+03  0.00000000000E+00 0.  1.
</event>
<event>
 6    1  0.8989754E-006  0.1461889E+03  0.7561462E-02  0.1205236E+00
         -2   -1    0    0    0  501 -0.00000000000E+00  0.00000000000E+00  0.13730496409E+03  0.13730496409E+03  0.00000000000E+00 0.  1.
          2   -1    0    0  501    0  0.00000000000E+00 -0.00000000000E+00 -0.17889230530E+03  0.17889230530E+03  0.00000000000E+00 0. -1.
          5    1    1    2  502    0 -0.58945180083E+02  0.91958876310E+02  0.34504598608E+01  0.10936337257E+03  0.41800000000E+01 0. -1.
         -5    1    1    2    0  502 -0.31062769276E+02 -0.27560429841E+02 -0.47797069243E+02  0.63454748887E+02  0.41800000000E+01 0. -1.
        -11    1    1    2    0    0  0.11973345238E+02 -0.62120977198E+02 -0.10690420325E+02  0.64161217966E+02  0.00000000000E+00 0.  1.
         11    1    1    2    0    0  0.78034604121E+02 -0.22774692710E+01  0.13449688502E+02  0.79217929962E+02  0.00000000000E+00 0. -1.
</event>
<event>
 6    1  0.8989754E-006  0.1046892E+03  0.7561462E-02  0.1270733E+00
          1   -1    0    0  501    0  0.00000000000E+00  0.00000000000E+00  0.12004721287E+03  0.12004721287E+03  0.00000000000E+00 0. -1.
         -1   -1    0    0    0  501 -0.00000000000E+00 -0.00000000000E+00 -0.13045775739E+03  0.13045775739E+03  0.00000000000E+00 0.  1.
          5    1    1    2  502    0 -0.40418037711E+02 -0.31522564186E+02 -0.24605729355E+02  0.57010561674E+02  0.41800000000E+01 0.  1.
         -5    1    1    2    0  502  0.51402544152E+02  0.56693228289E+02 -0.36257820174E+02  0.84784701467E+02  0.41800000000E+01 0.  1.
        -11    1    1    2    0    0 -0.30354167763E+02 -0.44551693999E+02  0.59083481502E+02  0.79981789960E+02  0.00000000000E+00 0. -1.
         11    1    1    2    0    0  0.19369661322E+02  0.19381029896E+02 -0.86304764973E+01  0.28727917156E+02  0.00000000000E+00 0.  1.
</event>
<event>
 6    1  0.8989754E-006  0.9016850E+02  0.7561462E-02  0.1302444E+00
         -2   -1    0    0    0  501 -0.00000000000E+00  0.00000000000E+00  0.11101999353E+03  0.11101999353E+03  0.00000000000E+00 0.  1.
          2   -1    0    0  501    0  0.00000000000E+00 -0.00000000000E+00 -0.10849944049E+03  0.10849944049E+03  0.00000000000E+00 0. -1.
          5    1    1    2  502    0 -0.29561094339E+02  0.62338273782E+02  0.22594633092E+02  0.72718006857E+02  0.41800000000E+01 0. -1.
         -5    1    1    2    0  502  0.19435851808E+02 -0.48589976305E+02 -0.12390242563E+02  0.53941900630E+02  0.41800000000E+01 0. -1.
        -11    1    1    2    0    0 -0.23218165056E+02 -0.95754892685E+01  0.32116457042E+02  0.40770577580E+02  0.00000000000E+00 0.  1.
         11    1    1    2    0    0  0.33343407587E+02 -0.41728082089E+01 -0.39800294537E+02  0.52088948954E+02  0.00000000000E+00 0. -1.
</event>
<event>
 6    1  0.8989754E-006  0.8431129E+02  0.7561462E-02  0.1317243E+00
         -1   -1    0    0    0  501 -0.00000000000E+00  0.00000000000E+00  0.59454690313E+02  0.59454690313E+02  0.00000000000E+00 0.  1.
          1   -1    0    0  501    0  0.00000000000E+00 -0.00000000000E+00 -0.19532385529E+03  0.19532385529E+03  0.00000000000E+00 0. -1.
          5    1    1    2  502    0  0.35519978868E+02 -0.55602278680E+02 -0.68305549750E+02  0.95059995896E+02  0.41800000000E+01 0.  1.
         -5    1    1    2    0  502 -0.61199294705E+01  0.35710944577E+02  0.22439574062E+02  0.42822096906E+02  0.41800000000E+01 0.  1.
        -11    1    1    2    0    0 -0.70960177751E+01  0.37159896270E+02 -0.23191104914E+02  0.44373851604E+02  0.00000000000E+00 0.  1.
         11    1    1    2    0    0 -0.22304031622E+02 -0.17268562167E+02 -0.66812084373E+02  0.72522601195E+02  0.00000000000E+00 0. -1.
</event>
<event>
 6    1  0.8989754E-006  0.9806941E+02  0.7561462E-02  0.1284409E+00
         -2   -1    0    0    0  501 -0.00000000000E+00  0.00000000000E+00  0.90790962160E+02  0.90790962160E+02  0.00000000000E+00 0.  1.
          2   -1    0    0  501    0  0.00000000000E+00 -0.00000000000E+00 -0.15004408568E+03  0.15004408568E+03  0.00000000000E+00 0. -1.
          5    1    1    2  502    0 -0.32855729149E+02 -0.36002583475E+02 -0.25508213496E+02  0.55170882814E+02  0.41800000000E+01 0. -1.
         -5    1    1    2    0  502  0.34206645324E+02  0.50636839330E+02  0.36392996545E+02  0.71246801185E+02  0.41800000000E+01 0. -1.
        -11    1    1    2    0    0  0.57390782270E+01  0.35183448577E+02 -0.47113128064E+02  0.59080105862E+02  0.00000000000E+00 0.  1.
         11    1    1    2    0    0 -0.70899944022E+01 -0.49817704432E+02 -0.23024778507E+02  0.55337257981E+02  0.00000000000E+00 0. -1.
</event>
<event>
 6    1  0.8989754E-006  0.1153705E+03  0.7561462E-02  0.1250936E+00
          2   -1    0    0  501    0  0.00000000000E+00  0.00000000000E+00  0.11775388979E+02  0.11775388979E+02  0.00000000000E+00 0. -1.
         -2   -1    0    0    0  501 -0.00000000000E+00 -0.00000000000E+00 -0.11487992820E+04  0.11487992820E+04  0.00000000000E+00 0.  1.
          5    1    1    2  502    0 -0.27923076897E+02  0.46242485577E+02 -0.30303582066E+03  0.30784126867E+03  0.41800000000E+01 0. -1.
         -5    1    1    2    0  502  0.70374305421E+02 -0.33908234858E+02 -0.38417894838E+03  0.39206281133E+03  0.41800000000E+01 0. -1.
        -11    1    1    2    0    0  0.25983726502E+02  0.75638634450E+01 -0.95263800522E+02  0.99033114477E+02  0.00000000000E+00 0.  1.
         11    1    1    2    0    0 -0.68434955025E+02 -0.19898114165E+02 -0.35454532346E+03  0.36163747649E+03  0.00000000000E+00 0. -1.
</event>
<event>
 6    1  0.8989754E-006  0.1479952E+03  0.7561462E-02  0.1202958E+00
          1   -1    0    0  501    0  0.00000000000E+00  0.00000000000E+00  0.60544105231E+03  0.60544105231E+03  0.00000000000E+00 0. -1.
         -1   -1    0    0    0  501 -0.00000000000E+00 -0.00000000000E+00 -0.56911310758E+02  0.56911310758E+02  0.00000000000E+00 0.  1.
          5    1    1    2  502    0 -0.35436900904E+02  0.30799635190E+02  0.90908912021E+01  0.48005293212E+02  0.41800000000E+01 0. -1.
         -5    1    1    2    0  502 -0.57871601848E+02 -0.88960540667E+02  0.79318813920E+02  0.13255959693E+03  0.41800000000E+01 0.  1.
        -11    1    1    2    0    0 -0.28861518765E+01  0.45532342122E+02  0.15975173296E+03  0.16613891849E+03  0.00000000000E+00 0.  1.
         11    1    1    2    0    0  0.96194654629E+02  0.12628563356E+02  0.30036830347E+03  0.31564855444E+03  0.00000000000E+00 0. -1.
</event>
<event>
 6    1  0.8989754E-006  0.1149588E+03  0.7561462E-02  0.1251653E+00
         -2   -1    0    0    0  501 -0.00000000000E+00  0.00000000000E+00  0.18609015208E+02  0.18609015208E+02  0.00000000000E+00 0.  1.
          2   -1    0    0  501    0  0.00000000000E+00 -0.00000000000E+00 -0.84570536430E+03  0.84570536430E+03  0.00000000000E+00 0. -1.
          5    1    1    2  502    0 -0.35861153634E+02  0.43932413665E+02 -0.10514572262E+03  0.11953733599E+03  0.41800000000E+01 0. -1.
         -5    1    1    2    0  502 -0.24391679837E+02 -0.57953179590E+02 -0.38356872763E+03  0.38871064596E+03  0.41800000000E+01 0. -1.
        -11    1    1    2    0    0  0.82233779280E+02 -0.29204389720E+01 -0.23348143287E+03  0.24755707001E+03  0.00000000000E+00 0. -1.
         11    1    1    2    0    0 -0.21980945809E+02  0.16941204897E+02 -0.10490046598E+03  0.10850932755E+03  0.00000000000E+00 0.  1.
</event>
<event>
 6    1  0.8989754E-006  0.1341238E+03  0.7561462E-02  0.1221462E+00
         -2   -1    0    0    0  501 -0.00000000000E+00  0.00000000000E+00  0.19575206199E+03  0.19575206199E+03  0.00000000000E+00 0. -1.
          2   -1    0    0  501    0  0.00000000000E+00 -0.00000000000E+00 -0.10165663980E+03  0.10165663980E+03  0.00000000000E+00 0.  1.
          5    1    1    2  502    0  0.27411031740E+02  0.15801238567E+02 -0.10993287954E+02  0.33754534234E+02  0.41800000000E+01 0.  1.
         -5    1    1    2    0  502 -0.10568858344E+03  0.27842841119E+02  0.76568970625E+02  0.13351247183E+03  0.41800000000E+01 0.  1.
        -11    1    1    2    0    0 -0.20201247466E+02 -0.30014588764E+01  0.37550772990E+01  0.20765349987E+02  0.00000000000E+00 0.  1.
         11    1    1    2    0    0  0.98478799171E+02 -0.40642620810E+02  0.24764662220E+02  0.10937634574E+03  0.00000000000E+00 0. -1.
</event>
<event>
 6    1  0.8989754E-006  0.3256709E+03  0.7561462E-02  0.1073069E+00
         -1   -1    0    0    0  501 -0.00000000000E+00  0.00000000000E+00  0.48698506335E+02  0.48698506335E+02  0.00000000000E+00 0.  1.
          1   -1    0    0  501    0  0.00000000000E+00 -0.00000000000E+00 -0.22759459101E+04  0.22759459101E+04  0.00000000000E+00 0. -1.
          5    1    1    2  502    0 -0.17687314883E+03 -0.25950292365E+03 -0.10929404079E+04  0.11371728478E+04  0.41800000000E+01 0. -1.
         -5    1    1    2    0  502 -0.14054260012E+02  0.15962636190E+02 -0.14666614728E+03  0.14825909462E+03  0.41800000000E+01 0.  1.
        -11    1    1    2    0    0  0.17914243336E+03  0.19148285048E+03 -0.89133583232E+03  0.92910562340E+03  0.00000000000E+00 0.  1.
         11    1    1    2    0    0  0.11784975479E+02  0.52057436985E+02 -0.96305016195E+02  0.11010685054E+03  0.00000000000E+00 0. -1.
</event>
<event>
 6    1  0.8989754E-006  0.1051678E+03  0.7561462E-02  0.1269789E+00
          2   -1    0    0  501    0  0.00000000000E+00  0.00000000000E+00  0.19652406046E+03  0.19652406046E+03  0.00000000000E+00 0. -1.
         -2   -1    0    0    0  501 -0.00000000000E+00 -0.00000000000E+00 -0.66863367953E+02  0.66863367953E+02  0.00000000000E+00 0.  1.
          5    1    1    2  502    0  0.40011788474E+02  0.55336894747E+02 -0.24827210015E+01  0.68459852766E+02  0.41800000000E+01 0.  1.
         -5    1    1    2    0  502 -0.36223377356E+02 -0.25574274731E+02  0.54280174282E+02  0.70213861275E+02  0.41800000000E+01 0.  1.
        -11    1    1    2    0    0  0.35322939649E+02 -0.43403828406E+02  0.46465258831E+02  0.72736666572E+02  0.00000000000E+00 0. -1.
         11    1    1    2    0    0 -0.39111350768E+02  0.13641208390E+02  0.31397980399E+02  0.51977047803E+02  0.00000000000E+00 0.  1.
</event>
<event>
 6    1  0.8989754E-006  0.9934403E+02  0.7561462E-02  0.1281681E+00
         -1   -1    0    0    0  501 -0.00000000000E+00  0.00000000000E+00  0.30430101438E+02  0.30430101438E+02  0.00000000000E+00 0. -1.
          1   -1    0    0  501    0  0.00000000000E+00 -0.00000000000E+00 -0.65484178461E+03  0.65484178461E+03  0.00000000000E+00 0.  1.
          5    1    1    2  502    0  0.25349057090E+02 -0.36256433378E+02 -0.26804243241E+03  0.27170079431E+03  0.41800000000E+01 0. -1.
         -5    1    1    2    0  502  0.29593356610E+02 -0.29814486732E+02 -0.75103955022E+01  0.42878302381E+02  0.41800000000E+01 0. -1.
        -11    1    1    2    0    0 -0.63427804891E+02  0.21967580977E+02 -0.28384845942E+03  0.29167723422E+03  0.00000000000E+00 0.  1.
         11    1    1    2    0    0  0.84853911919E+01  0.44103339132E+02 -0.65010395849E+02  0.79015555145E+02  0.00000000000E+00 0. -1.
</event>
<event>
 6    1  0.8989754E-006  0.1073322E+03  0.7561462E-02  0.1265591E+00
          1   -1    0    0  501    0  0.00000000000E+00  0.00000000000E+00  0.17903450878E+03  0.17903450878E+03  0.00000000000E+00 0. -1.
         -1   -1    0    0    0  501 -0.00000000000E+00 -0.00000000000E+00 -0.76876877021E+02  0.76876877021E+02  0.00000000000E+00 0.  1.
          5    1    1    2  502    0 -0.85653338362E+01 -0.46408535002E+02  0.62639361920E+01  0.47789395909E+02  0.41800000000E+01 0.  1.
         -5    1    1    2    0  502  0.38941355658E+02  0.73451177215E+02  0.32332354751E+02  0.89299261915E+02  0.41800000000E+01 0.  1.
        -11    1    1    2    0    0  0.21788143332E+02  0.56191148391E+01  0.51368870984E+02  0.56080821567E+02  0.00000000000E+00 0. -1.
         11    1    1    2    0    0 -0.52164165154E+02 -0.32661757052E+02  0.12192469836E+02  0.62741906415E+02  0.00000000000E+00 0.  1.
</event>
<event>
 6    1  0.8989754E-006  0.8851517E+02  0.7561462E-02  0.1306488E+00
         -1   -1    0    0    0  501 -0.00000000000E+00  0.00000000000E+00  0.11507265036E+03  0.11507265036E+03  0.00000000000E+00 0.  1.
          1   -1    0    0  501    0  0.00000000000E+00 -0.00000000000E+00 -0.12865197769E+03  0.12865197769E+03  0.00000000000E+00 0. -1.
          5    1    1    2  502    0 -0.99527483486E+01  0.40544676058E+02 -0.20358573043E+02  0.46635521362E+02  0.41800000000E+01 0. -1.
         -5    1    1    2    0  502 -0.10948411692E+02 -0.65861856771E+02  0.56718402560E+02  0.87704626359E+02  0.41800000000E+01 0. -1.
        -11    1    1    2    0    0  0.32189331452E+02  0.38915908036E+02 -0.67611393006E+02  0.84391358691E+02  0.00000000000E+00 0. -1.
         11    1    1    2    0    0 -0.11288171411E+02 -0.13598727323E+02  0.17672236161E+02  0.24993121645E+02  0.00000000000E+00 0.  1.
</event>
<event>
 6    1  0.8989754E-006  0.5248579E+02  0.7561462E-02  0.1432377E+00
          2   -1    0    0  501    0  0.00000000000E+00  0.00000000000E+00  0.12794596517E+03  0.12794596517E+03  0.00000000000E+00 0. -1.
         -2   -1    0    0    0  501 -0.00000000000E+00 -0.00000000000E+00 -0.44652527944E+02  0.44652527944E+02  0.00000000000E+00 0.  1.
          5    1    1    2  502    0 -0.46313395666E+02 -0.22511726361E+02  0.73785529868E+02  0.90074886954E+02  0.41800000000E+01 0. -1.
         -5    1    1    2    0  502  0.23634674572E+02  0.16312433343E+02 -0.26278694991E+02  0.39150166463E+02  0.41800000000E+01 0.  1.
        -11    1    1    2    0    0  0.13760857160E+02  0.63401668654E+00  0.23123390822E+02  0.26915690035E+02  0.00000000000E+00 0.  1.
         11    1    1    2    0    0  0.89178639333E+01  0.55652763323E+01  0.12663211529E+02  0.16457749664E+02  0.00000000000E+00 0. -1.
</event>
<event>
 6    1  0.8989754E-006  0.1134384E+03  0.7561462E-02  0.1254332E+00
          1   -1    0    0  501    0  0.00000000000E+00  0.00000000000E+00  0.17709408441E+03  0.17709408441E+03  0.00000000000E+00 0. -1.
         -1   -1    0    0    0  501 -0.00000000000E+00 -0.00000000000E+00 -0.77892991564E+02  0.77892991564E+02  0.00000000000E+00 0.  1.
          5    1    1    2  502    0  0.35738392953E+02 -0.33906850807E+02  0.55517473987E+01  0.49751397585E+02  0.41800000000E+01 0. -1.
         -5    1    1    2    0  502 -0.71840731772E+02  0.36133940782E+02  0.19504724518E+02  0.82853238298E+02  0.41800000000E+01 0. -1.
        -11    1    1    2    0    0  0.28075851769E+02 -0.45192016765E+02  0.46545701435E+02  0.70689986235E+02  0.00000000000E+00 0. -1.
         11    1    1    2    0    0  0.80264870504E+01  0.42964926789E+02  0.27598919493E+02  0.51692453855E+02  0.00000000000E+00 0.  1.
</event>
<event>
 6    1  0.8989754E-006  0.6293662E+02  0.7561462E-02  0.1385906E+00
          3   -1    0    0  501    0  0.00000000000E+00  0.00000000000E+00  0.19801700994E+03  0.19801700994E+03  0.00000000000E+00 0. -1.
         -3   -1    0    0    0  501 -0.00000000000E+00 -0.00000000000E+00 -0.70068249908E+02  0.70068249908E+02  0.00000000000E+00 0.  1.
          5    1    1    2  502    0  0.79363595678E+01 -0.18442042171E+02 -0.29713700352E+02  0.36103616318E+02  0.41800000000E+01 0. -1.
         -5    1    1    2    0  502 -0.50398895033E+02  0.58550437259E+00  0.10609416760E+03  0.11753227741E+03  0.41800000000E+01 0. -1.
        -11    1    1    2    0    0  0.41253974904E+02  0.46350295884E+01 -0.16814597954E+02  0.44789559598E+02  0.00000000000E+00 0.  1.
         11    1    1    2    0    0  0.12085605613E+01  0.13221508210E+02  0.68382890736E+02  0.69659806513E+02  0.00000000000E+00 0. -1.
</event>
<event>
 6    1  0.8989754E-006  0.9849471E+02  0.7561462E-02  0.1283494E+00
         -4   -1    0    0    0  501 -0.00000000000E+00  0.00000000000E+00  0.37719571906E+03  0.37719571906E+03  0.00000000000E+00 0.  1.
          4   -1    0    0  501    0  0.00000000000E+00 -0.00000000000E+00 -0.43661135587E+02  0.43661135587E+02  0.00000000000E+00 0. -1.
          5    1    1    2  502    0  0.72583093699E+02  0.68770545031E+01  0.14824217106E+03  0.16525378377E+03  0.41800000000E+01 0.  1.
         -5    1    1    2    0  502 -0.52931147632E+02  0.56951912986E+01  0.13933165788E+03  0.14921435883E+03  0.41800000000E+01 0.  1.
        -11    1    1    2    0    0 -0.44281254750E+02 -0.12191077405E+02 -0.84155495840E+01  0.46693397449E+02  0.00000000000E+00 0. -1.
         11    1    1    2    0    0  0.24629308684E+02 -0.38116839647E+00  0.54376304121E+02  0.59695314602E+02  0.00000000000E+00 0.  1.
</event>
<event>
 6    1  0.8989754E-006  0.1499862E+03  0.7561462E-02  0.1200490E+00
          2   -1    0    0  501    0  0.00000000000E+00  0.00000000000E+00  0.49223043081E+03  0.49223043081E+03  0.00000000000E+00 0. -1.
         -2   -1    0    0    0  501 -0.00000000000E+00 -0.00000000000E+00 -0.52699328615E+02  0.52699328615E+02  0.00000000000E+00 0.  1.
          5    1    1    2  502    0 -0.90345818736E+02 -0.89404132454E+02  0.12512367065E+03  0.17840647751E+03  0.41800000000E+01 0. -1.
         -5    1    1    2    0  502  0.36015618462E+02 -0.39829720626E+01  0.23975684774E+02  0.43649681557E+02  0.41800000000E+01 0.  1.
        -11    1    1    2    0    0  0.52459731728E+02  0.10880590784E+03  0.27754695695E+03  0.30269301668E+03  0.00000000000E+00 0. -1.
         11    1    1    2    0    0  0.18704685456E+01 -0.15418803326E+02  0.12884789825E+02  0.20180583674E+02  0.00000000000E+00 0.  1.
</event>
<event>
 6    1  0.8989754E-006  0.2101512E+03  0.7561462E-02  0.1141446E+00
          2   -1    0    0  501    0  0.00000000000E+00  0.00000000000E+00  0.65614263934E+03  0.65614263934E+03  0.00000000000E+00 0. -1.
         -2   -1    0    0    0  501 -0.00000000000E+00 -0.00000000000E+00 -0.90871683390E+02  0.90871683390E+02  0.00000000000E+00 0.  1.
          5    1    1    2  502    0  0.16716504811E+03  0.14293715103E+02  0.19204010717E+03  0.25503987681E+03  0.41800000000E+01 0. -1.
         -5    1    1    2    0  502 -0.59393516959E+01 -0.25298209256E+01 -0.14035913623E+02  0.16004848132E+02  0.41800000000E+01 0. -1.
        -11    1    1    2    0    0 -0.44672575557E+01 -0.75450614654E+02  0.31245591588E+02  0.81786543119E+02  0.00000000000E+00 0.  1.
         11    1    1    2    0    0 -0.15675843886E+03  0.63686720476E+02  0.35602117081E+03  0.39418305467E+03  0.00000000000E+00 0. -1.
</event>
<event>
 6    1  0.8989754E-006  0.1510579E+03  0.7561462E-02  0.1199179E+00
          2   -1    0    0  501    0  0.00000000000E+00  0.00000000000E+00  0.81501966481E+02  0.81501966481E+02  0.00000000000E+00 0. -1.
         -2   -1    0    0    0  501 -0.00000000000E+00 -0.00000000000E+00 -0.80122924208E+03  0.80122924208E+03  0.00000000000E+00 0.  1.
          5    1    1    2  502    0 -0.79963940443E+02 -0.10757438044E+03 -0.39354378865E+03  0.41576515617E+03  0.41800000000E+01 0. -1.
         -5    1    1    2    0  502 -0.69322080107E+01  0.12702110883E+02 -0.30785258334E+03  0.30822083738E+03  0.41800000000E+01 0. -1.
        -11    1    1    2    0    0  0.10293962708E+03  0.74763730746E+02 -0.29660121622E+02  0.13063653805E+03  0.00000000000E+00 0.  1.
         11    1    1    2    0    0 -0.16043478628E+02  0.20108538807E+02  0.11329218017E+02  0.28108676958E+02  0.00000000000E+00 0. -1.
</event>
<event>
 6    1  0.8989754E-006  0.9681516E+02  0.7561462E-02  0.1287139E+00
          1   -1    0    0  501    0  0.00000000000E+00  0.00000000000E+00  0.40057791669E+02  0.40057791669E+02  0.00000000000E+00 0. -1.
         -1   -1    0    0    0  501 -0.00000000000E+00 -0.00000000000E+00 -0.39102028456E+03  0.39102028456E+03  0.00000000000E+00 0.  1.
          5    1    1    2  502    0 -0.47552088297E+02 -0.41691517351E+02 -0.82086194156E+02  0.10370631317E+03  0.41800000000E+01 0. -1.
         -5    1    1    2    0  502  0.64383609795E+02 -0.65292391990E+01 -0.17681186475E+03  0.18832893588E+03  0.41800000000E+01 0. -1.
        -11    1    1    2    0    0 -0.19824469283E+02  0.29610422487E+01 -0.91511375183E+02  0.93680889948E+02  0.00000000000E+00 0.  1.
         11    1    1    2    0    0  0.29929477857E+01  0.45259714301E+02 -0.55305880336E+00  0.45361937228E+02  0.00000000000E+00 0. -1.
</event>
<event>
 6    1  0.8989754E-006  0.2115286E+03  0.7561462E-02  0.1140361E+00
          1   -1    0    0  501    0  0.00000000000E+00  0.00000000000E+00  0.18526006829E+03  0.18526006829E+03  0.00000000000E+00 0. -1.
         -1   -1    0    0    0  501 -0.00000000000E+00 -0.00000000000E+00 -0.25624863241E+03  0.25624863241E+03  0.00000000000E+00 0.  1.
          5    1    1    2  502    0  0.20632029289E+02 -0.19216740104E+02  0.56958015554E+01  0.29066790125E+02  0.41800000000E+01 0. -1.
         -5    1    1    2    0  502  0.86394526962E+02  0.17297444586E+03 -0.62582925197E+02  0.20326895517E+03  0.41800000000E+01 0. -1.
        -11    1    1    2    0    0 -0.10454712251E+03 -0.91738153580E+02 -0.35447692902E+02  0.14353580940E+03  0.00000000000E+00 0.  1.
         11    1    1    2    0    0 -0.24794337355E+01 -0.62019552173E+02  0.21346252428E+02  0.65637146008E+02  0.00000000000E+00 0. -1.
</event>
<event>
 6    1  0.8989754E-006  0.1228569E+03  0.7561462E-02  0.1238457E+00
         -2   -1    0    0    0  501 -0.00000000000E+00  0.00000000000E+00  0.65434898180E+02  0.65434898180E+02  0.00000000000E+00 0. -1.
          2   -1    0    0  501    0  0.00000000000E+00 -0.00000000000E+00 -0.26912754946E+03  0.26912754946E+03  0.00000000000E+00 0.  1.
          5    1    1    2  502    0 -0.26901286173E+02 -0.93741776056E+02 -0.21846022281E+02  0.10002959995E+03  0.41800000000E+01 0. -1.
         -5    1    1    2    0  502  0.22724604197E+02  0.27293863864E+02 -0.42664571867E+02  0.55669567388E+02  0.41800000000E+01 0. -1.
        -11    1    1    2    0    0  0.35524718229E+02  0.72200305284E+02 -0.10023428104E+03  0.12853715721E+03  0.00000000000E+00 0.  1.
         11    1    1    2    0    0 -0.31348036253E+02 -0.57523930924E+01 -0.38947776087E+02  0.50326123091E+02  0.00000000000E+00 0. -1.
</event>
<event>
 6    1  0.8989754E-006  0.8873895E+02  0.7561462E-02  0.1305935E+00
         -1   -1    0    0    0  501 -0.00000000000E+00  0.00000000000E+00  0.13148412551E+03  0.13148412551E+03  0.00000000000E+00 0.  1.
          1   -1    0    0  501    0  0.00000000000E+00 -0.00000000000E+00 -0.16328985767E+03  0.16328985767E+03  0.00000000000E+00 0. -1.
          5    1    1    2  502    0 -0.36767884068E+02  0.41926567477E+02 -0.11680315115E+02  0.57128071212E+02  0.41800000000E+01 0.  1.
         -5    1    1    2    0  502  0.17659832711E+02 -0.19381252664E+02  0.88986703930E+02  0.92863386339E+02  0.41800000000E+01 0.  1.
        -11    1    1    2    0    0  0.27478991149E+02  0.30644710678E+02 -0.51461911544E+02  0.65897811700E+02  0.00000000000E+00 0.  1.
         11    1    1    2    0    0 -0.83709397919E+01 -0.53190025492E+02 -0.57650209423E+02  0.78884713927E+02  0.00000000000E+00 0. -1.
</event>
<event>
 6    1  0.8989754E-006  0.9877531E+02  0.7561462E-02  0.1282893E+00
         -2   -1    0    0    0  501 -0.00000000000E+00  0.00000000000E+00  0.94395047732E+02  0.94395047732E+02  0.00000000000E+00 0. -1.
          2   -1    0    0  501    0  0.00000000000E+00 -0.00000000000E+00 -0.35332340188E+03  0.35332340188E+03  0.00000000000E+00 0.  1.
          5    1    1    2  502    0  0.44377828983E+02  0.18266894256E+02  0.40237643294E+02  0.62766324321E+02  0.41800000000E+01 0. -1.
         -5    1    1    2    0  502 -0.36921787163E+02 -0.65031789732E+02 -0.65457044024E+01  0.75184244953E+02  0.41800000000E+01 0. -1.
        -11    1    1    2    0    0 -0.24783602896E+02  0.18807527685E+00 -0.17858587827E+02  0.30548183317E+02  0.00000000000E+00 0. -1.
         11    1    1    2    0    0  0.17327561076E+02  0.46576820198E+02 -0.27476170521E+03  0.27921969702E+03  0.00000000000E+00 0.  1.
</event>
<event>
 6    1  0.8989754E-006  0.9485535E+02  0.7561462E-02  0.1291502E+00
          1   -1    0    0  501    0  0.00000000000E+00  0.00000000000E+00  0.72977395469E+02  0.72977395469E+02  0.00000000000E+00 0. -1.
         -1   -1    0    0    0  501 -0.00000000000E+00 -0.00000000000E+00 -0.28267414174E+03  0.28267414174E+03  0.00000000000E+00 0.  1.
          5    1    1    2  502    0 -0.81315781409E+02  0.28780103392E+02 -0.12130971343E+03  0.14890960221E+03  0.41800000000E+01 0. -1.
         -5    1    1    2    0  502 -0.83917704342E+01 -0.45922064691E+01  0.29881178837E+02  0.31652289332E+02  0.41800000000E+01 0. -1.
        -11    1    1    2    0    0  0.64339104770E+02 -0.17421793673E+02 -0.14716592054E+02  0.68261390105E+02  0.00000000000E+00 0.  1.
         11    1    1    2    0    0  0.25368447074E+02 -0.67661032497E+01 -0.10355161962E+03  0.10682825556E+03  0.00000000000E+00 0. -1.
</event>
<event>
 6    1  0.8989754E-006  0.1229121E+03  0.7561462E-02  0.1238369E+00
          2   -1    0    0  501    0  0.00000000000E+00  0.00000000000E+00  0.19499289335E+03  0.19499289335E+03  0.00000000000E+00 0. -1.
         -2   -1    0    0    0  501 -0.00000000000E+00 -0.00000000000E+00 -0.83905037986E+02  0.83905037986E+02  0.00000000000E+00 0.  1.
          5    1    1    2  502    0 -0.60414156029E+01  0.41451285290E+02 -0.12387453395E+01  0.42115491742E+02  0.41800000000E+01 0. -1.
         -5    1    1    2    0  502  0.25343896749E+02 -0.87546535450E+02  0.25752592948E+02  0.94801779600E+02  0.41800000000E+01 0. -1.
        -11    1    1    2    0    0  0.39889770156E+02  0.44965752927E+01  0.29045154144E+02  0.49548298979E+02  0.00000000000E+00 0. -1.
         11    1    1    2    0    0 -0.59192251302E+02  0.41598674868E+02  0.57528853607E+02  0.92432361012E+02  0.00000000000E+00 0.  1.
</event>
<event>
 6    1  0.8989754E-006  0.1263568E+03  0.7561462E-02  0.1232964E+00
         -1   -1    0    0    0  501 -0.00000000000E+00  0.00000000000E+00  0.40477047188E+03  0.40477047188E+03  0.00000000000E+00 0.  1.
          1   -1    0    0  501    0  0.00000000000E+00 -0.00000000000E+00 -0.48657238948E+02  0.48657238948E+02  0.00000000000E+00 0. -1.
          5    1    1    2  502    0 -0.66867022936E+02 -0.30143584289E+02  0.20243811449E+03  0.21535667399E+03  0.41800000000E+01 0.  1.
         -5    1    1    2    0  502  0.36966934011E+02 -0.46397841671E+02  0.48120599645E+02  0.76500839421E+02  0.41800000000E+01 0.  1.
        -11    1    1    2    0    0 -0.27616554075E+02  0.51406883350E+01  0.11899781915E+02  0.30507467040E+02  0.00000000000E+00 0. -1.
         11    1    1    2    0    0  0.57516643000E+02  0.71400737625E+02  0.93654736881E+02  0.13106273038E+03  0.00000000000E+00 0.  1.
</event>
<event>
 6    1  0.8989754E-006  0.1490247E+03  0.7561462E-02  0.1201677E+00
         -2   -1    0    0    0  501 -0.00000000000E+00  0.00000000000E+00  0.49586816485E+03  0.49586816485E+03  0.00000000000E+00 0.  1.
          2   -1    0    0  501    0  0.00000000000E+00 -0.00000000000E+00 -0.61007226831E+02  0.61007226831E+02  0.00000000000E+00 0. -1.
          5    1    1    2  502    0  0.41406951780E+02  0.13927465167E+03  0.30167069961E+03  0.33486511860E+03  0.41800000000E+01 0. -1.
         -5    1    1    2    0  502 -0.36691499979E+02 -0.11360213083E+03  0.14394725040E+03  0.18705612420E+03  0.41800000000E+01 0.  1.
        -11    1    1    2    0    0 -0.12908431481E+02 -0.16117041177E+02 -0.72932811627E+01  0.21899282402E+02  0.00000000000E+00 0. -1.
         11    1    1    2    0    0  0.81929796803E+01 -0.95554796629E+01 -0.34637308267E+01  0.13054866482E+02  0.00000000000E+00 0.  1.
</event>
<event>
 6    1  0.8989754E-006  0.8870727E+02  0.7561462E-02  0.1306013E+00
         -2   -1    0    0    0  501 -0.00000000000E+00  0.00000000000E+00  0.13307635608E+03  0.13307635608E+03  0.00000000000E+00 0.  1.
          2   -1    0    0  501    0  0.00000000000E+00 -0.00000000000E+00 -0.92644428189E+02  0.92644428189E+02  0.00000000000E+00 0. -1.
          5    1    1    2  502    0 -0.57283176969E+01 -0.45600561757E+02 -0.18243391183E+02  0.49623770293E+02  0.41800000000E+01 0.  1.
         -5    1    1    2    0  502  0.18265273172E+02  0.65792726582E+02  0.40898292649E+02  0.79702232195E+02  0.41800000000E+01 0.  1.
        -11    1    1    2    0    0  0.23437136242E+02 -0.98763506536E+01 -0.27629761883E+02  0.37553234204E+02  0.00000000000E+00 0. -1.
         11    1    1    2    0    0 -0.35974091717E+02 -0.10315814171E+02  0.45406788311E+02  0.58841547580E+02  0.00000000000E+00 0.  1.
</event>
<event>
 6    1  0.8989754E-006  0.1751056E+03  0.7561462E-02  0.1172626E+00
          2   -1    0    0  501    0  0.00000000000E+00  0.00000000000E+00  0.11747476516E+04  0.11747476516E+04  0.00000000000E+00 0. -1.
         -2   -1    0    0    0  501 -0.00000000000E+00 -0.00000000000E+00 -0.31577289160E+02  0.31577289160E+02  0.00000000000E+00 0.  1.
          5    1    1    2  502    0 -0.32641441651E+02 -0.78413453726E+02  0.36219573588E+03  0.37204483188E+03  0.41800000000E+01 0.  1.
         -5    1    1    2    0  502  0.72188920610E+02 -0.75114179310E+02  0.20424799790E+03  0.22932094810E+03  0.41800000000E+01 0.  1.
        -11    1    1    2    0    0 -0.15808957442E+02  0.11171167803E+03  0.51224522686E+03  0.52452320691E+03  0.00000000000E+00 0. -1.
         11    1    1    2    0    0 -0.23738521517E+02  0.41815955003E+02  0.64481401788E+02  0.80435953858E+02  0.00000000000E+00 0.  1.
</event>
<event>
 6    1  0.8989754E-006  0.9605039E+02  0.7561462E-02  0.1288828E+00
          1   -1    0    0  501    0  0.00000000000E+00  0.00000000000E+00  0.83151579483E+02  0.83151579483E+02  0.00000000000E+00 0. -1.
         -1   -1    0    0    0  501 -0.00000000000E+00 -0.00000000000E+00 -0.19845244019E+03  0.19845244019E+03  0.00000000000E+00 0.  1.
          5    1    1    2  502    0 -0.57816619847E+02 -0.25066929585E+02 -0.17442379643E+02  0.65519626807E+02  0.41800000000E+01 0. -1.
         -5    1    1    2    0  502  0.63477405139E+02  0.41468648301E+02 -0.99637397042E+02  0.12527614715E+03  0.41800000000E+01 0.  1.
        -11    1    1    2    0    0 -0.11665736893E+02  0.16141326417E+02 -0.35657540429E+02  0.40842282321E+02  0.00000000000E+00 0.  1.
         11    1    1    2    0    0  0.60049516013E+01 -0.32543045132E+02  0.37436456405E+02  0.49965963398E+02  0.00000000000E+00 0. -1.
</event>
<event>
 6    1  0.8989754E-006  0.1159295E+03  0.7561462E-02  0.1249967E+00
         -1   -1    0    0    0  501 -0.00000000000E+00  0.00000000000E+00  0.10633842906E+02  0.10633842906E+02  0.00000000000E+00 0.  1.
          1   -1    0    0  501    0  0.00000000000E+00 -0.00000000000E+00 -0.13002763796E+04  0.13002763796E+04  0.00000000000E+00 0. -1.
          5    1    1    2  502    0  0.26804824525E+02  0.34432933723E+02 -0.17034893660E+03  0.17589871558E+03  0.41800000000E+01 0. -1.
         -5    1    1    2    0  502 -0.83584449943E+02 -0.34085227089E+02 -0.56302262853E+03  0.57022812594E+03  0.41800000000E+01 0. -1.
        -11    1    1    2    0    0 -0.55112340983E+01  0.28488958921E+02 -0.15910007614E+03  0.16172454579E+03  0.00000000000E+00 0.  1.
         11    1    1    2    0    0  0.62290859517E+02 -0.28836665555E+02 -0.39717089545E+03  0.40305883523E+03  0.00000000000E+00 0. -1.
</event>
<event>
 6    1  0.8989754E-006  0.1499050E+03  0.7561462E-02  0.1200590E+00
         -1   -1    0    0    0  501 -0.00000000000E+00  0.00000000000E+00  0.32723426975E+02  0.32723426975E+02  0.00000000000E+00 0.  1.
          1   -1    0    0  501    0  0.00000000000E+00 -0.00000000000E+00 -0.97927705800E+03  0.97927705800E+03  0.00000000000E+00 0. -1.
          5    1    1    2  502    0 -0.14819104823E+02 -0.10108169902E+03 -0.36054955914E+03  0.37476735816E+03  0.41800000000E+01 0.  1.
         -5    1    1    2    0  502  0.36532055314E+02 -0.34049183776E+02 -0.32248692623E+02  0.59593527813E+02  0.41800000000E+01 0.  1.
        -11    1    1    2    0    0  0.16209459045E+02  0.72009587861E+02 -0.14945602170E+03  0.16668902102E+03  0.00000000000E+00 0.  1.
         11    1    1    2    0    0 -0.37922409537E+02  0.63121294938E+02 -0.40429935756E+03  0.41095057798E+03  0.00000000000E+00 0. -1.
</event>
<event>
 6    1  0.8989754E-006  0.1160527E+03  0.7561462E-02  0.1249755E+00
         -2   -1    0    0    0  501 -0.00000000000E+00  0.00000000000E+00  0.25558771274E+02  0.25558771274E+02  0.00000000000E+00 0.  1.
          2   -1    0    0  501    0  0.00000000000E+00 -0.00000000000E+00 -0.79287862616E+03  0.79287862616E+03  0.00000000000E+00 0. -1.
          5    1    1    2  502    0 -0.19490779591E+02  0.92962110411E+02 -0.35473398025E+03  0.36725401782E+03  0.41800000000E+01 0. -1.
         -5    1    1    2    0  502 -0.95205565218E+01 -0.90426973514E+01  0.49890816602E+01  0.14655193881E+02  0.41800000000E+01 0. -1.
        -11    1    1    2    0    0  0.32212104279E+02  0.64270918796E+01 -0.68976752724E+02  0.76398426610E+02  0.00000000000E+00 0.  1.
         11    1    1    2    0    0 -0.32007681662E+01 -0.90346504940E+02 -0.34859820358E+03  0.36012975913E+03  0.00000000000E+00 0. -1.
</event>
<event>
 6    1  0.8989754E-006  0.1479114E+03  0.7561462E-02  0.1203063E+00
          2   -1    0    0  501    0  0.00000000000E+00  0.00000000000E+00  0.47031128254E+03  0.47031128254E+03  0.00000000000E+00 0. -1.
         -2   -1    0    0    0  501 -0.00000000000E+00 -0.00000000000E+00 -0.52366567060E+02  0.52366567060E+02  0.00000000000E+00 0.  1.
          5    1    1    2  502    0  0.73771470374E+02 -0.10238012912E+02  0.10153063079E+03  0.12598804760E+03  0.41800000000E+01 0.  1.
         -5    1    1    2    0  502  0.23263147306E+01  0.85847975660E+02  0.60641451619E+02  0.10521475524E+03  0.41800000000E+01 0.  1.
        -11    1    1    2    0    0  0.14903868154E+02 -0.29901360168E+02  0.99412062725E+02  0.10487599745E+03  0.00000000000E+00 0. -1.
         11    1    1    2    0    0 -0.91001653259E+02 -0.45708602581E+02  0.15636057035E+03  0.18659904931E+03  0.00000000000E+00 0.  1.
</event>
<event>
 6    1  0.8989754E-006  0.1568416E+03  0.7561462E-02  0.1192309E+00
         -2   -1    0    0    0  501 -0.00000000000E+00  0.00000000000E+00  0.44872673698E+02  0.44872673698E+02  0.00000000000E+00 0.  1.
          2   -1    0    0  501    0  0.00000000000E+00 -0.00000000000E+00 -0.75497183148E+03  0.75497183148E+03  0.00000000000E+00 0. -1.
          5    1    1    2  502    0 -0.53074646568E+02  0.10514288253E+03 -0.42582743285E+03  0.44183528472E+03  0.41800000000E+01 0. -1.
         -5    1    1    2    0  502  0.42624990128E+02  0.17372366836E+02 -0.15473356078E+02  0.48739984215E+02  0.41800000000E+01 0.  1.
        -11    1    1    2    0    0  0.29024327642E+02 -0.12718814586E+03 -0.25211658392E+03  0.28386970238E+03  0.00000000000E+00 0. -1.
         11    1    1    2    0    0 -0.18574671203E+02  0.46728964860E+01 -0.16681784929E+02  0.25399533859E+02  0.00000000000E+00 0.  1.
</event>
<event>
 6    1  0.8989754E-006  0.1252007E+03  0.7561462E-02  0.1234756E+00
         -2   -1    0    0    0  501 -0.00000000000E+00  0.00000000000E+00  0.27334485730E+03  0.27334485730E+03  0.00000000000E+00 0.  1.
          2   -1    0    0  501    0  0.00000000000E+00 -0.00000000000E+00 -0.44596913757E+03  0.44596913757E+03  0.00000000000E+00 0. -1.
          5    1    1    2  502    0  0.17456980471E+01 -0.38675386656E+02  0.44247711080E+02  0.58942050614E+02  0.41800000000E+01 0. -1.
         -5    1    1    2    0  502 -0.75675863990E+02  0.60628164800E+02  0.20308566941E+03  0.22508636627E+03  0.41800000000E+01 0.  1.
        -11    1    1    2    0    0 -0.18879705681E+02  0.61660806325E+00 -0.75993267678E+02  0.78305812201E+02  0.00000000000E+00 0.  1.
         11    1    1    2    0    0  0.92809871625E+02 -0.22569386207E+02 -0.34396439309E+03  0.35697976579E+03  0.00000000000E+00 0. -1.
</event>
<event>
 6    1  0.8989754E-006  0.1137096E+03  0.7561462E-02  0.1253850E+00
          1   -1    0    0  501    0  0.00000000000E+00  0.00000000000E+00  0.19885387083E+02  0.19885387083E+02  0.00000000000E+00 0. -1.
         -1   -1    0    0    0  501 -0.00000000000E+00 -0.00000000000E+00 -0.87442172496E+03  0.87442172496E+03  0.00000000000E+00 0.  1.
          5    1    1    2  502    0 -0.27751415268E+02  0.41666454524E+02 -0.39285960616E+03  0.39605855253E+03  0.41800000000E+01 0. -1.
         -5    1    1    2    0  502  0.69264830316E+02  0.11473570901E+02 -0.16007472193E+03  0.17484464117E+03  0.41800000000E+01 0. -1.
        -11    1    1    2    0    0  0.24393117830E+02 -0.25775640871E+02 -0.17034292019E+03  0.17400033999E+03  0.00000000000E+00 0. -1.
         11    1    1    2    0    0 -0.65906532877E+02 -0.27364384554E+02 -0.13125908961E+03  0.14940357835E+03  0.00000000000E+00 0.  1.
</event>
<event>
 6    1  0.8989754E-006  0.1146811E+03  0.7561462E-02  0.1252139E+00
         -2   -1    0    0    0  501 -0.00000000000E+00  0.00000000000E+00  0.31096034059E+02  0.31096034059E+02  0.00000000000E+00 0.  1.
          2   -1    0    0  501    0  0.00000000000E+00 -0.00000000000E+00 -0.52965154758E+03  0.52965154758E+03  0.00000000000E+00 0. -1.
          5    1    1    2  502    0 -0.15238905905E+02  0.34097731230E+02 -0.74360357718E+02  0.83317553541E+02  0.41800000000E+01 0. -1.
         -5    1    1    2    0  502  0.43476842512E+02 -0.93089224697E+02 -0.15540951693E+03  0.18634760514E+03  0.41800000000E+01 0. -1.
        -11    1    1    2    0    0 -0.11090225773E+02 -0.11754122850E+02 -0.42441343071E+01  0.16708237121E+02  0.00000000000E+00 0.  1.
         11    1    1    2    0    0 -0.17147710835E+02  0.70745616317E+02 -0.26454150457E+03  0.27437418584E+03  0.00000000000E+00 0. -1.
</event>
<event>
 6    1  0.8989754E-006  0.1352729E+03  0.7561462E-02  0.1219835E+00
          2   -1    0    0  501    0  0.00000000000E+00  0.00000000000E+00  0.10419036184E+03  0.10419036184E+03  0.00000000000E+00 0. -1.
         -2   -1    0    0    0  501 -0.00000000000E+00 -0.00000000000E+00 -0.25166905426E+03  0.25166905426E+03  0.00000000000E+00 0.  1.
          5    1    1    2  502    0 -0.12827149936E+02 -0.32250009011E+02 -0.91591524911E+02  0.98036109125E+02  0.41800000000E+01 0. -1.
         -5    1    1    2    0  502 -0.54997627406E+02 -0.66124552765E+02  0.21276433536E+02  0.88698108901E+02  0.41800000000E+01 0. -1.
        -11    1    1    2    0    0  0.59852279064E+02  0.99233336063E+01 -0.21774821170E+02  0.64458596758E+02  0.00000000000E+00 0. -1.
         11    1    1    2    0    0  0.79724982790E+01  0.88451228170E+02 -0.55388779880E+02  0.10466660131E+03  0.00000000000E+00 0.  1.
</event>
<event>
 6    1  0.8989754E-006  0.1851624E+03  0.7561462E-02  0.1162898E+00
          2   -1    0    0  501    0  0.00000000000E+00  0.00000000000E+00  0.39073056564E+03  0.39073056564E+03  0.00000000000E+00 0. -1.
         -2   -1    0    0    0  501 -0.00000000000E+00 -0.00000000000E+00 -0.10328850495E+03  0.10328850495E+03  0.00000000000E+00 0.  1.
          5    1    1    2  502    0 -0.12410124964E+03  0.23385351696E+02  0.54259686729E+02  0.13751211161E+03  0.41800000000E+01 0.  1.
         -5    1    1    2    0  502 -0.44842776124E+01  0.79222452450E+02  0.50952400101E+02  0.94392400085E+02  0.41800000000E+01 0.  1.
        -11    1    1    2    0    0  0.46462360100E+02 -0.37763272026E+02  0.10163827610E+02  0.60729885656E+02  0.00000000000E+00 0.  1.
         11    1    1    2    0    0  0.82123167154E+02 -0.64844532120E+02  0.17206614624E+03  0.20138467323E+03  0.00000000000E+00 0. -1.
</event>
<event>
 6    1  0.8989754E-006  0.9489990E+02  0.7561462E-02  0.1291402E+00
          2   -1    0    0  501    0  0.00000000000E+00  0.00000000000E+00  0.50646204218E+03  0.50646204218E+03  0.00000000000E+00 0.  1.
         -2   -1    0    0    0  501 -0.00000000000E+00 -0.00000000000E+00 -0.32484772128E+02  0.32484772128E+02  0.00000000000E+00 0. -1.
          5    1    1    2  502    0 -0.45327086747E+01 -0.49839127380E+01 -0.11714083140E+02  0.14144856942E+02  0.41800000000E+01 0.  1.
         -5    1    1    2    0  502  0.39369247977E+02  0.66396835266E+02  0.27635467988E+03  0.28696316647E+03  0.41800000000E+01 0.  1.
        -11    1    1    2    0    0 -0.36379144681E+02  0.62283066994E+01  0.35128952465E+02  0.50953677722E+02  0.00000000000E+00 0. -1.
         11    1    1    2    0    0  0.15426053789E+01 -0.67641229227E+02  0.17420772084E+03  0.18688511317E+03  0.00000000000E+00 0.  1.
</event>
<event>
 6    1  0.8989754E-006  0.9720588E+02  0.7561462E-02  0.1286284E+00
         -2   -1    0    0    0  501 -0.00000000000E+00  0.00000000000E+00  0.14980233083E+02  0.14980233083E+02  0.00000000000E+00 0.  1.
          2   -1    0    0  501    0  0.00000000000E+00 -0.00000000000E+00 -0.76752444614E+03  0.76752444614E+03  0.00000000000E+00 0. -1.
          5    1    1    2  502    0 -0.52061338582E+02  0.35208293762E+02 -0.30935648732E+03  0.31570384155E+03  0.41800000000E+01 0.  1.
         -5    1    1    2    0  502  0.36137817799E+02 -0.32323224591E+02 -0.80685395976E+02  0.94224934317E+02  0.41800000000E+01 0.  1.
        -11    1    1    2    0    0  0.25155530044E+02 -0.38487761929E+02 -0.14914591869E+03  0.15607246257E+03  0.00000000000E+00 0.  1.
         11    1    1    2    0    0 -0.92320092614E+01  0.35602692757E+02 -0.21335641107E+03  0.21650344078E+03  0.00000000000E+00 0. -1.
</event>
<event>
 6    1  0.8989754E-006  0.1358853E+03  0.7561462E-02  0.1218975E+00
         -2   -1    0    0    0  501 -0.00000000000E+00  0.00000000000E+00  0.10967209985E+04  0.10967209985E+04  0.00000000000E+00 0.  1.
          2   -1    0    0  501    0  0.00000000000E+00 -0.00000000000E+00 -0.19983353883E+02  0.19983353883E+02  0.00000000000E+00 0. -1.
          5    1    1    2  502    0 -0.11124599800E+03 -0.46233439194E+02  0.57585945292E+03  0.58834070477E+03  0.41800000000E+01 0. -1.
         -5    1    1    2    0  502  0.21957940865E+02  0.26196851681E+02  0.16979493675E+03  0.17325189509E+03  0.41800000000E+01 0. -1.
        -11    1    1    2    0    0 -0.95710850687E+01 -0.96287491964E+01  0.75949874408E+01  0.15556423583E+02  0.00000000000E+00 0. -1.
         11    1    1    2    0    0  0.98859142207E+02  0.29665336709E+02  0.32348826749E+03  0.33955532893E+03  0.00000000000E+00 0.  1.
</event>
<event>
 6    1  0.8989754E-006  0.1564343E+03  0.7561462E-02  0.1192782E+00
         -2   -1    0    0    0  501 -0.00000000000E+00  0.00000000000E+00  0.16390732460E+03  0.16390732460E+03  0.00000000000E+00 0.  1.
          2   -1    0    0  501    0  0.00000000000E+00 -0.00000000000E+00 -0.23495528592E+03  0.23495528592E+03  0.00000000000E+00 0. -1.
          5    1    1    2  502    0  0.13664994984E+03  0.11904768458E+02  0.57642707931E+02  0.14884584805E+03  0.41800000000E+01 0.  1.
         -5    1    1    2    0  502 -0.24368846407E+02  0.24088435226E+02  0.18557177284E+02  0.39191001717E+02  0.41800000000E+01 0.  1.
        -11    1    1    2    0    0 -0.81666577174E+02  0.13644781139E+02 -0.47984588696E+02  0.95698122405E+02  0.00000000000E+00 0.  1.
         11    1    1    2    0    0 -0.30614526261E+02 -0.49637984823E+02 -0.99263257837E+02  0.11512763835E+03  0.00000000000E+00 0. -1.
</event>
<event>
 6    1  0.8989754E-006  0.1000526E+03  0.7561462E-02  0.1280185E+00
         -1   -1    0    0    0  501 -0.00000000000E+00  0.00000000000E+00  0.47000814993E+02  0.47000814993E+02  0.00000000000E+00 0.  1.
          1   -1    0    0  501    0  0.00000000000E+00 -0.00000000000E+00 -0.37214344324E+03  0.37214344324E+03  0.00000000000E+00 0. -1.
          5    1    1    2  502    0  0.51666671018E+02  0.11342808473E+01 -0.13639049068E+03  0.14591288440E+03  0.41800000000E+01 0. -1.
         -5    1    1    2    0  502 -0.15899676241E+00  0.41508168553E+02  0.11285715481E+02  0.43217972078E+02  0.41800000000E+01 0. -1.
        -11    1    1    2    0    0  0.22791371437E+02 -0.14898535833E+02 -0.21640789482E+02  0.34781270123E+02  0.00000000000E+00 0.  1.
         11    1    1    2    0    0 -0.74299045693E+02 -0.27743913567E+02 -0.17839706357E+03  0.19523213163E+03  0.00000000000E+00 0. -1.
</event>
<event>
 6    1  0.8989754E-006  0.8670290E+02  0.7561462E-02  0.1311038E+00
         -1   -1    0    0    0  501 -0.00000000000E+00  0.00000000000E+00  0.13536736956E+03  0.13536736956E+03  0.00000000000E+00 0.  1.
          1   -1    0    0  501    0  0.00000000000E+00 -0.00000000000E+00 -0.11681927642E+03  0.11681927642E+03  0.00000000000E+00 0. -1.
          5    1    1    2  502    0 -0.19304416617E+01  0.20097371303E+02 -0.38248425735E+02  0.43451644497E+02  0.41800000000E+01 0. -1.
         -5    1    1    2    0  502 -0.52935704416E+02 -0.27028409026E+02  0.79605946951E+02  0.99434917843E+02  0.41800000000E+01 0. -1.
        -11    1    1    2    0    0  0.41528634856E+02 -0.31758502094E+02  0.14145232514E+02  0.54160110516E+02  0.00000000000E+00 0.  1.
         11    1    1    2    0    0  0.13337511222E+02  0.38689539818E+02 -0.36954660595E+02  0.55139973128E+02  0.00000000000E+00 0. -1.
</event>
<event>
 6    1  0.8989754E-006  0.8798795E+02  0.7561462E-02  0.1307799E+00
          1   -1    0    0  501    0  0.00000000000E+00  0.00000000000E+00  0.45063849265E+02  0.45063849265E+02  0.00000000000E+00 0. -1.
         -1   -1    0    0    0  501 -0.00000000000E+00 -0.00000000000E+00 -0.34144146800E+03  0.34144146800E+03  0.00000000000E+00 0.  1.
          5    1    1    2  502    0  0.36518863692E+02 -0.11076252711E+02 -0.18603133415E+03  0.18995115284E+03  0.41800000000E+01 0. -1.
         -5    1    1    2    0  502  0.22339706303E+02  0.18643274568E+02  0.12585948941E+02  0.31976752103E+02  0.41800000000E+01 0. -1.
        -11    1    1    2    0    0 -0.29353538837E+02  0.41561886632E+02 -0.70192882512E+02  0.86695221426E+02  0.00000000000E+00 0.  1.
         11    1    1    2    0    0 -0.29505031158E+02 -0.49128908489E+02 -0.52739351008E+02  0.77882190889E+02  0.00000000000E+00 0. -1.
</event>
<event>
 6    1  0.8989754E-006  0.1338558E+03  0.7561462E-02  0.1221844E+00
          1   -1    0    0  501    0  0.00000000000E+00  0.00000000000E+00  0.75584493448E+03  0.75584493448E+03  0.00000000000E+00 0. -1.
         -1   -1    0    0    0  501 -0.00000000000E+00 -0.00000000000E+00 -0.34691370714E+02  0.34691370714E+02  0.00000000000E+00 0.  1.
          5    1    1    2  502    0 -0.79098995640E+02  0.19172993224E+02  0.80766135388E+02  0.11473837983E+03  0.41800000000E+01 0.  1.
         -5    1    1    2    0  502  0.13948525720E+02 -0.64179154947E+02  0.85368368748E+02  0.10779033390E+03  0.41800000000E+01 0.  1.
        -11    1    1    2    0    0  0.40491441749E+02 -0.24037975640E+02  0.23911255913E+03  0.24370514369E+03  0.00000000000E+00 0.  1.
         11    1    1    2    0    0  0.24659028171E+02  0.69044137363E+02  0.31590650050E+03  0.32430244777E+03  0.00000000000E+00 0. -1.
</event>
<event>
 6    1  0.8989754E-006  0.1167238E+03  0.7561462E-02  0.1248602E+00
         -3   -1    0    0    0  501 -0.00000000000E+00  0.00000000000E+00  0.41997413604E+03  0.41997413604E+03  0.00000000000E+00 0.  1.
          3   -1    0    0  501    0  0.00000000000E+00 -0.00000000000E+00 -0.37311466372E+02  0.37311466372E+02  0.00000000000E+00 0. -1.
          5    1    1    2  502    0 -0.34754330790E+02 -0.32996722062E+02  0.15325506940E+03  0.16062763110E+03  0.41800000000E+01 0. -1.
         -5    1    1    2    0  502  0.72197523355E+01  0.80791846015E+02  0.11977631732E+03  0.14471795257E+03  0.41800000000E+01 0. -1.
        -11    1    1    2    0    0 -0.84915186316E+01  0.23092321581E+02  0.35747519768E+02  0.43396386650E+02  0.00000000000E+00 0. -1.
         11    1    1    2    0    0  0.36026097087E+02 -0.70887445534E+02  0.73883763179E+02  0.10854363209E+03  0.00000000000E+00 0.  1.
</event>
<event>
 6    1  0.8989754E-006  0.1190428E+03  0.7561462E-02  0.1244684E+00
         -1   -1    0    0    0  501 -0.00000000000E+00  0.00000000000E+00  0.57511932115E+03  0.57511932115E+03  0.00000000000E+00 0.  1.
          1   -1    0    0  501    0  0.00000000000E+00 -0.00000000000E+00 -0.41776377440E+02  0.41776377440E+02  0.00000000000E+00 0. -1.
          5    1    1    2  502    0 -0.13540525755E+01 -0.21467998445E+02 -0.12680792756E+01  0.21949688851E+02  0.41800000000E+01 0. -1.
         -5    1    1    2    0  502  0.50731876371E+02 -0.64820738725E+02  0.38490978948E+03  0.39363494495E+03  0.41800000000E+01 0. -1.
        -11    1    1    2    0    0  0.26407777454E+02  0.21804426290E+02  0.48610698816E+02  0.59462624860E+02  0.00000000000E+00 0. -1.
         11    1    1    2    0    0 -0.75785601249E+02  0.64484310880E+02  0.10109053469E+03  0.14184843993E+03  0.00000000000E+00 0.  1.
</event>
<event>
 6    1  0.8989754E-006  0.9852671E+02  0.7561462E-02  0.1283425E+00
          1   -1    0    0  501    0  0.00000000000E+00  0.00000000000E+00  0.87614856210E+02  0.87614856210E+02  0.00000000000E+00 0. -1.
         -1   -1    0    0    0  501 -0.00000000000E+00 -0.00000000000E+00 -0.14882042988E+03  0.14882042988E+03  0.00000000000E+00 0.  1.
          5    1    1    2  502    0 -0.54760919226E+02 -0.67011315756E+01  0.10161119486E+02  0.56252859377E+02  0.41800000000E+01 0.  1.
         -5    1    1    2    0  502  0.39057948460E+02  0.31049114459E+02 -0.68341841425E+02  0.84721015905E+02  0.41800000000E+01 0.  1.
        -11    1    1    2    0    0  0.34691097366E+02 -0.49311089775E+02  0.10686552099E+02  0.61231186555E+02  0.00000000000E+00 0. -1.
         11    1    1    2    0    0 -0.18988126600E+02  0.24963106891E+02 -0.13711403831E+02  0.34230224253E+02  0.00000000000E+00 0.  1.
</event>
<event>
 6    1  0.8989754E-006  0.2153228E+03  0.7561462E-02  0.1137419E+00
         -2   -1    0    0    0  501 -0.00000000000E+00  0.00000000000E+00  0.73906046644E+02  0.73906046644E+02  0.00000000000E+00 0.  1.
          2   -1    0    0  501    0  0.00000000000E+00 -0.00000000000E+00 -0.77519394631E+03  0.77519394631E+03  0.00000000000E+00 0. -1.
          5    1    1    2  502    0 -0.49913731839E+00  0.10735227633E+03 -0.55514535757E+02  0.12093013045E+03  0.41800000000E+01 0. -1.
         -5    1    1    2    0  502 -0.88195642784E+02  0.71322823789E+02 -0.17495007289E+03  0.20854356141E+03  0.41800000000E+01 0. -1.
        -11    1    1    2    0    0  0.34508198902E+02 -0.13719239228E+03 -0.38376798066E+03  0.40901152951E+03  0.00000000000E+00 0.  1.
         11    1    1    2    0    0  0.54186581200E+02 -0.41482707834E+02 -0.87055310354E+02  0.11061477158E+03  0.00000000000E+00 0. -1.
</event>
<event>
 6    1  0.8989754E-006  0.9448056E+02  0.7561462E-02  0.1292350E+00
         -2   -1    0    0    0  501 -0.00000000000E+00  0.00000000000E+00  0.31964206666E+02  0.31964206666E+02  0.00000000000E+00 0.  1.
          2   -1    0    0  501    0  0.00000000000E+00 -0.00000000000E+00 -0.45072516660E+03  0.45072516660E+03  0.00000000000E+00 0. -1.
          5    1    1    2  502    0 -0.49723271128E+02  0.46379480853E+02 -0.39142296790E+02  0.78568770728E+02  0.41800000000E+01 0. -1.
         -5    1    1    2    0  502  0.87972654405E+01 -0.29911478488E+02 -0.14503861301E+03  0.14841078157E+03  0.41800000000E+01 0. -1.
        -11    1    1    2    0    0 -0.11674796673E+02  0.21528590538E+02 -0.20267541660E+02  0.31789217242E+02  0.00000000000E+00 0.  1.
         11    1    1    2    0    0  0.52600802361E+02 -0.37996592903E+02 -0.21431250847E+03  0.22392060372E+03  0.00000000000E+00 0. -1.
</event>
<event>
 6    1  0.8989754E-006  0.8129510E+02  0.7561462E-02  0.1325416E+00
         -2   -1    0    0    0  501 -0.00000000000E+00  0.00000000000E+00  0.13500978611E+03  0.13500978611E+03  0.00000000000E+00 0. -1.
          2   -1    0    0  501    0  0.00000000000E+00 -0.00000000000E+00 -0.10317467026E+03  0.10317467026E+03  0.00000000000E+00 0.  1.
          5    1    1    2  502    0 -0.22991447068E+02 -0.19301941493E+02 -0.27603781993E+02  0.40995277338E+02  0.41800000000E+01 0. -1.
         -5    1    1    2    0  502  0.52588346345E+02  0.13643175428E+02  0.82570994434E+02  0.98929833361E+02  0.41800000000E+01 0. -1.
        -11    1    1    2    0    0 -0.53530189045E+02  0.18943803902E+01 -0.41579566061E+02  0.67808038830E+02  0.00000000000E+00 0.  1.
         11    1    1    2    0    0  0.23933289768E+02  0.37643856748E+01  0.18447469465E+02  0.30451306841E+02  0.00000000000E+00 0. -1.
</event>
<event>
 6    1  0.8989754E-006  0.1134033E+03  0.7561462E-02  0.1254394E+00
         -1   -1    0    0    0  501 -0.00000000000E+00  0.00000000000E+00  0.50769415038E+02  0.50769415038E+02  0.00000000000E+00 0.  1.
          1   -1    0    0  501    0  0.00000000000E+00 -0.00000000000E+00 -0.29681691331E+03  0.29681691331E+03  0.00000000000E+00 0. -1.
          5    1    1    2  502    0 -0.56948899270E+02  0.72817233466E+02 -0.11019416099E+03  0.14389493436E+03  0.41800000000E+01 0.  1.
         -5    1    1    2    0  502  0.34406670355E+02 -0.19587338094E+02 -0.15839155843E+02  0.42846633898E+02  0.41800000000E+01 0.  1.
        -11    1    1    2    0    0 -0.26850862429E+02 -0.28726640314E+02 -0.14717392402E+02  0.41985596531E+02  0.00000000000E+00 0.  1.
         11    1    1    2    0    0  0.49393091344E+02 -0.24503255057E+02 -0.10529678904E+03  0.11885916356E+03  0.00000000000E+00 0. -1.
</event>
<event>
 6    1  0.8989754E-006  0.2074492E+03  0.7561462E-02  0.1143602E+00
         -2   -1    0    0    0  501 -0.00000000000E+00  0.00000000000E+00  0.56221258690E+02  0.56221258690E+02  0.00000000000E+00 0.  1.
          2   -1    0    0  501    0  0.00000000000E+00 -0.00000000000E+00 -0.76844737646E+03  0.76844737646E+03  0.00000000000E+00 0. -1.
          5    1    1    2  502    0  0.38248501114E+02  0.16468627040E+02 -0.75163659668E+02  0.86030294947E+02  0.41800000000E+01 0.  1.
         -5    1    1    2    0  502 -0.79168623882E+02  0.15595582669E+03 -0.28592683226E+03  0.33520369433E+03  0.41800000000E+01 0.  1.
        -11    1    1    2    0    0 -0.11093490656E+02 -0.13135656366E+03 -0.21908434881E+03  0.25568645690E+03  0.00000000000E+00 0.  1.
         11    1    1    2    0    0  0.52013613424E+02 -0.41067890072E+02 -0.13205127703E+03  0.14774818896E+03  0.00000000000E+00 0. -1.
</event>
<event>
 6    1  0.8989754E-006  0.6578668E+02  0.7561462E-02  0.1375037E+00
          2   -1    0    0  501    0  0.00000000000E+00  0.00000000000E+00  0.16335931555E+03  0.16335931555E+03  0.00000000000E+00 0. -1.
         -2   -1    0    0    0  501 -0.00000000000E+00 -0.00000000000E+00 -0.78543505613E+02  0.78543505613E+02  0.00000000000E+00 0.  1.
          5    1    1    2  502    0 -0.48743296801E+02  0.29991236102E+01 -0.10702029695E+02  0.50168810680E+02  0.41800000000E+01 0.  1.
         -5    1    1    2    0  502  0.47304771460E+02  0.19991195227E+02  0.78705939791E+02  0.94071710136E+02  0.41800000000E+01 0.  1.
        -11    1    1    2    0    0 -0.87832919039E+01 -0.17132203703E+02 -0.37464571206E+02  0.42121879303E+02  0.00000000000E+00 0.  1.
         11    1    1    2    0    0  0.10221817245E+02 -0.58581151338E+01  0.54276471049E+02  0.55540421049E+02  0.00000000000E+00 0. -1.
</event>
<event>
 6    1  0.8989754E-006  0.1325982E+03  0.7561462E-02  0.1223651E+00
          2   -1    0    0  501    0  0.00000000000E+00  0.00000000000E+00  0.13029128778E+03  0.13029128778E+03  0.00000000000E+00 0.  1.
         -2   -1    0    0    0  501 -0.00000000000E+00 -0.00000000000E+00 -0.17235406667E+03  0.17235406667E+03  0.00000000000E+00 0. -1.
          5    1    1    2  502    0 -0.43393952328E+02 -0.13414906078E+02 -0.13511876648E+02  0.47571399121E+02  0.41800000000E+01 0. -1.
         -5    1    1    2    0  502  0.36501093505E+02  0.94311680338E+02 -0.73483521342E+02  0.12507726885E+03  0.41800000000E+01 0. -1.
        -11    1    1    2    0    0  0.44031877992E+02 -0.23246068343E+02  0.34628427901E+02  0.60649105449E+02  0.00000000000E+00 0.  1.
         11    1    1    2    0    0 -0.37139019169E+02 -0.57650705917E+02  0.10304191206E+02  0.69347581024E+02  0.00000000000E+00 0. -1.
</event>
<event>
 6    1  0.8989754E-006  0.1330446E+03  0.7561462E-02  0.1223007E+00
         -1   -1    0    0    0  501 -0.00000000000E+00  0.00000000000E+00  0.17007514183E+03  0.17007514183E+03  0.00000000000E+00 0.  1.
          1   -1    0    0  501    0  0.00000000000E+00 -0.00000000000E+00 -0.15433957754E+03  0.15433957754E+03  0.00000000000E+00 0. -1.
          5    1    1    2  502    0  0.29194266279E+02  0.18069519839E+01  0.55305942545E+02  0.62703986634E+02  0.41800000000E+01 0.  1.
         -5    1    1    2    0  502  0.74336757187E+02  0.54338584706E+02 -0.58418875606E+02  0.10912778145E+03  0.41800000000E+01 0.  1.
        -11    1    1    2    0    0 -0.25243432115E+02 -0.60911397938E+02  0.31607344305E+02  0.73119446645E+02  0.00000000000E+00 0. -1.
         11    1    1    2    0    0 -0.78287591351E+02  0.47658612484E+01 -0.12758846955E+02  0.79463504634E+02  0.00000000000E+00 0.  1.
</event>
<event>
 6    1  0.8989754E-006  0.9781567E+02  0.7561462E-02  0.1284958E+00
         -2   -1    0    0    0  501 -0.00000000000E+00  0.00000000000E+00  0.21549919510E+02  0.21549919510E+02  0.00000000000E+00 0.  1.
          2   -1    0    0  501    0  0.00000000000E+00 -0.00000000000E+00 -0.64338535497E+03  0.64338535497E+03  0.00000000000E+00 0. -1.
          5    1    1    2  502    0 -0.29526461762E+02  0.13804722413E+02 -0.17421118616E+02  0.37193414456E+02  0.41800000000E+01 0. -1.
         -5    1    1    2    0  502  0.56319075372E+02 -0.43249658412E+02 -0.26272111857E+03  0.27218050949E+03  0.41800000000E+01 0. -1.
        -11    1    1    2    0    0  0.23229166750E+02  0.34251437357E+02 -0.92269023707E+02  0.10112530784E+03  0.00000000000E+00 0.  1.
         11    1    1    2    0    0 -0.50021780360E+02 -0.48065013587E+01 -0.24942417456E+03  0.25443604269E+03  0.00000000000E+00 0. -1.
</event>
<event>
 6    1  0.8989754E-006  0.1860422E+03  0.7561462E-02  0.1162080E+00
         -1   -1    0    0    0  501 -0.00000000000E+00  0.00000000000E+00  0.80543929243E+02  0.80543929243E+02  0.00000000000E+00 0.  1.
          1   -1    0    0  501    0  0.00000000000E+00 -0.00000000000E+00 -0.54816825837E+03  0.54816825837E+03  0.00000000000E+00 0. -1.
          5    1    1    2  502    0 -0.96078655714E+02  0.14558479888E+03 -0.18536761990E+03  0.25456761116E+03  0.41800000000E+01 0.  1.
         -5    1    1    2    0  502  0.16098132333E+02  0.88851358009E+01  0.10861110353E+02  0.21760781716E+02  0.41800000000E+01 0.  1.
        -11    1    1    2    0    0  0.81182785253E+02 -0.12374138012E+03 -0.28410070809E+03  0.32033698836E+03  0.00000000000E+00 0. -1.
         11    1    1    2    0    0 -0.12022618721E+01 -0.30728554562E+02 -0.90171114997E+01  0.32046806376E+02  0.00000000000E+00 0.  1.
</event>
<event>
 6    1  0.8989754E-006  0.1230842E+03  0.7561462E-02  0.1238094E+00
         -1   -1    0    0    0  501 -0.00000000000E+00  0.00000000000E+00  0.81719753527E+02  0.81719753527E+02  0.00000000000E+00 0.  1.
          1   -1    0    0  501    0  0.00000000000E+00 -0.00000000000E+00 -0.21845644118E+03  0.21845644118E+03  0.00000000000E+00 0. -1.
          5    1    1    2  502    0  0.68071561556E+01 -0.91786305160E+02 -0.38483293967E+02  0.99847381059E+02  0.41800000000E+01 0.  1.
         -5    1    1    2    0  502 -0.40868288364E+02  0.29729377237E+02 -0.88612984618E+01  0.51478615707E+02  0.41800000000E+01 0.  1.
        -11    1    1    2    0    0  0.30121788931E+02  0.79723659201E+02 -0.36076224441E+02  0.92545545408E+02  0.00000000000E+00 0.  1.
         11    1    1    2    0    0  0.39393432779E+01 -0.17666731278E+02 -0.53315870787E+02  0.56304652537E+02  0.00000000000E+00 0. -1.
</event>
<event>
 6    1  0.8989754E-006  0.1028879E+03  0.7561462E-02  0.1274338E+00
          1   -1    0    0  501    0  0.00000000000E+00  0.00000000000E+00  0.44172749505E+03  0.44172749505E+03  0.00000000000E+00 0. -1.
         -1   -1    0    0    0  501 -0.00000000000E+00 -0.00000000000E+00 -0.35896648006E+02  0.35896648006E+02  0.00000000000E+00 0.  1.
          5    1    1    2  502    0 -0.37677714623E+02  0.15840034120E+02  0.11296627891E+03  0.12020552995E+03  0.41800000000E+01 0.  1.
         -5    1    1    2    0  502  0.61833323501E+02  0.18640623744E+02  0.21453389206E+02  0.68180298160E+02  0.41800000000E+01 0.  1.
        -11    1    1    2    0    0  0.39220295414E+01 -0.61134100117E+02  0.16663879497E+03  0.17754224427E+03  0.00000000000E+00 0.  1.
         11    1    1    2    0    0 -0.28077638420E+02  0.26653442253E+02  0.10477238396E+03  0.11169607067E+03  0.00000000000E+00 0. -1.
</event>
<event>
 6    1  0.8989754E-006  0.7585685E+02  0.7561462E-02  0.1341238E+00
          2   -1    0    0  501    0  0.00000000000E+00  0.00000000000E+00  0.77143388709E+02  0.77143388709E+02  0.00000000000E+00 0. -1.
         -2   -1    0    0    0  501 -0.00000000000E+00 -0.00000000000E+00 -0.23642787005E+03  0.23642787005E+03  0.00000000000E+00 0.  1.
          5    1    1    2  502    0  0.15418739565E+01  0.20016032015E+02 -0.13871546537E+03  0.14022293552E+03  0.41800000000E+01 0. -1.
         -5    1    1    2    0  502  0.42520022214E+02 -0.51406681157E+02 -0.12322414750E+01  0.66854992152E+02  0.41800000000E+01 0.  1.
        -11    1    1    2    0    0 -0.13650368123E+02  0.31086116617E+02 -0.51847661551E+02  0.61974665828E+02  0.00000000000E+00 0.  1.
         11    1    1    2    0    0 -0.30411528048E+02  0.30453252547E+00  0.32510887062E+02  0.44518665252E+02  0.00000000000E+00 0. -1.
</event>
<event>
 6    1  0.8989754E-006  0.1175184E+03  0.7561462E-02  0.1247248E+00
         -2   -1    0    0    0  501 -0.00000000000E+00  0.00000000000E+00  0.40511421210E+02  0.40511421210E+02  0.00000000000E+00 0.  1.
          2   -1    0    0  501    0  0.00000000000E+00 -0.00000000000E+00 -0.35583958816E+03  0.35583958816E+03  0.00000000000E+00 0. -1.
          5    1    1    2  502    0 -0.53015882974E+02  0.48298401440E+02 -0.12504592393E+03  0.14421294991E+03  0.41800000000E+01 0. -1.
         -5    1    1    2    0  502  0.17248487758E+01 -0.59014749243E+02 -0.51839128542E+02  0.78679624932E+02  0.41800000000E+01 0. -1.
        -11    1    1    2    0    0  0.47120395708E+02  0.47548822372E+02 -0.96998388540E+02  0.11785546054E+03  0.00000000000E+00 0. -1.
         11    1    1    2    0    0  0.41706384898E+01 -0.36832474569E+02 -0.41444725938E+02  0.55602973988E+02  0.00000000000E+00 0.  1.
</event>
<event>
 6    1  0.8989754E-006  0.1036781E+03  0.7561462E-02  0.1272746E+00
         -3   -1    0    0    0  501 -0.00000000000E+00  0.00000000000E+00  0.41782530936E+03  0.41782530936E+03  0.00000000000E+00 0.  1.
          3   -1    0    0  501    0  0.00000000000E+00 -0.00000000000E+00 -0.50260981520E+02  0.50260981520E+02  0.00000000000E+00 0. -1.
          5    1    1    2  502    0  0.21203285596E+02 -0.35599791369E+02  0.10357768343E+03  0.11163661304E+03  0.41800000000E+01 0. -1.
         -5    1    1    2    0  502 -0.75102593034E+02  0.60867785300E+02  0.21921240692E+03  0.23961810974E+03  0.41800000000E+01 0. -1.
        -11    1    1    2    0    0  0.51581759581E+02 -0.88103583250E+01 -0.15284773566E+02  0.54515361489E+02  0.00000000000E+00 0. -1.
         11    1    1    2    0    0  0.23175478577E+01 -0.16457635607E+02  0.60059011055E+02  0.62316206614E+02  0.00000000000E+00 0.  1.
</event>
<event>
 6    1  0.8989754E-006  0.1076665E+03  0.7561462E-02  0.1264953E+00
          1   -1    0    0  501    0  0.00000000000E+00  0.00000000000E+00  0.33290996395E+02  0.33290996395E+02  0.00000000000E+00 0. -1.
         -1   -1    0    0    0  501 -0.00000000000E+00 -0.00000000000E+00 -0.53067705808E+03  0.53067705808E+03  0.00000000000E+00 0.  1.
          5    1    1    2  502    0  0.57499302860E+02 -0.16435587619E+02 -0.13489233972E+03  0.14761339399E+03  0.41800000000E+01 0.  1.
         -5    1    1    2    0  502 -0.60941780897E+02 -0.23732428708E+02 -0.28149761242E+03  0.28902509758E+03  0.41800000000E+01 0.  1.
        -11    1    1    2    0    0  0.40466388804E+02  0.89997580670E+01 -0.63567534438E+02  0.75890419043E+02  0.00000000000E+00 0.  1.
         11    1    1    2    0    0 -0.37023910767E+02  0.31168258260E+02 -0.17428575109E+02  0.51439143867E+02  0.00000000000E+00 0. -1.
</event>
<event>
 6    1  0.8989754E-006  0.6887831E+02  0.7561462E-02  0.1363949E+00
          1   -1    0    0  501    0  0.00000000000E+00  0.00000000000E+00  0.15516513475E+03  0.15516513475E+03  0.00000000000E+00 0. -1.
         -1   -1    0    0    0  501 -0.00000000000E+00 -0.00000000000E+00 -0.85147558998E+02  0.85147558998E+02  0.00000000000E+00 0.  1.
          5    1    1    2  502    0  0.47079262121E+01  0.62252746878E+01 -0.48831708623E+02  0.49627883103E+02  0.41800000000E+01 0. -1.
         -5    1    1    2    0  502 -0.28172054599E+02  0.24081686999E+02  0.75045051005E+02  0.83802293461E+02  0.41800000000E+01 0. -1.
        -11    1    1    2    0    0 -0.40624000934E+01 -0.54685327232E+02  0.43689667647E+02  0.70112589227E+02  0.00000000000E+00 0.  1.
         11    1    1    2    0    0  0.27526528480E+02  0.24378365545E+02  0.11456572575E+00  0.36769927959E+02  0.00000000000E+00 0. -1.
</event>
<event>
 6    1  0.8989754E-006  0.1917809E+03  0.7561462E-02  0.1156865E+00
         -2   -1    0    0    0  501 -0.00000000000E+00  0.00000000000E+00  0.72034840333E+02  0.72034840333E+02  0.00000000000E+00 0.  1.
          2   -1    0    0  501    0  0.00000000000E+00 -0.00000000000E+00 -0.58727567201E+03  0.58727567201E+03  0.00000000000E+00 0. -1.
          5    1    1    2  502    0  0.15878108581E+02 -0.86149346081E+01 -0.72823384867E+02  0.75146850991E+02  0.41800000000E+01 0. -1.
         -5    1    1    2    0  502 -0.23601873087E+02  0.18293769192E+03 -0.20144415597E+03  0.27316747228E+03  0.41800000000E+01 0. -1.
        -11    1    1    2    0    0 -0.18100466658E+02 -0.42561799085E+02 -0.15883371146E+02  0.48902097231E+02  0.00000000000E+00 0.  1.
         11    1    1    2    0    0  0.25824231164E+02 -0.13176095823E+03 -0.22508991969E+03  0.26209409184E+03  0.00000000000E+00 0. -1.
</event>
<event>
 6    1  0.8989754E-006  0.1267216E+03  0.7561462E-02  0.1232403E+00
          1   -1    0    0  501    0  0.00000000000E+00  0.00000000000E+00  0.99757064880E+02  0.99757064880E+02  0.00000000000E+00 0. -1.
         -1   -1    0    0    0  501 -0.00000000000E+00 -0.00000000000E+00 -0.18881287627E+03  0.18881287627E+03  0.00000000000E+00 0.  1.
          5    1    1    2  502    0  0.10819522254E+03  0.29761235411E+02 -0.23849213368E+02  0.11479631828E+03  0.41800000000E+01 0.  1.
         -5    1    1    2    0  502 -0.32770560143E+02  0.86474289847E+01 -0.30295978985E+02  0.45650918750E+02  0.41800000000E+01 0.  1.
        -11    1    1    2    0    0 -0.25311538477E+02  0.18367566355E+02  0.17678627189E+02  0.35924578400E+02  0.00000000000E+00 0.  1.
         11    1    1    2    0    0 -0.50113123917E+02 -0.56776230751E+02 -0.52589246229E+02  0.92198125719E+02  0.00000000000E+00 0. -1.
</event>
<event>
 6    1  0.8989754E-006  0.1158220E+03  0.7561462E-02  0.1250153E+00
         -2   -1    0    0    0  501 -0.00000000000E+00  0.00000000000E+00  0.89314105693E+02  0.89314105693E+02  0.00000000000E+00 0.  1.
          2   -1    0    0  501    0  0.00000000000E+00 -0.00000000000E+00 -0.26254653868E+03  0.26254653868E+03  0.00000000000E+00 0. -1.
          5    1    1    2  502    0 -0.27185604438E+02 -0.34746098013E+02  0.85408025177E+01  0.45130545348E+02  0.41800000000E+01 0.  1.
         -5    1    1    2    0  502  0.75430214620E+02  0.49648084849E+02  0.75707402845E+01  0.90716250558E+02  0.41800000000E+01 0.  1.
        -11    1    1    2    0    0 -0.20482339979E+02  0.34580140824E+02 -0.11921129761E+03  0.12580399782E+03  0.00000000000E+00 0.  1.
         11    1    1    2    0    0 -0.27762270204E+02 -0.49482127660E+02 -0.70132678181E+02  0.90209850645E+02  0.00000000000E+00 0. -1.
</event>
<event>
 6    1  0.8989754E-006  0.1070977E+03  0.7561462E-02  0.1266041E+00
         -2   -1    0    0    0  501 -0.00000000000E+00  0.00000000000E+00  0.60598281568E+02  0.60598281568E+02  0.00000000000E+00 0.  1.
          2   -1    0    0  501    0  0.00000000000E+00 -0.00000000000E+00 -0.27425405070E+03  0.27425405070E+03  0.00000000000E+00 0. -1.
          5    1    1    2  502    0 -0.11434993266E+02 -0.86680482240E+02 -0.20662010350E+02  0.89936956498E+02  0.41800000000E+01 0.  1.
         -5    1    1    2    0  502  0.21118765963E+02  0.37633835582E+02 -0.35399942521E+02  0.55972637842E+02  0.41800000000E+01 0.  1.
        -11    1    1    2    0    0  0.27322629457E+02  0.33341459183E+02 -0.23801315898E+02  0.49241056237E+02  0.00000000000E+00 0.  1.
         11    1    1    2    0    0 -0.37006402153E+02  0.15705187475E+02 -0.13379250037E+03  0.13970168170E+03  0.00000000000E+00 0. -1.
</event>
<event>
 6    1  0.8989754E-006  0.1146647E+03  0.7561462E-02  0.1252167E+00
         -1   -1    0    0    0  501 -0.00000000000E+00  0.00000000000E+00  0.16781567137E+03  0.16781567137E+03  0.00000000000E+00 0.  1.
          1   -1    0    0  501    0  0.00000000000E+00 -0.00000000000E+00 -0.11597830890E+03  0.11597830890E+03  0.00000000000E+00 0. -1.
          5    1    1    2  502    0 -0.34682687914E+02  0.81732295831E+02  0.80855665886E+02  0.12015892863E+03  0.41800000000E+01 0.  1.
         -5    1    1    2    0  502 -0.25801374080E+02 -0.27478747505E+02 -0.17655031837E+02  0.41832583210E+02  0.41800000000E+01 0.  1.
        -11    1    1    2    0    0  0.47914011392E+02 -0.11275941863E+01  0.27064693299E+02  0.55041089921E+02  0.00000000000E+00 0.  1.
         11    1    1    2    0    0  0.12570050602E+02 -0.53125954140E+02 -0.38427964880E+02  0.66761378508E+02  0.00000000000E+00 0. -1.
</event>
<event>
 6    1  0.8989754E-006  0.1466784E+03  0.7561462E-02  0.1204615E+00
         -1   -1    0    0    0  501 -0.00000000000E+00  0.00000000000E+00  0.35973037364E+03  0.35973037364E+03  0.00000000000E+00 0.  1.
          1   -1    0    0  501    0  0.00000000000E+00 -0.00000000000E+00 -0.15366469242E+03  0.15366469242E+03  0.00000000000E+00 0. -1.
          5    1    1    2  502    0 -0.91031023006E+02 -0.44766671826E+02  0.74977272632E+02  0.12621317628E+03  0.41800000000E+01 0.  1.
         -5    1    1    2    0  502 -0.26637648521E+02 -0.14250851318E+02  0.20662062374E+03  0.20885929627E+03  0.41800000000E+01 0.  1.
        -11    1    1    2    0    0  0.52444781799E+02 -0.22382924653E+02 -0.22418343677E+02  0.61270160659E+02  0.00000000000E+00 0.  1.
         11    1    1    2    0    0  0.65223889728E+02  0.81400447798E+02 -0.53113871479E+02  0.11705243285E+03  0.00000000000E+00 0. -1.
</event>
<event>
 6    1  0.8989754E-006  0.1247633E+03  0.7561462E-02  0.1235440E+00
          1   -1    0    0  501    0  0.00000000000E+00  0.00000000000E+00  0.19277058873E+03  0.19277058873E+03  0.00000000000E+00 0. -1.
         -1   -1    0    0    0  501 -0.00000000000E+00 -0.00000000000E+00 -0.14256907374E+03  0.14256907374E+03  0.00000000000E+00 0.  1.
          5    1    1    2  502    0 -0.28310257981E+02  0.21544656887E+02 -0.12186012014E+02  0.37836678450E+02  0.41800000000E+01 0. -1.
         -5    1    1    2    0  502  0.97031610871E+02 -0.49283112563E+02 -0.63565053786E+02  0.12610292286E+03  0.41800000000E+01 0. -1.
        -11    1    1    2    0    0 -0.57167296317E+02 -0.16155852318E+02  0.10664474659E+03  0.12207462188E+03  0.00000000000E+00 0.  1.
         11    1    1    2    0    0 -0.11554056573E+02  0.43894307994E+02  0.19307834196E+02  0.49325439267E+02  0.00000000000E+00 0. -1.
</event>
<event>
 6    1  0.8989754E-006  0.9909405E+02  0.7561462E-02  0.1282213E+00
         -3   -1    0    0    0  501 -0.00000000000E+00  0.00000000000E+00  0.18841479216E+03  0.18841479216E+03  0.00000000000E+00 0.  1.
          3   -1    0    0  501    0  0.00000000000E+00 -0.00000000000E+00 -0.14732493699E+03  0.14732493699E+03  0.00000000000E+00 0. -1.
          5    1    1    2  502    0  0.53230820496E+02  0.22451634456E+02  0.51975949839E+02  0.77823954552E+02  0.41800000000E+01 0.  1.
         -5    1    1    2    0  502 -0.35195327438E+02 -0.66484424997E+02  0.87679644359E+02  0.11560312399E+03  0.41800000000E+01 0.  1.
        -11    1    1    2    0    0 -0.16314294246E+02 -0.40503542973E+01  0.12714375905E+02  0.21076454193E+02  0.00000000000E+00 0.  1.
         11    1    1    2    0    0 -0.17211988127E+01  0.48083144838E+02 -0.11128011494E+03  0.12123619642E+03  0.00000000000E+00 0. -1.
</event>
<event>
 6    1  0.8989754E-006  0.1074816E+03  0.7561462E-02  0.1265306E+00
         -1   -1    0    0    0  501 -0.00000000000E+00  0.00000000000E+00  0.29964707708E+03  0.29964707708E+03  0.00000000000E+00 0.  1.
          1   -1    0    0  501    0  0.00000000000E+00 -0.00000000000E+00 -0.74958795509E+02  0.74958795509E+02  0.00000000000E+00 0. -1.
          5    1    1    2  502    0  0.84484012736E+02 -0.38901567238E+02  0.18582351643E+03  0.20784304656E+03  0.41800000000E+01 0.  1.
         -5    1    1    2    0  502 -0.34118892036E+02 -0.22352845790E+02  0.19710511013E+02  0.45494232085E+02  0.41800000000E+01 0.  1.
        -11    1    1    2    0    0 -0.75491715869E+01  0.20091790891E+02  0.49949995190E+02  0.54366093039E+02  0.00000000000E+00 0.  1.
         11    1    1    2    0    0 -0.42815949113E+02  0.41162622138E+02 -0.30795741068E+02  0.66902500907E+02  0.00000000000E+00 0. -1.
</event>
<event>
 6    1  0.8989754E-006  0.1148347E+03  0.7561462E-02  0.1251870E+00
         -1   -1    0    0    0  501 -0.00000000000E+00  0.00000000000E+00  0.68571698472E+02  0.68571698472E+02  0.00000000000E+00 0.  1.
          1   -1    0    0  501    0  0.00000000000E+00 -0.00000000000E+00 -0.26022197258E+03  0.26022197258E+03  0.00000000000E+00 0. -1.
          5    1    1    2  502    0 -0.14950639177E+02  0.32877937344E+02  0.14290164497E+02  0.39066118019E+02  0.41800000000E+01 0.  1.
         -5    1    1    2    0  502  0.71413073902E+02  0.21223953767E+02 -0.12422743418E+03  0.14491449596E+03  0.41800000000E+01 0.  1.
        -11    1    1    2    0    0  0.15874808049E+02 -0.42581471872E+02 -0.22975129232E+02  0.50921977972E+02  0.00000000000E+00 0.  1.
         11    1    1    2    0    0 -0.72337242774E+02 -0.11520419238E+02 -0.58737875195E+02  0.93891079097E+02  0.00000000000E+00 0. -1.
</event>
<event>
 6    1  0.8989754E-006  0.1399419E+03  0.7561462E-02  0.1213407E+00
          3   -1    0    0  501    0  0.00000000000E+00  0.00000000000E+00  0.62177510096E+02  0.62177510096E+02  0.00000000000E+00 0. -1.
         -3   -1    0    0    0  501 -0.00000000000E+00 -0.00000000000E+00 -0.38180787968E+03  0.38180787968E+03  0.00000000000E+00 0.  1.
          5    1    1    2  502    0  0.18244895089E+01  0.12188797159E+03 -0.14529765761E+03  0.18970737489E+03  0.41800000000E+01 0. -1.
         -5    1    1    2    0  502 -0.55431208369E+01 -0.23865401275E+02 -0.96616275970E+02  0.99762020574E+02  0.41800000000E+01 0. -1.
        -11    1    1    2    0    0  0.43569757313E+02 -0.25984808198E+02 -0.23253903176E+02  0.55805716753E+02  0.00000000000E+00 0.  1.
         11    1    1    2    0    0 -0.39851125985E+02 -0.72037762120E+02 -0.54462532829E+02  0.98710277558E+02  0.00000000000E+00 0. -1.
</event>
<event>
 6    1  0.8989754E-006  0.1405098E+03  0.7561462E-02  0.1212645E+00
          2   -1    0    0  501    0  0.00000000000E+00  0.00000000000E+00  0.29849148379E+03  0.29849148379E+03  0.00000000000E+00 0. -1.
         -2   -1    0    0    0  501 -0.00000000000E+00 -0.00000000000E+00 -0.95617370254E+02  0.95617370254E+02  0.00000000000E+00 0.  1.
          5    1    1    2  502    0  0.12654701437E+02  0.36445442682E+02  0.37710291383E+01  0.38988521664E+02  0.41800000000E+01 0.  1.
         -5    1    1    2    0  502 -0.10624049438E+03 -0.51243572523E+02  0.21321849516E+01  0.11804645265E+03  0.41800000000E+01 0.  1.
        -11    1    1    2    0    0 -0.74309806237E+01 -0.16777954132E+02  0.70569354067E+01  0.19660100590E+02  0.00000000000E+00 0.  1.
         11    1    1    2    0    0  0.10101677357E+03  0.31576083972E+02  0.18991396404E+03  0.21741377914E+03  0.00000000000E+00 0. -1.
</event>
<event>
 6    1  0.8989754E-006  0.7992545E+02  0.7561462E-02  0.1329263E+00
         -1   -1    0    0    0  501 -0.00000000000E+00  0.00000000000E+00  0.46024559216E+02  0.46024559216E+02  0.00000000000E+00 0.  1.
          1   -1    0    0  501    0  0.00000000000E+00 -0.00000000000E+00 -0.31777911581E+03  0.31777911581E+03  0.00000000000E+00 0. -1.
          5    1    1    2  502    0  0.64610833740E+01  0.23700231248E+01  0.23221912909E+02  0.24578288124E+02  0.41800000000E+01 0.  1.
         -5    1    1    2    0  502 -0.22190590920E+02 -0.50508219666E+02 -0.15286814616E+03  0.16257196896E+03  0.41800000000E+01 0.  1.
        -11    1    1    2    0    0  0.20329499246E+02 -0.19800443876E+02 -0.14163915835E+02  0.31716913927E+02  0.00000000000E+00 0.  1.
         11    1    1    2    0    0 -0.45999916997E+01  0.67938640417E+02 -0.12794440751E+03  0.14493650402E+03  0.00000000000E+00 0. -1.
</event>
<event>
 6    1  0.8989754E-006  0.1077800E+03  0.7561462E-02  0.1264737E+00
          1   -1    0    0  501    0  0.00000000000E+00  0.00000000000E+00  0.43142137279E+03  0.43142137279E+03  0.00000000000E+00 0. -1.
         -1   -1    0    0    0  501 -0.00000000000E+00 -0.00000000000E+00 -0.69645117909E+02  0.69645117909E+02  0.00000000000E+00 0.  1.
          5    1    1    2  502    0 -0.69791768740E+02  0.29613646377E+02 -0.21519301013E+02  0.78920287326E+02  0.41800000000E+01 0.  1.
         -5    1    1    2    0  502  0.44648357035E+02  0.18151105787E+01  0.27484307143E+02  0.52627273837E+02  0.41800000000E+01 0.  1.
        -11    1    1    2    0    0 -0.20328878809E+02 -0.43229887406E+02  0.12168937221E+03  0.13073021758E+03  0.00000000000E+00 0.  1.
         11    1    1    2    0    0  0.45472290514E+02  0.11801130450E+02  0.23412187654E+03  0.23878871196E+03  0.00000000000E+00 0. -1.
</event>
<event>
 6    1  0.8989754E-006  0.1199634E+03  0.7561462E-02  0.1243157E+00
          1   -1    0    0  501    0  0.00000000000E+00  0.00000000000E+00  0.27205223134E+03  0.27205223134E+03  0.00000000000E+00 0. -1.
         -1   -1    0    0    0  501 -0.00000000000E+00 -0.00000000000E+00 -0.15525540310E+03  0.15525540310E+03  0.00000000000E+00 0.  1.
          5    1    1    2  502    0 -0.34360161142E+02  0.18656553247E+02 -0.34149631656E+02  0.52080297571E+02  0.41800000000E+01 0. -1.
         -5    1    1    2    0  502  0.16440885303E+02 -0.96523841163E+02 -0.71739004960E+02  0.12145415536E+03  0.41800000000E+01 0.  1.
        -11    1    1    2    0    0  0.29507124867E+02  0.84323638725E+02  0.22328561735E+03  0.24049451840E+03  0.00000000000E+00 0. -1.
         11    1    1    2    0    0 -0.11587849027E+02 -0.64563508087E+01 -0.60015248475E+00  0.13278663105E+02  0.00000000000E+00 0.  1.
</event>
<event>
 6    1  0.8989754E-006  0.9969614E+02  0.7561462E-02  0.1280936E+00
          2   -1    0    0  501    0  0.00000000000E+00  0.00000000000E+00  0.77647486545E+03  0.77647486545E+03  0.00000000000E+00 0. -1.
         -2   -1    0    0    0  501 -0.00000000000E+00 -0.00000000000E+00 -0.18558381028E+02  0.18558381028E+02  0.00000000000E+00 0.  1.
          5    1    1    2  502    0 -0.23135219647E+02 -0.27427849735E+02  0.25958889014E+02  0.44484397805E+02  0.41800000000E+01 0. -1.
         -5    1    1    2    0  502  0.47935345484E+02  0.48438253964E+02  0.26937670800E+03  0.27789448538E+03  0.41800000000E+01 0. -1.
        -11    1    1    2    0    0 -0.14856567587E+01 -0.54316447927E+02  0.31125987636E+03  0.31596707791E+03  0.00000000000E+00 0. -1.
         11    1    1    2    0    0 -0.23314469078E+02  0.33306043697E+02  0.15132101105E+03  0.15668728538E+03  0.00000000000E+00 0.  1.
</event>
<event>
 6    1  0.8989754E-006  0.1262159E+03  0.7561462E-02  0.1233181E+00
          2   -1    0    0  501    0  0.00000000000E+00  0.00000000000E+00  0.83502403657E+03  0.83502403657E+03  0.00000000000E+00 0. -1.
         -2   -1    0    0    0  501 -0.00000000000E+00 -0.00000000000E+00 -0.28012741867E+02  0.28012741867E+02  0.00000000000E+00 0.  1.
          5    1    1    2  502    0 -0.10457821933E+03 -0.26726901016E+02  0.12673701995E+03  0.16652530085E+03  0.41800000000E+01 0. -1.
         -5    1    1    2    0  502  0.21866185184E+02  0.11546841594E+01  0.12999731196E+03  0.13189479469E+03  0.41800000000E+01 0. -1.
        -11    1    1    2    0    0  0.25044109195E+02  0.52731168756E+02  0.19075033418E+03  0.19948301570E+03  0.00000000000E+00 0.  1.
         11    1    1    2    0    0  0.57667924955E+02 -0.27158951900E+02  0.35952662862E+03  0.36513366720E+03  0.00000000000E+00 0. -1.
</event>
<event>
 6    1  0.8989754E-006  0.9412390E+02  0.7561462E-02  0.1293162E+00
          2   -1    0    0  501    0  0.00000000000E+00  0.00000000000E+00  0.54301833535E+03  0.54301833535E+03  0.00000000000E+00 0.  1.
         -2   -1    0    0    0  501 -0.00000000000E+00 -0.00000000000E+00 -0.34227163274E+02  0.34227163274E+02  0.00000000000E+00 0. -1.
          5    1    1    2  502    0  0.56392121700E+02 -0.48965332178E+02  0.44406593455E+02  0.86989040043E+02  0.41800000000E+01 0.  1.
         -5    1    1    2    0  502  0.52394394181E+01 -0.21148945565E+01  0.19243053306E+03  0.19255884025E+03  0.41800000000E+01 0.  1.
        -11    1    1    2    0    0 -0.77143994043E+02  0.37382426675E+02  0.26006895981E+03  0.27383298833E+03  0.00000000000E+00 0.  1.
         11    1    1    2    0    0  0.15512432925E+02  0.13697800060E+02  0.11885085746E+02  0.23864629998E+02  0.00000000000E+00 0. -1.
</event>
<event>
 6    1  0.8989754E-006  0.1058434E+03  0.7561462E-02  0.1268467E+00
         -3   -1    0    0    0  501 -0.00000000000E+00  0.00000000000E+00  0.34821256665E+03  0.34821256665E+03  0.00000000000E+00 0.  1.
          3   -1    0    0  501    0  0.00000000000E+00 -0.00000000000E+00 -0.38678739951E+02  0.38678739951E+02  0.00000000000E+00 0. -1.
          5    1    1    2  502    0 -0.68434085295E+02  0.48291367428E+02  0.10875303005E+03  0.13733162106E+03  0.41800000000E+01 0.  1.
         -5    1    1    2    0  502  0.32093238100E+02 -0.30159335888E+02  0.10068576423E+03  0.10997571091E+03  0.41800000000E+01 0.  1.
        -11    1    1    2    0    0  0.39392027221E+02 -0.43125198607E+02  0.98297444086E+02  0.11434116528E+03  0.00000000000E+00 0.  1.
         11    1    1    2    0    0 -0.30511800249E+01  0.24993167067E+02  0.17975883271E+01  0.25242809340E+02  0.00000000000E+00 0. -1.
</event>
<event>
 6    1  0.8989754E-006  0.1099060E+03  0.7561462E-02  0.1260744E+00
         -1   -1    0    0    0  501 -0.00000000000E+00  0.00000000000E+00  0.10056866414E+03  0.10056866414E+03  0.00000000000E+00 0.  1.
          1   -1    0    0  501    0  0.00000000000E+00 -0.00000000000E+00 -0.28673376136E+03  0.28673376136E+03  0.00000000000E+00 0. -1.
          5    1    1    2  502    0  0.23892990260E+02 -0.30353171020E+02  0.16348361711E+02  0.42153663010E+02  0.41800000000E+01 0.  1.
         -5    1    1    2    0  502 -0.96771586440E+02  0.39199299906E+02  0.66703804338E+01  0.10470573733E+03  0.41800000000E+01 0.  1.
        -11    1    1    2    0    0  0.46278104531E+02  0.48742719032E+01 -0.20500756331E+03  0.21022255469E+03  0.00000000000E+00 0. -1.
         11    1    1    2    0    0  0.26600491650E+02 -0.13720400789E+02 -0.41762760467E+01  0.30220470471E+02  0.00000000000E+00 0.  1.
</event>
<event>
 6    1  0.8989754E-006  0.1042847E+03  0.7561462E-02  0.1271535E+00
          2   -1    0    0  501    0  0.00000000000E+00  0.00000000000E+00  0.12744029011E+03  0.12744029011E+03  0.00000000000E+00 0. -1.
         -2   -1    0    0    0  501 -0.00000000000E+00 -0.00000000000E+00 -0.20584590080E+03  0.20584590080E+03  0.00000000000E+00 0.  1.
          5    1    1    2  502    0 -0.18039008856E+01  0.70793120974E+02 -0.91212270353E+02  0.11555116052E+03  0.41800000000E+01 0. -1.
         -5    1    1    2    0  502  0.16487647967E+01 -0.54968712624E+02 -0.72935652941E+02  0.91440470596E+02  0.41800000000E+01 0. -1.
        -11    1    1    2    0    0  0.40378727206E+02 -0.41329117743E+01  0.13480436827E+02  0.42769670885E+02  0.00000000000E+00 0.  1.
         11    1    1    2    0    0 -0.40223591117E+02 -0.11691496575E+02  0.72261875777E+02  0.83524888898E+02  0.00000000000E+00 0. -1.
</event>
<event>
 6    1  0.8989754E-006  0.2663872E+03  0.7561462E-02  0.1103365E+00
          1   -1    0    0  501    0  0.00000000000E+00  0.00000000000E+00  0.37726680370E+03  0.37726680370E+03  0.00000000000E+00 0. -1.
         -1   -1    0    0    0  501 -0.00000000000E+00 -0.00000000000E+00 -0.24362378395E+03  0.24362378395E+03  0.00000000000E+00 0.  1.
          5    1    1    2  502    0 -0.10401047281E+03  0.50002977714E+02 -0.64808692322E+02  0.13242399796E+03  0.41800000000E+01 0.  1.
         -5    1    1    2    0  502 -0.68447830782E+02  0.14277657383E+03  0.15305174397E+02  0.15912880423E+03  0.41800000000E+01 0.  1.
        -11    1    1    2    0    0  0.15942934797E+03 -0.17343531160E+03  0.19248286627E+03  0.30421567697E+03  0.00000000000E+00 0. -1.
         11    1    1    2    0    0  0.13028955621E+02 -0.19344239940E+02 -0.93363286032E+01  0.25122108495E+02  0.00000000000E+00 0.  1.
</event>
<event>
 6    1  0.8989754E-006  0.9166536E+02  0.7561462E-02  0.1298868E+00
         -2   -1    0    0    0  501 -0.00000000000E+00  0.00000000000E+00  0.52179810748E+02  0.52179810748E+02  0.00000000000E+00 0.  1.
          2   -1    0    0  501    0  0.00000000000E+00 -0.00000000000E+00 -0.27974769961E+03  0.27974769961E+03  0.00000000000E+00 0. -1.
          5    1    1    2  502    0 -0.76242834582E+01 -0.25378716570E+02 -0.12298509044E+03  0.12587697892E+03  0.41800000000E+01 0.  1.
         -5    1    1    2    0  502 -0.38382374934E+02  0.39510896252E+02  0.11879832607E+01  0.55255780987E+02  0.41800000000E+01 0.  1.
        -11    1    1    2    0    0  0.70854000978E+02 -0.23584827802E+02 -0.52578929422E+02  0.91329498938E+02  0.00000000000E+00 0.  1.
         11    1    1    2    0    0 -0.24847342586E+02  0.94526481195E+01 -0.53191852265E+02  0.59465251512E+02  0.00000000000E+00 0. -1.
</event>
<event>
 6    1  0.8989754E-006  0.2301637E+03  0.7561462E-02  0.1126525E+00
         -1   -1    0    0    0  501 -0.00000000000E+00  0.00000000000E+00  0.33426927747E+03  0.33426927747E+03  0.00000000000E+00 0.  1.
          1   -1    0    0  501    0  0.00000000000E+00 -0.00000000000E+00 -0.19386074648E+03  0.19386074648E+03  0.00000000000E+00 0. -1.
          5    1    1    2  502    0  0.15533065305E+03  0.14668081631E+03  0.14940894294E+03  0.26073622357E+03  0.41800000000E+01 0.  1.
         -5    1    1    2    0  502 -0.22474555136E+02  0.93678386501E+01  0.30729029333E+02  0.39428513455E+02  0.41800000000E+01 0.  1.
        -11    1    1    2    0    0  0.12385528244E+02 -0.15352161384E+02  0.60526656097E+01  0.20633102772E+02  0.00000000000E+00 0.  1.
         11    1    1    2    0    0 -0.14524162616E+03 -0.14069649358E+03 -0.45782106888E+02  0.20733218415E+03  0.00000000000E+00 0. -1.
</event>
<event>
 6    1  0.8989754E-006  0.7614470E+02  0.7561462E-02  0.1340362E+00
         -1   -1    0    0    0  501 -0.00000000000E+00  0.00000000000E+00  0.87351645345E+02  0.87351645345E+02  0.00000000000E+00 0.  1.
          1   -1    0    0  501    0  0.00000000000E+00 -0.00000000000E+00 -0.14792022766E+03  0.14792022766E+03  0.00000000000E+00 0. -1.
          5    1    1    2  502    0  0.51220000326E+02 -0.10644757995E+02 -0.53517918394E+02  0.74956249208E+02  0.41800000000E+01 0. -1.
         -5    1    1    2    0  502 -0.28317760413E+02 -0.13111330136E+02  0.44738344985E+02  0.54706438787E+02  0.41800000000E+01 0. -1.
        -11    1    1    2    0    0 -0.46772913066E+01  0.42162484914E+02  0.54618110472E+01  0.42771293738E+02  0.00000000000E+00 0.  1.
         11    1    1    2    0    0 -0.18224948606E+02 -0.18406396783E+02 -0.57250819955E+02  0.62837891274E+02  0.00000000000E+00 0. -1.
</event>
<event>
 6    1  0.8989754E-006  0.1055331E+03  0.7561462E-02  0.1269073E+00
          1   -1    0    0  501    0  0.00000000000E+00  0.00000000000E+00  0.15578563228E+03  0.15578563228E+03  0.00000000000E+00 0. -1.
         -1   -1    0    0    0  501 -0.00000000000E+00 -0.00000000000E+00 -0.84340092599E+02  0.84340092599E+02  0.00000000000E+00 0.  1.
          5    1    1    2  502    0  0.27419257396E+02  0.49682039431E+02 -0.97167433685E+01  0.57723549959E+02  0.41800000000E+01 0. -1.
         -5    1    1    2    0  502 -0.37432035766E+02 -0.55462313085E+02  0.10774800886E+02  0.67902829163E+02  0.41800000000E+01 0. -1.
        -11    1    1    2    0    0 -0.32152728940E+02 -0.19843604436E+02  0.45794616954E+02  0.59369298103E+02  0.00000000000E+00 0. -1.
         11    1    1    2    0    0  0.42165507309E+02  0.25623878090E+02  0.24592865211E+02  0.55130047653E+02  0.00000000000E+00 0.  1.
</event>
<event>
 6    1  0.8989754E-006  0.1080473E+03  0.7561462E-02  0.1264229E+00
         -2   -1    0    0    0  501 -0.00000000000E+00  0.00000000000E+00  0.13435797664E+02  0.13435797664E+02  0.00000000000E+00 0.  1.
          2   -1    0    0  501    0  0.00000000000E+00 -0.00000000000E+00 -0.13687235277E+04  0.13687235277E+04  0.00000000000E+00 0. -1.
          5    1    1    2  502    0  0.40559683820E+01 -0.11143543202E+02 -0.33621374414E+01  0.13015598441E+02  0.41800000000E+01 0. -1.
         -5    1    1    2    0  502  0.68527074639E+02  0.42957310825E+02 -0.78233816074E+03  0.78651876052E+03  0.41800000000E+01 0. -1.
        -11    1    1    2    0    0 -0.35004183401E+02  0.32681983667E+02 -0.22890990714E+03  0.23386566764E+03  0.00000000000E+00 0. -1.
         11    1    1    2    0    0 -0.37578859620E+02 -0.64495751290E+02 -0.34067752471E+03  0.34875929875E+03  0.00000000000E+00 0.  1.
</event>
<event>
 6    1  0.8989754E-006  0.1048622E+03  0.7561462E-02  0.1270391E+00
         -1   -1    0    0    0  501 -0.00000000000E+00  0.00000000000E+00  0.84307989588E+02  0.84307989588E+02  0.00000000000E+00 0.  1.
          1   -1    0    0  501    0  0.00000000000E+00 -0.00000000000E+00 -0.19927561527E+03  0.19927561527E+03  0.00000000000E+00 0. -1.
          5    1    1    2  502    0  0.65298575303E+02 -0.29656854176E+02 -0.62870054258E+02  0.95464910091E+02  0.41800000000E+01 0. -1.
         -5    1    1    2    0  502 -0.68356635269E+00  0.32893637275E+02  0.34867783729E+02  0.48121651866E+02  0.41800000000E+01 0. -1.
        -11    1    1    2    0    0 -0.44317489113E+02 -0.41940377874E+02 -0.29423824112E+02  0.67740656646E+02  0.00000000000E+00 0.  1.
         11    1    1    2    0    0 -0.20297519837E+02  0.38703594776E+02 -0.57541531036E+02  0.72256386251E+02  0.00000000000E+00 0. -1.
</event>
<event>
 6    1  0.8989754E-006  0.1093854E+03  0.7561462E-02  0.1261712E+00
         -2   -1    0    0    0  501 -0.00000000000E+00  0.00000000000E+00  0.34040201018E+02  0.34040201018E+02  0.00000000000E+00 0.  1.
          2   -1    0    0  501    0  0.00000000000E+00 -0.00000000000E+00 -0.63835781087E+03  0.63835781087E+03  0.00000000000E+00 0. -1.
          5    1    1    2  502    0 -0.51015266380E+02  0.47673563743E+02 -0.16901089848E+03  0.18291386577E+03  0.41800000000E+01 0. -1.
         -5    1    1    2    0  502  0.59820763205E+02 -0.20285195635E+01 -0.18170832739E+02  0.62692026323E+02  0.41800000000E+01 0.  1.
        -11    1    1    2    0    0  0.67608832963E+01 -0.64226442672E+02 -0.33436944436E+03  0.34054907253E+03  0.00000000000E+00 0. -1.
         11    1    1    2    0    0 -0.15566380121E+02  0.18581398492E+02 -0.82766434280E+02  0.86243047276E+02  0.00000000000E+00 0.  1.
</event>
<event>
 6    1  0.8989754E-006  0.9831704E+02  0.7561462E-02  0.1283875E+00
          2   -1    0    0  501    0  0.00000000000E+00  0.00000000000E+00  0.22538571178E+03  0.22538571178E+03  0.00000000000E+00 0. -1.
         -2   -1    0    0    0  501 -0.00000000000E+00 -0.00000000000E+00 -0.74020700246E+02  0.74020700246E+02  0.00000000000E+00 0.  1.
          5    1    1    2  502    0  0.78753242417E+02 -0.17553185957E+02 -0.15600955745E+02  0.82286388599E+02  0.41800000000E+01 0.  1.
         -5    1    1    2    0  502 -0.29871591707E+02  0.18832242518E+02  0.41233413224E+02  0.54448435381E+02  0.41800000000E+01 0.  1.
        -11    1    1    2    0    0 -0.38533347215E+02 -0.30588648728E+02  0.21121924624E+02  0.53540825343E+02  0.00000000000E+00 0.  1.
         11    1    1    2    0    0 -0.10348303496E+02  0.29309592166E+02  0.10461062943E+03  0.10913076270E+03  0.00000000000E+00 0. -1.
</event>
<event>
 6    1  0.8989754E-006  0.1067347E+03  0.7561462E-02  0.1266739E+00
          1   -1    0    0  501    0  0.00000000000E+00  0.00000000000E+00  0.12900825776E+03  0.12900825776E+03  0.00000000000E+00 0. -1.
         -1   -1    0    0    0  501 -0.00000000000E+00 -0.00000000000E+00 -0.10020110875E+03  0.10020110875E+03  0.00000000000E+00 0.  1.
          5    1    1    2  502    0  0.62358468441E+02  0.33097545116E+02  0.23520297610E+02  0.74529879100E+02  0.41800000000E+01 0. -1.
         -5    1    1    2    0  502 -0.31196916146E+02 -0.43063339816E+02 -0.13910012952E+02  0.55124038980E+02  0.41800000000E+01 0. -1.
        -11    1    1    2    0    0 -0.29992825718E+02 -0.34050445978E+02 -0.10333670137E+02  0.46538018913E+02  0.00000000000E+00 0.  1.
         11    1    1    2    0    0 -0.11687265765E+01  0.44016240678E+02  0.29530534494E+02  0.53017429519E+02  0.00000000000E+00 0. -1.
</event>
<event>
 6    1  0.8989754E-006  0.1420071E+03  0.7561462E-02  0.1210654E+00
         -2   -1    0    0    0  501 -0.00000000000E+00  0.00000000000E+00  0.18861776756E+03  0.18861776756E+03  0.00000000000E+00 0.  1.
          2   -1    0    0  501    0  0.00000000000E+00 -0.00000000000E+00 -0.14976548208E+03  0.14976548208E+03  0.00000000000E+00 0. -1.
          5    1    1    2  502    0 -0.35353618570E+02  0.99233363251E+01  0.16708069931E+02  0.40558389399E+02  0.41800000000E+01 0. -1.
         -5    1    1    2    0  502  0.10685973366E+03  0.56571065142E+02  0.86820974250E+02  0.14891152426E+03  0.41800000000E+01 0. -1.
        -11    1    1    2    0    0  0.61104230095E+01  0.13374472851E+02  0.71903205716E+01  0.16368094065E+02  0.00000000000E+00 0.  1.
         11    1    1    2    0    0 -0.77616538098E+02 -0.79868874318E+02 -0.71867079267E+02  0.13254524191E+03  0.00000000000E+00 0. -1.
</event>
<event>
 6    1  0.8989754E-006  0.1466648E+03  0.7561462E-02  0.1204632E+00
          1   -1    0    0  501    0  0.00000000000E+00  0.00000000000E+00  0.61956742346E+03  0.61956742346E+03  0.00000000000E+00 0. -1.
         -1   -1    0    0    0  501 -0.00000000000E+00 -0.00000000000E+00 -0.41584141653E+02  0.41584141653E+02  0.00000000000E+00 0.  1.
          5    1    1    2  502    0 -0.11013237704E+01  0.31962259583E+02  0.85840112819E+02  0.91699489205E+02  0.41800000000E+01 0. -1.
         -5    1    1    2    0  502 -0.97106450082E+02 -0.94971535717E+02  0.21383175712E+03  0.25335893115E+03  0.41800000000E+01 0. -1.
        -11    1    1    2    0    0  0.57296541773E+02  0.99021122722E+01  0.45529312021E+02  0.73850279483E+02  0.00000000000E+00 0.  1.
         11    1    1    2    0    0  0.40911232079E+02  0.53107163862E+02  0.23278209985E+03  0.24224286527E+03  0.00000000000E+00 0. -1.
</event>
<event>
 6    1  0.8989754E-006  0.2524040E+03  0.7561462E-02  0.1111795E+00
          2   -1    0    0  501    0  0.00000000000E+00  0.00000000000E+00  0.13863851788E+04  0.13863851788E+04  0.00000000000E+00 0. -1.
         -2   -1    0    0    0  501 -0.00000000000E+00 -0.00000000000E+00 -0.60034251705E+02  0.60034251705E+02  0.00000000000E+00 0.  1.
          5    1    1    2  502    0 -0.41671090110E+02  0.13906120416E+03  0.34076700448E+03  0.37042424596E+03  0.41800000000E+01 0. -1.
         -5    1    1    2    0  502 -0.65189036511E+02  0.82801885386E+02  0.77783434995E+02  0.13104769309E+03  0.41800000000E+01 0. -1.
        -11    1    1    2    0    0  0.40589095777E+02 -0.28204089964E+02  0.99044322270E+02  0.11069201941E+03  0.00000000000E+00 0.  1.
         11    1    1    2    0    0  0.66271030844E+02 -0.19365899958E+03  0.80875616530E+03  0.83425547200E+03  0.00000000000E+00 0. -1.
</event>
<event>
 6    1  0.8989754E-006  0.1382408E+03  0.7561462E-02  0.1215716E+00
         -2   -1    0    0    0  501 -0.00000000000E+00  0.00000000000E+00  0.10952599715E+04  0.10952599715E+04  0.00000000000E+00 0.  1.
          2   -1    0    0  501    0  0.00000000000E+00 -0.00000000000E+00 -0.30106569850E+02  0.30106569850E+02  0.00000000000E+00 0. -1.
          5    1    1    2  502    0 -0.98547485481E+01 -0.27117544790E+01  0.40363687152E+03  0.40378789746E+03  0.41800000000E+01 0. -1.
         -5    1    1    2    0  502 -0.80546271046E+02  0.93668272182E+02  0.36178665110E+03  0.38231989264E+03  0.41800000000E+01 0. -1.
        -11    1    1    2    0    0  0.56294567279E+02 -0.91831618228E+02  0.27963532201E+03  0.29966320716E+03  0.00000000000E+00 0.  1.
         11    1    1    2    0    0  0.34106452315E+02  0.87510052476E+00  0.20094557025E+02  0.39595544098E+02  0.00000000000E+00 0. -1.
</event>
<event>
 6    1  0.8989754E-006  0.1260477E+03  0.7561462E-02  0.1233441E+00
          1   -1    0    0  501    0  0.00000000000E+00  0.00000000000E+00  0.72175676200E+03  0.72175676200E+03  0.00000000000E+00 0. -1.
         -1   -1    0    0    0  501 -0.00000000000E+00 -0.00000000000E+00 -0.39368696733E+02  0.39368696733E+02  0.00000000000E+00 0.  1.
          5    1    1    2  502    0 -0.11858083621E+02 -0.38278581621E+02  0.78514551099E+02  0.88248915531E+02  0.41800000000E+01 0. -1.
         -5    1    1    2    0  502 -0.51902452389E+02  0.77443834274E+02  0.48928312941E+02  0.10537012973E+03  0.41800000000E+01 0. -1.
        -11    1    1    2    0    0  0.87008218941E+02 -0.38711158274E+02  0.46015881388E+03  0.46990969125E+03  0.00000000000E+00 0. -1.
         11    1    1    2    0    0 -0.23247682931E+02 -0.45409437900E+00  0.94786387350E+02  0.97596722232E+02  0.00000000000E+00 0.  1.
</event>
<event>
 6    1  0.8989754E-006  0.9814284E+02  0.7561462E-02  0.1284250E+00
          2   -1    0    0  501    0  0.00000000000E+00  0.00000000000E+00  0.24118029937E+03  0.24118029937E+03  0.00000000000E+00 0. -1.
         -2   -1    0    0    0  501 -0.00000000000E+00 -0.00000000000E+00 -0.72720314607E+02  0.72720314607E+02  0.00000000000E+00 0.  1.
          5    1    1    2  502    0  0.92586728193E+02  0.72235905140E+01  0.82645319825E+01  0.93328759695E+02  0.41800000000E+01 0. -1.
         -5    1    1    2    0  502 -0.20204860712E+02 -0.15769120105E+02  0.62798238908E+02  0.67955814727E+02  0.41800000000E+01 0. -1.
        -11    1    1    2    0    0 -0.22207791212E+02  0.14953854512E+02 -0.14043839240E+02  0.30232981591E+02  0.00000000000E+00 0.  1.
         11    1    1    2    0    0 -0.50174076269E+02 -0.64083249205E+01  0.11144105311E+03  0.12238305796E+03  0.00000000000E+00 0. -1.
</event>
<event>
 6    1  0.8989754E-006  0.6992174E+02  0.7561462E-02  0.1360359E+00
          2   -1    0    0  501    0  0.00000000000E+00  0.00000000000E+00  0.17297206066E+03  0.17297206066E+03  0.00000000000E+00 0. -1.
         -2   -1    0    0    0  501 -0.00000000000E+00 -0.00000000000E+00 -0.11643655319E+03  0.11643655319E+03  0.00000000000E+00 0.  1.
          5    1    1    2  502    0 -0.19427600148E+02 -0.32847430426E+02  0.10670285292E+03  0.11339910297E+03  0.41800000000E+01 0. -1.
         -5    1    1    2    0  502  0.25212246069E+02  0.38961161076E+02 -0.67651902068E+02  0.82145490915E+02  0.41800000000E+01 0.  1.
        -11    1    1    2    0    0 -0.25117741585E+02  0.12468420723E+02  0.46533874410E+02  0.54330138278E+02  0.00000000000E+00 0. -1.
         11    1    1    2    0    0  0.19333095665E+02 -0.18582151373E+02 -0.29049317783E+02  0.39533881688E+02  0.00000000000E+00 0.  1.
</event>
<event>
 6    1  0.8989754E-006  0.1003230E+03  0.7561462E-02  0.1279618E+00
         -2   -1    0    0    0  501 -0.00000000000E+00  0.00000000000E+00  0.12928683801E+03  0.12928683801E+03  0.00000000000E+00 0.  1.
          2   -1    0    0  501    0  0.00000000000E+00 -0.00000000000E+00 -0.99650761664E+02  0.99650761664E+02  0.00000000000E+00 0. -1.
          5    1    1    2  502    0 -0.59857861458E+02 -0.36663596685E+02  0.31912907739E+02  0.77221039753E+02  0.41800000000E+01 0. -1.
         -5    1    1    2    0  502  0.41339389742E+02  0.35704536571E+02  0.76948533244E+01  0.55321263938E+02  0.41800000000E+01 0. -1.
        -11    1    1    2    0    0  0.46540709200E+02  0.64606032069E+01 -0.34866624334E+02  0.58510328140E+02  0.00000000000E+00 0. -1.
         11    1    1    2    0    0 -0.28022237485E+02 -0.55015430929E+01  0.24894939619E+02  0.37884967846E+02  0.00000000000E+00 0.  1.
</event>
<event>
 6    1  0.8989754E-006  0.1697560E+03  0.7561462E-02  0.1178102E+00
          2   -1    0    0  501    0  0.00000000000E+00  0.00000000000E+00  0.10034861369E+03  0.10034861369E+03  0.00000000000E+00 0. -1.
         -2   -1    0    0    0  501 -0.00000000000E+00 -0.00000000000E+00 -0.35778309876E+03  0.35778309876E+03  0.00000000000E+00 0.  1.
          5    1    1    2  502    0 -0.43646672431E+02 -0.10639137369E+03 -0.13881723098E+03  0.18031043350E+03  0.41800000000E+01 0. -1.
         -5    1    1    2    0  502 -0.43335497953E+02 -0.21050015890E+02  0.18665066941E+02  0.51835563812E+02  0.41800000000E+01 0. -1.
        -11    1    1    2    0    0  0.97378583970E+02  0.75796887455E+02 -0.11536254182E+03  0.16892682682E+03  0.00000000000E+00 0. -1.
         11    1    1    2    0    0 -0.10396413585E+02  0.51644502128E+02 -0.21919779206E+02  0.57058888316E+02  0.00000000000E+00 0.  1.
</event>
<event>
 6    1  0.8989754E-006  0.8793813E+02  0.7561462E-02  0.1307923E+00
         -1   -1    0    0    0  501 -0.00000000000E+00  0.00000000000E+00  0.19120470346E+03  0.19120470346E+03  0.00000000000E+00 0. -1.
          1   -1    0    0  501    0  0.00000000000E+00 -0.00000000000E+00 -0.81553964513E+02  0.81553964513E+02  0.00000000000E+00 0.  1.
          5    1    1    2  502    0  0.12809258027E+02 -0.38921841219E+02  0.10012502524E+01  0.41200263557E+02  0.41800000000E+01 0. -1.
         -5    1    1    2    0  502 -0.50852758706E+01  0.57089806912E+02  0.12434411616E+03  0.13698188825E+03  0.41800000000E+01 0. -1.
        -11    1    1    2    0    0 -0.25062866525E+02  0.22076510749E+02  0.19231069472E+02  0.38540285913E+02  0.00000000000E+00 0. -1.
         11    1    1    2    0    0  0.17338884368E+02 -0.40244476441E+02 -0.34925696936E+02  0.56036230258E+02  0.00000000000E+00 0.  1.
</event>
<event>
 6    1  0.8989754E-006  0.9281672E+02  0.7561462E-02  0.1296170E+00
          2   -1    0    0  501    0  0.00000000000E+00  0.00000000000E+00  0.44539716854E+03  0.44539716854E+03  0.00000000000E+00 0. -1.
         -2   -1    0    0    0  501 -0.00000000000E+00 -0.00000000000E+00 -0.34588506781E+02  0.34588506781E+02  0.00000000000E+00 0.  1.
          5    1    1    2  502    0 -0.17604285966E+02 -0.13403164057E+02  0.13599048026E+03  0.13784207925E+03  0.41800000000E+01 0. -1.
         -5    1    1    2    0  502  0.61963202621E+02  0.29345966082E+01  0.15973226573E+02  0.64192419361E+02  0.41800000000E+01 0. -1.
        -11    1    1    2    0    0 -0.24543999526E+02  0.50570845706E+02  0.15518237149E+03  0.16504964941E+03  0.00000000000E+00 0.  1.
         11    1    1    2    0    0 -0.19814917129E+02 -0.40102278257E+02  0.10366258344E+03  0.11290152730E+03  0.00000000000E+00 0. -1.
</event>
<event>
 6    1  0.8989754E-006  0.1535778E+03  0.7561462E-02  0.1196144E+00
          1   -1    0    0  501    0  0.00000000000E+00  0.00000000000E+00  0.72925389051E+02  0.72925389051E+02  0.00000000000E+00 0. -1.
         -1   -1    0    0    0  501 -0.00000000000E+00 -0.00000000000E+00 -0.40742346257E+03  0.40742346257E+03  0.00000000000E+00 0.  1.
          5    1    1    2  502    0  0.63320199526E+02  0.61822970230E+02 -0.94713052718E+02  0.12969025434E+03  0.41800000000E+01 0. -1.
         -5    1    1    2    0  502  0.65112331348E+02 -0.60582480181E+02 -0.13432490201E+03  0.16115366673E+03  0.41800000000E+01 0. -1.
        -11    1    1    2    0    0 -0.54327676857E+02  0.77484214080E+01 -0.10072822967E+03  0.11470706499E+03  0.00000000000E+00 0.  1.
         11    1    1    2    0    0 -0.74104854017E+02 -0.89889114566E+01 -0.47318891215E+01  0.74797865562E+02  0.00000000000E+00 0. -1.
</event>
<event>
 6    1  0.8989754E-006  0.1098471E+03  0.7561462E-02  0.1260853E+00
          2   -1    0    0  501    0  0.00000000000E+00  0.00000000000E+00  0.35683732450E+03  0.35683732450E+03  0.00000000000E+00 0. -1.
         -2   -1    0    0    0  501 -0.00000000000E+00 -0.00000000000E+00 -0.78262009128E+02  0.78262009128E+02  0.00000000000E+00 0.  1.
          5    1    1    2  502    0 -0.17157718052E+02  0.21837181974E+02 -0.41715146125E+02  0.50287927194E+02  0.41800000000E+01 0.  1.
         -5    1    1    2    0  502  0.75223994169E+02  0.14496177045E+02  0.52048492972E+02  0.92710875674E+02  0.41800000000E+01 0.  1.
        -11    1    1    2    0    0  0.24732549627E+02 -0.16548670134E+02  0.84745454811E+02  0.89818425756E+02  0.00000000000E+00 0. -1.
         11    1    1    2    0    0 -0.82798825744E+02 -0.19784688885E+02  0.18349651371E+03  0.20228210500E+03  0.00000000000E+00 0.  1.
</event>
<event>
 6    1  0.8989754E-006  0.1253317E+03  0.7561462E-02  0.1234552E+00
         -4   -1    0    0    0  501 -0.00000000000E+00  0.00000000000E+00  0.16003678458E+03  0.16003678458E+03  0.00000000000E+00 0.  1.
          4   -1    0    0  501    0  0.00000000000E+00 -0.00000000000E+00 -0.11705831097E+03  0.11705831097E+03  0.00000000000E+00 0. -1.
          5    1    1    2  502    0 -0.80534728827E+02 -0.80251402787E+02  0.18988555941E+02  0.11534369447E+03  0.41800000000E+01 0. -1.
         -5    1    1    2    0  502  0.33525866208E+02  0.11096995850E+02 -0.39944519796E+01  0.35784844117E+02  0.41800000000E+01 0. -1.
        -11    1    1    2    0    0  0.39550947973E+02  0.79373265757E+02 -0.68111536078E+01  0.88942591687E+02  0.00000000000E+00 0. -1.
         11    1    1    2    0    0  0.74579146462E+01 -0.10218858820E+02  0.34795523253E+02  0.37023965278E+02  0.00000000000E+00 0.  1.
</event>
<event>
 6    1  0.8989754E-006  0.3303242E+03  0.7561462E-02  0.1070994E+00
          2   -1    0    0  501    0  0.00000000000E+00  0.00000000000E+00  0.40454532809E+03  0.40454532809E+03  0.00000000000E+00 0. -1.
         -2   -1    0    0    0  501 -0.00000000000E+00 -0.00000000000E+00 -0.28408297745E+03  0.28408297745E+03  0.00000000000E+00 0.  1.
          5    1    1    2  502    0  0.26782168655E+02  0.31231200322E+03  0.49244164612E+01  0.31352479039E+03  0.41800000000E+01 0.  1.
         -5    1    1    2    0  502 -0.12578347101E+02  0.70652576557E+01  0.27452172583E+02  0.31292600740E+02  0.41800000000E+01 0.  1.
        -11    1    1    2    0    0  0.33209413533E+02 -0.61032960039E+02  0.13686103080E+02  0.70818054024E+02  0.00000000000E+00 0.  1.
         11    1    1    2    0    0 -0.47413235087E+02 -0.25834430084E+03  0.74399658514E+02  0.27299286039E+03  0.00000000000E+00 0. -1.
</event>
<event>
 6    1  0.8989754E-006  0.9739731E+02  0.7561462E-02  0.1285866E+00
          2   -1    0    0  501    0  0.00000000000E+00  0.00000000000E+00  0.77050871048E+03  0.77050871048E+03  0.00000000000E+00 0.  1.
         -2   -1    0    0    0  501 -0.00000000000E+00 -0.00000000000E+00 -0.16691814154E+02  0.16691814154E+02  0.00000000000E+00 0. -1.
          5    1    1    2  502    0  0.29183665189E+02  0.49015752266E+02  0.75860098283E+02  0.95007669141E+02  0.41800000000E+01 0.  1.
         -5    1    1    2    0  502 -0.70276830102E+01 -0.42442360029E+02  0.27137395969E+03  0.27479454261E+03  0.41800000000E+01 0.  1.
        -11    1    1    2    0    0 -0.18734416164E+02  0.41837906416E+02  0.20267575976E+03  0.20779521735E+03  0.00000000000E+00 0.  1.
         11    1    1    2    0    0 -0.34215660148E+01 -0.48411298653E+02  0.20390707860E+03  0.20960309553E+03  0.00000000000E+00 0. -1.
</event>
<event>
 6    1  0.8989754E-006  0.2555293E+03  0.7561462E-02  0.1109859E+00
         -2   -1    0    0    0  501 -0.00000000000E+00  0.00000000000E+00  0.30966944920E+03  0.30966944920E+03  0.00000000000E+00 0. -1.
          2   -1    0    0  501    0  0.00000000000E+00 -0.00000000000E+00 -0.23337495779E+03  0.23337495779E+03  0.00000000000E+00 0.  1.
          5    1    1    2  502    0  0.42940761327E+02  0.12053073381E+01  0.51647214776E+02  0.67307272588E+02  0.41800000000E+01 0. -1.
         -5    1    1    2    0  502  0.10006245456E+03  0.18909704390E+03  0.46661948408E+02  0.21900912459E+03  0.41800000000E+01 0. -1.
        -11    1    1    2    0    0 -0.95388807011E+02 -0.18214287379E+03 -0.29928004275E+02  0.20777568774E+03  0.00000000000E+00 0.  1.
         11    1    1    2    0    0 -0.47614408880E+02 -0.81594774430E+01  0.79133324997E+01  0.48952322073E+02  0.00000000000E+00 0. -1.
</event>
<event>
 6    1  0.8989754E-006  0.2820198E+03  0.7561462E-02  0.1094591E+00
          1   -1    0    0  501    0  0.00000000000E+00  0.00000000000E+00  0.72353291098E+03  0.72353291098E+03  0.00000000000E+00 0. -1.
         -1   -1    0    0    0  501 -0.00000000000E+00 -0.00000000000E+00 -0.41062010706E+03  0.41062010706E+03  0.00000000000E+00 0.  1.
          5    1    1    2  502    0  0.15283154332E+01 -0.10192732777E+03 -0.18739656795E+03  0.21336930888E+03  0.41800000000E+01 0. -1.
         -5    1    1    2    0  502  0.10001060926E+03 -0.15527532101E+03 -0.13081254080E+03  0.22636682732E+03  0.41800000000E+01 0. -1.
        -11    1    1    2    0    0 -0.87588360529E+02  0.23745350511E+03  0.61582484078E+03  0.66580486819E+03  0.00000000000E+00 0. -1.
         11    1    1    2    0    0 -0.13950564168E+02  0.19749143664E+02  0.15297071898E+02  0.28612013643E+02  0.00000000000E+00 0.  1.
</event>
<event>
 6    1  0.8989754E-006  0.1429382E+03  0.7561462E-02  0.1209429E+00
         -2   -1    0    0    0  501 -0.00000000000E+00  0.00000000000E+00  0.94557645767E+02  0.94557645767E+02  0.00000000000E+00 0.  1.
          2   -1    0    0  501    0  0.00000000000E+00 -0.00000000000E+00 -0.28083020331E+03  0.28083020331E+03  0.00000000000E+00 0. -1.
          5    1    1    2  502    0 -0.60608988474E+02  0.20892433927E+02 -0.52901411232E+02  0.83222442824E+02  0.41800000000E+01 0. -1.
         -5    1    1    2    0  502  0.71819859658E+02  0.66241855684E+02  0.14907164301E+02  0.98923059158E+02  0.41800000000E+01 0.  1.
        -11    1    1    2    0    0 -0.35683119322E+02 -0.25380382881E+01 -0.39692128375E+02  0.53433993841E+02  0.00000000000E+00 0. -1.
         11    1    1    2    0    0  0.24472248139E+02 -0.84596251323E+02 -0.10858618223E+03  0.13980835325E+03  0.00000000000E+00 0.  1.
</event>
<event>
 6    1  0.8989754E-006  0.9313488E+02  0.7561462E-02  0.1295433E+00
         -1   -1    0    0    0  501 -0.00000000000E+00  0.00000000000E+00  0.33209218820E+02  0.33209218820E+02  0.00000000000E+00 0.  1.
          1   -1    0    0  501    0  0.00000000000E+00 -0.00000000000E+00 -0.39246912472E+03  0.39246912472E+03  0.00000000000E+00 0. -1.
          5    1    1    2  502    0 -0.27497855701E+02  0.19869769432E+02  0.12299299754E+01  0.34204165436E+02  0.41800000000E+01 0.  1.
         -5    1    1    2    0  502  0.45806596421E+02 -0.36212953764E+02 -0.15405072135E+03  0.16479902743E+03  0.41800000000E+01 0.  1.
        -11    1    1    2    0    0  0.69458158736E+01 -0.35343616811E+02 -0.75180193058E+02  0.83363523412E+02  0.00000000000E+00 0.  1.
         11    1    1    2    0    0 -0.25254556594E+02  0.51686801143E+02 -0.13125892147E+03  0.14331162725E+03  0.00000000000E+00 0. -1.
</event>
<event>
 6    1  0.8989754E-006  0.2200542E+03  0.7561462E-02  0.1133843E+00
          2   -1    0    0  501    0  0.00000000000E+00  0.00000000000E+00  0.59198985527E+03  0.59198985527E+03  0.00000000000E+00 0. -1.
         -2   -1    0    0    0  501 -0.00000000000E+00 -0.00000000000E+00 -0.96100788200E+02  0.96100788200E+02  0.00000000000E+00 0.  1.
          5    1    1    2  502    0 -0.85516851810E+02 -0.60992817509E+02  0.46043869154E+02  0.11476395784E+03  0.41800000000E+01 0. -1.
         -5    1    1    2    0  502 -0.11997289063E+03  0.95453421386E+01  0.19808885313E+03  0.23182164303E+03  0.41800000000E+01 0. -1.
        -11    1    1    2    0    0  0.10660444375E+03  0.44220987341E+02  0.71458910318E+02  0.13574379917E+03  0.00000000000E+00 0.  1.
         11    1    1    2    0    0  0.98885298681E+02  0.72264880290E+01  0.18029743447E+03  0.20576124344E+03  0.00000000000E+00 0. -1.
</event>
<event>
 6    1  0.8989754E-006  0.8326207E+02  0.7561462E-02  0.1320041E+00
         -1   -1    0    0    0  501 -0.00000000000E+00  0.00000000000E+00  0.91320833687E+03  0.91320833687E+03  0.00000000000E+00 0.  1.
          1   -1    0    0  501    0  0.00000000000E+00 -0.00000000000E+00 -0.24787547071E+02  0.24787547071E+02  0.00000000000E+00 0. -1.
          5    1    1    2  502    0  0.96985334892E+01 -0.31499264849E+02  0.41057356082E+02  0.52815188406E+02  0.41800000000E+01 0. -1.
         -5    1    1    2    0  502 -0.12609600607E+02 -0.24895313227E+02  0.71771033754E+03  0.71826483950E+03  0.41800000000E+01 0. -1.
        -11    1    1    2    0    0  0.23619813874E+02  0.74140197636E+02  0.97998527902E+02  0.12513343272E+03  0.00000000000E+00 0.  1.
         11    1    1    2    0    0 -0.20708746756E+02 -0.17745619560E+02  0.31654568275E+02  0.41782423319E+02  0.00000000000E+00 0. -1.
</event>
<event>
 6    1  0.8989754E-006  0.2387367E+03  0.7561462E-02  0.1120637E+00
          2   -1    0    0  501    0  0.00000000000E+00  0.00000000000E+00  0.50758971947E+03  0.50758971947E+03  0.00000000000E+00 0. -1.
         -2   -1    0    0    0  501 -0.00000000000E+00 -0.00000000000E+00 -0.12441656759E+03  0.12441656759E+03  0.00000000000E+00 0.  1.
          5    1    1    2  502    0 -0.91729524261E+02 -0.18362549254E+03  0.24945953704E+03  0.32307918558E+03  0.41800000000E+01 0.  1.
         -5    1    1    2    0  502 -0.33248683893E+02 -0.42182879564E+00 -0.42341767237E+00  0.33515736642E+02  0.41800000000E+01 0.  1.
        -11    1    1    2    0    0  0.65936045014E+02  0.27675822752E+02  0.56388956098E+02  0.91067159651E+02  0.00000000000E+00 0. -1.
         11    1    1    2    0    0  0.59042163140E+02  0.15637149859E+03  0.77748076412E+02  0.18434420518E+03  0.00000000000E+00 0.  1.
</event>
<event>
 6    1  0.8989754E-006  0.1652237E+03  0.7561462E-02  0.1182922E+00
          2   -1    0    0  501    0  0.00000000000E+00  0.00000000000E+00  0.32503889904E+03  0.32503889904E+03  0.00000000000E+00 0.  1.
         -2   -1    0    0    0  501 -0.00000000000E+00 -0.00000000000E+00 -0.12252105306E+03  0.12252105306E+03  0.00000000000E+00 0. -1.
          5    1    1    2  502    0 -0.98456049661E+02  0.10438660433E+03 -0.12633023841E+01  0.14355913489E+03  0.41800000000E+01 0. -1.
         -5    1    1    2    0  502  0.12762741844E+01  0.23883757696E+02  0.65958662751E+02  0.70285705157E+02  0.41800000000E+01 0. -1.
        -11    1    1    2    0    0  0.51939627671E+02 -0.49349853830E+02  0.38133217694E+01  0.71747295549E+02  0.00000000000E+00 0. -1.
         11    1    1    2    0    0  0.45240147806E+02 -0.78920508193E+02  0.13400916385E+03  0.16196781650E+03  0.00000000000E+00 0.  1.
</event>
<event>
 6    1  0.8989754E-006  0.1635085E+03  0.7561462E-02  0.1184792E+00
          2   -1    0    0  501    0  0.00000000000E+00  0.00000000000E+00  0.22556377121E+04  0.22556377121E+04  0.00000000000E+00 0. -1.
         -2   -1    0    0    0  501 -0.00000000000E+00 -0.00000000000E+00 -0.13944519180E+02  0.13944519180E+02  0.00000000000E+00 0.  1.
          5    1    1    2  502    0  0.11764975428E+03  0.62010950553E+02  0.12574241014E+04  0.12644444100E+04  0.41800000000E+01 0. -1.
         -5    1    1    2    0  502 -0.25897121122E+01 -0.47088478884E+02  0.13056071896E+03  0.13887982282E+03  0.41800000000E+01 0.  1.
        -11    1    1    2    0    0 -0.50353964302E+01  0.28048330271E+02  0.14496918294E+03  0.14774345350E+03  0.00000000000E+00 0. -1.
         11    1    1    2    0    0 -0.11002464574E+03 -0.42970801940E+02  0.70873918963E+03  0.71851454502E+03  0.00000000000E+00 0.  1.
</event>
<event>
 6    1  0.8989754E-006  0.1562459E+03  0.7561462E-02  0.1193002E+00
         -2   -1    0    0    0  501 -0.00000000000E+00  0.00000000000E+00  0.59993962540E+02  0.59993962540E+02  0.00000000000E+00 0.  1.
          2   -1    0    0  501    0  0.00000000000E+00 -0.00000000000E+00 -0.44840037258E+03  0.44840037258E+03  0.00000000000E+00 0. -1.
          5    1    1    2  502    0  0.74206525470E+01 -0.54592948225E+02 -0.13126323067E+03  0.14241827202E+03  0.41800000000E+01 0.  1.
         -5    1    1    2    0  502  0.10778162776E+03  0.15380854115E+02 -0.10504056004E+03  0.15134213428E+03  0.41800000000E+01 0.  1.
        -11    1    1    2    0    0 -0.10348484720E+03  0.63432543095E+02 -0.10549055435E+03  0.16081373754E+03  0.00000000000E+00 0.  1.
         11    1    1    2    0    0 -0.11717433102E+02 -0.24220448985E+02 -0.46612064985E+02  0.53820191282E+02  0.00000000000E+00 0. -1.
</event>
<event>
 6    1  0.8989754E-006  0.8715243E+02  0.7561462E-02  0.1309898E+00
         -2   -1    0    0    0  501 -0.00000000000E+00  0.00000000000E+00  0.21023728007E+03  0.21023728007E+03  0.00000000000E+00 0.  1.
          2   -1    0    0  501    0  0.00000000000E+00 -0.00000000000E+00 -0.58084837808E+02  0.58084837808E+02  0.00000000000E+00 0. -1.
          5    1    1    2  502    0  0.30599809743E+02  0.36911029065E+02  0.85744881365E+01  0.48885239794E+02  0.41800000000E+01 0. -1.
         -5    1    1    2    0  502 -0.30686600686E+02 -0.46587046312E+02  0.11166087068E+03  0.12489052321E+03  0.41800000000E+01 0. -1.
        -11    1    1    2    0    0 -0.27757978000E+02 -0.16271087027E+02  0.44094452770E+02  0.54585477746E+02  0.00000000000E+00 0.  1.
         11    1    1    2    0    0  0.27844768943E+02  0.25947104274E+02 -0.12177369322E+02  0.39960877134E+02  0.00000000000E+00 0. -1.
</event>
<event>
 6    1  0.8989754E-006  0.1550276E+03  0.7561462E-02  0.1194428E+00
         -2   -1    0    0    0  501 -0.00000000000E+00  0.00000000000E+00  0.62536141786E+02  0.62536141786E+02  0.00000000000E+00 0.  1.
          2   -1    0    0  501    0  0.00000000000E+00 -0.00000000000E+00 -0.57647941672E+03  0.57647941672E+03  0.00000000000E+00 0. -1.
          5    1    1    2  502    0 -0.65167568457E+02  0.20421298374E+02 -0.11777545428E+03  0.13620709026E+03  0.41800000000E+01 0. -1.
         -5    1    1    2    0  502 -0.58402605027E+02 -0.66488192658E+02 -0.17340398519E+02  0.90275721308E+02  0.41800000000E+01 0. -1.
        -11    1    1    2    0    0  0.75338996024E+02  0.66661084239E+02 -0.17292821986E+03  0.20005957537E+03  0.00000000000E+00 0.  1.
         11    1    1    2    0    0  0.48231177459E+02 -0.20594189955E+02 -0.20589920228E+03  0.21247317157E+03  0.00000000000E+00 0. -1.
</event>
<event>
 6    1  0.8989754E-006  0.1011482E+03  0.7561462E-02  0.1277900E+00
         -1   -1    0    0    0  501 -0.00000000000E+00  0.00000000000E+00  0.25011196900E+03  0.25011196900E+03  0.00000000000E+00 0.  1.
          1   -1    0    0  501    0  0.00000000000E+00 -0.00000000000E+00 -0.87892717825E+02  0.87892717825E+02  0.00000000000E+00 0. -1.
          5    1    1    2  502    0 -0.91821100945E+01 -0.89944192801E+02  0.56350655826E+02  0.10661677999E+03  0.41800000000E+01 0.  1.
         -5    1    1    2    0  502 -0.21100792882E+02  0.22930635447E+02  0.10872735540E+03  0.11318201144E+03  0.41800000000E+01 0.  1.
        -11    1    1    2    0    0  0.36311583688E+02  0.46687916804E+02  0.39302737773E+02  0.71014068196E+02  0.00000000000E+00 0.  1.
         11    1    1    2    0    0 -0.60286807114E+01  0.20325640550E+02 -0.42161497823E+02  0.47191827190E+02  0.00000000000E+00 0. -1.
</event>
<event>
 6    1  0.8989754E-006  0.1665916E+03  0.7561462E-02  0.1181450E+00
         -2   -1    0    0    0  501 -0.00000000000E+00  0.00000000000E+00  0.65648074534E+03  0.65648074534E+03  0.00000000000E+00 0.  1.
          2   -1    0    0  501    0  0.00000000000E+00 -0.00000000000E+00 -0.79533090120E+02  0.79533090120E+02  0.00000000000E+00 0. -1.
          5    1    1    2  502    0  0.16778904381E+02  0.33293711665E+02  0.30967438079E+03  0.31193861156E+03  0.41800000000E+01 0.  1.
         -5    1    1    2    0  502  0.70872894622E+02  0.10188899061E+03  0.18166579875E+03  0.22005514862E+03  0.41800000000E+01 0.  1.
        -11    1    1    2    0    0 -0.38434878891E+02 -0.14377168648E+02 -0.10062561926E+02  0.42251604066E+02  0.00000000000E+00 0.  1.
         11    1    1    2    0    0 -0.49216920112E+02 -0.12080553363E+03  0.95670037604E+02  0.16176847120E+03  0.00000000000E+00 0. -1.
</event>
<event>
 6    1  0.8989754E-006  0.1232396E+03  0.7561462E-02  0.1237846E+00
          2   -1    0    0  501    0  0.00000000000E+00  0.00000000000E+00  0.13493289307E+04  0.13493289307E+04  0.00000000000E+00 0. -1.
         -2   -1    0    0    0  501 -0.00000000000E+00 -0.00000000000E+00 -0.47559143927E+02  0.47559143927E+02  0.00000000000E+00 0.  1.
          5    1    1    2  502    0  0.72744249548E+02  0.14693360696E+02  0.10128783305E+04  0.10156020901E+04  0.41800000000E+01 0. -1.
         -5    1    1    2    0  502 -0.60404201297E+02  0.32219196687E+02 -0.58048053814E+01  0.68832494761E+02  0.41800000000E+01 0.  1.
        -11    1    1    2    0    0  0.39172959207E+02 -0.10747490446E+02  0.10472062356E+03  0.11232291967E+03  0.00000000000E+00 0. -1.
         11    1    1    2    0    0 -0.51513007458E+02 -0.36165066938E+02  0.18997563807E+03  0.20013057004E+03  0.00000000000E+00 0.  1.
</event>
<event>
 6    1  0.8989754E-006  0.1122007E+03  0.7561462E-02  0.1256548E+00
          1   -1    0    0  501    0  0.00000000000E+00  0.00000000000E+00  0.21412597066E+03  0.21412597066E+03  0.00000000000E+00 0. -1.
         -1   -1    0    0    0  501 -0.00000000000E+00 -0.00000000000E+00 -0.95141906860E+02  0.95141906860E+02  0.00000000000E+00 0.  1.
          5    1    1    2  502    0 -0.58224854293E+01 -0.14696025778E+02 -0.39128382168E+02  0.42407277693E+02  0.41800000000E+01 0.  1.
         -5    1    1    2    0  502  0.88536818636E+02  0.20117606961E+02  0.60445735533E+02  0.10915422900E+03  0.41800000000E+01 0.  1.
        -11    1    1    2    0    0 -0.80345636031E+02  0.26917783611E+02  0.91482771371E+02  0.12469597332E+03  0.00000000000E+00 0. -1.
         11    1    1    2    0    0 -0.23686971762E+01 -0.32339364795E+02  0.61839390662E+01  0.33010397514E+02  0.00000000000E+00 0.  1.
</event>
<event>
 6    1  0.8989754E-006  0.9851552E+02  0.7561462E-02  0.1283449E+00
         -3   -1    0    0    0  501 -0.00000000000E+00  0.00000000000E+00  0.14447346536E+03  0.14447346536E+03  0.00000000000E+00 0.  1.
          3   -1    0    0  501    0  0.00000000000E+00 -0.00000000000E+00 -0.15471639689E+03  0.15471639689E+03  0.00000000000E+00 0. -1.
          5    1    1    2  502    0  0.52971024536E+02  0.50459742036E+02 -0.41944526419E+02  0.84432995347E+02  0.41800000000E+01 0.  1.
         -5    1    1    2    0  502  0.22020300299E+02  0.94282738745E+01  0.72101936875E+02  0.76091705689E+02  0.41800000000E+01 0.  1.
        -11    1    1    2    0    0 -0.32855301308E+02 -0.10444604327E+02  0.27940006576E+02  0.44375720288E+02  0.00000000000E+00 0.  1.
         11    1    1    2    0    0 -0.42136023526E+02 -0.49443411584E+02 -0.68340348568E+02  0.94289440926E+02  0.00000000000E+00 0. -1.
</event>
<event>
 6    1  0.8989754E-006  0.1063738E+03  0.7561462E-02  0.1267436E+00
          3   -1    0    0  501    0  0.00000000000E+00  0.00000000000E+00  0.79053752726E+02  0.79053752726E+02  0.00000000000E+00 0. -1.
         -3   -1    0    0    0  501 -0.00000000000E+00 -0.00000000000E+00 -0.25748014756E+03  0.25748014756E+03  0.00000000000E+00 0.  1.
          5    1    1    2  502    0  0.55934126381E+02  0.21216122780E+02  0.30513244626E+02  0.67285071580E+02  0.41800000000E+01 0.  1.
         -5    1    1    2    0  502  0.11593982253E+02  0.26966909625E+02 -0.88978544929E+02  0.93788530732E+02  0.41800000000E+01 0.  1.
        -11    1    1    2    0    0 -0.89911193369E+02 -0.44925999320E+02 -0.11417571651E+03  0.15211332075E+03  0.00000000000E+00 0.  1.
         11    1    1    2    0    0  0.22383084735E+02 -0.32570330855E+01 -0.57853780211E+01  0.23346977227E+02  0.00000000000E+00 0. -1.
</event>
<event>
 6    1  0.8989754E-006  0.2312788E+03  0.7561462E-02  0.1125743E+00
         -1   -1    0    0    0  501 -0.00000000000E+00  0.00000000000E+00  0.30703733375E+03  0.30703733375E+03  0.00000000000E+00 0.  1.
          1   -1    0    0  501    0  0.00000000000E+00 -0.00000000000E+00 -0.20194467749E+03  0.20194467749E+03  0.00000000000E+00 0. -1.
          5    1    1    2  502    0  0.23737176744E+02 -0.15156459866E+02 -0.30582506091E+02  0.41784374044E+02  0.41800000000E+01 0.  1.
         -5    1    1    2    0  502  0.14472153633E+03  0.14557547370E+03  0.14242133962E+02  0.20580780452E+03  0.41800000000E+01 0.  1.
        -11    1    1    2    0    0 -0.79904013872E+02 -0.11319700708E+03  0.53787457663E+02  0.14863143829E+03  0.00000000000E+00 0.  1.
         11    1    1    2    0    0 -0.88554699201E+02 -0.17222006752E+02  0.67645570731E+02  0.11275839440E+03  0.00000000000E+00 0. -1.
</event>
<event>
 6    1  0.8989754E-006  0.8503733E+02  0.7561462E-02  0.1315335E+00
          3   -1    0    0  501    0  0.00000000000E+00  0.00000000000E+00  0.10024288774E+03  0.10024288774E+03  0.00000000000E+00 0. -1.
         -3   -1    0    0    0  501 -0.00000000000E+00 -0.00000000000E+00 -0.14411647220E+03  0.14411647220E+03  0.00000000000E+00 0.  1.
          5    1    1    2  502    0  0.75487691328E+01  0.27604674949E+02 -0.88762165620E+02  0.93355216458E+02  0.41800000000E+01 0.  1.
         -5    1    1    2    0  502 -0.42022963615E+01 -0.49705770102E+02  0.16654114142E+02  0.52755613863E+02  0.41800000000E+01 0.  1.
        -11    1    1    2    0    0  0.18395824284E+01  0.56387989681E+02  0.29264649588E+02  0.63556346334E+02  0.00000000000E+00 0. -1.
         11    1    1    2    0    0 -0.51860551997E+01 -0.34286894529E+02 -0.10301825758E+01  0.34692183285E+02  0.00000000000E+00 0.  1.
</event>
<event>
 6    1  0.8989754E-006  0.1070295E+03  0.7561462E-02  0.1266172E+00
         -2   -1    0    0    0  501 -0.00000000000E+00  0.00000000000E+00  0.64348635960E+02  0.64348635960E+02  0.00000000000E+00 0.  1.
          2   -1    0    0  501    0  0.00000000000E+00 -0.00000000000E+00 -0.32417865594E+03  0.32417865594E+03  0.00000000000E+00 0. -1.
          5    1    1    2  502    0 -0.38043574309E+02 -0.85828778430E+02 -0.43242910260E+02  0.10344715772E+03  0.41800000000E+01 0. -1.
         -5    1    1    2    0  502 -0.21714337008E+02  0.12679877702E+02 -0.12073330729E+03  0.12339487680E+03  0.41800000000E+01 0. -1.
        -11    1    1    2    0    0  0.46299628528E+02  0.53157028023E+02 -0.11224090302E+03  0.13254186335E+03  0.00000000000E+00 0. -1.
         11    1    1    2    0    0  0.13458282789E+02  0.19991872705E+02  0.16387100590E+02  0.29143394030E+02  0.00000000000E+00 0.  1.
</event>
<event>
 6    1  0.8989754E-006  0.6728341E+02  0.7561462E-02  0.1369582E+00
         -2   -1    0    0    0  501 -0.00000000000E+00  0.00000000000E+00  0.94235299669E+02  0.94235299669E+02  0.00000000000E+00 0.  1.
          2   -1    0    0  501    0  0.00000000000E+00 -0.00000000000E+00 -0.16395533369E+03  0.16395533369E+03  0.00000000000E+00 0. -1.
          5    1    1    2  502    0  0.20804138867E+02 -0.21694356557E+02 -0.60787464440E+02  0.67941486100E+02  0.41800000000E+01 0. -1.
         -5    1    1    2    0  502  0.50136702834E+01  0.43328685391E+02  0.58236491532E+02  0.72879854647E+02  0.41800000000E+01 0.  1.
        -11    1    1    2    0    0  0.14674630110E+02 -0.11545584335E+02 -0.72894572693E+02  0.75248016682E+02  0.00000000000E+00 0.  1.
         11    1    1    2    0    0 -0.40492439261E+02 -0.10088744499E+02  0.57255115834E+01  0.42121275927E+02  0.00000000000E+00 0. -1.
</event>
<event>
 6    1  0.8989754E-006  0.1042509E+03  0.7561462E-02  0.1271603E+00
          1   -1    0    0  501    0  0.00000000000E+00  0.00000000000E+00  0.35048135961E+03  0.35048135961E+03  0.00000000000E+00 0. -1.
         -1   -1    0    0    0  501 -0.00000000000E+00 -0.00000000000E+00 -0.35393302831E+02  0.35393302831E+02  0.00000000000E+00 0.  1.
          5    1    1    2  502    0  0.40870410086E+02 -0.30803851114E+02  0.43460075974E+02  0.67271972378E+02  0.41800000000E+01 0.  1.
         -5    1    1    2    0  502 -0.52983898658E+02  0.32498052492E+02  0.16221688755E+03  0.17376768382E+03  0.41800000000E+01 0.  1.
        -11    1    1    2    0    0 -0.23530184203E+02 -0.37540004960E+02  0.53362406770E+02  0.69357537422E+02  0.00000000000E+00 0. -1.
         11    1    1    2    0    0  0.35643672775E+02  0.35845803582E+02  0.56048686484E+02  0.75477468823E+02  0.00000000000E+00 0.  1.
</event>
<event>
 6    1  0.8989754E-006  0.1105483E+03  0.7561462E-02  0.1259558E+00
         -2   -1    0    0    0  501 -0.00000000000E+00  0.00000000000E+00  0.48685124093E+02  0.48685124093E+02  0.00000000000E+00 0.  1.
          2   -1    0    0  501    0  0.00000000000E+00 -0.00000000000E+00 -0.35811520103E+03  0.35811520103E+03  0.00000000000E+00 0. -1.
          5    1    1    2  502    0 -0.20870785623E+02 -0.77465818971E+02 -0.28710427799E+02  0.85312975952E+02  0.41800000000E+01 0.  1.
         -5    1    1    2    0  502 -0.12029379818E+02  0.42075182287E+02 -0.64275794183E+02  0.77870899963E+02  0.41800000000E+01 0.  1.
        -11    1    1    2    0    0  0.43408210483E+01  0.59357576941E+02 -0.67111170731E+02  0.89699910282E+02  0.00000000000E+00 0.  1.
         11    1    1    2    0    0  0.28559344393E+02 -0.23966940257E+02 -0.14933268422E+03  0.15391653892E+03  0.00000000000E+00 0. -1.
</event>
<event>
 6    1  0.8989754E-006  0.1614438E+03  0.7561462E-02  0.1187076E+00
          1   -1    0    0  501    0  0.00000000000E+00  0.00000000000E+00  0.13479804285E+03  0.13479804285E+03  0.00000000000E+00 0. -1.
         -1   -1    0    0    0  501 -0.00000000000E+00 -0.00000000000E+00 -0.23225879077E+03  0.23225879077E+03  0.00000000000E+00 0.  1.
          5    1    1    2  502    0 -0.89309163685E+02  0.64965293627E+01 -0.68122171783E+02  0.11258967226E+03  0.41800000000E+01 0. -1.
         -5    1    1    2    0  502 -0.73914751934E+01 -0.86184499541E+02 -0.46039472363E+02  0.98079086874E+02  0.41800000000E+01 0. -1.
        -11    1    1    2    0    0 -0.12999833342E+02  0.12308784638E+02  0.20975275465E+02  0.27576512234E+02  0.00000000000E+00 0.  1.
         11    1    1    2    0    0  0.10970047222E+03  0.67379185541E+02 -0.42743792426E+01  0.12881156224E+03  0.00000000000E+00 0. -1.
</event>
<event>
 6    1  0.8989754E-006  0.1294336E+03  0.7561462E-02  0.1228299E+00
         -1   -1    0    0    0  501 -0.00000000000E+00  0.00000000000E+00  0.35755358950E+02  0.35755358950E+02  0.00000000000E+00 0.  1.
          1   -1    0    0  501    0  0.00000000000E+00 -0.00000000000E+00 -0.51682337069E+03  0.51682337069E+03  0.00000000000E+00 0. -1.
          5    1    1    2  502    0 -0.58664391874E+02 -0.86038086985E+01 -0.12734834895E+03  0.14053686626E+03  0.41800000000E+01 0.  1.
         -5    1    1    2    0  502  0.23963635242E+02  0.76477805153E+02 -0.79807416302E+02  0.11318041611E+03  0.41800000000E+01 0.  1.
        -11    1    1    2    0    0 -0.25536311453E+02 -0.50325615369E+02 -0.11806964246E+03  0.13086333037E+03  0.00000000000E+00 0.  1.
         11    1    1    2    0    0  0.60237068085E+02 -0.17548381086E+02 -0.15584260402E+03  0.16799811689E+03  0.00000000000E+00 0. -1.
</event>
<event>
 6    1  0.8989754E-006  0.1661888E+03  0.7561462E-02  0.1181882E+00
         -2   -1    0    0    0  501 -0.00000000000E+00  0.00000000000E+00  0.75279020550E+02  0.75279020550E+02  0.00000000000E+00 0.  1.
          2   -1    0    0  501    0  0.00000000000E+00 -0.00000000000E+00 -0.51558195280E+03  0.51558195280E+03  0.00000000000E+00 0. -1.
          5    1    1    2  502    0 -0.13838335417E+02  0.12599303188E+02  0.19451214278E+02  0.27314174064E+02  0.41800000000E+01 0. -1.
         -5    1    1    2    0  502 -0.11542021015E+03 -0.86121710105E+02 -0.14279089485E+03  0.20284350104E+03  0.41800000000E+01 0. -1.
        -11    1    1    2    0    0  0.59565147251E+02 -0.99489122430E+01 -0.82402313683E+02  0.10216226760E+03  0.00000000000E+00 0.  1.
         11    1    1    2    0    0  0.69693398315E+02  0.83471319161E+02 -0.23456093800E+03  0.25854103064E+03  0.00000000000E+00 0. -1.
</event>
<event>
 6    1  0.8989754E-006  0.1009898E+03  0.7561462E-02  0.1278228E+00
          1   -1    0    0  501    0  0.00000000000E+00  0.00000000000E+00  0.19971216543E+03  0.19971216543E+03  0.00000000000E+00 0. -1.
         -1   -1    0    0    0  501 -0.00000000000E+00 -0.00000000000E+00 -0.13356577323E+03  0.13356577323E+03  0.00000000000E+00 0.  1.
          5    1    1    2  502    0 -0.79001058642E+02 -0.37749533087E+02 -0.85423551370E+02  0.12239628280E+03  0.41800000000E+01 0. -1.
         -5    1    1    2    0  502  0.13492041099E+02  0.24814343030E+02  0.18885737286E+02  0.34233467044E+02  0.41800000000E+01 0. -1.
        -11    1    1    2    0    0  0.15109192253E+02  0.29144375207E+02  0.11687211550E+03  0.12139511390E+03  0.00000000000E+00 0. -1.
         11    1    1    2    0    0  0.50399825289E+02 -0.16209185149E+02  0.15812090787E+02  0.55253074914E+02  0.00000000000E+00 0.  1.
</event>
<event>
 6    1  0.8989754E-006  0.1065163E+03  0.7561462E-02  0.1267161E+00
          2   -1    0    0  501    0  0.00000000000E+00  0.00000000000E+00  0.96353587273E+02  0.96353587273E+02  0.00000000000E+00 0. -1.
         -2   -1    0    0    0  501 -0.00000000000E+00 -0.00000000000E+00 -0.17810659870E+03  0.17810659870E+03  0.00000000000E+00 0.  1.
          5    1    1    2  502    0  0.14637240366E+02  0.21849067863E+02 -0.79530062032E+02  0.83869742689E+02  0.41800000000E+01 0. -1.
         -5    1    1    2    0  502 -0.62149884826E+02  0.35476365322E+02  0.18407341057E+02  0.74010021518E+02  0.41800000000E+01 0. -1.
        -11    1    1    2    0    0  0.66443142218E+02 -0.66216545747E+02 -0.17734721505E+02  0.95466446594E+02  0.00000000000E+00 0.  1.
         11    1    1    2    0    0 -0.18930497758E+02  0.88911125623E+01 -0.28955689452E+01  0.21113975170E+02  0.00000000000E+00 0. -1.
</event>
<event>
 6    1  0.8989754E-006  0.1245892E+03  0.7561462E-02  0.1235713E+00
         -1   -1    0    0    0  501 -0.00000000000E+00  0.00000000000E+00  0.51008489464E+02  0.51008489464E+02  0.00000000000E+00 0.  1.
          1   -1    0    0  501    0  0.00000000000E+00 -0.00000000000E+00 -0.61717158873E+03  0.61717158873E+03  0.00000000000E+00 0. -1.
          5    1    1    2  502    0 -0.63634994546E+02  0.76654151377E+02 -0.31499973940E+02  0.10457051311E+03  0.41800000000E+01 0.  1.
         -5    1    1    2    0  502 -0.30118567673E+02 -0.11724961080E+02 -0.11423566013E+03  0.11879335535E+03  0.41800000000E+01 0.  1.
        -11    1    1    2    0    0  0.84093923219E+02 -0.46563717782E+02 -0.41087991315E+03  0.42197425367E+03  0.00000000000E+00 0. -1.
         11    1    1    2    0    0  0.96596390002E+01 -0.18365472516E+02 -0.95475520530E+01  0.22841956058E+02  0.00000000000E+00 0.  1.
</event>
<event>
 6    1  0.8989754E-006  0.8464537E+02  0.7561462E-02  0.1316363E+00
         -1   -1    0    0    0  501 -0.00000000000E+00  0.00000000000E+00  0.32152370466E+03  0.32152370466E+03  0.00000000000E+00 0.  1.
          1   -1    0    0  501    0  0.00000000000E+00 -0.00000000000E+00 -0.41951841292E+02  0.41951841292E+02  0.00000000000E+00 0. -1.
          5    1    1    2  502    0 -0.38797825235E+02 -0.38255907284E+02  0.19644250908E+03  0.20390173481E+03  0.41800000000E+01 0. -1.
         -5    1    1    2    0  502  0.20217150598E+02  0.34701236865E+01 -0.10678154153E+02  0.23500432184E+02  0.41800000000E+01 0. -1.
        -11    1    1    2    0    0 -0.29763064007E+02 -0.61155546591E+01  0.51890767337E+02  0.60132285194E+02  0.00000000000E+00 0.  1.
         11    1    1    2    0    0  0.48343738644E+02  0.40901338256E+02  0.41916741103E+02  0.75941093763E+02  0.00000000000E+00 0. -1.
</event>
<event>
 6    1  0.8989754E-006  0.1082540E+03  0.7561462E-02  0.1263838E+00
         -1   -1    0    0    0  501 -0.00000000000E+00  0.00000000000E+00  0.59365745354E+02  0.59365745354E+02  0.00000000000E+00 0.  1.
          1   -1    0    0  501    0  0.00000000000E+00 -0.00000000000E+00 -0.34050503448E+03  0.34050503448E+03  0.00000000000E+00 0. -1.
          5    1    1    2  502    0  0.78633503527E+02 -0.33746517441E+01 -0.15331897952E+03  0.17239140939E+03  0.41800000000E+01 0. -1.
         -5    1    1    2    0  502  0.33525671937E+01  0.44042538358E+02  0.17459759489E+01  0.44401641004E+02  0.41800000000E+01 0. -1.
        -11    1    1    2    0    0 -0.43705280049E+02 -0.31743233256E+02 -0.71282794261E+01  0.54484830267E+02  0.00000000000E+00 0.  1.
         11    1    1    2    0    0 -0.38280790672E+02 -0.89246533582E+01 -0.12243800613E+03  0.12859289917E+03  0.00000000000E+00 0. -1.
</event>
<event>
 6    1  0.8989754E-006  0.9136103E+02  0.7561462E-02  0.1299589E+00
         -1   -1    0    0    0  501 -0.00000000000E+00  0.00000000000E+00  0.48495996680E+02  0.48495996680E+02  0.00000000000E+00 0.  1.
          1   -1    0    0  501    0  0.00000000000E+00 -0.00000000000E+00 -0.27241990292E+03  0.27241990292E+03  0.00000000000E+00 0. -1.
          5    1    1    2  502    0 -0.31773053912E+02  0.21583291037E+02  0.33936417808E+01  0.38786010511E+02  0.41800000000E+01 0. -1.
         -5    1    1    2    0  502  0.66456103708E+02 -0.17895184959E+02 -0.10723524674E+03  0.12748930115E+03  0.41800000000E+01 0. -1.
        -11    1    1    2    0    0 -0.51647310071E+02  0.10871539567E+02 -0.27728693623E+02  0.59619757297E+02  0.00000000000E+00 0.  1.
         11    1    1    2    0    0  0.16964260275E+02 -0.14559645644E+02 -0.92353607663E+02  0.95020830645E+02  0.00000000000E+00 0. -1.
</event>
<event>
 6    1  0.8989754E-006  0.7514136E+02  0.7561462E-02  0.1343434E+00
          1   -1    0    0  501    0  0.00000000000E+00  0.00000000000E+00  0.32951536522E+02  0.32951536522E+02  0.00000000000E+00 0. -1.
         -1   -1    0    0    0  501 -0.00000000000E+00 -0.00000000000E+00 -0.52748976192E+03  0.52748976192E+03  0.00000000000E+00 0.  1.
          5    1    1    2  502    0  0.24782552247E+01  0.10949286519E+02 -0.31323929914E+03  0.31346827518E+03  0.41800000000E+01 0. -1.
         -5    1    1    2    0  502 -0.12544739385E+01 -0.59884641488E+02 -0.67872796710E+02  0.90619715979E+02  0.41800000000E+01 0. -1.
        -11    1    1    2    0    0  0.29884567075E+02  0.21969163254E+02 -0.15283117104E+01  0.37122327783E+02  0.00000000000E+00 0. -1.
         11    1    1    2    0    0 -0.31108348361E+02  0.26966191716E+02 -0.11189781784E+03  0.11923097949E+03  0.00000000000E+00 0.  1.
</event>
<event>
 6    1  0.8989754E-006  0.8699023E+02  0.7561462E-02  0.1310308E+00
         -1   -1    0    0    0  501 -0.00000000000E+00  0.00000000000E+00  0.90106131111E+03  0.90106131111E+03  0.00000000000E+00 0.  1.
          1   -1    0    0  501    0  0.00000000000E+00 -0.00000000000E+00 -0.16420590997E+02  0.16420590997E+02  0.00000000000E+00 0. -1.
          5    1    1    2  502    0  0.29285517211E+02 -0.56192649168E+02  0.61730318892E+03  0.62056100005E+03  0.41800000000E+01 0.  1.
         -5    1    1    2    0  502  0.32790598666E+01  0.37076797362E+02  0.73517756167E+02  0.82509235895E+02  0.41800000000E+01 0.  1.
        -11    1    1    2    0    0 -0.40235005058E+01  0.38378000263E+02  0.35643977114E+02  0.52531443584E+02  0.00000000000E+00 0. -1.
         11    1    1    2    0    0 -0.28541076572E+02 -0.19262148456E+02  0.15817579792E+03  0.16188022258E+03  0.00000000000E+00 0.  1.
</event>
<event>
 6    1  0.8989754E-006  0.4605367E+02  0.7561462E-02  0.1467869E+00
         -1   -1    0    0    0  501 -0.00000000000E+00  0.00000000000E+00  0.29987356535E+02  0.29987356535E+02  0.00000000000E+00 0.  1.
          1   -1    0    0  501    0  0.00000000000E+00 -0.00000000000E+00 -0.31348640337E+03  0.31348640337E+03  0.00000000000E+00 0. -1.
          5    1    1    2  502    0  0.27665188911E+02  0.11330327328E+02  0.11110598402E+02  0.32166081386E+02  0.41800000000E+01 0.  1.
         -5    1    1    2    0  502 -0.89856147949E+00  0.43461129893E+01 -0.18086623646E+03  0.18096895867E+03  0.41800000000E+01 0.  1.
        -11    1    1    2    0    0  0.10466440547E+01  0.14642940504E+02 -0.76657427694E+01  0.16561243389E+02  0.00000000000E+00 0.  1.
         11    1    1    2    0    0 -0.27813271486E+02 -0.30319380822E+02 -0.10607766600E+03  0.11377747646E+03  0.00000000000E+00 0. -1.
</event>
<event>
 6    1  0.8989754E-006  0.1002422E+03  0.7561462E-02  0.1279787E+00
          3   -1    0    0  501    0  0.00000000000E+00  0.00000000000E+00  0.37055411569E+02  0.37055411569E+02  0.00000000000E+00 0. -1.
         -3   -1    0    0    0  501 -0.00000000000E+00 -0.00000000000E+00 -0.38782326357E+03  0.38782326357E+03  0.00000000000E+00 0.  1.
          5    1    1    2  502    0  0.63804321382E+02  0.38605297327E+02 -0.87936403281E+02  0.11537609731E+03  0.41800000000E+01 0. -1.
         -5    1    1    2    0  502 -0.36609585105E+02 -0.39943928967E+01 -0.17765085848E+03  0.18147594005E+03  0.41800000000E+01 0. -1.
        -11    1    1    2    0    0  0.13908307598E+02  0.17503500805E+02 -0.45502332392E+02  0.50697887666E+02  0.00000000000E+00 0. -1.
         11    1    1    2    0    0 -0.41103043875E+02 -0.52114405236E+02 -0.39678257847E+02  0.77328750117E+02  0.00000000000E+00 0.  1.
</event>
<event>
 6    1  0.8989754E-006  0.2490767E+03  0.7561462E-02  0.1113890E+00
          2   -1    0    0  501    0  0.00000000000E+00  0.00000000000E+00  0.10072100473E+04  0.10072100473E+04  0.00000000000E+00 0.  1.
         -2   -1    0    0    0  501 -0.00000000000E+00 -0.00000000000E+00 -0.63365888227E+02  0.63365888227E+02  0.00000000000E+00 0. -1.
          5    1    1    2  502    0  0.87592912250E+02 -0.34278889539E+02  0.12450720616E+03  0.15609957505E+03  0.41800000000E+01 0.  1.
         -5    1    1    2    0  502  0.12909820876E+03  0.97114854105E+02  0.29576067088E+03  0.33703039809E+03  0.41800000000E+01 0.  1.
        -11    1    1    2    0    0 -0.59782365595E+02 -0.61095910089E+02  0.15864914680E+03  0.18021152362E+03  0.00000000000E+00 0. -1.
         11    1    1    2    0    0 -0.15690875542E+03 -0.17400544766E+01  0.36492713522E+03  0.39723443876E+03  0.00000000000E+00 0.  1.
</event>
<event>
 6    1  0.8989754E-006  0.1116434E+03  0.7561462E-02  0.1257557E+00
         -1   -1    0    0    0  501 -0.00000000000E+00  0.00000000000E+00  0.25528916879E+03  0.25528916879E+03  0.00000000000E+00 0.  1.
          1   -1    0    0  501    0  0.00000000000E+00 -0.00000000000E+00 -0.85377186050E+02  0.85377186050E+02  0.00000000000E+00 0. -1.
          5    1    1    2  502    0 -0.17286260015E+02 -0.29253038542E+02  0.87665689565E+02  0.94113232737E+02  0.41800000000E+01 0.  1.
         -5    1    1    2    0  502  0.14429600930E+02  0.96983961359E+02  0.86902749461E+02  0.13108646920E+03  0.41800000000E+01 0.  1.
        -11    1    1    2    0    0  0.27620676345E+02 -0.58116875827E+02  0.30657479884E+02  0.71276602687E+02  0.00000000000E+00 0.  1.
         11    1    1    2    0    0 -0.24764017260E+02 -0.96140469893E+01 -0.35313936169E+02  0.44190050216E+02  0.00000000000E+00 0. -1.
</event>
<event>
 6    1  0.8989754E-006  0.1168821E+03  0.7561462E-02  0.1248331E+00
          1   -1    0    0  501    0  0.00000000000E+00  0.00000000000E+00  0.10910290237E+03  0.10910290237E+03  0.00000000000E+00 0. -1.
         -1   -1    0    0    0  501 -0.00000000000E+00 -0.00000000000E+00 -0.43162921856E+03  0.43162921856E+03  0.00000000000E+00 0.  1.
          5    1    1    2  502    0 -0.26925824116E+02 -0.21789438654E+02 -0.19252484007E+02  0.39848590711E+02  0.41800000000E+01 0. -1.
         -5    1    1    2    0  502 -0.17016632326E+02  0.81725421962E+02 -0.36117380541E+03  0.37071903173E+03  0.41800000000E+01 0.  1.
        -11    1    1    2    0    0  0.35868968256E+01 -0.72836639583E+02  0.45756113742E+02  0.86091020666E+02  0.00000000000E+00 0.  1.
         11    1    1    2    0    0  0.40355559617E+02  0.12900656275E+02  0.12143859480E+02  0.44073477822E+02  0.00000000000E+00 0. -1.
</event>
<event>
 6    1  0.8989754E-006  0.1125193E+03  0.7561462E-02  0.1255974E+00
          1   -1    0    0  501    0  0.00000000000E+00  0.00000000000E+00  0.32833365110E+02  0.32833365110E+02  0.00000000000E+00 0. -1.
         -1   -1    0    0    0  501 -0.00000000000E+00 -0.00000000000E+00 -0.46221185660E+03  0.46221185660E+03  0.00000000000E+00 0.  1.
          5    1    1    2  502    0 -0.63030933546E+01  0.57283759102E+02 -0.13270021598E+03  0.14473416240E+03  0.41800000000E+01 0.  1.
         -5    1    1    2    0  502  0.62633147494E+02 -0.48175892168E+02 -0.14778716605E+03  0.16763754532E+03  0.41800000000E+01 0.  1.
        -11    1    1    2    0    0  0.13654177533E+02 -0.11867385888E+02 -0.88081200155E+02  0.89919793331E+02  0.00000000000E+00 0.  1.
         11    1    1    2    0    0 -0.69984231672E+02  0.27595189544E+01 -0.60809909297E+02  0.92753720660E+02  0.00000000000E+00 0. -1.
</event>
<event>
 6    1  0.8989754E-006  0.1129835E+03  0.7561462E-02  0.1255143E+00
         -1   -1    0    0    0  501 -0.00000000000E+00  0.00000000000E+00  0.68476365422E+03  0.68476365422E+03  0.00000000000E+00 0.  1.
          1   -1    0    0  501    0  0.00000000000E+00 -0.00000000000E+00 -0.19547183391E+02  0.19547183391E+02  0.00000000000E+00 0. -1.
          5    1    1    2  502    0 -0.42697044759E+01  0.77618695092E+02  0.28179694694E+03  0.29235232838E+03  0.41800000000E+01 0.  1.
         -5    1    1    2    0  502  0.18428565508E+02 -0.45551578975E+02  0.11369709973E+03  0.12393167981E+03  0.41800000000E+01 0.  1.
        -11    1    1    2    0    0 -0.22868617128E+02  0.29104721415E+02  0.73305130065E+02  0.82120037456E+02  0.00000000000E+00 0. -1.
         11    1    1    2    0    0  0.87097560960E+01 -0.61171837532E+02  0.19641729410E+03  0.20590679197E+03  0.00000000000E+00 0.  1.
</event>
<event>
 6    1  0.8989754E-006  0.1150198E+03  0.7561462E-02  0.1251547E+00
          1   -1    0    0  501    0  0.00000000000E+00  0.00000000000E+00  0.22644493350E+03  0.22644493350E+03  0.00000000000E+00 0. -1.
         -1   -1    0    0    0  501 -0.00000000000E+00 -0.00000000000E+00 -0.87688500217E+02  0.87688500217E+02  0.00000000000E+00 0.  1.
          5    1    1    2  502    0  0.70268381165E+02 -0.38676640023E+02 -0.15330238268E+01  0.80332748223E+02  0.41800000000E+01 0. -1.
         -5    1    1    2    0  502 -0.50439092286E+02  0.26754027334E+01 -0.11528880966E+02  0.51977373027E+02  0.41800000000E+01 0. -1.
        -11    1    1    2    0    0 -0.42258161528E+02 -0.13771772076E+02  0.55433723353E+02  0.71051471530E+02  0.00000000000E+00 0.  1.
         11    1    1    2    0    0  0.22428872649E+02  0.49773009366E+02  0.96384614725E+02  0.11077184094E+03  0.00000000000E+00 0. -1.
</event>
<event>
 6    1  0.8989754E-006  0.1166579E+03  0.7561462E-02  0.1248715E+00
          1   -1    0    0  501    0  0.00000000000E+00  0.00000000000E+00  0.28031529329E+03  0.28031529329E+03  0.00000000000E+00 0. -1.
         -1   -1    0    0    0  501 -0.00000000000E+00 -0.00000000000E+00 -0.77548817937E+02  0.77548817937E+02  0.00000000000E+00 0.  1.
          5    1    1    2  502    0 -0.30718278036E+02 -0.44704494923E+02  0.13516080975E+03  0.14569839177E+03  0.41800000000E+01 0. -1.
         -5    1    1    2    0  502  0.10125099632E+02 -0.50880281390E+02 -0.14143217705E+02  0.53933511697E+02  0.41800000000E+01 0. -1.
        -11    1    1    2    0    0  0.23019574245E+02 -0.71499511659E+01 -0.39477405181E+01  0.24425545138E+02  0.00000000000E+00 0.  1.
         11    1    1    2    0    0 -0.24263958411E+01  0.10273472748E+03  0.85696623824E+02  0.13380666262E+03  0.00000000000E+00 0. -1.
</event>
<event>
 6    1  0.8989754E-006  0.1077598E+03  0.7561462E-02  0.1264775E+00
          1   -1    0    0  501    0  0.00000000000E+00  0.00000000000E+00  0.76459105187E+02  0.76459105187E+02  0.00000000000E+00 0. -1.
         -1   -1    0    0    0  501 -0.00000000000E+00 -0.00000000000E+00 -0.23601339334E+03  0.23601339334E+03  0.00000000000E+00 0.  1.
          5    1    1    2  502    0  0.48743072740E+02  0.32779912505E+01 -0.70128459066E+02  0.85569302543E+02  0.41800000000E+01 0. -1.
         -5    1    1    2    0  502 -0.59113699552E+02  0.69561639261E+02 -0.59733704556E+02  0.10917343537E+03  0.41800000000E+01 0. -1.
        -11    1    1    2    0    0 -0.27289198071E+01 -0.34144219582E+02 -0.58466083712E+02  0.67761033631E+02  0.00000000000E+00 0.  1.
         11    1    1    2    0    0  0.13099546620E+02 -0.38695410930E+02  0.28773959182E+02  0.49968726977E+02  0.00000000000E+00 0. -1.
</event>
<event>
 6    1  0.8989754E-006  0.2413557E+03  0.7561462E-02  0.1118893E+00
         -2   -1    0    0    0  501 -0.00000000000E+00  0.00000000000E+00  0.80119521330E+03  0.80119521330E+03  0.00000000000E+00 0.  1.
          2   -1    0    0  501    0  0.00000000000E+00 -0.00000000000E+00 -0.90215044407E+02  0.90215044407E+02  0.00000000000E+00 0. -1.
          5    1    1    2  502    0  0.16688166886E+03 -0.12811458507E+03  0.49245494661E+03  0.53552981724E+03  0.41800000000E+01 0.  1.
         -5    1    1    2    0  502  0.29841463328E+02  0.33762645875E+01  0.94509752109E+01  0.31760123245E+02  0.41800000000E+01 0.  1.
        -11    1    1    2    0    0 -0.58553711171E+01  0.26801258422E+02  0.47158917633E+01  0.27835812527E+02  0.00000000000E+00 0. -1.
         11    1    1    2    0    0 -0.19086776107E+03  0.97937062062E+02  0.20435835531E+03  0.29628450470E+03  0.00000000000E+00 0.  1.
</event>
<event>
 6    1  0.8989754E-006  0.1688168E+03  0.7561462E-02  0.1179087E+00
          1   -1    0    0  501    0  0.00000000000E+00  0.00000000000E+00  0.21109511979E+03  0.21109511979E+03  0.00000000000E+00 0. -1.
         -1   -1    0    0    0  501 -0.00000000000E+00 -0.00000000000E+00 -0.19382736712E+03  0.19382736712E+03  0.00000000000E+00 0.  1.
          5    1    1    2  502    0  0.11512609571E+03 -0.93552277459E+02  0.84949925125E+02  0.17099710146E+03  0.41800000000E+01 0.  1.
         -5    1    1    2    0  502  0.20791250929E+02 -0.36546077374E+01 -0.37347910025E+02  0.43104188383E+02  0.41800000000E+01 0.  1.
        -11    1    1    2    0    0 -0.19756393021E+02  0.20719252749E+02 -0.42462170064E+02  0.51211701653E+02  0.00000000000E+00 0.  1.
         11    1    1    2    0    0 -0.11616095362E+03  0.76487632447E+02  0.12127907635E+02  0.13960949540E+03  0.00000000000E+00 0. -1.
</event>
<event>
 6    1  0.8989754E-006  0.2345369E+03  0.7561462E-02  0.1123487E+00
         -1   -1    0    0    0  501 -0.00000000000E+00  0.00000000000E+00  0.19123029093E+03  0.19123029093E+03  0.00000000000E+00 0.  1.
          1   -1    0    0  501    0  0.00000000000E+00 -0.00000000000E+00 -0.34326380865E+03  0.34326380865E+03  0.00000000000E+00 0. -1.
          5    1    1    2  502    0  0.19428655916E+02  0.13557844784E+03 -0.79306966736E+02  0.15832263124E+03  0.41800000000E+01 0. -1.
         -5    1    1    2    0  502  0.12319197909E+01  0.92048635308E+02  0.48347589431E+02  0.10406455060E+03  0.41800000000E+01 0. -1.
        -11    1    1    2    0    0  0.23284785069E+02 -0.33124825382E+02 -0.35487209731E+01  0.40645155835E+02  0.00000000000E+00 0. -1.
         11    1    1    2    0    0 -0.43945360775E+02 -0.19450225776E+03 -0.11752541944E+03  0.23146176190E+03  0.00000000000E+00 0.  1.
</event>
<event>
 6    1  0.8989754E-006  0.1459305E+03  0.7561462E-02  0.1205565E+00
         -2   -1    0    0    0  501 -0.00000000000E+00  0.00000000000E+00  0.67851101065E+02  0.67851101065E+02  0.00000000000E+00 0.  1.
          2   -1    0    0  501    0  0.00000000000E+00 -0.00000000000E+00 -0.41488315883E+03  0.41488315883E+03  0.00000000000E+00 0. -1.
          5    1    1    2  502    0  0.41976879625E+02 -0.13132307537E+02 -0.13809659754E+03  0.14499192590E+03  0.41800000000E+01 0.  1.
         -5    1    1    2    0  502  0.10944709855E+02 -0.10331988292E+03 -0.52735431363E+02  0.11659023544E+03  0.41800000000E+01 0.  1.
        -11    1    1    2    0    0  0.95847059089E+01  0.55746159656E+02 -0.21061105978E+02  0.60357858550E+02  0.00000000000E+00 0.  1.
         11    1    1    2    0    0 -0.62506295389E+02  0.60706030800E+02 -0.13513892289E+03  0.16079424001E+03  0.00000000000E+00 0. -1.
</event>
<event>
 6    1  0.8989754E-006  0.1194994E+03  0.7561462E-02  0.1243925E+00
         -2   -1    0    0    0  501 -0.00000000000E+00  0.00000000000E+00  0.83574791669E+02  0.83574791669E+02  0.00000000000E+00 0.  1.
          2   -1    0    0  501    0  0.00000000000E+00 -0.00000000000E+00 -0.21740959259E+03  0.21740959259E+03  0.00000000000E+00 0. -1.
          5    1    1    2  502    0 -0.95045788268E+02  0.28501784774E+02 -0.93645790445E+02  0.13650296726E+03  0.41800000000E+01 0. -1.
         -5    1    1    2    0  502  0.20801615196E+02 -0.63569897490E+01  0.21161732911E+02  0.30633476023E+02  0.41800000000E+01 0.  1.
        -11    1    1    2    0    0  0.76250897777E+02  0.17176597801E+02 -0.50322079755E+02  0.92959919507E+02  0.00000000000E+00 0.  1.
         11    1    1    2    0    0 -0.20067247050E+01 -0.39321392826E+02 -0.11028663628E+02  0.40888021464E+02  0.00000000000E+00 0. -1.
</event>
<event>
 6    1  0.1290917E-005  0.1489559E+03  0.7561462E-02  0.1201762E+00
         -1   -1    0    0    0  501 -0.00000000000E+00  0.00000000000E+00  0.33819691650E+02  0.33819691650E+02  0.00000000000E+00 0.  1.
          1   -1    0    0  501    0  0.00000000000E+00 -0.00000000000E+00 -0.85359674361E+03  0.85359674361E+03  0.00000000000E+00 0. -1.
          5    1    1    2  502    0 -0.10156501278E+03 -0.91502889214E+02 -0.31816139968E+03  0.34631254554E+03  0.41800000000E+01 0. -1.
         -5    1    1    2    0  502  0.13484241752E+02  0.59039972534E+01  0.17664431147E+01  0.15403722942E+02  0.41800000000E+01 0. -1.
        -11    1    1    2    0    0  0.97468921180E+02  0.51028969196E+02 -0.43258555423E+03  0.44635681693E+03  0.00000000000E+00 0. -1.
         11    1    1    2    0    0 -0.93881501518E+01  0.34569922765E+02 -0.70796541170E+02  0.79343349847E+02  0.00000000000E+00 0.  1.
</event>
<event>
 6    1  0.8989754E-006  0.1081004E+03  0.7561462E-02  0.1264129E+00
          2   -1    0    0  501    0  0.00000000000E+00  0.00000000000E+00  0.65398505086E+02  0.65398505086E+02  0.00000000000E+00 0. -1.
         -2   -1    0    0    0  501 -0.00000000000E+00 -0.00000000000E+00 -0.33026576408E+03  0.33026576408E+03  0.00000000000E+00 0.  1.
          5    1    1    2  502    0  0.30027640240E+02  0.78536822300E+02 -0.23829890285E+03  0.25273213317E+03  0.41800000000E+01 0. -1.
         -5    1    1    2    0  502 -0.11016955828E+02 -0.26011944222E+02 -0.19494476740E+02  0.34576026106E+02  0.41800000000E+01 0.  1.
        -11    1    1    2    0    0 -0.16273002498E+01 -0.75015803874E+02 -0.19201481061E+02  0.77451377082E+02  0.00000000000E+00 0.  1.
         11    1    1    2    0    0 -0.17383384162E+02  0.22490925796E+02  0.12127601658E+02  0.30904732810E+02  0.00000000000E+00 0. -1.
</event>
<event>
 6    1  0.8989754E-006  0.8865033E+02  0.7561462E-02  0.1306153E+00
          2   -1    0    0  501    0  0.00000000000E+00  0.00000000000E+00  0.22565969641E+03  0.22565969641E+03  0.00000000000E+00 0. -1.
         -2   -1    0    0    0  501 -0.00000000000E+00 -0.00000000000E+00 -0.57797083009E+02  0.57797083009E+02  0.00000000000E+00 0.  1.
          5    1    1    2  502    0 -0.70366161340E+02 -0.24289614974E+02  0.32157790494E+02  0.81197154795E+02  0.41800000000E+01 0. -1.
         -5    1    1    2    0  502  0.47120776996E+02 -0.32039187815E+01  0.68698494046E+02  0.83472080389E+02  0.41800000000E+01 0. -1.
        -11    1    1    2    0    0  0.11356497673E+02  0.37877631825E+02 -0.95009285024E+01  0.40668816979E+02  0.00000000000E+00 0.  1.
         11    1    1    2    0    0  0.11888886672E+02 -0.10384098070E+02  0.76507257364E+02  0.78118727258E+02  0.00000000000E+00 0. -1.
</event>
<event>
 6    1  0.8989754E-006  0.1264753E+03  0.7561462E-02  0.1232782E+00
         -2   -1    0    0    0  501 -0.00000000000E+00  0.00000000000E+00  0.53044794044E+02  0.53044794044E+02  0.00000000000E+00 0.  1.
          2   -1    0    0  501    0  0.00000000000E+00 -0.00000000000E+00 -0.40866529964E+03  0.40866529964E+03  0.00000000000E+00 0. -1.
          5    1    1    2  502    0 -0.84953196542E+02 -0.73730682575E+02 -0.95201681961E+02  0.14742486834E+03  0.41800000000E+01 0. -1.
         -5    1    1    2    0  502  0.34132738849E+02 -0.12876849979E+02 -0.92258918793E+02  0.99297722147E+02  0.41800000000E+01 0. -1.
        -11    1    1    2    0    0  0.13946175005E+02  0.49206833724E+02 -0.15342854417E+02  0.53396736455E+02  0.00000000000E+00 0.  1.
         11    1    1    2    0    0  0.36874282688E+02  0.37400698830E+02 -0.15281705042E+03  0.16159076674E+03  0.00000000000E+00 0. -1.
</event>
<event>
 6    1  0.8989754E-006  0.8640755E+02  0.7561462E-02  0.1311792E+00
         -2   -1    0    0    0  501 -0.00000000000E+00  0.00000000000E+00  0.37346971109E+02  0.37346971109E+02  0.00000000000E+00 0.  1.
          2   -1    0    0  501    0  0.00000000000E+00 -0.00000000000E+00 -0.41238122073E+03  0.41238122073E+03  0.00000000000E+00 0. -1.
          5    1    1    2  502    0  0.11936407455E+02  0.38252628376E+02 -0.22440930692E+03  0.22799726058E+03  0.41800000000E+01 0. -1.
         -5    1    1    2    0  502  0.18817858423E+02  0.11808998930E+02  0.11860849386E+02  0.25528736739E+02  0.41800000000E+01 0. -1.
        -11    1    1    2    0    0  0.26217456652E+02  0.91331080966E+01 -0.43682594000E+02  0.51758455496E+02  0.00000000000E+00 0.  1.
         11    1    1    2    0    0 -0.56971722530E+02 -0.59194735403E+02 -0.11880319810E+03  0.14444373903E+03  0.00000000000E+00 0. -1.
</event>
<event>
 6    1  0.8989754E-006  0.7558673E+02  0.7561462E-02  0.1342064E+00
          1   -1    0    0  501    0  0.00000000000E+00  0.00000000000E+00  0.78961695962E+02  0.78961695962E+02  0.00000000000E+00 0. -1.
         -1   -1    0    0    0  501 -0.00000000000E+00 -0.00000000000E+00 -0.15989354774E+03  0.15989354774E+03  0.00000000000E+00 0.  1.
          5    1    1    2  502    0 -0.53226023454E+01  0.28237998484E+02  0.29124980423E+02  0.41127260287E+02  0.41800000000E+01 0. -1.
         -5    1    1    2    0  502  0.20524552653E+02 -0.42381403278E+02 -0.85371348167E+02  0.97586782370E+02  0.41800000000E+01 0. -1.
        -11    1    1    2    0    0 -0.59273462288E+01  0.43588516271E+02  0.17942970897E+02  0.47508340201E+02  0.00000000000E+00 0. -1.
         11    1    1    2    0    0 -0.92746040792E+01 -0.29445111477E+02 -0.42628454928E+02  0.52632860840E+02  0.00000000000E+00 0.  1.
</event>
<event>
 6    1  0.8989754E-006  0.2019203E+03  0.7561462E-02  0.1148129E+00
          2   -1    0    0  501    0  0.00000000000E+00  0.00000000000E+00  0.14553102303E+03  0.14553102303E+03  0.00000000000E+00 0.  1.
         -2   -1    0    0    0  501 -0.00000000000E+00 -0.00000000000E+00 -0.39871834944E+03  0.39871834944E+03  0.00000000000E+00 0. -1.
          5    1    1    2  502    0 -0.18576181901E+02 -0.30946802052E+01 -0.59171591052E+02  0.62236654531E+02  0.41800000000E+01 0.  1.
         -5    1    1    2    0  502  0.89757537739E+02  0.17592526024E+03 -0.20451353382E+03  0.28434023755E+03  0.41800000000E+01 0.  1.
        -11    1    1    2    0    0 -0.50572830862E+02 -0.11561016978E+03  0.36749790283E+02  0.13143009421E+03  0.00000000000E+00 0.  1.
         11    1    1    2    0    0 -0.20608524976E+02 -0.57220410262E+02 -0.26251991820E+02  0.66242386179E+02  0.00000000000E+00 0. -1.
</event>
<event>
 6    1  0.8989754E-006  0.1937026E+03  0.7561462E-02  0.1155164E+00
          4   -1    0    0  501    0  0.00000000000E+00  0.00000000000E+00  0.15648542824E+03  0.15648542824E+03  0.00000000000E+00 0. -1.
         -4   -1    0    0    0  501 -0.00000000000E+00 -0.00000000000E+00 -0.28683394095E+03  0.28683394095E+03  0.00000000000E+00 0.  1.
          5    1    1    2  502    0  0.99763972316E+02 -0.13985147528E+03 -0.11658729433E+03  0.20765682004E+03  0.41800000000E+01 0. -1.
         -5    1    1    2    0  502  0.12248316344E+02 -0.42535924559E+00  0.26080651538E+02  0.29118292677E+02  0.41800000000E+01 0. -1.
        -11    1    1    2    0    0 -0.65202805590E+02  0.14149085166E+03 -0.28730964543E+02  0.15841886026E+03  0.00000000000E+00 0.  1.
         11    1    1    2    0    0 -0.46809483069E+02 -0.12140171373E+01 -0.11110905381E+02  0.48125396219E+02  0.00000000000E+00 0. -1.
</event>
<event>
 6    1  0.8989754E-006  0.1417150E+03  0.7561462E-02  0.1211040E+00
          4   -1    0    0  501    0  0.00000000000E+00  0.00000000000E+00  0.14634737568E+03  0.14634737568E+03  0.00000000000E+00 0.  1.
         -4   -1    0    0    0  501 -0.00000000000E+00 -0.00000000000E+00 -0.18330487285E+03  0.18330487285E+03  0.00000000000E+00 0. -1.
          5    1    1    2  502    0  0.88978111929E+02 -0.63444372609E+01 -0.74173752574E+02  0.11608864827E+03  0.41800000000E+01 0. -1.
         -5    1    1    2    0  502 -0.23440866427E+02 -0.59337265810E+02 -0.25574042265E+02  0.68861377930E+02  0.41800000000E+01 0. -1.
        -11    1    1    2    0    0 -0.71191458079E+02  0.73312301690E+01  0.38262677931E+02  0.81154193741E+02  0.00000000000E+00 0. -1.
         11    1    1    2    0    0  0.56542125773E+01  0.58350472902E+02  0.24527619738E+02  0.63548028591E+02  0.00000000000E+00 0.  1.
</event>
<event>
 6    1  0.8989754E-006  0.1516630E+03  0.7561462E-02  0.1198444E+00
         -2   -1    0    0    0  501 -0.00000000000E+00  0.00000000000E+00  0.15373835533E+03  0.15373835533E+03  0.00000000000E+00 0.  1.
          2   -1    0    0  501    0  0.00000000000E+00 -0.00000000000E+00 -0.21513227437E+03  0.21513227437E+03  0.00000000000E+00 0. -1.
          5    1    1    2  502    0 -0.68457450795E+02 -0.73022264405E+02 -0.10810743824E+03  0.14738848079E+03  0.41800000000E+01 0. -1.
         -5    1    1    2    0  502 -0.16518888123E+02 -0.39958961780E+02  0.34246043642E+02  0.55315966922E+02  0.41800000000E+01 0. -1.
        -11    1    1    2    0    0  0.55209522184E+02  0.11728403596E+03  0.27543863813E+02  0.13252283148E+03  0.00000000000E+00 0.  1.
         11    1    1    2    0    0  0.29766816734E+02 -0.43028097744E+01 -0.15076388253E+02  0.33643350505E+02  0.00000000000E+00 0. -1.
</event>
<event>
 6    1  0.8989754E-006  0.1033658E+03  0.7561462E-02  0.1273373E+00
          2   -1    0    0  501    0  0.00000000000E+00  0.00000000000E+00  0.33673717650E+03  0.33673717650E+03  0.00000000000E+00 0. -1.
         -2   -1    0    0    0  501 -0.00000000000E+00 -0.00000000000E+00 -0.40765679690E+02  0.40765679690E+02  0.00000000000E+00 0.  1.
          5    1    1    2  502    0 -0.29764927656E+02 -0.48552296710E+02  0.22125511665E+02  0.61239587692E+02  0.41800000000E+01 0. -1.
         -5    1    1    2    0  502 -0.15515341835E+02  0.52446505186E+02  0.12875198351E+03  0.13994966022E+03  0.41800000000E+01 0. -1.
        -11    1    1    2    0    0  0.95282137272E+01  0.38302334496E+02  0.89878121194E+02  0.98162784975E+02  0.00000000000E+00 0. -1.
         11    1    1    2    0    0  0.35752055764E+02 -0.42196542972E+02  0.55215880447E+02  0.78150823308E+02  0.00000000000E+00 0.  1.
</event>
<event>
 6    1  0.8989754E-006  0.8747125E+02  0.7561462E-02  0.1309094E+00
         -1   -1    0    0    0  501 -0.00000000000E+00  0.00000000000E+00  0.13352812948E+03  0.13352812948E+03  0.00000000000E+00 0.  1.
          1   -1    0    0  501    0  0.00000000000E+00 -0.00000000000E+00 -0.15181637159E+03  0.15181637159E+03  0.00000000000E+00 0. -1.
          5    1    1    2  502    0 -0.50641130122E+02 -0.57702832023E+02  0.81064344354E+02  0.11172753111E+03  0.41800000000E+01 0. -1.
         -5    1    1    2    0  502  0.25712989434E+02 -0.52625830233E+01 -0.29379277849E+02  0.39616498743E+02  0.41800000000E+01 0. -1.
        -11    1    1    2    0    0  0.14652314101E+02  0.58442967665E+02 -0.91596374264E+02  0.10963652018E+03  0.00000000000E+00 0. -1.
         11    1    1    2    0    0  0.10275826587E+02  0.45224473813E+01  0.21623065647E+02  0.24363951041E+02  0.00000000000E+00 0.  1.
</event>
<event>
 6    1  0.8989754E-006  0.2379860E+03  0.7561462E-02  0.1121142E+00
          2   -1    0    0  501    0  0.00000000000E+00  0.00000000000E+00  0.88815676425E+02  0.88815676425E+02  0.00000000000E+00 0. -1.
         -2   -1    0    0    0  501 -0.00000000000E+00 -0.00000000000E+00 -0.68776648081E+03  0.68776648081E+03  0.00000000000E+00 0.  1.
          5    1    1    2  502    0 -0.12093853674E+01 -0.75636400758E+01 -0.64908099255E+02  0.65492022515E+02  0.41800000000E+01 0. -1.
         -5    1    1    2    0  502 -0.77493894861E+02  0.21572450521E+03 -0.23388239283E+03  0.32750696476E+03  0.41800000000E+01 0. -1.
        -11    1    1    2    0    0  0.89844909278E+02 -0.12420052314E+03 -0.17760478268E+03  0.23460890116E+03  0.00000000000E+00 0. -1.
         11    1    1    2    0    0 -0.11141629049E+02 -0.83960341998E+02 -0.12255552962E+03  0.14897426881E+03  0.00000000000E+00 0.  1.
</event>
<event>
 6    1  0.8989754E-006  0.8521461E+02  0.7561462E-02  0.1314872E+00
         -4   -1    0    0    0  501 -0.00000000000E+00  0.00000000000E+00  0.13879230916E+04  0.13879230916E+04  0.00000000000E+00 0.  1.
          4   -1    0    0  501    0  0.00000000000E+00 -0.00000000000E+00 -0.98163482814E+01  0.98163482814E+01  0.00000000000E+00 0. -1.
          5    1    1    2  502    0  0.34875645257E+02  0.21647221501E+02  0.11665728707E+03  0.12373886963E+03  0.41800000000E+01 0. -1.
         -5    1    1    2    0  502 -0.48963611759E+02  0.18001927827E+02  0.88953874017E+03  0.89107695927E+03  0.41800000000E+01 0. -1.
        -11    1    1    2    0    0  0.12411679710E+02 -0.57540705405E+02  0.34836940699E+03  0.35330755199E+03  0.00000000000E+00 0.  1.
         11    1    1    2    0    0  0.16762867913E+01  0.17891556077E+02  0.23541309111E+02  0.29616059004E+02  0.00000000000E+00 0. -1.
</event>
<event>
 6    1  0.1039418E-005  0.1446779E+03  0.7561462E-02  0.1207170E+00
          1   -1    0    0  501    0  0.00000000000E+00  0.00000000000E+00  0.35739976362E+03  0.35739976362E+03  0.00000000000E+00 0. -1.
         -1   -1    0    0    0  501 -0.00000000000E+00 -0.00000000000E+00 -0.59009514132E+02  0.59009514132E+02  0.00000000000E+00 0.  1.
          5    1    1    2  502    0 -0.83011675430E+02 -0.39822196447E+02  0.10195456111E+03  0.13743707840E+03  0.41800000000E+01 0.  1.
         -5    1    1    2    0  502 -0.10411131409E+02  0.64318842664E+02  0.56259184584E+02  0.86185111411E+02  0.41800000000E+01 0.  1.
        -11    1    1    2    0    0  0.78230262011E+02  0.23398643162E+02  0.78934076939E+02  0.11356962137E+03  0.00000000000E+00 0.  1.
         11    1    1    2    0    0  0.15192544829E+02 -0.47895289379E+02  0.61242426856E+02  0.79217466573E+02  0.00000000000E+00 0. -1.
</event>
<event>
 6    1  0.8989754E-006  0.1630208E+03  0.7561462E-02  0.1185328E+00
          1   -1    0    0  501    0  0.00000000000E+00  0.00000000000E+00  0.10409195709E+03  0.10409195709E+03  0.00000000000E+00 0. -1.
         -1   -1    0    0    0  501 -0.00000000000E+00 -0.00000000000E+00 -0.29216343440E+03  0.29216343440E+03  0.00000000000E+00 0.  1.
          5    1    1    2  502    0 -0.11558032744E+03  0.80298660807E+02 -0.40216407644E+02  0.14642922817E+03  0.41800000000E+01 0.  1.
         -5    1    1    2    0  502 -0.85817621393E+01 -0.29906238355E+02 -0.47125648140E+02  0.56624454492E+02  0.41800000000E+01 0.  1.
        -11    1    1    2    0    0  0.86826627673E+02  0.50901593992E+01 -0.21637626258E+02  0.89626780964E+02  0.00000000000E+00 0. -1.
         11    1    1    2    0    0  0.37335461908E+02 -0.55482581851E+02 -0.79091795263E+02  0.10357492787E+03  0.00000000000E+00 0.  1.
</event>
<event>
 6    1  0.8989754E-006  0.1080789E+03  0.7561462E-02  0.1264169E+00
          2   -1    0    0  501    0  0.00000000000E+00  0.00000000000E+00  0.51530894351E+03  0.51530894351E+03  0.00000000000E+00 0. -1.
         -2   -1    0    0    0  501 -0.00000000000E+00 -0.00000000000E+00 -0.29811075280E+02  0.29811075280E+02  0.00000000000E+00 0.  1.
          5    1    1    2  502    0  0.19346620026E+02  0.66964775126E+02  0.11044682309E+03  0.13066960605E+03  0.41800000000E+01 0.  1.
         -5    1    1    2    0  502 -0.61843047054E+02 -0.27781373704E+02  0.11466399717E+03  0.13327292238E+03  0.41800000000E+01 0.  1.
        -11    1    1    2    0    0  0.20722196506E+01 -0.37902690965E+02  0.22264676921E+03  0.22585945169E+03  0.00000000000E+00 0. -1.
         11    1    1    2    0    0  0.40424207377E+02 -0.12807104570E+01  0.37740278760E+02  0.55318038670E+02  0.00000000000E+00 0.  1.
</event>
<event>
 6    1  0.8989754E-006  0.8565388E+02  0.7561462E-02  0.1313731E+00
         -1   -1    0    0    0  501 -0.00000000000E+00  0.00000000000E+00  0.42313904054E+02  0.42313904054E+02  0.00000000000E+00 0.  1.
          1   -1    0    0  501    0  0.00000000000E+00 -0.00000000000E+00 -0.42980791036E+03  0.42980791036E+03  0.00000000000E+00 0. -1.
          5    1    1    2  502    0  0.37960011117E+02 -0.39130221644E+02  0.28053864138E+01  0.54749240020E+02  0.41800000000E+01 0. -1.
         -5    1    1    2    0  502  0.15549949622E+02 -0.73960202277E+01 -0.14992101430E+03  0.15096451562E+03  0.41800000000E+01 0. -1.
        -11    1    1    2    0    0 -0.62504644029E+02  0.12534017986E+02 -0.80376355112E+02  0.10258796515E+03  0.00000000000E+00 0.  1.
         11    1    1    2    0    0  0.89946832907E+01  0.33992223886E+02 -0.16000202331E+03  0.16382009362E+03  0.00000000000E+00 0. -1.
</event>
<event>
 6    1  0.8989754E-006  0.2133590E+03  0.7561462E-02  0.1138933E+00
         -3   -1    0    0    0  501 -0.00000000000E+00  0.00000000000E+00  0.67060367642E+03  0.67060367642E+03  0.00000000000E+00 0.  1.
          3   -1    0    0  501    0  0.00000000000E+00 -0.00000000000E+00 -0.84588275972E+02  0.84588275972E+02  0.00000000000E+00 0. -1.
          5    1    1    2  502    0 -0.28298579379E+02  0.65095926477E+02  0.11946918869E+03  0.13902751053E+03  0.41800000000E+01 0. -1.
         -5    1    1    2    0  502 -0.14946779857E+03 -0.14555930792E+02  0.34336683361E+03  0.37479428058E+03  0.41800000000E+01 0. -1.
        -11    1    1    2    0    0  0.17078238343E+03 -0.17574836188E+02  0.89033916996E+02  0.19339735193E+03  0.00000000000E+00 0. -1.
         11    1    1    2    0    0  0.69839945210E+01 -0.32965159497E+02  0.34145461155E+02  0.47972809357E+02  0.00000000000E+00 0.  1.
</event>
<event>
 6    1  0.8989754E-006  0.8748897E+02  0.7561462E-02  0.1309049E+00
          1   -1    0    0  501    0  0.00000000000E+00  0.00000000000E+00  0.16132224247E+03  0.16132224247E+03  0.00000000000E+00 0. -1.
         -1   -1    0    0    0  501 -0.00000000000E+00 -0.00000000000E+00 -0.10345454226E+03  0.10345454226E+03  0.00000000000E+00 0.  1.
          5    1    1    2  502    0 -0.31545465484E+02  0.26299992571E+02  0.39443274702E+02  0.57096850360E+02  0.41800000000E+01 0.  1.
         -5    1    1    2    0  502  0.51363625311E+02  0.21325259962E+02 -0.56305855153E+02  0.79251564288E+02  0.41800000000E+01 0.  1.
        -11    1    1    2    0    0 -0.10944477970E+02  0.12805205252E+02 -0.13175896184E+02  0.21385956135E+02  0.00000000000E+00 0.  1.
         11    1    1    2    0    0 -0.88736818567E+01 -0.60430457785E+02  0.87906176842E+02  0.10704241395E+03  0.00000000000E+00 0. -1.
</event>
<event>
 6    1  0.8989754E-006  0.7989818E+02  0.7561462E-02  0.1329341E+00
          2   -1    0    0  501    0  0.00000000000E+00  0.00000000000E+00  0.38095995255E+03  0.38095995255E+03  0.00000000000E+00 0. -1.
         -2   -1    0    0    0  501 -0.00000000000E+00 -0.00000000000E+00 -0.34587218729E+02  0.34587218729E+02  0.00000000000E+00 0.  1.
          5    1    1    2  502    0 -0.30205357191E+02  0.10606746391E+02  0.15758267767E+03  0.16085595847E+03  0.41800000000E+01 0. -1.
         -5    1    1    2    0  502  0.61068961144E+02  0.17516666025E+02  0.35433168827E+02  0.72864486940E+02  0.41800000000E+01 0. -1.
        -11    1    1    2    0    0 -0.40560296482E+02 -0.33631953079E+02  0.16026778963E+03  0.16870687690E+03  0.00000000000E+00 0. -1.
         11    1    1    2    0    0  0.96966925291E+01  0.55085406631E+01 -0.69109023144E+01  0.13119848972E+02  0.00000000000E+00 0.  1.
</event>
<event>
 6    1  0.8989754E-006  0.1580170E+03  0.7561462E-02  0.1190954E+00
          2   -1    0    0  501    0  0.00000000000E+00  0.00000000000E+00  0.11275340081E+04  0.11275340081E+04  0.00000000000E+00 0. -1.
         -2   -1    0    0    0  501 -0.00000000000E+00 -0.00000000000E+00 -0.27219090440E+02  0.27219090440E+02  0.00000000000E+00 0.  1.
          5    1    1    2  502    0 -0.43544553871E+02  0.36495916687E+02  0.30951206917E+03  0.31471141299E+03  0.41800000000E+01 0. -1.
         -5    1    1    2    0  502  0.40785949165E+02  0.90207863460E+02  0.16963454127E+03  0.19645432617E+03  0.41800000000E+01 0. -1.
        -11    1    1    2    0    0  0.43605760251E+02 -0.24740056689E+02  0.29987166846E+03  0.30403379792E+03  0.00000000000E+00 0. -1.
         11    1    1    2    0    0 -0.40847155545E+02 -0.10196372346E+03  0.32129663872E+03  0.33955356142E+03  0.00000000000E+00 0.  1.
</event>
<event>
 6    1  0.8989754E-006  0.1298781E+03  0.7561462E-02  0.1227637E+00
         -1   -1    0    0    0  501 -0.00000000000E+00  0.00000000000E+00  0.42255205384E+02  0.42255205384E+02  0.00000000000E+00 0.  1.
          1   -1    0    0  501    0  0.00000000000E+00 -0.00000000000E+00 -0.43507221301E+03  0.43507221301E+03  0.00000000000E+00 0. -1.
          5    1    1    2  502    0 -0.66044026032E+02 -0.72082218871E+02 -0.86859802542E+02  0.13084249061E+03  0.41800000000E+01 0. -1.
         -5    1    1    2    0  502 -0.52584942352E+01  0.42710507797E+02 -0.84301898466E+02  0.94742396649E+02  0.41800000000E+01 0. -1.
        -11    1    1    2    0    0  0.68100258832E+02  0.58249153675E+02 -0.15521065241E+03  0.17922320101E+03  0.00000000000E+00 0.  1.
         11    1    1    2    0    0  0.32022614348E+01 -0.28877442601E+02 -0.66444654211E+02  0.72519330132E+02  0.00000000000E+00 0. -1.
</event>
<event>
 6    1  0.8989754E-006  0.9953155E+02  0.7561462E-02  0.1281284E+00
         -1   -1    0    0    0  501 -0.00000000000E+00  0.00000000000E+00  0.60243799478E+02  0.60243799478E+02  0.00000000000E+00 0.  1.
          1   -1    0    0  501    0  0.00000000000E+00 -0.00000000000E+00 -0.23051237676E+03  0.23051237676E+03  0.00000000000E+00 0. -1.
          5    1    1    2  502    0 -0.32234804743E+02 -0.26691224657E+02 -0.49093712269E+02  0.64646493291E+02  0.41800000000E+01 0.  1.
         -5    1    1    2    0  502  0.44764348948E+02  0.53480681316E+02  0.79478102925E+01  0.70318349663E+02  0.41800000000E+01 0.  1.
        -11    1    1    2    0    0  0.52225611469E+01 -0.54215359002E+02 -0.82740431944E+02  0.99058363478E+02  0.00000000000E+00 0.  1.
         11    1    1    2    0    0 -0.17752105352E+02  0.27425902343E+02 -0.46382243363E+02  0.56732969807E+02  0.00000000000E+00 0. -1.
</event>
<event>
 6    1  0.8989754E-006  0.1136764E+03  0.7561462E-02  0.1253909E+00
         -3   -1    0    0    0  501 -0.00000000000E+00  0.00000000000E+00  0.50888397156E+03  0.50888397156E+03  0.00000000000E+00 0.  1.
          3   -1    0    0  501    0  0.00000000000E+00 -0.00000000000E+00 -0.32481679446E+02  0.32481679446E+02  0.00000000000E+00 0. -1.
          5    1    1    2  502    0 -0.21945119704E+02 -0.25897221312E+02  0.33652573381E+02  0.47981480236E+02  0.41800000000E+01 0. -1.
         -5    1    1    2    0  502  0.81526455232E+02  0.44155355114E+02  0.29191686239E+03  0.30631549951E+03  0.41800000000E+01 0. -1.
        -11    1    1    2    0    0 -0.77998499829E+02 -0.23008741725E+02  0.81336171929E+02  0.11501626422E+03  0.00000000000E+00 0. -1.
         11    1    1    2    0    0  0.18417164301E+02  0.47506079232E+01  0.69496684415E+02  0.72052407046E+02  0.00000000000E+00 0.  1.
</event>
<event>
 6    1  0.8989754E-006  0.1284884E+03  0.7561462E-02  0.1229716E+00
         -2   -1    0    0    0  501 -0.00000000000E+00  0.00000000000E+00  0.31970809206E+02  0.31970809206E+02  0.00000000000E+00 0.  1.
          2   -1    0    0  501    0  0.00000000000E+00 -0.00000000000E+00 -0.61400865110E+03  0.61400865110E+03  0.00000000000E+00 0. -1.
          5    1    1    2  502    0  0.30174148303E+02  0.13008438108E+02 -0.80783660952E+02  0.87310772329E+02  0.41800000000E+01 0.  1.
         -5    1    1    2    0  502 -0.10403620017E+03 -0.36211790559E+02 -0.14447692417E+03  0.18173023617E+03  0.41800000000E+01 0.  1.
        -11    1    1    2    0    0 -0.47787006476E+01  0.33913958749E+02 -0.54109407001E+02  0.64037649113E+02  0.00000000000E+00 0.  1.
         11    1    1    2    0    0  0.78640752511E+02 -0.10710606298E+02 -0.30266784977E+03  0.31290080269E+03  0.00000000000E+00 0. -1.
</event>
<event>
 6    1  0.8989754E-006  0.1063036E+03  0.7561462E-02  0.1267572E+00
         -2   -1    0    0    0  501 -0.00000000000E+00  0.00000000000E+00  0.25014513505E+02  0.25014513505E+02  0.00000000000E+00 0.  1.
          2   -1    0    0  501    0  0.00000000000E+00 -0.00000000000E+00 -0.52419286144E+03  0.52419286144E+03  0.00000000000E+00 0. -1.
          5    1    1    2  502    0  0.74062442222E+02 -0.27309254434E+02 -0.16006578329E+03  0.17852049772E+03  0.41800000000E+01 0. -1.
         -5    1    1    2    0  502 -0.49041266667E+02  0.63824862082E+01 -0.12468832371E+03  0.13420295241E+03  0.41800000000E+01 0. -1.
        -11    1    1    2    0    0 -0.72547461045E+00 -0.28681324077E+02 -0.21624388644E+02  0.35927132483E+02  0.00000000000E+00 0.  1.
         11    1    1    2    0    0 -0.24295700944E+02  0.49608092302E+02 -0.19279985229E+03  0.20055679233E+03  0.00000000000E+00 0. -1.
</event>
<event>
 6    1  0.8989754E-006  0.8153432E+02  0.7561462E-02  0.1324753E+00
          1   -1    0    0  501    0  0.00000000000E+00  0.00000000000E+00  0.76472870452E+02  0.76472870452E+02  0.00000000000E+00 0. -1.
         -1   -1    0    0    0  501 -0.00000000000E+00 -0.00000000000E+00 -0.18935049580E+03  0.18935049580E+03  0.00000000000E+00 0.  1.
          5    1    1    2  502    0  0.47622467576E+02 -0.45041869462E+02 -0.11108298336E+03  0.12904871566E+03  0.41800000000E+01 0.  1.
         -5    1    1    2    0  502 -0.38360407611E+02  0.20867270699E+02 -0.60837234919E+01  0.44288237152E+02  0.41800000000E+01 0.  1.
        -11    1    1    2    0    0  0.18594261235E+02  0.15881887932E+02 -0.35564564011E+02  0.43160388419E+02  0.00000000000E+00 0.  1.
         11    1    1    2    0    0 -0.27856321201E+02  0.82927108314E+01  0.39853645511E+02  0.49326025020E+02  0.00000000000E+00 0. -1.
</event>
<event>
 6    1  0.8989754E-006  0.1184125E+03  0.7561462E-02  0.1245739E+00
         -1   -1    0    0    0  501 -0.00000000000E+00  0.00000000000E+00  0.22116617377E+03  0.22116617377E+03  0.00000000000E+00 0.  1.
          1   -1    0    0  501    0  0.00000000000E+00 -0.00000000000E+00 -0.12122162381E+03  0.12122162381E+03  0.00000000000E+00 0. -1.
          5    1    1    2  502    0 -0.53933176529E+01  0.13939814220E+02 -0.15210541283E+02  0.21731066746E+02  0.41800000000E+01 0. -1.
         -5    1    1    2    0  502  0.66786612225E+02 -0.78995459319E+02  0.15310788062E+03  0.18482486217E+03  0.41800000000E+01 0. -1.
        -11    1    1    2    0    0 -0.50632477378E+02 -0.12053869177E+01  0.12129374394E+02  0.52079001970E+02  0.00000000000E+00 0.  1.
         11    1    1    2    0    0 -0.10760817195E+02  0.66261032017E+02 -0.50082163772E+02  0.83752866690E+02  0.00000000000E+00 0. -1.
</event>
<event>
 6    1  0.8989754E-006  0.1113329E+03  0.7561462E-02  0.1258121E+00
         -2   -1    0    0    0  501 -0.00000000000E+00  0.00000000000E+00  0.55833884020E+02  0.55833884020E+02  0.00000000000E+00 0.  1.
          2   -1    0    0  501    0  0.00000000000E+00 -0.00000000000E+00 -0.26996520104E+03  0.26996520104E+03  0.00000000000E+00 0. -1.
          5    1    1    2  502    0 -0.41009126276E+02  0.66833787377E+02 -0.45191927077E+02  0.90599592968E+02  0.41800000000E+01 0.  1.
         -5    1    1    2    0  502 -0.10555260572E+02 -0.50175105751E+02 -0.76207246645E+02  0.91945481695E+02  0.41800000000E+01 0.  1.
        -11    1    1    2    0    0 -0.98638184454E+01  0.19188974401E+02 -0.62233905604E+02  0.65867827197E+02  0.00000000000E+00 0. -1.
         11    1    1    2    0    0  0.61428205294E+02 -0.35847656027E+02 -0.30498237696E+02  0.77386183203E+02  0.00000000000E+00 0.  1.
</event>
<event>
 6    1  0.8989754E-006  0.9396781E+02  0.7561462E-02  0.1293518E+00
         -1   -1    0    0    0  501 -0.00000000000E+00  0.00000000000E+00  0.39624100884E+03  0.39624100884E+03  0.00000000000E+00 0.  1.
          1   -1    0    0  501    0  0.00000000000E+00 -0.00000000000E+00 -0.36719715903E+02  0.36719715903E+02  0.00000000000E+00 0. -1.
          5    1    1    2  502    0  0.58791104882E+01  0.56637315744E+02  0.14644856618E+03  0.15718461888E+03  0.41800000000E+01 0. -1.
         -5    1    1    2    0  502 -0.10333341581E+00 -0.68107840233E+02  0.14647241034E+03  0.16158690532E+03  0.41800000000E+01 0. -1.
        -11    1    1    2    0    0  0.17809277454E+02 -0.17688810066E+02  0.72044919119E+02  0.76292429086E+02  0.00000000000E+00 0.  1.
         11    1    1    2    0    0 -0.23585054527E+02  0.29159334555E+02 -0.54446027034E+01  0.37896771463E+02  0.00000000000E+00 0. -1.
</event>
<event>
 6    1  0.8989754E-006  0.1042223E+03  0.7561462E-02  0.1271659E+00
          1   -1    0    0  501    0  0.00000000000E+00  0.00000000000E+00  0.21115576325E+03  0.21115576325E+03  0.00000000000E+00 0. -1.
         -1   -1    0    0    0  501 -0.00000000000E+00 -0.00000000000E+00 -0.93544186896E+02  0.93544186896E+02  0.00000000000E+00 0.  1.
          5    1    1    2  502    0 -0.26499305697E+02  0.43361736002E+02 -0.31693500476E+02  0.60036686484E+02  0.41800000000E+01 0. -1.
         -5    1    1    2    0  502  0.20720394814E+02  0.13174571007E+02  0.82948062691E+02  0.86606914197E+02  0.41800000000E+01 0. -1.
        -11    1    1    2    0    0  0.55120411072E+02 -0.61936159553E+02  0.69687936480E+02  0.10830861493E+03  0.00000000000E+00 0. -1.
         11    1    1    2    0    0 -0.49341500189E+02  0.53998525438E+01 -0.33309223362E+01  0.49747734541E+02  0.00000000000E+00 0.  1.
</event>
<event>
 6    1  0.8989754E-006  0.1258277E+03  0.7561462E-02  0.1233781E+00
         -1   -1    0    0    0  501 -0.00000000000E+00  0.00000000000E+00  0.32333127158E+03  0.32333127158E+03  0.00000000000E+00 0.  1.
          1   -1    0    0  501    0  0.00000000000E+00 -0.00000000000E+00 -0.62090487701E+02  0.62090487701E+02  0.00000000000E+00 0. -1.
          5    1    1    2  502    0 -0.86032927568E+02 -0.17635624311E+02  0.26608661568E+02  0.91859529398E+02  0.41800000000E+01 0.  1.
         -5    1    1    2    0  502  0.12295004275E+02 -0.34012598017E+02  0.10389193428E+03  0.11008646766E+03  0.41800000000E+01 0.  1.
        -11    1    1    2    0    0  0.85680369265E+02  0.12734267665E+02  0.10103563213E+03  0.13308450777E+03  0.00000000000E+00 0.  1.
         11    1    1    2    0    0 -0.11942445972E+02  0.38913954663E+02  0.29704555909E+02  0.50391254450E+02  0.00000000000E+00 0. -1.
</event>
<event>
 6    1  0.8989754E-006  0.1031275E+03  0.7561462E-02  0.1273853E+00
          1   -1    0    0  501    0  0.00000000000E+00  0.00000000000E+00  0.27435164627E+02  0.27435164627E+02  0.00000000000E+00 0. -1.
         -1   -1    0    0    0  501 -0.00000000000E+00 -0.00000000000E+00 -0.51280948834E+03  0.51280948834E+03  0.00000000000E+00 0.  1.
          5    1    1    2  502    0  0.39767549056E+02 -0.39745054683E+02 -0.49131557818E+02  0.74783084340E+02  0.41800000000E+01 0.  1.
         -5    1    1    2    0  502  0.75272395261E+00  0.59739438677E+02 -0.18543546073E+03  0.19486700497E+03  0.41800000000E+01 0.  1.
        -11    1    1    2    0    0  0.13924273335E+02  0.18610716234E+02 -0.21115351411E+02  0.31402264439E+02  0.00000000000E+00 0. -1.
         11    1    1    2    0    0 -0.54444546344E+02 -0.38605100228E+02 -0.22969195375E+03  0.23919229923E+03  0.00000000000E+00 0.  1.
</event>
<event>
 6    1  0.8989754E-006  0.1783952E+03  0.7561462E-02  0.1169365E+00
          1   -1    0    0  501    0  0.00000000000E+00  0.00000000000E+00  0.49094032359E+03  0.49094032359E+03  0.00000000000E+00 0. -1.
         -1   -1    0    0    0  501 -0.00000000000E+00 -0.00000000000E+00 -0.95476551752E+02  0.95476551752E+02  0.00000000000E+00 0.  1.
          5    1    1    2  502    0 -0.99524443151E+02  0.87419960364E+02  0.13466637453E+02  0.13321481516E+03  0.41800000000E+01 0.  1.
         -5    1    1    2    0  502  0.29232282616E+02  0.48789817103E+02  0.46314394485E+02  0.73467463114E+02  0.41800000000E+01 0.  1.
        -11    1    1    2    0    0  0.13827158450E+02 -0.98183104687E+02  0.13277506861E+03  0.16571159043E+03  0.00000000000E+00 0.  1.
         11    1    1    2    0    0  0.56465002085E+02 -0.38026672780E+02  0.20290767128E+03  0.21402300663E+03  0.00000000000E+00 0. -1.
</event>
<event>
 6    1  0.8989754E-006  0.1077871E+03  0.7561462E-02  0.1264724E+00
          3   -1    0    0  501    0  0.00000000000E+00  0.00000000000E+00  0.14117816235E+03  0.14117816235E+03  0.00000000000E+00 0. -1.
         -3   -1    0    0    0  501 -0.00000000000E+00 -0.00000000000E+00 -0.10032429027E+03  0.10032429027E+03  0.00000000000E+00 0.  1.
          5    1    1    2  502    0  0.28779405432E+02  0.74082220497E+02 -0.22015050695E+02  0.82574599169E+02  0.41800000000E+01 0. -1.
         -5    1    1    2    0  502 -0.30835934234E+02 -0.27531625989E+02  0.29805776045E+02  0.51134156444E+02  0.41800000000E+01 0. -1.
        -11    1    1    2    0    0 -0.97591867500E+01 -0.68671047205E+02  0.41002283323E+01  0.69482129519E+02  0.00000000000E+00 0.  1.
         11    1    1    2    0    0  0.11815715552E+02  0.22120452696E+02  0.28962918390E+02  0.38311567485E+02  0.00000000000E+00 0. -1.
</event>
<event>
 6    1  0.8989754E-006  0.1513034E+03  0.7561462E-02  0.1198880E+00
         -2   -1    0    0    0  501 -0.00000000000E+00  0.00000000000E+00  0.10000706775E+03  0.10000706775E+03  0.00000000000E+00 0.  1.
          2   -1    0    0  501    0  0.00000000000E+00 -0.00000000000E+00 -0.31857836240E+03  0.31857836240E+03  0.00000000000E+00 0. -1.
          5    1    1    2  502    0  0.37382033000E+02  0.84620115404E+02  0.12684185209E+02  0.93468397208E+02  0.41800000000E+01 0. -1.
         -5    1    1    2    0  502  0.63370742476E+02  0.55028375280E+01 -0.80757388245E+02  0.10288518056E+03  0.41800000000E+01 0. -1.
        -11    1    1    2    0    0 -0.37740624731E+02 -0.70998743310E+02 -0.13073054823E+03  0.15347850842E+03  0.00000000000E+00 0. -1.
         11    1    1    2    0    0 -0.63012150744E+02 -0.19124209623E+02 -0.19767543390E+02  0.68753343968E+02  0.00000000000E+00 0.  1.
</event>
<event>
 6    1  0.8989754E-006  0.1125713E+03  0.7561462E-02  0.1255881E+00
          2   -1    0    0  501    0  0.00000000000E+00  0.00000000000E+00  0.73984822534E+03  0.73984822534E+03  0.00000000000E+00 0. -1.
         -2   -1    0    0    0  501 -0.00000000000E+00 -0.00000000000E+00 -0.29884488931E+02  0.29884488931E+02  0.00000000000E+00 0.  1.
          5    1    1    2  502    0  0.14508850501E+02  0.14594657999E+02 -0.74174903796E+01  0.22271110177E+02  0.41800000000E+01 0. -1.
         -5    1    1    2    0  502  0.55142210266E+02 -0.64241759977E+02  0.24772477718E+03  0.26182571437E+03  0.41800000000E+01 0. -1.
        -11    1    1    2    0    0 -0.85115869668E+02  0.22344906298E+02  0.28318927821E+03  0.29654708463E+03  0.00000000000E+00 0.  1.
         11    1    1    2    0    0  0.15464808901E+02  0.27302195680E+02  0.18646717140E+03  0.18908880509E+03  0.00000000000E+00 0. -1.
</event>
<event>
 6    1  0.8989754E-006  0.1510500E+03  0.7561462E-02  0.1199189E+00
         -3   -1    0    0    0  501 -0.00000000000E+00  0.00000000000E+00  0.12546299681E+03  0.12546299681E+03  0.00000000000E+00 0.  1.
          3   -1    0    0  501    0  0.00000000000E+00 -0.00000000000E+00 -0.25211354226E+03  0.25211354226E+03  0.00000000000E+00 0. -1.
          5    1    1    2  502    0 -0.57842144809E+02  0.58967767074E+02 -0.60475108273E+02  0.10245790546E+03  0.41800000000E+01 0. -1.
         -5    1    1    2    0  502 -0.76098021315E+02 -0.30877450091E+02  0.25745873383E+02  0.86166398140E+02  0.41800000000E+01 0. -1.
        -11    1    1    2    0    0  0.92666448467E+02 -0.23752902408E+02 -0.88245748150E+01  0.96068434800E+02  0.00000000000E+00 0.  1.
         11    1    1    2    0    0  0.41273717657E+02 -0.43374145747E+01 -0.83096735751E+02  0.92883800670E+02  0.00000000000E+00 0. -1.
</event>
<event>
 6    1  0.8989754E-006  0.1860758E+03  0.7561462E-02  0.1162049E+00
          1   -1    0    0  501    0  0.00000000000E+00  0.00000000000E+00  0.79982009397E+02  0.79982009397E+02  0.00000000000E+00 0. -1.
         -1   -1    0    0    0  501 -0.00000000000E+00 -0.00000000000E+00 -0.48270948084E+03  0.48270948084E+03  0.00000000000E+00 0.  1.
          5    1    1    2  502    0  0.27597787492E+02  0.22624452527E+02 -0.71885624863E+02  0.80364912671E+02  0.41800000000E+01 0.  1.
         -5    1    1    2    0  502 -0.12761081090E+03  0.10316857047E+03 -0.18154196812E+03  0.24475136686E+03  0.41800000000E+01 0.  1.
        -11    1    1    2    0    0  0.60434529470E+02 -0.11676047322E+03 -0.71104222167E+02  0.14946956502E+03  0.00000000000E+00 0. -1.
         11    1    1    2    0    0  0.39578493937E+02 -0.90325497751E+01 -0.78195656289E+02  0.88105645677E+02  0.00000000000E+00 0.  1.
</event>
<event>
 6    1  0.8989754E-006  0.1333296E+03  0.7561462E-02  0.1222597E+00
          2   -1    0    0  501    0  0.00000000000E+00  0.00000000000E+00  0.70838453487E+03  0.70838453487E+03  0.00000000000E+00 0. -1.
         -2   -1    0    0    0  501 -0.00000000000E+00 -0.00000000000E+00 -0.85889030749E+02  0.85889030749E+02  0.00000000000E+00 0.  1.
          5    1    1    2  502    0  0.10798168175E+02  0.42053688977E+02 -0.46450924267E+02  0.63720279015E+02  0.41800000000E+01 0. -1.
         -5    1    1    2    0  502 -0.37905027285E+02 -0.38597665167E+02  0.21463336292E+02  0.58349961907E+02  0.41800000000E+01 0.  1.
        -11    1    1    2    0    0  0.71976156243E+02 -0.62015862216E+02  0.24046767338E+03  0.25855606002E+03  0.00000000000E+00 0.  1.
         11    1    1    2    0    0 -0.44869297133E+02  0.58559838406E+02  0.40701541872E+03  0.41364726467E+03  0.00000000000E+00 0. -1.
</event>
<event>
 6    1  0.8989754E-006  0.1053094E+03  0.7561462E-02  0.1269511E+00
         -2   -1    0    0    0  501 -0.00000000000E+00  0.00000000000E+00  0.19071535240E+02  0.19071535240E+02  0.00000000000E+00 0.  1.
          2   -1    0    0  501    0  0.00000000000E+00 -0.00000000000E+00 -0.97874524052E+03  0.97874524052E+03  0.00000000000E+00 0. -1.
          5    1    1    2  502    0  0.23486310786E+02 -0.68518068476E+02 -0.11272950722E+03  0.13405874346E+03  0.41800000000E+01 0. -1.
         -5    1    1    2    0  502  0.21219753604E+02 -0.11781032303E+01 -0.38936411822E+03  0.38996609446E+03  0.41800000000E+01 0. -1.
        -11    1    1    2    0    0 -0.46809556555E+02  0.13062175457E+00 -0.11404432903E+03  0.12327716995E+03  0.00000000000E+00 0.  1.
         11    1    1    2    0    0  0.21034921646E+01  0.69565549952E+02 -0.34353575081E+03  0.35051476789E+03  0.00000000000E+00 0. -1.
</event>
<event>
 6    1  0.8989754E-006  0.7751056E+02  0.7561462E-02  0.1336268E+00
          1   -1    0    0  501    0  0.00000000000E+00  0.00000000000E+00  0.11809971393E+03  0.11809971393E+03  0.00000000000E+00 0.  1.
         -1   -1    0    0    0  501 -0.00000000000E+00 -0.00000000000E+00 -0.19341426710E+03  0.19341426710E+03  0.00000000000E+00 0. -1.
          5    1    1    2  502    0 -0.13921561618E+02 -0.26415516680E+02  0.22345326926E+02  0.37528328430E+02  0.41800000000E+01 0. -1.
         -5    1    1    2    0  502 -0.27209166641E+02 -0.34048216795E+02 -0.14774963443E+03  0.15410076798E+03  0.41800000000E+01 0. -1.
        -11    1    1    2    0    0  0.53146711864E+00  0.30799270352E+02 -0.17665939524E+02  0.35510039859E+02  0.00000000000E+00 0. -1.
         11    1    1    2    0    0  0.40599261141E+02  0.29664463123E+02  0.67755693860E+02  0.84374844758E+02  0.00000000000E+00 0.  1.
</event>
<event>
 6    1  0.8989754E-006  0.1383658E+03  0.7561462E-02  0.1215545E+00
          2   -1    0    0  501    0  0.00000000000E+00  0.00000000000E+00  0.31476239439E+03  0.31476239439E+03  0.00000000000E+00 0. -1.
         -2   -1    0    0    0  501 -0.00000000000E+00 -0.00000000000E+00 -0.77887733696E+02  0.77887733696E+02  0.00000000000E+00 0.  1.
          5    1    1    2  502    0  0.35031068598E+02 -0.14530927459E+01  0.20505541446E+02  0.40831812054E+02  0.41800000000E+01 0.  1.
         -5    1    1    2    0  502 -0.93097056074E+02  0.75258171749E+02  0.28647127617E+02  0.12316243171E+03  0.41800000000E+01 0.  1.
        -11    1    1    2    0    0  0.41852056190E+01 -0.67226616571E+02  0.61305724620E+02  0.91078679134E+02  0.00000000000E+00 0.  1.
         11    1    1    2    0    0  0.53880781857E+02 -0.65784624324E+01  0.12641626702E+03  0.13757720519E+03  0.00000000000E+00 0. -1.
</event>
<event>
 6    1  0.8989754E-006  0.8588627E+02  0.7561462E-02  0.1313131E+00
         -1   -1    0    0    0  501 -0.00000000000E+00  0.00000000000E+00  0.65846508680E+02  0.65846508680E+02  0.00000000000E+00 0.  1.
          1   -1    0    0  501    0  0.00000000000E+00 -0.00000000000E+00 -0.21307333484E+03  0.21307333484E+03  0.00000000000E+00 0. -1.
          5    1    1    2  502    0 -0.78906518391E+01 -0.45253756441E+02  0.20958078271E+02  0.50664369169E+02  0.41800000000E+01 0. -1.
         -5    1    1    2    0  502 -0.20402448499E+02  0.56665557358E+02 -0.57032636453E+02  0.83050823694E+02  0.41800000000E+01 0. -1.
        -11    1    1    2    0    0  0.16678697497E+02 -0.35117372656E+02 -0.92818193055E+01  0.39969500648E+02  0.00000000000E+00 0.  1.
         11    1    1    2    0    0  0.11614402841E+02  0.23705571739E+02 -0.10187044867E+03  0.10523515000E+03  0.00000000000E+00 0. -1.
</event>
<event>
 6    1  0.8989754E-006  0.8841194E+02  0.7561462E-02  0.1306744E+00
          2   -1    0    0  501    0  0.00000000000E+00  0.00000000000E+00  0.23270029520E+03  0.23270029520E+03  0.00000000000E+00 0. -1.
         -2   -1    0    0    0  501 -0.00000000000E+00 -0.00000000000E+00 -0.56717353411E+02  0.56717353411E+02  0.00000000000E+00 0.  1.
          5    1    1    2  502    0 -0.78813057445E+02 -0.47303485362E+01  0.23692314578E+02  0.82538914405E+02  0.41800000000E+01 0. -1.
         -5    1    1    2    0  502  0.27948032059E+02 -0.37735252152E+01  0.62970049368E+02  0.69123306532E+02  0.41800000000E+01 0.  1.
        -11    1    1    2    0    0  0.49853646781E+02 -0.98915604805E+01  0.45756232228E+01  0.51031023838E+02  0.00000000000E+00 0.  1.
         11    1    1    2    0    0  0.10113786049E+01  0.18395434232E+02  0.84744954620E+02  0.86724403836E+02  0.00000000000E+00 0. -1.
</event>
<event>
 6    1  0.8989754E-006  0.1554471E+03  0.7561462E-02  0.1193935E+00
          1   -1    0    0  501    0  0.00000000000E+00  0.00000000000E+00  0.82057490008E+03  0.82057490008E+03  0.00000000000E+00 0. -1.
         -1   -1    0    0    0  501 -0.00000000000E+00 -0.00000000000E+00 -0.58966015510E+02  0.58966015510E+02  0.00000000000E+00 0.  1.
          5    1    1    2  502    0 -0.63058783100E+02  0.58086625566E+02  0.58941922687E+02  0.10412535160E+03  0.41800000000E+01 0. -1.
         -5    1    1    2    0  502  0.66529547464E+02  0.52792979093E+02  0.34061749229E+02  0.91602153292E+02  0.41800000000E+01 0.  1.
        -11    1    1    2    0    0  0.11305190627E+01  0.14507879963E+02  0.35007153965E+02  0.37911178867E+02  0.00000000000E+00 0.  1.
         11    1    1    2    0    0 -0.46012834263E+01 -0.12538748462E+03  0.63359805869E+03  0.64590223183E+03  0.00000000000E+00 0. -1.
</event>
<event>
 6    1  0.8989754E-006  0.9545779E+02  0.7561462E-02  0.1290148E+00
         -1   -1    0    0    0  501 -0.00000000000E+00  0.00000000000E+00  0.67643399656E+03  0.67643399656E+03  0.00000000000E+00 0. -1.
          1   -1    0    0  501    0  0.00000000000E+00 -0.00000000000E+00 -0.30761107265E+02  0.30761107265E+02  0.00000000000E+00 0.  1.
          5    1    1    2  502    0  0.94261649801E+01  0.59304166838E+02  0.42552840596E+03  0.42976474200E+03  0.41800000000E+01 0. -1.
         -5    1    1    2    0  502  0.43886401887E+02  0.44339898833E+01  0.41103249992E+02  0.60436959692E+02  0.41800000000E+01 0. -1.
        -11    1    1    2    0    0 -0.45462030851E+02 -0.37208853334E+02  0.17996538763E+03  0.18931147816E+03  0.00000000000E+00 0. -1.
         11    1    1    2    0    0 -0.78505360161E+01 -0.26529303387E+02 -0.92415428760E+00  0.27681923977E+02  0.00000000000E+00 0.  1.
</event>
<event>
 6    1  0.8989754E-006  0.1879631E+03  0.7561462E-02  0.1160311E+00
          1   -1    0    0  501    0  0.00000000000E+00  0.00000000000E+00  0.71018054781E+02  0.71018054781E+02  0.00000000000E+00 0. -1.
         -1   -1    0    0    0  501 -0.00000000000E+00 -0.00000000000E+00 -0.59433521235E+03  0.59433521235E+03  0.00000000000E+00 0.  1.
          5    1    1    2  502    0  0.73045566750E+01  0.62599066917E+02 -0.35272440873E+02  0.72343743422E+02  0.41800000000E+01 0. -1.
         -5    1    1    2    0  502  0.12592567451E+03  0.47031522201E+02 -0.24834844356E+03  0.28242461189E+03  0.41800000000E+01 0. -1.
        -11    1    1    2    0    0 -0.12625753848E+03 -0.83835962993E+02 -0.24001773614E+03  0.28386255191E+03  0.00000000000E+00 0.  1.
         11    1    1    2    0    0 -0.69726927106E+01 -0.25794626126E+02  0.32146300702E+00  0.26722359909E+02  0.00000000000E+00 0. -1.
</event>
<event>
 6    1  0.8989754E-006  0.1092421E+03  0.7561462E-02  0.1261980E+00
          2   -1    0    0  501    0  0.00000000000E+00  0.00000000000E+00  0.12160499030E+03  0.12160499030E+03  0.00000000000E+00 0.  1.
         -2   -1    0    0    0  501 -0.00000000000E+00 -0.00000000000E+00 -0.12762428314E+03  0.12762428314E+03  0.00000000000E+00 0. -1.
          5    1    1    2  502    0 -0.34420613829E+02  0.76984254869E+02 -0.44714253421E+02  0.95541566938E+02  0.41800000000E+01 0. -1.
         -5    1    1    2    0  502  0.34684373360E+02 -0.27049494648E+02  0.64447880383E+01  0.44650740295E+02  0.41800000000E+01 0. -1.
        -11    1    1    2    0    0  0.33862733955E+02 -0.62506700952E+01  0.40315108836E+02  0.53019464614E+02  0.00000000000E+00 0.  1.
         11    1    1    2    0    0 -0.34126493486E+02 -0.43684090125E+02 -0.80649362964E+01  0.56017501597E+02  0.00000000000E+00 0. -1.
</event>
<event>
 6    1  0.8989754E-006  0.1788298E+03  0.7561462E-02  0.1168940E+00
          1   -1    0    0  501    0  0.00000000000E+00  0.00000000000E+00  0.23566137084E+03  0.23566137084E+03  0.00000000000E+00 0. -1.
         -1   -1    0    0    0  501 -0.00000000000E+00 -0.00000000000E+00 -0.39004225665E+03  0.39004225665E+03  0.00000000000E+00 0.  1.
          5    1    1    2  502    0  0.98497474911E+02  0.12868789997E+03 -0.21259300136E+03  0.26734918139E+03  0.41800000000E+01 0. -1.
         -5    1    1    2    0  502 -0.97346466426E+01  0.76232196918E+01 -0.10834094358E+03  0.10912428364E+03  0.41800000000E+01 0.  1.
        -11    1    1    2    0    0 -0.10472860648E+03 -0.11130957714E+03  0.15416663331E+03  0.21708351804E+03  0.00000000000E+00 0. -1.
         11    1    1    2    0    0  0.15965778214E+02 -0.25001542525E+02  0.12386425826E+02  0.32146644418E+02  0.00000000000E+00 0.  1.
</event>
<event>
 6    1  0.8989754E-006  0.1040975E+03  0.7561462E-02  0.1271908E+00
          1   -1    0    0  501    0  0.00000000000E+00  0.00000000000E+00  0.61424985599E+03  0.61424985599E+03  0.00000000000E+00 0. -1.
         -1   -1    0    0    0  501 -0.00000000000E+00 -0.00000000000E+00 -0.24154517273E+02  0.24154517273E+02  0.00000000000E+00 0.  1.
          5    1    1    2  502    0  0.25729790566E+02  0.36892861168E+02  0.31663304835E+02  0.55164686174E+02  0.41800000000E+01 0.  1.
         -5    1    1    2    0  502 -0.53311060367E+02  0.17158799777E+02  0.26505350281E+03  0.27093786247E+03  0.41800000000E+01 0. -1.
        -11    1    1    2    0    0  0.16527792186E+01 -0.74080335170E+02  0.19450684810E+03  0.20814307987E+03  0.00000000000E+00 0. -1.
         11    1    1    2    0    0  0.25928490583E+02  0.20028674225E+02  0.98871682971E+02  0.10415874475E+03  0.00000000000E+00 0.  1.
</event>
<event>
 6    1  0.8989754E-006  0.1201108E+03  0.7561462E-02  0.1242914E+00
         -2   -1    0    0    0  501 -0.00000000000E+00  0.00000000000E+00  0.40753036281E+03  0.40753036281E+03  0.00000000000E+00 0.  1.
          2   -1    0    0  501    0  0.00000000000E+00 -0.00000000000E+00 -0.44515769395E+02  0.44515769395E+02  0.00000000000E+00 0. -1.
          5    1    1    2  502    0  0.89592850308E+02 -0.41577075929E+02  0.19693617538E+03  0.22035621535E+03  0.41800000000E+01 0. -1.
         -5    1    1    2    0  502 -0.36959454058E+02  0.13286962416E+02  0.91753179587E+02  0.99893257925E+02  0.41800000000E+01 0. -1.
        -11    1    1    2    0    0 -0.71083039102E+02  0.37737176696E+01  0.71647572530E+02  0.10099709918E+03  0.00000000000E+00 0.  1.
         11    1    1    2    0    0  0.18449642852E+02  0.24516395844E+02  0.26776659223E+01  0.30799559758E+02  0.00000000000E+00 0. -1.
</event>
<event>
 6    1  0.8989754E-006  0.1138909E+03  0.7561462E-02  0.1253530E+00
          1   -1    0    0  501    0  0.00000000000E+00  0.00000000000E+00  0.32187572181E+03  0.32187572181E+03  0.00000000000E+00 0. -1.
         -1   -1    0    0    0  501 -0.00000000000E+00 -0.00000000000E+00 -0.74113740067E+02  0.74113740067E+02  0.00000000000E+00 0.  1.
          5    1    1    2  502    0  0.79928672060E+02 -0.51938016342E+02  0.15891516405E+03  0.18535817199E+03  0.41800000000E+01 0. -1.
         -5    1    1    2    0  502 -0.45574258631E+02  0.49307237812E+02 -0.14380269331E+02  0.68793032324E+02  0.41800000000E+01 0.  1.
        -11    1    1    2    0    0  0.10419544886E+01  0.23819261029E+02  0.97279006235E+02  0.10015811460E+03  0.00000000000E+00 0. -1.
         11    1    1    2    0    0 -0.35396367918E+02 -0.21188482499E+02  0.59480807856E+01  0.41680142963E+02  0.00000000000E+00 0.  1.
</event>
<event>
 6    1  0.8989754E-006  0.1485420E+03  0.7561462E-02  0.1202276E+00
          2   -1    0    0  501    0  0.00000000000E+00  0.00000000000E+00  0.35253475648E+03  0.35253475648E+03  0.00000000000E+00 0.  1.
         -2   -1    0    0    0  501 -0.00000000000E+00 -0.00000000000E+00 -0.75352950512E+02  0.75352950512E+02  0.00000000000E+00 0. -1.
          5    1    1    2  502    0  0.15625135265E+02 -0.34202028232E+00  0.69055356685E+02  0.70925147281E+02  0.41800000000E+01 0. -1.
         -5    1    1    2    0  502 -0.97985020743E+02 -0.86555995854E+02  0.54078238785E+02  0.14154480922E+03  0.41800000000E+01 0. -1.
        -11    1    1    2    0    0 -0.87539299143E+01  0.51678754845E+02  0.62137823844E+02  0.81292276037E+02  0.00000000000E+00 0.  1.
         11    1    1    2    0    0  0.91113815393E+02  0.35219261292E+02  0.91910386658E+02  0.13412547445E+03  0.00000000000E+00 0. -1.
</event>
<event>
 6    1  0.8989754E-006  0.1136491E+03  0.7561462E-02  0.1253958E+00
         -1   -1    0    0    0  501 -0.00000000000E+00  0.00000000000E+00  0.32445163307E+03  0.32445163307E+03  0.00000000000E+00 0.  1.
          1   -1    0    0  501    0  0.00000000000E+00 -0.00000000000E+00 -0.49132962928E+02  0.49132962928E+02  0.00000000000E+00 0. -1.
          5    1    1    2  502    0 -0.21111211958E+02 -0.59982194428E+02  0.16295526550E+03  0.17497267751E+03  0.41800000000E+01 0.  1.
         -5    1    1    2    0  502 -0.29259904238E+02  0.49010182188E+02  0.43592359909E+02  0.71943771076E+02  0.41800000000E+01 0.  1.
        -11    1    1    2    0    0  0.86266448214E+01 -0.39734363498E+02  0.27870837938E+02  0.49295255866E+02  0.00000000000E+00 0.  1.
         11    1    1    2    0    0  0.41744471375E+02  0.50706375738E+02  0.40900206789E+02  0.77372891546E+02  0.00000000000E+00 0. -1.
</event>
<event>
 6    1  0.8989754E-006  0.1209581E+03  0.7561462E-02  0.1241525E+00
         -2   -1    0    0    0  501 -0.00000000000E+00  0.00000000000E+00  0.13150699580E+03  0.13150699580E+03  0.00000000000E+00 0.  1.
          2   -1    0    0  501    0  0.00000000000E+00 -0.00000000000E+00 -0.18370524371E+03  0.18370524371E+03  0.00000000000E+00 0. -1.
          5    1    1    2  502    0 -0.22512555844E+02  0.33536032500E+02 -0.65542685600E+01  0.41132851625E+02  0.41800000000E+01 0. -1.
         -5    1    1    2    0  502  0.84681185650E+02 -0.24346322199E+02  0.69767408920E+02  0.11246604090E+03  0.41800000000E+01 0. -1.
        -11    1    1    2    0    0 -0.85570416831E+01  0.39657731223E+02 -0.39485701057E+02  0.56613418869E+02  0.00000000000E+00 0.  1.
         11    1    1    2    0    0 -0.53611588123E+02 -0.48847441524E+02 -0.75925687216E+02  0.10499992811E+03  0.00000000000E+00 0. -1.
</event>
<event>
 6    1  0.8989754E-006  0.1260542E+03  0.7561462E-02  0.1233431E+00
          2   -1    0    0  501    0  0.00000000000E+00  0.00000000000E+00  0.12407338978E+03  0.12407338978E+03  0.00000000000E+00 0.  1.
         -2   -1    0    0    0  501 -0.00000000000E+00 -0.00000000000E+00 -0.15920392337E+03  0.15920392337E+03  0.00000000000E+00 0. -1.
          5    1    1    2  502    0  0.23210203833E+02  0.57962472144E+02  0.63449785969E+01  0.62897479222E+02  0.41800000000E+01 0. -1.
         -5    1    1    2    0  502  0.57410823290E+02 -0.45408692773E+02 -0.63575838858E+02  0.97042834339E+02  0.41800000000E+01 0. -1.
        -11    1    1    2    0    0 -0.45401908427E+02 -0.48122206828E+02  0.30033358172E+02  0.72657296136E+02  0.00000000000E+00 0.  1.
         11    1    1    2    0    0 -0.35219118696E+02  0.35568427457E+02 -0.79330314999E+01  0.50679703455E+02  0.00000000000E+00 0. -1.
</event>
<event>
 6    1  0.8989754E-006  0.9153911E+02  0.7561462E-02  0.1299167E+00
         -1   -1    0    0    0  501 -0.00000000000E+00  0.00000000000E+00  0.46926984965E+02  0.46926984965E+02  0.00000000000E+00 0.  1.
          1   -1    0    0  501    0  0.00000000000E+00 -0.00000000000E+00 -0.25445047148E+03  0.25445047148E+03  0.00000000000E+00 0. -1.
          5    1    1    2  502    0  0.38588042895E+02  0.29340498690E+02 -0.71659064057E+02  0.86616371313E+02  0.41800000000E+01 0.  1.
         -5    1    1    2    0  502 -0.75416565990E+02 -0.27153161243E+02 -0.78427380387E+02  0.11221977983E+03  0.41800000000E+01 0.  1.
        -11    1    1    2    0    0  0.25850777129E+02 -0.20374230750E+02 -0.70358554774E+02  0.77676883219E+02  0.00000000000E+00 0. -1.
         11    1    1    2    0    0  0.10977745967E+02  0.18186893302E+02  0.12921512708E+02  0.24864422076E+02  0.00000000000E+00 0.  1.
</event>
<event>
 6    1  0.8989754E-006  0.1561031E+03  0.7561462E-02  0.1193168E+00
         -2   -1    0    0    0  501 -0.00000000000E+00  0.00000000000E+00  0.67274704781E+02  0.67274704781E+02  0.00000000000E+00 0.  1.
          2   -1    0    0  501    0  0.00000000000E+00 -0.00000000000E+00 -0.40914448050E+03  0.40914448050E+03  0.00000000000E+00 0. -1.
          5    1    1    2  502    0  0.11851053640E+03  0.15573241672E+02 -0.96398217530E+02  0.15361432823E+03  0.41800000000E+01 0. -1.
         -5    1    1    2    0  502 -0.17039380269E+02  0.52330242994E+02 -0.45321980428E+02  0.71416728584E+02  0.41800000000E+01 0. -1.
        -11    1    1    2    0    0 -0.10669303492E+02 -0.41497648514E+02 -0.12002548816E+03  0.12744413159E+03  0.00000000000E+00 0. -1.
         11    1    1    2    0    0 -0.90801852643E+02 -0.26405836152E+02 -0.80124089598E+02  0.12394399687E+03  0.00000000000E+00 0.  1.
</event>
<event>
 6    1  0.8989754E-006  0.1004139E+03  0.7561462E-02  0.1279428E+00
          1   -1    0    0  501    0  0.00000000000E+00  0.00000000000E+00  0.26913403773E+02  0.26913403773E+02  0.00000000000E+00 0. -1.
         -1   -1    0    0    0  501 -0.00000000000E+00 -0.00000000000E+00 -0.58081263409E+03  0.58081263409E+03  0.00000000000E+00 0.  1.
          5    1    1    2  502    0 -0.36846065566E+01  0.38933292700E+02 -0.31227461145E+03  0.31474161301E+03  0.41800000000E+01 0. -1.
         -5    1    1    2    0  502  0.88504929661E+01 -0.65316000233E+02 -0.13216725408E+03  0.14775035216E+03  0.41800000000E+01 0. -1.
        -11    1    1    2    0    0 -0.92603195748E+01 -0.33843356594E+02 -0.39563297236E+02  0.52880816866E+02  0.00000000000E+00 0. -1.
         11    1    1    2    0    0  0.40944331654E+01  0.60226064126E+02 -0.69894067560E+02  0.92353255834E+02  0.00000000000E+00 0.  1.
</event>
<event>
 6    1  0.8989754E-006  0.1242823E+03  0.7561462E-02  0.1236195E+00
          2   -1    0    0  501    0  0.00000000000E+00  0.00000000000E+00  0.18331743679E+02  0.18331743679E+02  0.00000000000E+00 0. -1.
         -2   -1    0    0    0  501 -0.00000000000E+00 -0.00000000000E+00 -0.94773112239E+03  0.94773112239E+03  0.00000000000E+00 0.  1.
          5    1    1    2  502    0  0.15896664029E+02 -0.57290900834E+02 -0.16142156738E+03  0.17207366464E+03  0.41800000000E+01 0. -1.
         -5    1    1    2    0  502  0.57392187413E+02  0.50364554165E+02 -0.44126291638E+03  0.44784024525E+03  0.41800000000E+01 0. -1.
        -11    1    1    2    0    0 -0.11512656051E+02  0.40552965205E+02 -0.15390077394E+03  0.15956983567E+03  0.00000000000E+00 0.  1.
         11    1    1    2    0    0 -0.61776195392E+02 -0.33626618536E+02 -0.17281412101E+03  0.18657912052E+03  0.00000000000E+00 0. -1.
</event>
<event>
 6    1  0.8989754E-006  0.9291376E+02  0.7561462E-02  0.1295945E+00
          1   -1    0    0  501    0  0.00000000000E+00  0.00000000000E+00  0.39411228984E+03  0.39411228984E+03  0.00000000000E+00 0. -1.
         -1   -1    0    0    0  501 -0.00000000000E+00 -0.00000000000E+00 -0.31909074459E+02  0.31909074459E+02  0.00000000000E+00 0.  1.
          5    1    1    2  502    0  0.46308949764E+02 -0.20474619455E+02  0.13534833330E+03  0.14456961160E+03  0.41800000000E+01 0. -1.
         -5    1    1    2    0  502 -0.58858988262E+02 -0.11023210383E+02  0.35029126902E+02  0.69501106451E+02  0.41800000000E+01 0. -1.
        -11    1    1    2    0    0 -0.19173863370E+02 -0.10889020396E+02  0.13324737850E+02  0.25763471049E+02  0.00000000000E+00 0.  1.
         11    1    1    2    0    0  0.31723901869E+02  0.42386850233E+02  0.17850101733E+03  0.18618717520E+03  0.00000000000E+00 0. -1.
</event>
<event>
 6    1  0.8989754E-006  0.1533829E+03  0.7561462E-02  0.1196377E+00
          2   -1    0    0  501    0  0.00000000000E+00  0.00000000000E+00  0.51030355960E+03  0.51030355960E+03  0.00000000000E+00 0. -1.
         -2   -1    0    0    0  501 -0.00000000000E+00 -0.00000000000E+00 -0.46606014220E+02  0.46606014220E+02  0.00000000000E+00 0.  1.
          5    1    1    2  502    0 -0.53533453544E+02  0.60464965550E+02  0.99378700217E+02  0.12812275818E+03  0.41800000000E+01 0. -1.
         -5    1    1    2    0  502 -0.54968450687E+02 -0.63338966137E+02  0.13130010174E+03  0.15585424062E+03  0.41800000000E+01 0. -1.
        -11    1    1    2    0    0  0.62806563415E+02  0.46970901267E+02  0.13549394487E+03  0.15655522690E+03  0.00000000000E+00 0. -1.
         11    1    1    2    0    0  0.45695340817E+02 -0.44096900680E+02  0.97524798557E+02  0.11637734812E+03  0.00000000000E+00 0.  1.
</event>
<event>
 6    1  0.8989754E-006  0.9408458E+02  0.7561462E-02  0.1293251E+00
          2   -1    0    0  501    0  0.00000000000E+00  0.00000000000E+00  0.10140180369E+04  0.10140180369E+04  0.00000000000E+00 0. -1.
         -2   -1    0    0    0  501 -0.00000000000E+00 -0.00000000000E+00 -0.13221983148E+02  0.13221983148E+02  0.00000000000E+00 0.  1.
          5    1    1    2  502    0  0.30576800748E+02  0.48801618744E+02  0.11132586977E+03  0.12540917198E+03  0.41800000000E+01 0. -1.
         -5    1    1    2    0  502  0.57755618421E+01 -0.32811092237E+02  0.44179141954E+03  0.44306552074E+03  0.41800000000E+01 0. -1.
        -11    1    1    2    0    0  0.33090408463E+01 -0.46621517914E+02  0.15740456042E+03  0.16419717209E+03  0.00000000000E+00 0.  1.
         11    1    1    2    0    0 -0.39661403436E+02  0.30630991407E+02  0.29027420403E+03  0.29456815525E+03  0.00000000000E+00 0. -1.
</event>
<event>
 6    1  0.8989754E-006  0.1665285E+03  0.7561462E-02  0.1181517E+00
          3   -1    0    0  501    0  0.00000000000E+00  0.00000000000E+00  0.49254096970E+02  0.49254096970E+02  0.00000000000E+00 0. -1.
         -3   -1    0    0    0  501 -0.00000000000E+00 -0.00000000000E+00 -0.72319542247E+03  0.72319542247E+03  0.00000000000E+00 0.  1.
          5    1    1    2  502    0  0.16966297434E+01 -0.56324534749E+02 -0.46367448992E+02  0.73094079741E+02  0.41800000000E+01 0.  1.
         -5    1    1    2    0  502 -0.10370200240E+03 -0.57149127435E+02 -0.35299174541E+03  0.37234496478E+03  0.41800000000E+01 0.  1.
        -11    1    1    2    0    0  0.82363071598E+02  0.62340856170E+02 -0.98979140576E+02  0.14306267221E+03  0.00000000000E+00 0. -1.
         11    1    1    2    0    0  0.19642301058E+02  0.51132806013E+02 -0.17560299052E+03  0.18394780271E+03  0.00000000000E+00 0.  1.
</event>
<event>
 6    1  0.1087168E-005  0.9897445E+02  0.7561462E-02  0.1282467E+00
          1   -1    0    0  501    0  0.00000000000E+00  0.00000000000E+00  0.67937147564E+02  0.67937147564E+02  0.00000000000E+00 0. -1.
         -1   -1    0    0    0  501 -0.00000000000E+00 -0.00000000000E+00 -0.21889190494E+03  0.21889190494E+03  0.00000000000E+00 0.  1.
          5    1    1    2  502    0 -0.34244113841E+02  0.18587670011E+02 -0.11316120189E+03  0.11975429354E+03  0.41800000000E+01 0.  1.
         -5    1    1    2    0  502  0.44795706722E+02 -0.47461683498E+02 -0.27408112822E+02  0.70907995245E+02  0.41800000000E+01 0.  1.
        -11    1    1    2    0    0 -0.37485327523E+01 -0.31946238367E+02  0.62047819932E+01  0.32758402940E+02  0.00000000000E+00 0.  1.
         11    1    1    2    0    0 -0.68030601282E+01  0.60820251854E+02 -0.16590224667E+02  0.63408360783E+02  0.00000000000E+00 0. -1.
</event>
<event>
 6    1  0.8989754E-006  0.1645687E+03  0.7561462E-02  0.1183633E+00
         -1   -1    0    0    0  501 -0.00000000000E+00  0.00000000000E+00  0.42238755432E+02  0.42238755432E+02  0.00000000000E+00 0.  1.
          1   -1    0    0  501    0  0.00000000000E+00 -0.00000000000E+00 -0.65752186467E+03  0.65752186467E+03  0.00000000000E+00 0. -1.
          5    1    1    2  502    0 -0.17097755920E+02 -0.17346049636E+02 -0.82419082246E+02  0.86044152699E+02  0.41800000000E+01 0. -1.
         -5    1    1    2    0  502  0.75875680612E+02  0.12762022568E+03 -0.26536782964E+03  0.30410787283E+03  0.41800000000E+01 0. -1.
        -11    1    1    2    0    0  0.27525696556E+01 -0.91530602125E+02 -0.15657010370E+03  0.18138253813E+03  0.00000000000E+00 0.  1.
         11    1    1    2    0    0 -0.61530494348E+02 -0.18743573918E+02 -0.11092609366E+03  0.12822605645E+03  0.00000000000E+00 0. -1.
</event>
<event>
 6    1  0.9646650E-006  0.1347370E+03  0.7561462E-02  0.1220591E+00
          1   -1    0    0  501    0  0.00000000000E+00  0.00000000000E+00  0.18112028486E+03  0.18112028486E+03  0.00000000000E+00 0. -1.
         -1   -1    0    0    0  501 -0.00000000000E+00 -0.00000000000E+00 -0.15991783570E+03  0.15991783570E+03  0.00000000000E+00 0.  1.
          5    1    1    2  502    0 -0.81708800617E+02  0.28924337585E+02 -0.64141266530E+02  0.10790977655E+03  0.41800000000E+01 0. -1.
         -5    1    1    2    0  502  0.21974322560E+02  0.65011260609E+02  0.67985079879E+01  0.69087096978E+02  0.41800000000E+01 0. -1.
        -11    1    1    2    0    0  0.20167921527E+02 -0.54367385447E+02 -0.10444555689E+02  0.58920678904E+02  0.00000000000E+00 0.  1.
         11    1    1    2    0    0  0.39566556530E+02 -0.39568212747E+02  0.88989763391E+02  0.10512056813E+03  0.00000000000E+00 0. -1.
</event>
<event>
 6    1  0.8989754E-006  0.8702116E+02  0.7561462E-02  0.1310230E+00
          2   -1    0    0  501    0  0.00000000000E+00  0.00000000000E+00  0.85754724912E+03  0.85754724912E+03  0.00000000000E+00 0. -1.
         -2   -1    0    0    0  501 -0.00000000000E+00 -0.00000000000E+00 -0.16310914225E+02  0.16310914225E+02  0.00000000000E+00 0.  1.
          5    1    1    2  502    0 -0.12521110522E+02  0.80472280057E+01  0.33673607786E+03  0.33709078098E+03  0.41800000000E+01 0. -1.
         -5    1    1    2    0  502  0.50987116953E+02 -0.29495625413E+02  0.74884815261E+02  0.95367111576E+02  0.41800000000E+01 0. -1.
        -11    1    1    2    0    0 -0.46792139735E+02 -0.24510717666E+02  0.18637698920E+03  0.19371799536E+03  0.00000000000E+00 0.  1.
         11    1    1    2    0    0  0.83261333041E+01  0.45959115073E+02  0.24323845257E+03  0.24768227543E+03  0.00000000000E+00 0. -1.
</event>
<event>
 6    1  0.8989754E-006  0.1279641E+03  0.7561462E-02  0.1230508E+00
          3   -1    0    0  501    0  0.00000000000E+00  0.00000000000E+00  0.22491747130E+02  0.22491747130E+02  0.00000000000E+00 0. -1.
         -3   -1    0    0    0  501 -0.00000000000E+00 -0.00000000000E+00 -0.10289872102E+04  0.10289872102E+04  0.00000000000E+00 0.  1.
          5    1    1    2  502    0  0.18375351815E+02 -0.71178005940E+02 -0.45680436592E+03  0.46270040329E+03  0.41800000000E+01 0. -1.
         -5    1    1    2    0  502 -0.75970258747E+02 -0.36778052380E+01 -0.25373946842E+03  0.26492677611E+03  0.41800000000E+01 0. -1.
        -11    1    1    2    0    0  0.50257811114E+02  0.81810334409E+02 -0.29838613825E+03  0.31345345092E+03  0.00000000000E+00 0.  1.
         11    1    1    2    0    0  0.73370958186E+01 -0.69545232315E+01  0.24345095025E+01  0.10398327026E+02  0.00000000000E+00 0. -1.
</event>
<event>
 6    1  0.8989754E-006  0.7345024E+02  0.7561462E-02  0.1348738E+00
          2   -1    0    0  501    0  0.00000000000E+00  0.00000000000E+00  0.50547270857E+03  0.50547270857E+03  0.00000000000E+00 0. -1.
         -2   -1    0    0    0  501 -0.00000000000E+00 -0.00000000000E+00 -0.24367964674E+02  0.24367964674E+02  0.00000000000E+00 0.  1.
          5    1    1    2  502    0  0.13445851005E+02 -0.27343908073E+02  0.36318036315E+01  0.30970027697E+02  0.41800000000E+01 0. -1.
         -5    1    1    2    0  502  0.15895819925E+02  0.24725610186E+02  0.26676923870E+03  0.26841634080E+03  0.41800000000E+01 0. -1.
        -11    1    1    2    0    0 -0.32925198405E+02  0.38348912122E+02  0.77738095283E+02  0.92724965405E+02  0.00000000000E+00 0.  1.
         11    1    1    2    0    0  0.35835274748E+01 -0.35730614235E+02  0.13296560628E+03  0.13772933934E+03  0.00000000000E+00 0. -1.
</event>
<event>
 6    1  0.8989754E-006  0.1142384E+03  0.7561462E-02  0.1252916E+00
         -2   -1    0    0    0  501 -0.00000000000E+00  0.00000000000E+00  0.70772096178E+02  0.70772096178E+02  0.00000000000E+00 0.  1.
          2   -1    0    0  501    0  0.00000000000E+00 -0.00000000000E+00 -0.35283529989E+03  0.35283529989E+03  0.00000000000E+00 0. -1.
          5    1    1    2  502    0  0.34483437941E+02  0.17518576525E+02 -0.96458929480E+02  0.10400867989E+03  0.41800000000E+01 0. -1.
         -5    1    1    2    0  502  0.37235766195E+02  0.44519638524E+02  0.31154975255E+02  0.66004586065E+02  0.41800000000E+01 0. -1.
        -11    1    1    2    0    0 -0.48305997434E+02  0.15227280058E+02 -0.76172822112E+02  0.91474795843E+02  0.00000000000E+00 0. -1.
         11    1    1    2    0    0 -0.23413206702E+02 -0.77265495107E+02 -0.14058642737E+03  0.16211933427E+03  0.00000000000E+00 0.  1.
</event>
<event>
 6    1  0.8989754E-006  0.1120998E+03  0.7561462E-02  0.1256730E+00
         -2   -1    0    0    0  501 -0.00000000000E+00  0.00000000000E+00  0.23295176073E+03  0.23295176073E+03  0.00000000000E+00 0. -1.
          2   -1    0    0  501    0  0.00000000000E+00 -0.00000000000E+00 -0.59870418966E+02  0.59870418966E+02  0.00000000000E+00 0.  1.
          5    1    1    2  502    0 -0.20081301055E+02 -0.54841224121E+02  0.37652677216E+02  0.69613324993E+02  0.41800000000E+01 0.  1.
         -5    1    1    2    0  502  0.64698267809E+02  0.36569524222E+02  0.72266083681E+02  0.10374514548E+03  0.41800000000E+01 0.  1.
        -11    1    1    2    0    0  0.21735376644E+02  0.11293024432E+02 -0.39730669657E+01  0.24814194724E+02  0.00000000000E+00 0.  1.
         11    1    1    2    0    0 -0.66352343398E+02  0.69786754669E+01  0.67135647836E+02  0.94649514505E+02  0.00000000000E+00 0. -1.
</event>
<event>
 6    1  0.8989754E-006  0.9697405E+02  0.7561462E-02  0.1286791E+00
          1   -1    0    0  501    0  0.00000000000E+00  0.00000000000E+00  0.22828794481E+03  0.22828794481E+03  0.00000000000E+00 0. -1.
         -1   -1    0    0    0  501 -0.00000000000E+00 -0.00000000000E+00 -0.79761348088E+02  0.79761348088E+02  0.00000000000E+00 0.  1.
          5    1    1    2  502    0  0.32237072250E+02  0.77814083842E+02  0.81401751700E+02  0.11720912102E+03  0.41800000000E+01 0.  1.
         -5    1    1    2    0  502 -0.18842798006E+02 -0.26533360330E+01 -0.31980157487E+02  0.37447217542E+02  0.41800000000E+01 0.  1.
        -11    1    1    2    0    0  0.18176868469E+02 -0.27029042331E+02 -0.64107743861E+01  0.33197374970E+02  0.00000000000E+00 0.  1.
         11    1    1    2    0    0 -0.31571142713E+02 -0.48131705478E+02  0.10551577690E+03  0.12019557936E+03  0.00000000000E+00 0. -1.
</event>
<event>
 6    1  0.8989754E-006  0.1812416E+03  0.7561462E-02  0.1166607E+00
         -2   -1    0    0    0  501 -0.00000000000E+00  0.00000000000E+00  0.33995761301E+03  0.33995761301E+03  0.00000000000E+00 0. -1.
          2   -1    0    0  501    0  0.00000000000E+00 -0.00000000000E+00 -0.14647621013E+03  0.14647621013E+03  0.00000000000E+00 0.  1.
          5    1    1    2  502    0  0.82344068758E+02 -0.14891943173E+02  0.10836456984E+03  0.13697688866E+03  0.41800000000E+01 0.  1.
         -5    1    1    2    0  502 -0.61255064134E+01 -0.10563886913E+03  0.12982201281E+03  0.16753602570E+03  0.41800000000E+01 0.  1.
        -11    1    1    2    0    0 -0.80814117146E+02  0.13515374001E+03 -0.50744143525E+02  0.16544613345E+03  0.00000000000E+00 0.  1.
         11    1    1    2    0    0  0.45955548007E+01 -0.14622927712E+02  0.60389637592E+01  0.16474775327E+02  0.00000000000E+00 0. -1.
</event>
<event>
 6    1  0.8989754E-006  0.8539080E+02  0.7561462E-02  0.1314414E+00
          1   -1    0    0  501    0  0.00000000000E+00  0.00000000000E+00  0.74954942736E+02  0.74954942736E+02  0.00000000000E+00 0.  1.
         -1   -1    0    0    0  501 -0.00000000000E+00 -0.00000000000E+00 -0.21995994333E+03  0.21995994333E+03  0.00000000000E+00 0. -1.
          5    1    1    2  502    0 -0.43451981596E+02 -0.22637080600E+02 -0.67989856786E+02  0.83908313941E+02  0.41800000000E+01 0.  1.
         -5    1    1    2    0  502  0.80147131089E+02  0.94817450302E+01 -0.79310387923E+02  0.11323019095E+03  0.41800000000E+01 0.  1.
        -11    1    1    2    0    0 -0.19590611876E+02  0.13318373605E+02  0.45506246857E+02  0.51302920504E+02  0.00000000000E+00 0.  1.
         11    1    1    2    0    0 -0.17104537617E+02 -0.16303803488E+00 -0.43211002742E+02  0.46473460668E+02  0.00000000000E+00 0. -1.
</event>
<event>
 6    1  0.8989754E-006  0.7043871E+02  0.7561462E-02  0.1358608E+00
          2   -1    0    0  501    0  0.00000000000E+00  0.00000000000E+00  0.53670407719E+03  0.53670407719E+03  0.00000000000E+00 0.  1.
         -2   -1    0    0    0  501 -0.00000000000E+00 -0.00000000000E+00 -0.27762409794E+02  0.27762409794E+02  0.00000000000E+00 0. -1.
          5    1    1    2  502    0  0.12242255453E+02 -0.15438274238E+02  0.16651916321E+03  0.16773287468E+03  0.41800000000E+01 0.  1.
         -5    1    1    2    0  502 -0.37630963533E+02  0.19465384940E+02  0.55487786327E+00  0.42576647552E+02  0.41800000000E+01 0.  1.
        -11    1    1    2    0    0  0.49211065545E+02  0.10419756271E+02  0.29781722850E+03  0.30203543150E+03  0.00000000000E+00 0.  1.
         11    1    1    2    0    0 -0.23822357464E+02 -0.14446866973E+02  0.44050397826E+02  0.52121533258E+02  0.00000000000E+00 0. -1.
</event>
<event>
 6    1  0.8989754E-006  0.1072692E+03  0.7561462E-02  0.1265712E+00
         -1   -1    0    0    0  501 -0.00000000000E+00  0.00000000000E+00  0.15478799824E+02  0.15478799824E+02  0.00000000000E+00 0.  1.
          1   -1    0    0  501    0  0.00000000000E+00 -0.00000000000E+00 -0.74936387074E+03  0.74936387074E+03  0.00000000000E+00 0. -1.
          5    1    1    2  502    0 -0.17736629518E+02  0.61279587319E+02 -0.21926218301E+03  0.22839254179E+03  0.41800000000E+01 0. -1.
         -5    1    1    2    0  502  0.25233275085E+02 -0.55638893821E+02 -0.18284499629E+03  0.19282678690E+03  0.41800000000E+01 0. -1.
        -11    1    1    2    0    0 -0.19602390768E+02 -0.44523079423E+02 -0.18755739208E+03  0.19376360249E+03  0.00000000000E+00 0.  1.
         11    1    1    2    0    0  0.12105745201E+02  0.38882385924E+02 -0.14422049954E+03  0.14985973939E+03  0.00000000000E+00 0. -1.
</event>
<event>
 6    1  0.8989754E-006  0.1512016E+03  0.7561462E-02  0.1199004E+00
          1   -1    0    0  501    0  0.00000000000E+00  0.00000000000E+00  0.24050059990E+03  0.24050059990E+03  0.00000000000E+00 0. -1.
         -1   -1    0    0    0  501 -0.00000000000E+00 -0.00000000000E+00 -0.10630126734E+03  0.10630126734E+03  0.00000000000E+00 0.  1.
          5    1    1    2  502    0  0.19485020454E+02  0.70132729157E+02  0.53096845822E+02  0.90194307788E+02  0.41800000000E+01 0. -1.
         -5    1    1    2    0  502  0.82388667919E+02 -0.18224532439E+02 -0.88765646566E+01  0.84948760934E+02  0.41800000000E+01 0. -1.
        -11    1    1    2    0    0  0.41439741943E+01 -0.37836776498E+02  0.33544218617E+02  0.50734690109E+02  0.00000000000E+00 0. -1.
         11    1    1    2    0    0 -0.10601766257E+03 -0.14071420221E+02  0.56434832787E+02  0.12092410841E+03  0.00000000000E+00 0.  1.
</event>
<event>
 6    1  0.8989754E-006  0.1945866E+03  0.7561462E-02  0.1154388E+00
         -2   -1    0    0    0  501 -0.00000000000E+00  0.00000000000E+00  0.62334399858E+02  0.62334399858E+02  0.00000000000E+00 0.  1.
          2   -1    0    0  501    0  0.00000000000E+00 -0.00000000000E+00 -0.67504809768E+03  0.67504809768E+03  0.00000000000E+00 0. -1.
          5    1    1    2  502    0 -0.79676628955E+02  0.17990310576E+02 -0.89013550415E+02  0.12088383281E+03  0.41800000000E+01 0. -1.
         -5    1    1    2    0  502 -0.11084270637E+02  0.12884761750E+03 -0.20115225041E+03  0.23917414123E+03  0.41800000000E+01 0. -1.
        -11    1    1    2    0    0  0.73525520534E+02 -0.78670325539E+02 -0.11209232294E+03  0.15543394466E+03  0.00000000000E+00 0.  1.
         11    1    1    2    0    0  0.17235379058E+02 -0.68167602533E+02 -0.21045557406E+03  0.22189057884E+03  0.00000000000E+00 0. -1.
</event>
<event>
 6    1  0.8989754E-006  0.1437583E+03  0.7561462E-02  0.1208360E+00
         -1   -1    0    0    0  501 -0.00000000000E+00  0.00000000000E+00  0.83465939145E+03  0.83465939145E+03  0.00000000000E+00 0.  1.
          1   -1    0    0  501    0  0.00000000000E+00 -0.00000000000E+00 -0.33467844953E+02  0.33467844953E+02  0.00000000000E+00 0. -1.
          5    1    1    2  502    0  0.27523539379E+02 -0.21370944092E+01  0.14731045332E+03  0.14993316661E+03  0.41800000000E+01 0.  1.
         -5    1    1    2    0  502 -0.12998108283E+03 -0.44378144045E+02  0.43366483182E+03  0.45491445384E+03  0.41800000000E+01 0.  1.
        -11    1    1    2    0    0  0.55564574277E+02  0.50549423346E+02  0.59541808751E+02  0.95853498135E+02  0.00000000000E+00 0. -1.
         11    1    1    2    0    0  0.46892969170E+02 -0.40341848922E+01  0.16067445260E+03  0.16742611781E+03  0.00000000000E+00 0.  1.
</event>
<event>
 6    1  0.8989754E-006  0.1351602E+03  0.7561462E-02  0.1219994E+00
          1   -1    0    0  501    0  0.00000000000E+00  0.00000000000E+00  0.33941225627E+03  0.33941225627E+03  0.00000000000E+00 0. -1.
         -1   -1    0    0    0  501 -0.00000000000E+00 -0.00000000000E+00 -0.53946359100E+02  0.53946359100E+02  0.00000000000E+00 0.  1.
          5    1    1    2  502    0 -0.35152598242E+02 -0.10129433032E+02  0.34019613064E+02  0.50130998891E+02  0.41800000000E+01 0.  1.
         -5    1    1    2    0  502  0.11008212164E+03 -0.20183528599E+02  0.11812619823E+03  0.16277812949E+03  0.41800000000E+01 0.  1.
        -11    1    1    2    0    0 -0.52478740813E+01 -0.29322108758E+02  0.35900280570E+02  0.46649291413E+02  0.00000000000E+00 0.  1.
         11    1    1    2    0    0 -0.69681649315E+02  0.59635070389E+02  0.97419805310E+02  0.13380019558E+03  0.00000000000E+00 0. -1.
</event>
<event>
 6    1  0.8989754E-006  0.1439127E+03  0.7561462E-02  0.1208159E+00
          1   -1    0    0  501    0  0.00000000000E+00  0.00000000000E+00  0.35938343201E+03  0.35938343201E+03  0.00000000000E+00 0. -1.
         -1   -1    0    0    0  501 -0.00000000000E+00 -0.00000000000E+00 -0.74111073785E+02  0.74111073785E+02  0.00000000000E+00 0.  1.
          5    1    1    2  502    0 -0.23293582440E+02 -0.15953681750E+02  0.74021510742E+02  0.79333267907E+02  0.41800000000E+01 0. -1.
         -5    1    1    2    0  502  0.10745036557E+03 -0.68318664735E+02  0.68784349674E+02  0.14478183647E+03  0.41800000000E+01 0. -1.
        -11    1    1    2    0    0 -0.70008897588E+02  0.30642942556E+02  0.13259819024E+03  0.15304416266E+03  0.00000000000E+00 0. -1.
         11    1    1    2    0    0 -0.14147885543E+02  0.53629403928E+02  0.98683075694E+01  0.56335238753E+02  0.00000000000E+00 0.  1.
</event>
<event>
 6    1  0.8989754E-006  0.1513291E+03  0.7561462E-02  0.1198849E+00
          1   -1    0    0  501    0  0.00000000000E+00  0.00000000000E+00  0.24100762917E+03  0.24100762917E+03  0.00000000000E+00 0. -1.
         -1   -1    0    0    0  501 -0.00000000000E+00 -0.00000000000E+00 -0.14151743074E+03  0.14151743074E+03  0.00000000000E+00 0.  1.
          5    1    1    2  502    0  0.22957438678E+02 -0.48877389862E+02  0.46275372126E+01  0.54359265365E+02  0.41800000000E+01 0. -1.
         -5    1    1    2    0  502 -0.11032825095E+03 -0.33597702245E+02 -0.43963831155E+02  0.12349663721E+03  0.41800000000E+01 0. -1.
        -11    1    1    2    0    0  0.70104417459E+02  0.27225843759E+02  0.12382216907E+03  0.14487168623E+03  0.00000000000E+00 0. -1.
         11    1    1    2    0    0  0.17266394809E+02  0.55249248348E+02  0.15004323305E+02  0.59797471106E+02  0.00000000000E+00 0.  1.
</event>
<event>
 6    1  0.8989754E-006  0.1060674E+03  0.7561462E-02  0.1268031E+00
         -2   -1    0    0    0  501 -0.00000000000E+00  0.00000000000E+00  0.54780959394E+03  0.54780959394E+03  0.00000000000E+00 0.  1.
          2   -1    0    0  501    0  0.00000000000E+00 -0.00000000000E+00 -0.31603717194E+02  0.31603717194E+02  0.00000000000E+00 0. -1.
          5    1    1    2  502    0 -0.74680392792E+02  0.12661495008E+02  0.31164597548E+03  0.32074625634E+03  0.41800000000E+01 0.  1.
         -5    1    1    2    0  502  0.46604256766E+02 -0.14356309041E+02  0.12184417464E+03  0.13130702819E+03  0.41800000000E+01 0.  1.
        -11    1    1    2    0    0  0.11659196178E+02 -0.40451626604E+02  0.12640483542E+02  0.43955122279E+02  0.00000000000E+00 0.  1.
         11    1    1    2    0    0  0.16416939849E+02  0.42146440636E+02  0.70075243072E+02  0.83404904315E+02  0.00000000000E+00 0. -1.
</event>
<event>
 6    1  0.8989754E-006  0.1652231E+03  0.7561462E-02  0.1182923E+00
         -2   -1    0    0    0  501 -0.00000000000E+00  0.00000000000E+00  0.64803823537E+03  0.64803823537E+03  0.00000000000E+00 0.  1.
          2   -1    0    0  501    0  0.00000000000E+00 -0.00000000000E+00 -0.46288669595E+02  0.46288669595E+02  0.00000000000E+00 0. -1.
          5    1    1    2  502    0  0.10310597817E+03 -0.39830744885E+02  0.21044784114E+03  0.23774586687E+03  0.41800000000E+01 0. -1.
         -5    1    1    2    0  502  0.26228155089E+02  0.66089111298E+02  0.13516111932E+03  0.15277986558E+03  0.41800000000E+01 0. -1.
        -11    1    1    2    0    0 -0.12214470526E+03 -0.79189130356E+00  0.24743843627E+03  0.27594516821E+03  0.00000000000E+00 0.  1.
         11    1    1    2    0    0 -0.71894280011E+01 -0.25466475110E+02  0.87021690438E+01  0.27856004300E+02  0.00000000000E+00 0. -1.
</event>
<event>
 6    1  0.8989754E-006  0.9811683E+02  0.7561462E-02  0.1284307E+00
          2   -1    0    0  501    0  0.00000000000E+00  0.00000000000E+00  0.45706720636E+03  0.45706720636E+03  0.00000000000E+00 0. -1.
         -2   -1    0    0    0  501 -0.00000000000E+00 -0.00000000000E+00 -0.33814386752E+02  0.33814386752E+02  0.00000000000E+00 0.  1.
          5    1    1    2  502    0 -0.53065012616E+02  0.47310803519E+01  0.15202137632E+02  0.55559482303E+02  0.41800000000E+01 0. -1.
         -5    1    1    2    0  502  0.26993988595E+02  0.35682410461E+02  0.10827420909E+03  0.11722920536E+03  0.41800000000E+01 0.  1.
        -11    1    1    2    0    0 -0.30806615729E+02 -0.60208325319E+01  0.16332120720E+03  0.16631029648E+03  0.00000000000E+00 0. -1.
         11    1    1    2    0    0  0.56877639751E+02 -0.34392658281E+02  0.13645526569E+03  0.15178260896E+03  0.00000000000E+00 0.  1.
</event>
<event>
 6    1  0.8989754E-006  0.1130286E+03  0.7561462E-02  0.1255062E+00
         -1   -1    0    0    0  501 -0.00000000000E+00  0.00000000000E+00  0.31164449670E+02  0.31164449670E+02  0.00000000000E+00 0.  1.
          1   -1    0    0  501    0  0.00000000000E+00 -0.00000000000E+00 -0.41611783261E+03  0.41611783261E+03  0.00000000000E+00 0. -1.
          5    1    1    2  502    0 -0.46186852242E+02  0.17478638915E+02 -0.96211418979E+02  0.10822586419E+03  0.41800000000E+01 0.  1.
         -5    1    1    2    0  502  0.64467136815E+02 -0.44616309867E+02 -0.10927749921E+03  0.13455731518E+03  0.41800000000E+01 0.  1.
        -11    1    1    2    0    0 -0.80768682878E+01  0.61557478326E+02 -0.11031279753E+03  0.12658385457E+03  0.00000000000E+00 0. -1.
         11    1    1    2    0    0 -0.10203416285E+02 -0.34419807374E+02 -0.69151667222E+02  0.77915248335E+02  0.00000000000E+00 0.  1.
</event>
<event>
 6    1  0.8989754E-006  0.1023451E+03  0.7561462E-02  0.1275440E+00
         -2   -1    0    0    0  501 -0.00000000000E+00  0.00000000000E+00  0.86047615220E+02  0.86047615220E+02  0.00000000000E+00 0.  1.
          2   -1    0    0  501    0  0.00000000000E+00 -0.00000000000E+00 -0.38768634544E+03  0.38768634544E+03  0.00000000000E+00 0. -1.
          5    1    1    2  502    0 -0.29121079846E+02 -0.40544942461E+02  0.43083219930E+02  0.66072429122E+02  0.41800000000E+01 0. -1.
         -5    1    1    2    0  502  0.52946337087E+02  0.30533671352E+02 -0.12430413936E+02  0.62510857359E+02  0.41800000000E+01 0.  1.
        -11    1    1    2    0    0  0.20059085985E+02 -0.28565093289E+02 -0.12364084005E+03  0.12847330000E+03  0.00000000000E+00 0. -1.
         11    1    1    2    0    0 -0.43884343225E+02  0.38576364398E+02 -0.20865069616E+03  0.21667737418E+03  0.00000000000E+00 0.  1.
</event>
<event>
 6    1  0.8989754E-006  0.1486721E+03  0.7561462E-02  0.1202114E+00
          1   -1    0    0  501    0  0.00000000000E+00  0.00000000000E+00  0.13070316792E+03  0.13070316792E+03  0.00000000000E+00 0. -1.
         -1   -1    0    0    0  501 -0.00000000000E+00 -0.00000000000E+00 -0.20496039761E+03  0.20496039761E+03  0.00000000000E+00 0.  1.
          5    1    1    2  502    0 -0.16348860189E+01 -0.48184455775E+02 -0.24063086492E+02  0.54045528604E+02  0.41800000000E+01 0.  1.
         -5    1    1    2    0  502 -0.11999310879E+03  0.26491970021E+02  0.32321053482E+01  0.12299629888E+03  0.41800000000E+01 0.  1.
        -11    1    1    2    0    0  0.39151068438E+02  0.18897051749E+02 -0.61924815171E+02  0.75661003553E+02  0.00000000000E+00 0.  1.
         11    1    1    2    0    0  0.82476926368E+02  0.27954340048E+01  0.84985666201E+01  0.82960734502E+02  0.00000000000E+00 0. -1.
</event>
<event>
 6    1  0.8989754E-006  0.1153091E+03  0.7561462E-02  0.1251042E+00
          1   -1    0    0  501    0  0.00000000000E+00  0.00000000000E+00  0.16469757286E+03  0.16469757286E+03  0.00000000000E+00 0. -1.
         -1   -1    0    0    0  501 -0.00000000000E+00 -0.00000000000E+00 -0.14263330232E+03  0.14263330232E+03  0.00000000000E+00 0.  1.
          5    1    1    2  502    0 -0.35885133582E+01  0.51534496984E+02  0.38573997389E+02  0.64607333036E+02  0.41800000000E+01 0.  1.
         -5    1    1    2    0  502 -0.48418452030E+02  0.27717173562E+02 -0.80160234796E+02  0.97753382805E+02  0.41800000000E+01 0.  1.
        -11    1    1    2    0    0  0.36185015743E+02 -0.94302224797E+02  0.30936979752E+02  0.10563787996E+03  0.00000000000E+00 0.  1.
         11    1    1    2    0    0  0.15821949645E+02  0.15050554251E+02  0.32713528199E+02  0.39332279378E+02  0.00000000000E+00 0. -1.
</event>
<event>
 6    1  0.8989754E-006  0.3115180E+03  0.7561462E-02  0.1079621E+00
         -2   -1    0    0    0  501 -0.00000000000E+00  0.00000000000E+00  0.94949217595E+02  0.94949217595E+02  0.00000000000E+00 0.  1.
          2   -1    0    0  501    0  0.00000000000E+00 -0.00000000000E+00 -0.11543394429E+04  0.11543394429E+04  0.00000000000E+00 0. -1.
          5    1    1    2  502    0  0.35454459349E+02 -0.57647422202E+02 -0.30827857579E+02  0.74485389018E+02  0.41800000000E+01 0. -1.
         -5    1    1    2    0  502  0.61494317676E+02 -0.23654582924E+03 -0.43106375624E+03  0.49554910431E+03  0.41800000000E+01 0. -1.
        -11    1    1    2    0    0 -0.11779937041E+02  0.69521184151E+02 -0.22670868403E+03  0.23742112243E+03  0.00000000000E+00 0. -1.
         11    1    1    2    0    0 -0.85168839985E+02  0.22467206729E+03 -0.37078992750E+03  0.44183304478E+03  0.00000000000E+00 0.  1.
</event>
<event>
 6    1  0.8989754E-006  0.1162177E+03  0.7561462E-02  0.1249470E+00
          2   -1    0    0  501    0  0.00000000000E+00  0.00000000000E+00  0.17162379404E+03  0.17162379404E+03  0.00000000000E+00 0. -1.
         -2   -1    0    0    0  501 -0.00000000000E+00 -0.00000000000E+00 -0.10276895803E+03  0.10276895803E+03  0.00000000000E+00 0.  1.
          5    1    1    2  502    0 -0.69385112582E+02 -0.68733745035E+02  0.17532475842E+02  0.99315062623E+02  0.41800000000E+01 0. -1.
         -5    1    1    2    0  502 -0.10447513109E+01  0.46153942405E+02 -0.45783286598E+01  0.46580160993E+02  0.41800000000E+01 0. -1.
        -11    1    1    2    0    0  0.32787039691E+02  0.35690811870E+02  0.70922563647E+02  0.85900140034E+02  0.00000000000E+00 0. -1.
         11    1    1    2    0    0  0.37642824201E+02 -0.13111009240E+02 -0.15021874812E+02  0.42597388418E+02  0.00000000000E+00 0.  1.
</event>
<event>
 6    1  0.8989754E-006  0.1516233E+03  0.7561462E-02  0.1198492E+00
          1   -1    0    0  501    0  0.00000000000E+00  0.00000000000E+00  0.21440854385E+03  0.21440854385E+03  0.00000000000E+00 0. -1.
         -1   -1    0    0    0  501 -0.00000000000E+00 -0.00000000000E+00 -0.25261990233E+03  0.25261990233E+03  0.00000000000E+00 0.  1.
          5    1    1    2  502    0  0.14178618905E+02  0.33961477396E+01 -0.11080680835E+03  0.11184001176E+03  0.41800000000E+01 0.  1.
         -5    1    1    2    0  502  0.13019831962E+03  0.14185058774E+02 -0.54053888921E+02  0.14174665299E+03  0.41800000000E+01 0.  1.
        -11    1    1    2    0    0 -0.16871882409E+02  0.17996533396E+02  0.60755364264E+02  0.65572478351E+02  0.00000000000E+00 0. -1.
         11    1    1    2    0    0 -0.12750505612E+03 -0.35577739909E+02  0.65893974527E+02  0.14786930308E+03  0.00000000000E+00 0.  1.
</event>
<event>
 6    1  0.8989754E-006  0.9659022E+02  0.7561462E-02  0.1287634E+00
         -1   -1    0    0    0  501 -0.00000000000E+00  0.00000000000E+00  0.28510838272E+02  0.28510838272E+02  0.00000000000E+00 0.  1.
          1   -1    0    0  501    0  0.00000000000E+00 -0.00000000000E+00 -0.74596265627E+03  0.74596265627E+03  0.00000000000E+00 0. -1.
          5    1    1    2  502    0 -0.42512764379E+02 -0.21649953563E+02 -0.73622214658E+01  0.48453383054E+02  0.41800000000E+01 0. -1.
         -5    1    1    2    0  502 -0.21501299681E+02 -0.22952238063E+02 -0.22165531850E+03  0.22391441164E+03  0.41800000000E+01 0. -1.
        -11    1    1    2    0    0  0.81304711906E+02  0.20410665743E+02 -0.40352877028E+03  0.41214380973E+03  0.00000000000E+00 0.  1.
         11    1    1    2    0    0 -0.17290647847E+02  0.24191525883E+02 -0.84905507745E+02  0.89961890114E+02  0.00000000000E+00 0. -1.
</event>
<event>
 6    1  0.8989754E-006  0.1219104E+03  0.7561462E-02  0.1239978E+00
          2   -1    0    0  501    0  0.00000000000E+00  0.00000000000E+00  0.29333258343E+03  0.29333258343E+03  0.00000000000E+00 0. -1.
         -2   -1    0    0    0  501 -0.00000000000E+00 -0.00000000000E+00 -0.71252148826E+02  0.71252148826E+02  0.00000000000E+00 0.  1.
          5    1    1    2  502    0 -0.10607304959E+03 -0.16384604597E+02  0.37739187782E+02  0.11384931186E+03  0.41800000000E+01 0.  1.
         -5    1    1    2    0  502  0.29469110036E+02  0.26057831005E+02  0.12069537456E+02  0.41359220705E+02  0.41800000000E+01 0.  1.
        -11    1    1    2    0    0  0.53079658371E+02 -0.33978994671E+02  0.44366933193E+02  0.77074295149E+02  0.00000000000E+00 0.  1.
         11    1    1    2    0    0  0.23524281185E+02  0.24305768263E+02  0.12790477618E+03  0.13230190454E+03  0.00000000000E+00 0. -1.
</event>
<event>
 6    1  0.8989754E-006  0.1358766E+03  0.7561462E-02  0.1218987E+00
         -1   -1    0    0    0  501 -0.00000000000E+00  0.00000000000E+00  0.19211063972E+04  0.19211063972E+04  0.00000000000E+00 0.  1.
          1   -1    0    0  501    0  0.00000000000E+00 -0.00000000000E+00 -0.15168310988E+02  0.15168310988E+02  0.00000000000E+00 0. -1.
          5    1    1    2  502    0  0.97496743116E+02  0.57251100325E+02  0.12429376260E+04  0.12480764071E+04  0.41800000000E+01 0.  1.
         -5    1    1    2    0  502 -0.20184359815E+02 -0.29815539674E+02  0.35264486897E+03  0.35450282199E+03  0.41800000000E+01 0.  1.
        -11    1    1    2    0    0 -0.93766922220E+02 -0.41572592323E+01  0.22890814202E+03  0.24740342761E+03  0.00000000000E+00 0.  1.
         11    1    1    2    0    0  0.16454538919E+02 -0.23278301419E+02  0.81447449177E+02  0.86292051461E+02  0.00000000000E+00 0. -1.
</event>
<event>
 6    1  0.8989754E-006  0.6378762E+02  0.7561462E-02  0.1382591E+00
          1   -1    0    0  501    0  0.00000000000E+00  0.00000000000E+00  0.32226505250E+02  0.32226505250E+02  0.00000000000E+00 0. -1.
         -1   -1    0    0    0  501 -0.00000000000E+00 -0.00000000000E+00 -0.35707765689E+03  0.35707765689E+03  0.00000000000E+00 0.  1.
          5    1    1    2  502    0  0.37574907517E+02  0.31071144011E+02 -0.20244812849E+02  0.52958611315E+02  0.41800000000E+01 0. -1.
         -5    1    1    2    0  502 -0.16862003143E+02 -0.14287931495E+02 -0.16599171262E+03  0.16750878542E+03  0.41800000000E+01 0.  1.
        -11    1    1    2    0    0  0.20790359269E+01  0.16046128061E+02  0.71521541521E+01  0.17690503813E+02  0.00000000000E+00 0. -1.
         11    1    1    2    0    0 -0.22791940301E+02 -0.32829340578E+02 -0.14576678032E+03  0.15114626158E+03  0.00000000000E+00 0.  1.
</event>
<event>
 6    1  0.8989754E-006  0.6816830E+02  0.7561462E-02  0.1366435E+00
          1   -1    0    0  501    0  0.00000000000E+00  0.00000000000E+00  0.33719929267E+03  0.33719929267E+03  0.00000000000E+00 0. -1.
         -1   -1    0    0    0  501 -0.00000000000E+00 -0.00000000000E+00 -0.42175613749E+02  0.42175613749E+02  0.00000000000E+00 0.  1.
          5    1    1    2  502    0 -0.29020994415E+02  0.29181759225E+02 -0.93516361348E+01  0.42411303761E+02  0.41800000000E+01 0.  1.
         -5    1    1    2    0  502  0.44061335317E+02 -0.12707353648E+02  0.11151235672E+03  0.12064558097E+03  0.41800000000E+01 0.  1.
        -11    1    1    2    0    0  0.15248003335E+02 -0.20872023725E+01 -0.45727120533E+01  0.16055146059E+02  0.00000000000E+00 0.  1.
         11    1    1    2    0    0 -0.30288344237E+02 -0.14387203204E+02  0.19743567039E+03  0.20026287563E+03  0.00000000000E+00 0. -1.
</event>
<event>
 6    1  0.8989754E-006  0.4414533E+02  0.7561462E-02  0.1479749E+00
          1   -1    0    0  501    0  0.00000000000E+00  0.00000000000E+00  0.13644074716E+03  0.13644074716E+03  0.00000000000E+00 0. -1.
         -1   -1    0    0    0  501 -0.00000000000E+00 -0.00000000000E+00 -0.12171508198E+03  0.12171508198E+03  0.00000000000E+00 0.  1.
          5    1    1    2  502    0  0.19959272218E+02 -0.16554461452E+02 -0.94822908379E+02  0.98393491121E+02  0.41800000000E+01 0. -1.
         -5    1    1    2    0  502  0.89928217657E+01  0.12928566374E+01  0.40600775411E+02  0.41814323928E+02  0.41800000000E+01 0. -1.
        -11    1    1    2    0    0 -0.87192589502E+01  0.27178290071E+02  0.84894077652E+02  0.89563884173E+02  0.00000000000E+00 0. -1.
         11    1    1    2    0    0 -0.20232835034E+02 -0.11916685256E+02 -0.15946279499E+02  0.28384129912E+02  0.00000000000E+00 0.  1.
</event>
<event>
 6    1  0.8989754E-006  0.1247032E+03  0.7561462E-02  0.1235534E+00
         -3   -1    0    0    0  501 -0.00000000000E+00  0.00000000000E+00  0.29123795367E+03  0.29123795367E+03  0.00000000000E+00 0.  1.
          3   -1    0    0  501    0  0.00000000000E+00 -0.00000000000E+00 -0.12694600704E+03  0.12694600704E+03  0.00000000000E+00 0. -1.
          5    1    1    2  502    0  0.55815500499E+02  0.36567559659E+02  0.21173688466E+03  0.22204174662E+03  0.41800000000E+01 0.  1.
         -5    1    1    2    0  502  0.41970932502E+02 -0.25876208922E+02  0.93454050886E+01  0.50358180661E+02  0.41800000000E+01 0.  1.
        -11    1    1    2    0    0  0.83257798401E+01 -0.24668718979E+02 -0.19185550329E+02  0.32341144807E+02  0.00000000000E+00 0. -1.
         11    1    1    2    0    0 -0.10611221284E+03  0.13977368241E+02 -0.37604792799E+02  0.11344288862E+03  0.00000000000E+00 0.  1.
</event>
<event>
 6    1  0.8989754E-006  0.9779465E+02  0.7561462E-02  0.1285003E+00
          1   -1    0    0  501    0  0.00000000000E+00  0.00000000000E+00  0.70308182791E+02  0.70308182791E+02  0.00000000000E+00 0. -1.
         -1   -1    0    0    0  501 -0.00000000000E+00 -0.00000000000E+00 -0.18006144560E+03  0.18006144560E+03  0.00000000000E+00 0.  1.
          5    1    1    2  502    0 -0.27288876530E+02 -0.55721310614E+02 -0.35113699471E+02  0.71414224979E+02  0.41800000000E+01 0.  1.
         -5    1    1    2    0  502  0.52054839622E+02  0.40013016977E+02 -0.45143423032E+02  0.79788150114E+02  0.41800000000E+01 0.  1.
        -11    1    1    2    0    0 -0.23729798550E+01 -0.22878357376E+02 -0.46135813396E+02  0.51551562026E+02  0.00000000000E+00 0.  1.
         11    1    1    2    0    0 -0.22392983237E+02  0.38586651014E+02  0.16639673090E+02  0.47615691271E+02  0.00000000000E+00 0. -1.
</event>
<event>
 6    1  0.8989754E-006  0.1139704E+03  0.7561462E-02  0.1253389E+00
         -3   -1    0    0    0  501 -0.00000000000E+00  0.00000000000E+00  0.27269428982E+02  0.27269428982E+02  0.00000000000E+00 0.  1.
          3   -1    0    0  501    0  0.00000000000E+00 -0.00000000000E+00 -0.50163671416E+03  0.50163671416E+03  0.00000000000E+00 0. -1.
          5    1    1    2  502    0 -0.61067921350E+02 -0.84862932070E+01 -0.12486743054E+03  0.13932212962E+03  0.41800000000E+01 0. -1.
         -5    1    1    2    0  502  0.59105199048E+02  0.40639213774E+02 -0.10802447600E+03  0.12973715762E+03  0.41800000000E+01 0.  1.
        -11    1    1    2    0    0 -0.31660091961E+02 -0.47700257737E+02 -0.12209432773E+03  0.13485066138E+03  0.00000000000E+00 0. -1.
         11    1    1    2    0    0  0.33622814262E+02  0.15547337171E+02 -0.11938105089E+03  0.12499619452E+03  0.00000000000E+00 0.  1.
</event>
<event>
 6    1  0.8989754E-006  0.8890892E+02  0.7561462E-02  0.1305516E+00
          1   -1    0    0  501    0  0.00000000000E+00  0.00000000000E+00  0.19477116475E+03  0.19477116475E+03  0.00000000000E+00 0. -1.
         -1   -1    0    0    0  501 -0.00000000000E+00 -0.00000000000E+00 -0.10114603728E+03  0.10114603728E+03  0.00000000000E+00 0.  1.
          5    1    1    2  502    0 -0.39250055562E+02  0.28948484769E+02 -0.66463125505E+02  0.82543328525E+02  0.41800000000E+01 0.  1.
         -5    1    1    2    0  502  0.79716027093E+01 -0.38141263610E+02  0.32723415346E+02  0.51054840627E+02  0.41800000000E+01 0.  1.
        -11    1    1    2    0    0 -0.21534979343E+02 -0.19952735916E+02  0.11191440702E+02  0.31418391919E+02  0.00000000000E+00 0.  1.
         11    1    1    2    0    0  0.52813432196E+02  0.29145514756E+02  0.11617339692E+03  0.13090064096E+03  0.00000000000E+00 0. -1.
</event>
<event>
 6    1  0.8989754E-006  0.9548807E+02  0.7561462E-02  0.1290081E+00
         -1   -1    0    0    0  501 -0.00000000000E+00  0.00000000000E+00  0.35352504482E+03  0.35352504482E+03  0.00000000000E+00 0.  1.
          1   -1    0    0  501    0  0.00000000000E+00 -0.00000000000E+00 -0.64874193205E+02  0.64874193205E+02  0.00000000000E+00 0. -1.
          5    1    1    2  502    0 -0.79296333297E+01  0.23732970612E+02  0.25444069821E+01  0.25496654403E+02  0.41800000000E+01 0.  1.
         -5    1    1    2    0  502 -0.42761083981E+02 -0.74102625053E+02  0.26318177980E+03  0.27677035781E+03  0.41800000000E+01 0.  1.
        -11    1    1    2    0    0  0.55005351308E+02  0.38016310044E+02  0.51700610772E+02  0.84520894790E+02  0.00000000000E+00 0.  1.
         11    1    1    2    0    0 -0.43146339972E+01  0.12353344397E+02 -0.28775945940E+02  0.31611331023E+02  0.00000000000E+00 0. -1.
</event>
<event>
 6    1  0.8989754E-006  0.1718939E+03  0.7561462E-02  0.1175887E+00
         -2   -1    0    0    0  501 -0.00000000000E+00  0.00000000000E+00  0.46319848713E+02  0.46319848713E+02  0.00000000000E+00 0.  1.
          2   -1    0    0  501    0  0.00000000000E+00 -0.00000000000E+00 -0.66507030404E+03  0.66507030404E+03  0.00000000000E+00 0. -1.
          5    1    1    2  502    0 -0.10094735086E+03  0.19207231376E+02 -0.13614183033E+03  0.17062050214E+03  0.41800000000E+01 0. -1.
         -5    1    1    2    0  502  0.13687957556E+03 -0.39026420145E+02 -0.26011668945E+03  0.29654214575E+03  0.41800000000E+01 0.  1.
        -11    1    1    2    0    0  0.20649431831E+02  0.34397111233E+02 -0.66662553855E+02  0.77803961227E+02  0.00000000000E+00 0.  1.
         11    1    1    2    0    0 -0.56581656530E+02 -0.14577922464E+02 -0.15582938169E+03  0.16642354364E+03  0.00000000000E+00 0. -1.
</event>
<event>
 6    1  0.8989754E-006  0.1672959E+03  0.7561462E-02  0.1180697E+00
         -1   -1    0    0    0  501 -0.00000000000E+00  0.00000000000E+00  0.13108571408E+03  0.13108571408E+03  0.00000000000E+00 0.  1.
          1   -1    0    0  501    0  0.00000000000E+00 -0.00000000000E+00 -0.44254983677E+03  0.44254983677E+03  0.00000000000E+00 0. -1.
          5    1    1    2  502    0  0.83505388690E+02 -0.89475936417E+02  0.54004325922E+02  0.13383957844E+03  0.41800000000E+01 0.  1.
         -5    1    1    2    0  502  0.43513912515E+02  0.29680798697E+02 -0.21401948263E+02  0.57008123835E+02  0.41800000000E+01 0.  1.
        -11    1    1    2    0    0 -0.36702284969E+02  0.58387797373E+02 -0.91672655757E+02  0.11471734140E+03  0.00000000000E+00 0.  1.
         11    1    1    2    0    0 -0.90317016236E+02  0.14073403462E+01 -0.25239384460E+03  0.26807050718E+03  0.00000000000E+00 0. -1.
</event>
<event>
 6    1  0.8989754E-006  0.9531477E+02  0.7561462E-02  0.1290469E+00
          3   -1    0    0  501    0  0.00000000000E+00  0.00000000000E+00  0.20280976364E+03  0.20280976364E+03  0.00000000000E+00 0. -1.
         -3   -1    0    0    0  501 -0.00000000000E+00 -0.00000000000E+00 -0.64937308096E+02  0.64937308096E+02  0.00000000000E+00 0.  1.
          5    1    1    2  502    0  0.40160736746E+02  0.25905823961E+02  0.55261727147E+02  0.73180102339E+02  0.41800000000E+01 0. -1.
         -5    1    1    2    0  502 -0.68714739955E+02 -0.34706102199E+02  0.39920928026E+02  0.86818096681E+02  0.41800000000E+01 0. -1.
        -11    1    1    2    0    0  0.34049655825E+02  0.28938579742E+02 -0.14410972156E+02  0.46952066811E+02  0.00000000000E+00 0.  1.
         11    1    1    2    0    0 -0.54956526165E+01 -0.20138301505E+02  0.57100772524E+02  0.60796805903E+02  0.00000000000E+00 0. -1.
</event>
<event>
 6    1  0.8989754E-006  0.1997489E+03  0.7561462E-02  0.1149951E+00
         -2   -1    0    0    0  501 -0.00000000000E+00  0.00000000000E+00  0.13418878533E+03  0.13418878533E+03  0.00000000000E+00 0.  1.
          2   -1    0    0  501    0  0.00000000000E+00 -0.00000000000E+00 -0.33638290325E+03  0.33638290325E+03  0.00000000000E+00 0. -1.
          5    1    1    2  502    0  0.98069711010E+02 -0.84839731476E+01 -0.13295846933E+02  0.99417795005E+02  0.41800000000E+01 0.  1.
         -5    1    1    2    0  502  0.42017368404E+02  0.10382366187E+03 -0.17879681946E+02  0.11349875523E+03  0.41800000000E+01 0.  1.
        -11    1    1    2    0    0 -0.92092137111E+02 -0.10528385295E+03 -0.10251011907E+03  0.17341849936E+03  0.00000000000E+00 0.  1.
         11    1    1    2    0    0 -0.47994942303E+02  0.99441642302E+01 -0.68508469977E+02  0.84236638985E+02  0.00000000000E+00 0. -1.
</event>
<event>
 6    1  0.8989754E-006  0.1101604E+03  0.7561462E-02  0.1260273E+00
          2   -1    0    0  501    0  0.00000000000E+00  0.00000000000E+00  0.20968567764E+02  0.20968567764E+02  0.00000000000E+00 0. -1.
         -2   -1    0    0    0  501 -0.00000000000E+00 -0.00000000000E+00 -0.69523530649E+03  0.69523530649E+03  0.00000000000E+00 0.  1.
          5    1    1    2  502    0 -0.61364163626E+02 -0.48567760313E+02 -0.35231270311E+03  0.36092395472E+03  0.41800000000E+01 0. -1.
         -5    1    1    2    0  502  0.75994809574E+01  0.41134840731E+02 -0.59383074588E+02  0.72757468210E+02  0.41800000000E+01 0. -1.
        -11    1    1    2    0    0  0.48152124868E+02 -0.33459357158E+02 -0.19214038578E+03  0.20088823649E+03  0.00000000000E+00 0.  1.
         11    1    1    2    0    0  0.56125578010E+01  0.40892276740E+02 -0.70430575242E+02  0.81634214830E+02  0.00000000000E+00 0. -1.
</event>
<event>
 6    1  0.8989754E-006  0.7469883E+02  0.7561462E-02  0.1344806E+00
          1   -1    0    0  501    0  0.00000000000E+00  0.00000000000E+00  0.10920588634E+03  0.10920588634E+03  0.00000000000E+00 0. -1.
         -1   -1    0    0    0  501 -0.00000000000E+00 -0.00000000000E+00 -0.21044684410E+03  0.21044684410E+03  0.00000000000E+00 0.  1.
          5    1    1    2  502    0  0.17905234385E+02 -0.14514195552E+02  0.11307404704E+02  0.26011326226E+02  0.41800000000E+01 0.  1.
         -5    1    1    2    0  502 -0.28466185733E+02  0.45947424011E+02 -0.17182577613E+03  0.18017507942E+03  0.41800000000E+01 0.  1.
        -11    1    1    2    0    0 -0.26312567703E+02 -0.60627586380E+01  0.63010585237E+02  0.68552477076E+02  0.00000000000E+00 0. -1.
         11    1    1    2    0    0  0.36873519050E+02 -0.25370469822E+02 -0.37331715724E+01  0.44913847710E+02  0.00000000000E+00 0.  1.
</event>
<event>
 6    1  0.8989754E-006  0.9861954E+02  0.7561462E-02  0.1283226E+00
         -1   -1    0    0    0  501 -0.00000000000E+00  0.00000000000E+00  0.49818170377E+02  0.49818170377E+02  0.00000000000E+00 0.  1.
          1   -1    0    0  501    0  0.00000000000E+00 -0.00000000000E+00 -0.36807294230E+03  0.36807294230E+03  0.00000000000E+00 0. -1.
          5    1    1    2  502    0  0.39969479448E+02 -0.37118275350E+02 -0.43803884700E+02  0.70082653825E+02  0.41800000000E+01 0. -1.
         -5    1    1    2    0  502 -0.30974906329E+02  0.38464680951E+02  0.81547212449E+01  0.50228959588E+02  0.41800000000E+01 0.  1.
        -11    1    1    2    0    0 -0.19355318460E+02  0.43145302946E+02 -0.15434245183E+03  0.16142409348E+03  0.00000000000E+00 0.  1.
         11    1    1    2    0    0  0.10360745342E+02 -0.44491708547E+02 -0.12826315664E+03  0.13615540579E+03  0.00000000000E+00 0. -1.
</event>
<event>
 6    1  0.8989754E-006  0.9133042E+02  0.7561462E-02  0.1299661E+00
          3   -1    0    0  501    0  0.00000000000E+00  0.00000000000E+00  0.27742034026E+02  0.27742034026E+02  0.00000000000E+00 0. -1.
         -3   -1    0    0    0  501 -0.00000000000E+00 -0.00000000000E+00 -0.44581291941E+03  0.44581291941E+03  0.00000000000E+00 0.  1.
          5    1    1    2  502    0 -0.62805894741E+02  0.22375793808E+02 -0.14477440523E+03  0.15944390039E+03  0.41800000000E+01 0. -1.
         -5    1    1    2    0  502  0.54249777289E+02 -0.21293216356E+02 -0.14085631034E+03  0.15249397353E+03  0.41800000000E+01 0. -1.
        -11    1    1    2    0    0  0.16155792426E+02 -0.26424280405E+02 -0.13154853030E+03  0.13514535896E+03  0.00000000000E+00 0.  1.
         11    1    1    2    0    0 -0.75996749742E+01  0.25341702953E+02 -0.89163951113E+00  0.26471720558E+02  0.00000000000E+00 0. -1.
</event>
<event>
 6    1  0.8989754E-006  0.9326124E+02  0.7561462E-02  0.1295141E+00
         -4   -1    0    0    0  501 -0.00000000000E+00  0.00000000000E+00  0.16971363541E+03  0.16971363541E+03  0.00000000000E+00 0.  1.
          4   -1    0    0  501    0  0.00000000000E+00 -0.00000000000E+00 -0.11260948319E+03  0.11260948319E+03  0.00000000000E+00 0. -1.
          5    1    1    2  502    0  0.38364385710E+02  0.31366151916E+02  0.10526870208E+03  0.11642436864E+03  0.41800000000E+01 0. -1.
         -5    1    1    2    0  502  0.16001618639E+02  0.25628276706E+02 -0.35689486225E+02  0.46947547252E+02  0.41800000000E+01 0. -1.
        -11    1    1    2    0    0  0.16420984182E+02 -0.21641979612E+02  0.19677123434E+02  0.33544197556E+02  0.00000000000E+00 0.  1.
         11    1    1    2    0    0 -0.70786988531E+02 -0.35352449010E+02 -0.32152187070E+02  0.85407005156E+02  0.00000000000E+00 0. -1.
</event>
<event>
 6    1  0.8989754E-006  0.1566602E+03  0.7561462E-02  0.1192520E+00
         -2   -1    0    0    0  501 -0.00000000000E+00  0.00000000000E+00  0.13464885573E+03  0.13464885573E+03  0.00000000000E+00 0. -1.
          2   -1    0    0  501    0  0.00000000000E+00 -0.00000000000E+00 -0.20388131327E+03  0.20388131327E+03  0.00000000000E+00 0.  1.
          5    1    1    2  502    0 -0.35695516160E+02 -0.74582045016E+02  0.24508782053E+02  0.86341207488E+02  0.41800000000E+01 0.  1.
         -5    1    1    2    0  502  0.59282400805E+02 -0.48387081441E+02 -0.52396077266E+02  0.92836059849E+02  0.41800000000E+01 0.  1.
        -11    1    1    2    0    0  0.34346274666E+02  0.51337859916E+02 -0.16228464575E+02  0.63863960938E+02  0.00000000000E+00 0. -1.
         11    1    1    2    0    0 -0.57933159311E+02  0.71631266541E+02 -0.25116697759E+02  0.95488940723E+02  0.00000000000E+00 0.  1.
</event>
<event>
 6    1  0.8989754E-006  0.9227326E+02  0.7561462E-02  0.1297438E+00
          1   -1    0    0  501    0  0.00000000000E+00  0.00000000000E+00  0.17695144273E+03  0.17695144273E+03  0.00000000000E+00 0. -1.
         -1   -1    0    0    0  501 -0.00000000000E+00 -0.00000000000E+00 -0.11052386216E+03  0.11052386216E+03  0.00000000000E+00 0.  1.
          5    1    1    2  502    0  0.96768459806E+01 -0.27650869342E+02  0.57695848347E+02  0.64842079239E+02  0.41800000000E+01 0.  1.
         -5    1    1    2    0  502  0.37093815465E+02 -0.35529400620E+02 -0.65172859916E+02  0.83085880412E+02  0.41800000000E+01 0.  1.
        -11    1    1    2    0    0  0.13230639767E+02  0.34434301820E+02 -0.39935321587E+01  0.37104167819E+02  0.00000000000E+00 0.  1.
         11    1    1    2    0    0 -0.60001301212E+02  0.28745968142E+02  0.77898124291E+02  0.10244317742E+03  0.00000000000E+00 0. -1.
</event>
<event>
 6    1  0.8989754E-006  0.1337440E+03  0.7561462E-02  0.1222004E+00
         -2   -1    0    0    0  501 -0.00000000000E+00  0.00000000000E+00  0.20645724954E+03  0.20645724954E+03  0.00000000000E+00 0.  1.
          2   -1    0    0  501    0  0.00000000000E+00 -0.00000000000E+00 -0.11781649034E+03  0.11781649034E+03  0.00000000000E+00 0. -1.
          5    1    1    2  502    0  0.27130263422E+02  0.28025903118E+02  0.30229951316E+02  0.49526001207E+02  0.41800000000E+01 0.  1.
         -5    1    1    2    0  502  0.11019387026E+02 -0.11928225543E+03  0.69314787663E+02  0.13846189202E+03  0.41800000000E+01 0.  1.
        -11    1    1    2    0    0  0.84973781380E+01  0.31283266579E+02 -0.42963018474E+02  0.53820713108E+02  0.00000000000E+00 0. -1.
         11    1    1    2    0    0 -0.46647028586E+02  0.59973085737E+02  0.32059038703E+02  0.82465133549E+02  0.00000000000E+00 0.  1.
</event>
<event>
 6    1  0.8989754E-006  0.3242772E+03  0.7561462E-02  0.1073697E+00
         -1   -1    0    0    0  501 -0.00000000000E+00  0.00000000000E+00  0.77383286608E+02  0.77383286608E+02  0.00000000000E+00 0.  1.
          1   -1    0    0  501    0  0.00000000000E+00 -0.00000000000E+00 -0.14209064168E+04  0.14209064168E+04  0.00000000000E+00 0. -1.
          5    1    1    2  502    0  0.16716239293E+03  0.24853086631E+03 -0.59739272109E+03  0.66828616081E+03  0.41800000000E+01 0.  1.
         -5    1    1    2    0  502  0.33763588680E+02 -0.90923837943E+01 -0.10230399800E+03  0.10819534080E+03  0.41800000000E+01 0.  1.
        -11    1    1    2    0    0 -0.18535119498E+03 -0.20730736493E+03 -0.48546259927E+03  0.55946880550E+03  0.00000000000E+00 0.  1.
         11    1    1    2    0    0 -0.15574786630E+02 -0.32131117582E+02 -0.15836381185E+03  0.16233939633E+03  0.00000000000E+00 0. -1.
</event>
<event>
 6    1  0.8989754E-006  0.6610078E+02  0.7561462E-02  0.1373878E+00
          4   -1    0    0  501    0  0.00000000000E+00  0.00000000000E+00  0.16757818096E+03  0.16757818096E+03  0.00000000000E+00 0. -1.
         -4   -1    0    0    0  501 -0.00000000000E+00 -0.00000000000E+00 -0.83073187942E+02  0.83073187942E+02  0.00000000000E+00 0.  1.
          5    1    1    2  502    0 -0.71849886150E+01  0.95861713963E+01  0.62728559954E+02  0.63998932627E+02  0.41800000000E+01 0. -1.
         -5    1    1    2    0  502  0.33532613592E+02 -0.41520000997E+01 -0.54450203362E+02  0.64218161958E+02  0.41800000000E+01 0. -1.
        -11    1    1    2    0    0 -0.34890756137E+02 -0.38123720515E+02  0.71642848870E+02  0.88337312185E+02  0.00000000000E+00 0. -1.
         11    1    1    2    0    0  0.85431311609E+01  0.32689549218E+02  0.45837875517E+01  0.34096962129E+02  0.00000000000E+00 0.  1.
</event>
<event>
 6    1  0.8989754E-006  0.1458056E+03  0.7561462E-02  0.1205724E+00
         -1   -1    0    0    0  501 -0.00000000000E+00  0.00000000000E+00  0.47059171709E+02  0.47059171709E+02  0.00000000000E+00 0.  1.
          1   -1    0    0  501    0  0.00000000000E+00 -0.00000000000E+00 -0.47822615161E+03  0.47822615161E+03  0.00000000000E+00 0. -1.
          5    1    1    2  502    0 -0.65817247922E+02  0.40245179971E+02 -0.72388678152E+02  0.10587340440E+03  0.41800000000E+01 0.  1.
         -5    1    1    2    0  502  0.55016416547E+02  0.58110549709E+02 -0.11564976109E+03  0.14069819372E+03  0.41800000000E+01 0.  1.
        -11    1    1    2    0    0  0.48701076557E+02 -0.75856386657E+02 -0.13937076666E+03  0.16598251972E+03  0.00000000000E+00 0.  1.
         11    1    1    2    0    0 -0.37900245183E+02 -0.22499343023E+02 -0.10375777400E+03  0.11273120547E+03  0.00000000000E+00 0. -1.
</event>
<event>
 6    1  0.8989754E-006  0.1422843E+03  0.7561462E-02  0.1210288E+00
          2   -1    0    0  501    0  0.00000000000E+00  0.00000000000E+00  0.64717871157E+03  0.64717871157E+03  0.00000000000E+00 0. -1.
         -2   -1    0    0    0  501 -0.00000000000E+00 -0.00000000000E+00 -0.44800233623E+02  0.44800233623E+02  0.00000000000E+00 0.  1.
          5    1    1    2  502    0 -0.15966847109E+02  0.18181868701E+02  0.31574020110E+01  0.24758072291E+02  0.41800000000E+01 0. -1.
         -5    1    1    2    0  502  0.53796391148E+02 -0.12129377173E+03  0.16622678737E+03  0.21273233887E+03  0.41800000000E+01 0. -1.
        -11    1    1    2    0    0  0.17117433114E+02  0.12158771175E+02  0.23872590221E+02  0.31792181378E+02  0.00000000000E+00 0.  1.
         11    1    1    2    0    0 -0.54946977153E+02  0.90953131854E+02  0.40912169835E+03  0.42269635266E+03  0.00000000000E+00 0. -1.
</event>
<event>
 6    1  0.8989754E-006  0.9766354E+02  0.7561462E-02  0.1285287E+00
          2   -1    0    0  501    0  0.00000000000E+00  0.00000000000E+00  0.38137501819E+02  0.38137501819E+02  0.00000000000E+00 0. -1.
         -2   -1    0    0    0  501 -0.00000000000E+00 -0.00000000000E+00 -0.37883954837E+03  0.37883954837E+03  0.00000000000E+00 0.  1.
          5    1    1    2  502    0 -0.28597549624E+02  0.54149035647E+02 -0.75639084019E+02  0.97409862628E+02  0.41800000000E+01 0.  1.
         -5    1    1    2    0  502  0.20836836821E+02 -0.41608789381E+02 -0.21046485192E+03  0.21558847701E+03  0.41800000000E+01 0.  1.
        -11    1    1    2    0    0 -0.22492112151E+02  0.28458498450E+02 -0.31472913305E+02  0.48024218005E+02  0.00000000000E+00 0. -1.
         11    1    1    2    0    0  0.30252824954E+02 -0.40998744717E+02 -0.23125197300E+02  0.55954492547E+02  0.00000000000E+00 0.  1.
</event>
<event>
 6    1  0.8989754E-006  0.1122172E+03  0.7561462E-02  0.1256518E+00
         -1   -1    0    0    0  501 -0.00000000000E+00  0.00000000000E+00  0.12339183744E+03  0.12339183744E+03  0.00000000000E+00 0.  1.
          1   -1    0    0  501    0  0.00000000000E+00 -0.00000000000E+00 -0.13602852418E+03  0.13602852418E+03  0.00000000000E+00 0. -1.
          5    1    1    2  502    0  0.25043664073E+02 -0.31013179417E+01 -0.19768460093E+02  0.32327506827E+02  0.41800000000E+01 0. -1.
         -5    1    1    2    0  502 -0.72659953933E+02  0.60936891423E+02  0.39706418404E+02  0.10289239867E+03  0.41800000000E+01 0.  1.
        -11    1    1    2    0    0  0.66868502783E+02 -0.48009906728E+02 -0.50106896295E+02  0.96369335708E+02  0.00000000000E+00 0. -1.
         11    1    1    2    0    0 -0.19252212922E+02 -0.98256667534E+01  0.17532251250E+02  0.27831120413E+02  0.00000000000E+00 0.  1.
</event>
<event>
 6    1  0.8989754E-006  0.7433625E+02  0.7561462E-02  0.1345939E+00
         -1   -1    0    0    0  501 -0.00000000000E+00  0.00000000000E+00  0.31817573285E+02  0.31817573285E+02  0.00000000000E+00 0.  1.
          1   -1    0    0  501    0  0.00000000000E+00 -0.00000000000E+00 -0.44009077009E+03  0.44009077009E+03  0.00000000000E+00 0. -1.
          5    1    1    2  502    0 -0.26569416021E+02 -0.38444726292E+02 -0.47824075401E+01  0.47162216543E+02  0.41800000000E+01 0. -1.
         -5    1    1    2    0  502 -0.57603982371E+01  0.27477297920E+02 -0.16004342300E+03  0.16254092941E+03  0.41800000000E+01 0. -1.
        -11    1    1    2    0    0  0.49160381898E+01  0.35947025875E+02 -0.20717740297E+03  0.21033029359E+03  0.00000000000E+00 0. -1.
         11    1    1    2    0    0  0.27413776068E+02 -0.24979597503E+02 -0.36269963297E+02  0.51874903829E+02  0.00000000000E+00 0.  1.
</event>
<event>
 6    1  0.8989754E-006  0.1104416E+03  0.7561462E-02  0.1259754E+00
          1   -1    0    0  501    0  0.00000000000E+00  0.00000000000E+00  0.31416477623E+03  0.31416477623E+03  0.00000000000E+00 0. -1.
         -1   -1    0    0    0  501 -0.00000000000E+00 -0.00000000000E+00 -0.43054146233E+02  0.43054146233E+02  0.00000000000E+00 0.  1.
          5    1    1    2  502    0  0.42947215403E+02 -0.21172017552E+02  0.95737972008E+02  0.10712585739E+03  0.41800000000E+01 0.  1.
         -5    1    1    2    0  502 -0.75198506985E+02 -0.67047874559E+01  0.55987741322E+02  0.94084372804E+02  0.41800000000E+01 0.  1.
        -11    1    1    2    0    0 -0.27944194784E+02 -0.53464697057E+01  0.54459212373E+02  0.61443214212E+02  0.00000000000E+00 0.  1.
         11    1    1    2    0    0  0.60195486366E+02  0.33223274713E+02  0.64925704294E+02  0.94565478054E+02  0.00000000000E+00 0. -1.
</event>
<event>
 6    1  0.8989754E-006  0.1421930E+03  0.7561462E-02  0.1210408E+00
         -2   -1    0    0    0  501 -0.00000000000E+00  0.00000000000E+00  0.21101058879E+03  0.21101058879E+03  0.00000000000E+00 0.  1.
          2   -1    0    0  501    0  0.00000000000E+00 -0.00000000000E+00 -0.11992249263E+03  0.11992249263E+03  0.00000000000E+00 0. -1.
          5    1    1    2  502    0  0.70948196657E+02 -0.93623328207E+00  0.54461744662E+02  0.89543716548E+02  0.41800000000E+01 0.  1.
         -5    1    1    2    0  502 -0.94701870042E+01  0.91694936875E+02  0.30232068508E+02  0.97103533698E+02  0.41800000000E+01 0.  1.
        -11    1    1    2    0    0  0.22463897003E+01 -0.38646637040E+02 -0.34961308023E+02  0.52162264903E+02  0.00000000000E+00 0.  1.
         11    1    1    2    0    0 -0.63724399353E+02 -0.52112066553E+02  0.41355591012E+02  0.92123566264E+02  0.00000000000E+00 0. -1.
</event>
<event>
 6    1  0.8989754E-006  0.1087435E+03  0.7561462E-02  0.1262914E+00
          2   -1    0    0  501    0  0.00000000000E+00  0.00000000000E+00  0.27508476225E+03  0.27508476225E+03  0.00000000000E+00 0. -1.
         -2   -1    0    0    0  501 -0.00000000000E+00 -0.00000000000E+00 -0.57041753234E+02  0.57041753234E+02  0.00000000000E+00 0.  1.
          5    1    1    2  502    0 -0.72830935756E+01 -0.25917995039E+02  0.74514504033E+02  0.79338954052E+02  0.41800000000E+01 0.  1.
         -5    1    1    2    0  502  0.93867408690E+01  0.81342254367E+02  0.12802243117E+02  0.82982185308E+02  0.41800000000E+01 0.  1.
        -11    1    1    2    0    0  0.36309472047E+02  0.50011943592E+01  0.40555733491E+02  0.54664039590E+02  0.00000000000E+00 0.  1.
         11    1    1    2    0    0 -0.38413119340E+02 -0.60425453688E+02  0.90170528371E+02  0.11514133653E+03  0.00000000000E+00 0. -1.
</event>
<event>
 6    1  0.8989754E-006  0.1060036E+03  0.7561462E-02  0.1268155E+00
         -2   -1    0    0    0  501 -0.00000000000E+00  0.00000000000E+00  0.71425407718E+02  0.71425407718E+02  0.00000000000E+00 0.  1.
          2   -1    0    0  501    0  0.00000000000E+00 -0.00000000000E+00 -0.22842722874E+03  0.22842722874E+03  0.00000000000E+00 0. -1.
          5    1    1    2  502    0 -0.16112210282E+02  0.33789216282E+02 -0.37103265887E+02  0.52871913117E+02  0.41800000000E+01 0. -1.
         -5    1    1    2    0  502  0.40954330143E+02 -0.75668194794E+02  0.95069306522E+00  0.86147020135E+02  0.41800000000E+01 0. -1.
        -11    1    1    2    0    0 -0.50696923185E+02  0.34462265074E+02 -0.34393296847E+02  0.70290288109E+02  0.00000000000E+00 0.  1.
         11    1    1    2    0    0  0.25854803324E+02  0.74167134386E+01 -0.86455951358E+02  0.90543415102E+02  0.00000000000E+00 0. -1.
</event>
<event>
 6    1  0.8989754E-006  0.9996698E+02  0.7561462E-02  0.1280365E+00
         -3   -1    0    0    0  501 -0.00000000000E+00  0.00000000000E+00  0.76684247779E+02  0.76684247779E+02  0.00000000000E+00 0.  1.
          3   -1    0    0  501    0  0.00000000000E+00 -0.00000000000E+00 -0.17409815370E+03  0.17409815370E+03  0.00000000000E+00 0. -1.
          5    1    1    2  502    0 -0.51258614843E+02 -0.51263716794E+00 -0.47393196133E+02  0.69937799738E+02  0.41800000000E+01 0.  1.
         -5    1    1    2    0  502  0.48963348069E+02 -0.21019232649E+02  0.24947706788E+02  0.58983710203E+02  0.41800000000E+01 0.  1.
        -11    1    1    2    0    0  0.24754302190E+02  0.51772597179E+02 -0.36440848402E+02  0.67978766742E+02  0.00000000000E+00 0.  1.
         11    1    1    2    0    0 -0.22459035416E+02 -0.30240727362E+02 -0.38527568175E+02  0.53882124797E+02  0.00000000000E+00 0. -1.
</event>
<event>
 6    1  0.8989754E-006  0.1486187E+03  0.7561462E-02  0.1202181E+00
         -2   -1    0    0    0  501 -0.00000000000E+00  0.00000000000E+00  0.10666451742E+03  0.10666451742E+03  0.00000000000E+00 0. -1.
          2   -1    0    0  501    0  0.00000000000E+00 -0.00000000000E+00 -0.27671115978E+03  0.27671115978E+03  0.00000000000E+00 0.  1.
          5    1    1    2  502    0  0.41734443880E+02 -0.33829550902E+02  0.32804888983E+02  0.63085937113E+02  0.41800000000E+01 0. -1.
         -5    1    1    2    0  502  0.19973197359E+02 -0.81316174426E+02 -0.98493141157E+02  0.12934303263E+03  0.41800000000E+01 0. -1.
        -11    1    1    2    0    0  0.23451168414E+02  0.37741944617E+02 -0.35176504245E+02  0.56672728312E+02  0.00000000000E+00 0.  1.
         11    1    1    2    0    0 -0.85158809652E+02  0.77403780711E+02 -0.69181885942E+02  0.13427397913E+03  0.00000000000E+00 0. -1.
</event>
<event>
 6    1  0.8989754E-006  0.9281553E+02  0.7561462E-02  0.1296173E+00
          1   -1    0    0  501    0  0.00000000000E+00  0.00000000000E+00  0.79802602083E+02  0.79802602083E+02  0.00000000000E+00 0. -1.
         -1   -1    0    0    0  501 -0.00000000000E+00 -0.00000000000E+00 -0.17167620415E+03  0.17167620415E+03  0.00000000000E+00 0.  1.
          5    1    1    2  502    0  0.22529662040E+02  0.55094928572E+02 -0.32001647864E+02  0.67709782838E+02  0.41800000000E+01 0.  1.
         -5    1    1    2    0  502 -0.35079682982E+02 -0.53028011370E+02 -0.65705558018E+02  0.91527301404E+02  0.41800000000E+01 0.  1.
        -11    1    1    2    0    0 -0.13956651486E+02  0.22254381396E+02  0.36500464655E+02  0.44970318345E+02  0.00000000000E+00 0. -1.
         11    1    1    2    0    0  0.26506672428E+02 -0.24321298598E+02 -0.30666860841E+02  0.47271403645E+02  0.00000000000E+00 0.  1.
</event>
<event>
 6    1  0.8989754E-006  0.1007215E+03  0.7561462E-02  0.1278786E+00
         -1   -1    0    0    0  501 -0.00000000000E+00  0.00000000000E+00  0.34429560281E+03  0.34429560281E+03  0.00000000000E+00 0.  1.
          1   -1    0    0  501    0  0.00000000000E+00 -0.00000000000E+00 -0.45136778807E+02  0.45136778807E+02  0.00000000000E+00 0. -1.
          5    1    1    2  502    0 -0.43679308638E+01  0.64747345525E+02  0.21554204911E+03  0.22513805744E+03  0.41800000000E+01 0.  1.
         -5    1    1    2    0  502 -0.80532893510E+01 -0.44274845493E+02  0.39877910039E+02  0.60273024828E+02  0.41800000000E+01 0.  1.
        -11    1    1    2    0    0  0.21678050861E+02  0.31605041726E+02  0.54212227273E+01  0.38706668773E+02  0.00000000000E+00 0. -1.
         11    1    1    2    0    0 -0.92568306463E+01 -0.52077541757E+02  0.38317642119E+02  0.65314630571E+02  0.00000000000E+00 0.  1.
</event>
<event>
 6    1  0.8989754E-006  0.1986630E+03  0.7561462E-02  0.1150872E+00
         -2   -1    0    0    0  501 -0.00000000000E+00  0.00000000000E+00  0.75910659690E+02  0.75910659690E+02  0.00000000000E+00 0.  1.
          2   -1    0    0  501    0  0.00000000000E+00 -0.00000000000E+00 -0.75637561610E+03  0.75637561610E+03  0.00000000000E+00 0. -1.
          5    1    1    2  502    0  0.29437532957E+02  0.11596866712E+02 -0.10181023256E+03  0.10669513352E+03  0.41800000000E+01 0.  1.
         -5    1    1    2    0  502  0.58326309766E+02  0.15996035683E+03 -0.90245095532E+02  0.19274574920E+03  0.41800000000E+01 0.  1.
        -11    1    1    2    0    0 -0.46040726659E+02 -0.57578700459E+02 -0.89905789544E+02  0.11626739118E+03  0.00000000000E+00 0.  1.
         11    1    1    2    0    0 -0.41723116063E+02 -0.11397852308E+03 -0.39850383878E+03  0.41657800189E+03  0.00000000000E+00 0. -1.
</event>
<event>
 6    1  0.8989754E-006  0.9204606E+02  0.7561462E-02  0.1297971E+00
         -1   -1    0    0    0  501 -0.00000000000E+00  0.00000000000E+00  0.11663536539E+03  0.11663536539E+03  0.00000000000E+00 0.  1.
          1   -1    0    0  501    0  0.00000000000E+00 -0.00000000000E+00 -0.12757462497E+03  0.12757462497E+03  0.00000000000E+00 0. -1.
          5    1    1    2  502    0 -0.45557497705E+02 -0.48396610625E+02  0.67506915928E+02  0.94828126709E+02  0.41800000000E+01 0.  1.
         -5    1    1    2    0  502  0.11212537778E+02  0.43435188542E+02 -0.11586236224E+02  0.46519349490E+02  0.41800000000E+01 0.  1.
        -11    1    1    2    0    0  0.42340994446E+02  0.26169915092E+02 -0.62299680043E+02  0.79742550750E+02  0.00000000000E+00 0. -1.
         11    1    1    2    0    0 -0.79960345196E+01 -0.21208493010E+02 -0.45602592391E+01  0.23119963411E+02  0.00000000000E+00 0.  1.
</event>
<event>
 6    1  0.8989754E-006  0.1168770E+03  0.7561462E-02  0.1248340E+00
         -2   -1    0    0    0  501 -0.00000000000E+00  0.00000000000E+00  0.35395144061E+03  0.35395144061E+03  0.00000000000E+00 0.  1.
          2   -1    0    0  501    0  0.00000000000E+00 -0.00000000000E+00 -0.46509053088E+02  0.46509053088E+02  0.00000000000E+00 0. -1.
          5    1    1    2  502    0 -0.43426991161E+02  0.44763988657E+01  0.63212135588E+02  0.76936260591E+02  0.41800000000E+01 0.  1.
         -5    1    1    2    0  502  0.80164685783E+02 -0.45738567628E+02  0.16526021410E+03  0.18933252278E+03  0.41800000000E+01 0.  1.
        -11    1    1    2    0    0 -0.51333687725E+02  0.56547473191E+02  0.32228787565E+02  0.82894263780E+02  0.00000000000E+00 0.  1.
         11    1    1    2    0    0  0.14595993103E+02 -0.15285304430E+02  0.46741250266E+02  0.51297446551E+02  0.00000000000E+00 0. -1.
</event>
<event>
 6    1  0.8989754E-006  0.1072681E+03  0.7561462E-02  0.1265714E+00
         -1   -1    0    0    0  501 -0.00000000000E+00  0.00000000000E+00  0.13562715752E+03  0.13562715752E+03  0.00000000000E+00 0.  1.
          1   -1    0    0  501    0  0.00000000000E+00 -0.00000000000E+00 -0.14530094015E+03  0.14530094015E+03  0.00000000000E+00 0. -1.
          5    1    1    2  502    0 -0.27814060147E+02  0.14009227546E+02 -0.63345255773E+02  0.70710495878E+02  0.41800000000E+01 0. -1.
         -5    1    1    2    0  502 -0.73887434671E+02  0.18609008276E+02  0.54820753414E+02  0.93959755195E+02  0.41800000000E+01 0. -1.
        -11    1    1    2    0    0  0.10495720370E+02 -0.34599974002E+01  0.15531975543E+02  0.19062371110E+02  0.00000000000E+00 0.  1.
         11    1    1    2    0    0  0.91205774448E+02 -0.29158238421E+02 -0.16681255807E+02  0.97195475491E+02  0.00000000000E+00 0. -1.
</event>
<event>
 6    1  0.8989754E-006  0.8614683E+02  0.7561462E-02  0.1312460E+00
          2   -1    0    0  501    0  0.00000000000E+00  0.00000000000E+00  0.25632863815E+03  0.25632863815E+03  0.00000000000E+00 0. -1.
         -2   -1    0    0    0  501 -0.00000000000E+00 -0.00000000000E+00 -0.48471430089E+02  0.48471430089E+02  0.00000000000E+00 0.  1.
          5    1    1    2  502    0  0.90284936302E+01  0.64278238549E+02  0.10844483912E+03  0.12645537228E+03  0.41800000000E+01 0. -1.
         -5    1    1    2    0  502 -0.19066524022E+02 -0.27624486536E+02 -0.50066715499E+01  0.34193329096E+02  0.41800000000E+01 0.  1.
        -11    1    1    2    0    0  0.33327477149E+02 -0.37437293013E+02  0.15851209842E+02  0.52569311340E+02  0.00000000000E+00 0. -1.
         11    1    1    2    0    0 -0.23289446758E+02  0.78354100034E+00  0.88567830657E+02  0.91582055524E+02  0.00000000000E+00 0.  1.
</event>
<event>
 6    1  0.8989754E-006  0.9437819E+02  0.7561462E-02  0.1292583E+00
          4   -1    0    0  501    0  0.00000000000E+00  0.00000000000E+00  0.16474468171E+03  0.16474468171E+03  0.00000000000E+00 0. -1.
         -4   -1    0    0    0  501 -0.00000000000E+00 -0.00000000000E+00 -0.69900432953E+02  0.69900432953E+02  0.00000000000E+00 0.  1.
          5    1    1    2  502    0  0.31665662834E+02  0.46534962042E+02  0.40625487318E+02  0.69542213905E+02  0.41800000000E+01 0. -1.
         -5    1    1    2    0  502 -0.37904671213E+02 -0.50173932277E+02  0.28328748950E+01  0.63084745859E+02  0.41800000000E+01 0. -1.
        -11    1    1    2    0    0 -0.12284881734E+02  0.32643327255E+02  0.57317825070E+02  0.67095739092E+02  0.00000000000E+00 0.  1.
         11    1    1    2    0    0  0.18523890113E+02 -0.29004357020E+02 -0.59319385262E+01  0.34922415806E+02  0.00000000000E+00 0. -1.
</event>
<event>
 6    1  0.8989754E-006  0.8835971E+02  0.7561462E-02  0.1306873E+00
          1   -1    0    0  501    0  0.00000000000E+00  0.00000000000E+00  0.40801460667E+02  0.40801460667E+02  0.00000000000E+00 0. -1.
         -1   -1    0    0    0  501 -0.00000000000E+00 -0.00000000000E+00 -0.31773697002E+03  0.31773697002E+03  0.00000000000E+00 0.  1.
          5    1    1    2  502    0 -0.41014309033E+02  0.40112485162E+02 -0.11180120693E+02  0.58597376307E+02  0.41800000000E+01 0.  1.
         -5    1    1    2    0  502  0.75953990376E+01 -0.28698227828E+02 -0.12955149093E+03  0.13297495843E+03  0.41800000000E+01 0.  1.
        -11    1    1    2    0    0 -0.23316069160E+02 -0.21357826268E+02 -0.81949028686E+02  0.87837572408E+02  0.00000000000E+00 0.  1.
         11    1    1    2    0    0  0.56734979155E+02  0.99435689342E+01 -0.54254869036E+02  0.79128523536E+02  0.00000000000E+00 0. -1.
</event>
<event>
 6    1  0.8989754E-006  0.7688296E+02  0.7561462E-02  0.1338137E+00
          1   -1    0    0  501    0  0.00000000000E+00  0.00000000000E+00  0.20358896974E+03  0.20358896974E+03  0.00000000000E+00 0. -1.
         -1   -1    0    0    0  501 -0.00000000000E+00 -0.00000000000E+00 -0.66540757608E+02  0.66540757608E+02  0.00000000000E+00 0.  1.
          5    1    1    2  502    0 -0.15055939099E+02 -0.37542300495E+00  0.90986709725E+02  0.92319423693E+02  0.41800000000E+01 0. -1.
         -5    1    1    2    0  502 -0.24595740350E+02  0.26495552879E+02 -0.31573173237E+02  0.48179896575E+02  0.41800000000E+01 0.  1.
        -11    1    1    2    0    0  0.63360506458E+02  0.39111481390E+01  0.35570240130E+02  0.72767388584E+02  0.00000000000E+00 0.  1.
         11    1    1    2    0    0 -0.23708827009E+02 -0.30031278013E+02  0.42064435515E+02  0.56863018495E+02  0.00000000000E+00 0. -1.
</event>
<event>
 6    1  0.8989754E-006  0.9071325E+02  0.7561462E-02  0.1301134E+00
         -1   -1    0    0    0  501 -0.00000000000E+00  0.00000000000E+00  0.19813708097E+02  0.19813708097E+02  0.00000000000E+00 0.  1.
          1   -1    0    0  501    0  0.00000000000E+00 -0.00000000000E+00 -0.79895988061E+03  0.79895988061E+03  0.00000000000E+00 0. -1.
          5    1    1    2  502    0 -0.12785940936E+02 -0.26966327688E+02 -0.60098529855E+01  0.30728713730E+02  0.41800000000E+01 0. -1.
         -5    1    1    2    0  502  0.35108917838E+02  0.44078466798E+02 -0.24147059643E+03  0.24799409002E+03  0.41800000000E+01 0. -1.
        -11    1    1    2    0    0  0.20159804758E+02 -0.41257469344E+02 -0.26191502809E+03  0.26590990663E+03  0.00000000000E+00 0. -1.
         11    1    1    2    0    0 -0.42482781660E+02  0.24145330234E+02 -0.26975069501E+03  0.27414087832E+03  0.00000000000E+00 0.  1.
</event>
<event>
 6    1  0.8989754E-006  0.1018986E+03  0.7561462E-02  0.1276353E+00
          1   -1    0    0  501    0  0.00000000000E+00  0.00000000000E+00  0.15507869379E+03  0.15507869379E+03  0.00000000000E+00 0. -1.
         -1   -1    0    0    0  501 -0.00000000000E+00 -0.00000000000E+00 -0.13588119075E+03  0.13588119075E+03  0.00000000000E+00 0.  1.
          5    1    1    2  502    0 -0.26795203502E+02  0.66315326656E+02 -0.91402292970E+00  0.71652029407E+02  0.41800000000E+01 0.  1.
         -5    1    1    2    0  502 -0.11488345744E+01 -0.31519034485E+02 -0.74662377159E+02  0.81158562818E+02  0.41800000000E+01 0.  1.
        -11    1    1    2    0    0 -0.21518382606E+02 -0.44955707274E+02  0.42957930838E+02  0.65798481961E+02  0.00000000000E+00 0.  1.
         11    1    1    2    0    0  0.49462420682E+02  0.10159415103E+02  0.51815972284E+02  0.72350810353E+02  0.00000000000E+00 0. -1.
</event>
<event>
 6    1  0.8989754E-006  0.9332417E+02  0.7561462E-02  0.1294996E+00
         -1   -1    0    0    0  501 -0.00000000000E+00  0.00000000000E+00  0.20986267817E+03  0.20986267817E+03  0.00000000000E+00 0.  1.
          1   -1    0    0  501    0  0.00000000000E+00 -0.00000000000E+00 -0.71005343001E+02  0.71005343001E+02  0.00000000000E+00 0. -1.
          5    1    1    2  502    0 -0.16661193183E+02  0.65575705322E+02  0.16069320609E+02  0.69666806670E+02  0.41800000000E+01 0. -1.
         -5    1    1    2    0  502 -0.17206419420E+02 -0.35596430643E+02  0.97276174615E+02  0.10508707481E+03  0.41800000000E+01 0. -1.
        -11    1    1    2    0    0  0.53276483038E+02 -0.17717958052E+02  0.48081963051E+02  0.73920124819E+02  0.00000000000E+00 0.  1.
         11    1    1    2    0    0 -0.19408870434E+02 -0.12261316627E+02 -0.22570123104E+02  0.32194014877E+02  0.00000000000E+00 0. -1.
</event>
<event>
 6    1  0.8989754E-006  0.2260396E+03  0.7561462E-02  0.1129459E+00
         -2   -1    0    0    0  501 -0.00000000000E+00  0.00000000000E+00  0.31479835612E+02  0.31479835612E+02  0.00000000000E+00 0.  1.
          2   -1    0    0  501    0  0.00000000000E+00 -0.00000000000E+00 -0.16758385803E+04  0.16758385803E+04  0.00000000000E+00 0. -1.
          5    1    1    2  502    0 -0.19390161520E+03 -0.64391532256E+02 -0.70873409594E+03  0.73760802392E+03  0.41800000000E+01 0. -1.
         -5    1    1    2    0  502  0.13429748130E+02 -0.26325784665E+02 -0.17392075315E+03  0.17646332721E+03  0.41800000000E+01 0. -1.
        -11    1    1    2    0    0  0.13770554016E+03  0.25745732842E+02 -0.55454237907E+03  0.57196407994E+03  0.00000000000E+00 0.  1.
         11    1    1    2    0    0  0.42766326906E+02  0.64971584079E+02 -0.20716151656E+03  0.22128298489E+03  0.00000000000E+00 0. -1.
</event>
<event>
 6    1  0.8989754E-006  0.9366571E+02  0.7561462E-02  0.1294210E+00
         -4   -1    0    0    0  501 -0.00000000000E+00  0.00000000000E+00  0.73704276505E+02  0.73704276505E+02  0.00000000000E+00 0.  1.
          4   -1    0    0  501    0  0.00000000000E+00 -0.00000000000E+00 -0.31808520982E+03  0.31808520982E+03  0.00000000000E+00 0. -1.
          5    1    1    2  502    0 -0.62426407088E+02  0.10888503738E+02  0.30241927071E+02  0.70339621612E+02  0.41800000000E+01 0. -1.
         -5    1    1    2    0  502  0.44523402059E+01  0.42929052426E+02 -0.70886746620E+02  0.83097112597E+02  0.41800000000E+01 0. -1.
        -11    1    1    2    0    0  0.10362327596E+02 -0.29148830543E+01  0.92870472221E+01  0.14217018764E+02  0.00000000000E+00 0.  1.
         11    1    1    2    0    0  0.47611739286E+02 -0.50902673110E+02 -0.21302316099E+03  0.22413573335E+03  0.00000000000E+00 0. -1.
</event>
<event>
 6    1  0.8989754E-006  0.1305890E+03  0.7561462E-02  0.1226584E+00
         -2   -1    0    0    0  501 -0.00000000000E+00  0.00000000000E+00  0.84661836247E+02  0.84661836247E+02  0.00000000000E+00 0.  1.
          2   -1    0    0  501    0  0.00000000000E+00 -0.00000000000E+00 -0.28358180774E+03  0.28358180774E+03  0.00000000000E+00 0. -1.
          5    1    1    2  502    0  0.58248158682E+02  0.73732105235E+02  0.32405816412E+01  0.94112938014E+02  0.41800000000E+01 0. -1.
         -5    1    1    2    0  502  0.13799488602E+02 -0.48184591563E+02 -0.17000994683E+02  0.53091307857E+02  0.41800000000E+01 0. -1.
        -11    1    1    2    0    0 -0.12286628554E+02 -0.50566919201E+02 -0.11082469512E+03  0.12243401328E+03  0.00000000000E+00 0. -1.
         11    1    1    2    0    0 -0.59761018730E+02  0.25019405529E+02 -0.74334863327E+02  0.98605384835E+02  0.00000000000E+00 0.  1.
</event>
<event>
 6    1  0.8989754E-006  0.1327277E+03  0.7561462E-02  0.1223463E+00
          1   -1    0    0  501    0  0.00000000000E+00  0.00000000000E+00  0.60188138055E+02  0.60188138055E+02  0.00000000000E+00 0. -1.
         -1   -1    0    0    0  501 -0.00000000000E+00 -0.00000000000E+00 -0.38665108729E+03  0.38665108729E+03  0.00000000000E+00 0.  1.
          5    1    1    2  502    0 -0.77131413985E+02 -0.87417164702E+02 -0.15086090960E+03  0.19070265377E+03  0.41800000000E+01 0. -1.
         -5    1    1    2    0  502  0.22188450824E+02  0.14189161892E+02 -0.10603374359E+03  0.10933566136E+03  0.41800000000E+01 0. -1.
        -11    1    1    2    0    0 -0.14318807623E+01  0.65169370367E+02 -0.60881116528E+02  0.89194212067E+02  0.00000000000E+00 0.  1.
         11    1    1    2    0    0  0.56374843923E+02  0.80586324434E+01 -0.86871795187E+01  0.57606698154E+02  0.00000000000E+00 0. -1.
</event>
<event>
 6    1  0.8989754E-006  0.1789242E+03  0.7561462E-02  0.1168848E+00
          1   -1    0    0  501    0  0.00000000000E+00  0.00000000000E+00  0.96136319373E+03  0.96136319373E+03  0.00000000000E+00 0. -1.
         -1   -1    0    0    0  501 -0.00000000000E+00 -0.00000000000E+00 -0.86057217337E+02  0.86057217337E+02  0.00000000000E+00 0.  1.
          5    1    1    2  502    0  0.57298905323E+02  0.87897837302E+02 -0.18869919299E+02  0.10668992740E+03  0.41800000000E+01 0.  1.
         -5    1    1    2    0  502 -0.10948693473E+02  0.69374254176E+02  0.84018768612E+02  0.10958689205E+03  0.41800000000E+01 0.  1.
        -11    1    1    2    0    0 -0.21667256621E+02 -0.15628587990E+03  0.74347864846E+03  0.76003634583E+03  0.00000000000E+00 0.  1.
         11    1    1    2    0    0 -0.24682955229E+02 -0.98621158245E+00  0.66678478612E+02  0.71107245778E+02  0.00000000000E+00 0. -1.
</event>
<event>
 6    1  0.8989754E-006  0.1064485E+03  0.7561462E-02  0.1267292E+00
         -1   -1    0    0    0  501 -0.00000000000E+00  0.00000000000E+00  0.44402082827E+02  0.44402082827E+02  0.00000000000E+00 0.  1.
          1   -1    0    0  501    0  0.00000000000E+00 -0.00000000000E+00 -0.30056020323E+03  0.30056020323E+03  0.00000000000E+00 0. -1.
          5    1    1    2  502    0  0.30941556725E+02 -0.35573880408E+02 -0.69663549906E+02  0.84222108056E+02  0.41800000000E+01 0. -1.
         -5    1    1    2    0  502 -0.50063300863E+02  0.54998133304E+02 -0.41089976266E+02  0.85070484363E+02  0.41800000000E+01 0. -1.
        -11    1    1    2    0    0  0.53881362792E+02 -0.15671209282E+02 -0.54291497061E+02  0.78079156693E+02  0.00000000000E+00 0.  1.
         11    1    1    2    0    0 -0.34759618654E+02 -0.37530436131E+01 -0.91113097171E+02  0.97590536946E+02  0.00000000000E+00 0. -1.
</event>
<event>
 6    1  0.8989754E-006  0.5889513E+02  0.7561462E-02  0.1402528E+00
          2   -1    0    0  501    0  0.00000000000E+00  0.00000000000E+00  0.54834627434E+02  0.54834627434E+02  0.00000000000E+00 0. -1.
         -2   -1    0    0    0  501 -0.00000000000E+00 -0.00000000000E+00 -0.24540358538E+03  0.24540358538E+03  0.00000000000E+00 0.  1.
          5    1    1    2  502    0  0.44911341524E+01 -0.22773156855E+02 -0.13191945736E+03  0.13401120322E+03  0.41800000000E+01 0. -1.
         -5    1    1    2    0  502  0.20880305028E+02  0.25494207024E+02  0.17393069452E+02  0.37495773026E+02  0.41800000000E+01 0. -1.
        -11    1    1    2    0    0 -0.38019604473E+02 -0.17228108478E+02 -0.93722164569E+02  0.10259698913E+03  0.00000000000E+00 0.  1.
         11    1    1    2    0    0  0.12648165292E+02  0.14507058310E+02  0.17679594536E+02  0.26134247436E+02  0.00000000000E+00 0. -1.
</event>
<event>
 6    1  0.8989754E-006  0.3082221E+03  0.7561462E-02  0.1081201E+00
         -3   -1    0    0    0  501 -0.00000000000E+00  0.00000000000E+00  0.80658688752E+02  0.80658688752E+02  0.00000000000E+00 0. -1.
          3   -1    0    0  501    0  0.00000000000E+00 -0.00000000000E+00 -0.13826701416E+04  0.13826701416E+04  0.00000000000E+00 0.  1.
          5    1    1    2  502    0  0.10223955012E+03  0.23769610174E+03 -0.30981414469E+03  0.40367640387E+03  0.41800000000E+01 0.  1.
         -5    1    1    2    0  502  0.57852094204E+02  0.88156754087E+01 -0.99822942816E+02  0.11578718949E+03  0.41800000000E+01 0.  1.
        -11    1    1    2    0    0 -0.11155509070E+03 -0.21158832056E+03 -0.60981906628E+03  0.65505224926E+03  0.00000000000E+00 0. -1.
         11    1    1    2    0    0 -0.48536553629E+02 -0.34923456588E+02 -0.28255529903E+03  0.28881298770E+03  0.00000000000E+00 0.  1.
</event>
<event>
 6    1  0.8989754E-006  0.1049897E+03  0.7561462E-02  0.1270140E+00
         -3   -1    0    0    0  501 -0.00000000000E+00  0.00000000000E+00  0.39966043717E+03  0.39966043717E+03  0.00000000000E+00 0.  1.
          3   -1    0    0  501    0  0.00000000000E+00 -0.00000000000E+00 -0.30018769108E+02  0.30018769108E+02  0.00000000000E+00 0. -1.
          5    1    1    2  502    0 -0.20823130008E+02 -0.61510843608E+02  0.15904112418E+03  0.17183928016E+03  0.41800000000E+01 0. -1.
         -5    1    1    2    0  502  0.29543791078E+02  0.43323161947E+02  0.49839594920E+02  0.72465092107E+02  0.41800000000E+01 0. -1.
        -11    1    1    2    0    0 -0.40439635427E+02  0.37512033872E+02  0.96591087215E+02  0.11123108796E+03  0.00000000000E+00 0.  1.
         11    1    1    2    0    0  0.31718974357E+02 -0.19324352211E+02  0.64169861749E+02  0.74143746058E+02  0.00000000000E+00 0. -1.
</event>
<event>
 6    1  0.8989754E-006  0.9316135E+02  0.7561462E-02  0.1295372E+00
         -2   -1    0    0    0  501 -0.00000000000E+00  0.00000000000E+00  0.49675354035E+02  0.49675354035E+02  0.00000000000E+00 0.  1.
          2   -1    0    0  501    0  0.00000000000E+00 -0.00000000000E+00 -0.46376148934E+03  0.46376148934E+03  0.00000000000E+00 0. -1.
          5    1    1    2  502    0 -0.27167895065E+02  0.11136699657E+01  0.28365854741E+02  0.39514919945E+02  0.41800000000E+01 0. -1.
         -5    1    1    2    0  502 -0.46645598131E+02  0.36826068226E+02 -0.12655473210E+03  0.13987688781E+03  0.41800000000E+01 0. -1.
        -11    1    1    2    0    0  0.45687465171E+02  0.69991526024E+01 -0.21665214364E+03  0.22152761443E+03  0.00000000000E+00 0. -1.
         11    1    1    2    0    0  0.28126028024E+02 -0.44938890794E+02 -0.99245114305E+02  0.11251742119E+03  0.00000000000E+00 0.  1.
</event>
<event>
 6    1  0.8989754E-006  0.1652117E+03  0.7561462E-02  0.1182935E+00
         -2   -1    0    0    0  501 -0.00000000000E+00  0.00000000000E+00  0.92361192093E+02  0.92361192093E+02  0.00000000000E+00 0. -1.
          2   -1    0    0  501    0  0.00000000000E+00 -0.00000000000E+00 -0.38169803158E+03  0.38169803158E+03  0.00000000000E+00 0.  1.
          5    1    1    2  502    0 -0.29405796909E+02  0.13985035929E+03 -0.34156600164E+02  0.14699309378E+03  0.41800000000E+01 0.  1.
         -5    1    1    2    0  502  0.36664272742E+02  0.20229479731E+01 -0.44856501366E+02  0.58120042404E+02  0.41800000000E+01 0.  1.
        -11    1    1    2    0    0 -0.25882307191E+02 -0.11449797506E+03 -0.20381516472E+03  0.23520268172E+03  0.00000000000E+00 0.  1.
         11    1    1    2    0    0  0.18623831358E+02 -0.27375332202E+02 -0.65085732390E+01  0.33743405774E+02  0.00000000000E+00 0. -1.
</event>
<event>
 6    1  0.8989754E-006  0.1008695E+03  0.7561462E-02  0.1278478E+00
          3   -1    0    0  501    0  0.00000000000E+00  0.00000000000E+00  0.39835922559E+03  0.39835922559E+03  0.00000000000E+00 0. -1.
         -3   -1    0    0    0  501 -0.00000000000E+00 -0.00000000000E+00 -0.42043402841E+02  0.42043402841E+02  0.00000000000E+00 0.  1.
          5    1    1    2  502    0 -0.10262600916E+02  0.67833483929E+02  0.13755877323E+03  0.15377448102E+03  0.41800000000E+01 0. -1.
         -5    1    1    2    0  502 -0.15813948032E+02 -0.20130537897E+02 -0.14680453883E+02  0.29804490175E+02  0.41800000000E+01 0. -1.
        -11    1    1    2    0    0 -0.34351782589E+02 -0.97450996999E+01  0.79338906769E+02  0.87003873837E+02  0.00000000000E+00 0.  1.
         11    1    1    2    0    0  0.60428331537E+02 -0.37957846332E+02  0.15409859663E+03  0.16981978340E+03  0.00000000000E+00 0. -1.
</event>
<event>
 6    1  0.8989754E-006  0.1010444E+03  0.7561462E-02  0.1278115E+00
          1   -1    0    0  501    0  0.00000000000E+00  0.00000000000E+00  0.41040508341E+03  0.41040508341E+03  0.00000000000E+00 0. -1.
         -1   -1    0    0    0  501 -0.00000000000E+00 -0.00000000000E+00 -0.35779242576E+02  0.35779242576E+02  0.00000000000E+00 0.  1.
          5    1    1    2  502    0 -0.40039983115E+02 -0.17164427799E+02  0.92376033252E+02  0.10221850003E+03  0.41800000000E+01 0.  1.
         -5    1    1    2    0  502  0.52858172491E+02  0.57918028392E+02  0.55640579297E+02  0.96238406452E+02  0.41800000000E+01 0.  1.
        -11    1    1    2    0    0  0.18269111461E+02 -0.44866136321E+02  0.20238611428E+03  0.20810302707E+03  0.00000000000E+00 0. -1.
         11    1    1    2    0    0 -0.31087300837E+02  0.41125357279E+01  0.24223114002E+02  0.39624392430E+02  0.00000000000E+00 0.  1.
</event>
<event>
 6    1  0.8989754E-006  0.8882232E+02  0.7561462E-02  0.1305729E+00
         -1   -1    0    0    0  501 -0.00000000000E+00  0.00000000000E+00  0.64344875974E+03  0.64344875974E+03  0.00000000000E+00 0.  1.
          1   -1    0    0  501    0  0.00000000000E+00 -0.00000000000E+00 -0.21023119498E+02  0.21023119498E+02  0.00000000000E+00 0. -1.
          5    1    1    2  502    0  0.13970181431E+02 -0.61690581418E+02  0.23793606496E+03  0.24623553198E+03  0.41800000000E+01 0. -1.
         -5    1    1    2    0  502 -0.22979895349E+01  0.61455716524E+02  0.28318252939E+03  0.28981356629E+03  0.41800000000E+01 0. -1.
        -11    1    1    2    0    0  0.17140489513E+02  0.12586029222E+02  0.93810482274E+02  0.96190493797E+02  0.00000000000E+00 0.  1.
         11    1    1    2    0    0 -0.28812681409E+02 -0.12351164327E+02  0.74965636184E+01  0.32232287171E+02  0.00000000000E+00 0. -1.
</event>
<event>
 6    1  0.8989754E-006  0.1075575E+03  0.7561462E-02  0.1265161E+00
         -1   -1    0    0    0  501 -0.00000000000E+00  0.00000000000E+00  0.32412111331E+03  0.32412111331E+03  0.00000000000E+00 0.  1.
          1   -1    0    0  501    0  0.00000000000E+00 -0.00000000000E+00 -0.43878798480E+02  0.43878798480E+02  0.00000000000E+00 0. -1.
          5    1    1    2  502    0 -0.22757405750E+02  0.73832407226E+02  0.17242869837E+03  0.18899273080E+03  0.41800000000E+01 0. -1.
         -5    1    1    2    0  502 -0.61983074656E+01 -0.33911017380E+02  0.91081960593E+01  0.35899968672E+02  0.41800000000E+01 0.  1.
        -11    1    1    2    0    0 -0.30355338498E+02  0.19453044727E+01  0.36416228812E+02  0.47448630178E+02  0.00000000000E+00 0. -1.
         11    1    1    2    0    0  0.59311051714E+02 -0.41866694319E+02  0.62289191589E+02  0.95658582142E+02  0.00000000000E+00 0.  1.
</event>
<event>
 6    1  0.8989754E-006  0.1076301E+03  0.7561462E-02  0.1265022E+00
         -1   -1    0    0    0  501 -0.00000000000E+00  0.00000000000E+00  0.12183232952E+04  0.12183232952E+04  0.00000000000E+00 0.  1.
          1   -1    0    0  501    0  0.00000000000E+00 -0.00000000000E+00 -0.17168114796E+02  0.17168114796E+02  0.00000000000E+00 0. -1.
          5    1    1    2  502    0  0.45014230993E+02 -0.39196703527E+02  0.53346448613E+03  0.53680954996E+03  0.41800000000E+01 0.  1.
         -5    1    1    2    0  502 -0.49578056944E+02  0.42202910334E+02  0.53039271796E+03  0.53439028532E+03  0.41800000000E+01 0.  1.
        -11    1    1    2    0    0 -0.40987832282E+02 -0.14020592584E+02  0.63403674044E+02  0.76789356644E+02  0.00000000000E+00 0.  1.
         11    1    1    2    0    0  0.45551658233E+02  0.11014385777E+02  0.73894302254E+02  0.87502218071E+02  0.00000000000E+00 0. -1.
</event>
<event>
 6    1  0.8989754E-006  0.1094699E+03  0.7561462E-02  0.1261555E+00
          2   -1    0    0  501    0  0.00000000000E+00  0.00000000000E+00  0.19222399610E+03  0.19222399610E+03  0.00000000000E+00 0. -1.
         -2   -1    0    0    0  501 -0.00000000000E+00 -0.00000000000E+00 -0.18149529927E+03  0.18149529927E+03  0.00000000000E+00 0.  1.
          5    1    1    2  502    0  0.52502105001E+02  0.58171032761E+01  0.63910363845E+01  0.53372534755E+02  0.41800000000E+01 0. -1.
         -5    1    1    2    0  502 -0.52199921413E+02  0.60410076511E+01 -0.13253370205E+03  0.14263232505E+03  0.41800000000E+01 0.  1.
        -11    1    1    2    0    0 -0.18182121119E+02  0.47702714072E+02  0.57739356527E+02  0.77071212203E+02  0.00000000000E+00 0.  1.
         11    1    1    2    0    0  0.17879937532E+02 -0.59560824999E+02  0.79132005964E+02  0.10064322336E+03  0.00000000000E+00 0. -1.
</event>
<event>
 6    1  0.8989754E-006  0.8399933E+02  0.7561462E-02  0.1318070E+00
          2   -1    0    0  501    0  0.00000000000E+00  0.00000000000E+00  0.10059724917E+03  0.10059724917E+03  0.00000000000E+00 0. -1.
         -2   -1    0    0    0  501 -0.00000000000E+00 -0.00000000000E+00 -0.16454670810E+03  0.16454670810E+03  0.00000000000E+00 0.  1.
          5    1    1    2  502    0  0.26790475014E+02  0.72263793123E+02  0.25301699748E+02  0.81224588384E+02  0.41800000000E+01 0.  1.
         -5    1    1    2    0  502  0.13403748232E+02 -0.13288026891E+02 -0.65449097291E+02  0.68244332084E+02  0.41800000000E+01 0.  1.
        -11    1    1    2    0    0 -0.11971663031E+02 -0.14420096681E+02 -0.52419603922E+02  0.55669334282E+02  0.00000000000E+00 0.  1.
         11    1    1    2    0    0 -0.28222560215E+02 -0.44555669551E+02  0.28617542533E+02  0.60005702520E+02  0.00000000000E+00 0. -1.
</event>
<event>
 6    1  0.8989754E-006  0.1931485E+03  0.7561462E-02  0.1155652E+00
         -1   -1    0    0    0  501 -0.00000000000E+00  0.00000000000E+00  0.10190319255E+03  0.10190319255E+03  0.00000000000E+00 0.  1.
          1   -1    0    0  501    0  0.00000000000E+00 -0.00000000000E+00 -0.50774343860E+03  0.50774343860E+03  0.00000000000E+00 0. -1.
          5    1    1    2  502    0  0.45327566248E+02 -0.96380364636E+02 -0.22465352220E+03  0.24865727495E+03  0.41800000000E+01 0. -1.
         -5    1    1    2    0  502  0.97089147747E+02  0.26759839235E+02  0.38001581542E+01  0.10086776100E+03  0.41800000000E+01 0.  1.
        -11    1    1    2    0    0 -0.20778572757E+02  0.52007988851E+02 -0.34327451443E+02  0.65688308798E+02  0.00000000000E+00 0. -1.
         11    1    1    2    0    0 -0.12163814124E+03  0.17612536550E+02 -0.15065943056E+03  0.19443328641E+03  0.00000000000E+00 0.  1.
</event>
<event>
 6    1  0.8989754E-006  0.1147047E+03  0.7561462E-02  0.1252097E+00
          2   -1    0    0  501    0  0.00000000000E+00  0.00000000000E+00  0.11013607759E+03  0.11013607759E+03  0.00000000000E+00 0. -1.
         -2   -1    0    0    0  501 -0.00000000000E+00 -0.00000000000E+00 -0.20293159564E+03  0.20293159564E+03  0.00000000000E+00 0.  1.
          5    1    1    2  502    0 -0.68340052055E+01  0.59830837576E+02 -0.10198879018E+03  0.11851421212E+03  0.41800000000E+01 0. -1.
         -5    1    1    2    0  502 -0.65080093288E+02 -0.40044241679E+01  0.25709065135E+01  0.65387582274E+02  0.41800000000E+01 0. -1.
        -11    1    1    2    0    0  0.12545885031E+02 -0.40491875979E+02 -0.35070197950E+02  0.55017361221E+02  0.00000000000E+00 0.  1.
         11    1    1    2    0    0  0.59368213463E+02 -0.15334537429E+02  0.41692563561E+02  0.74148517613E+02  0.00000000000E+00 0. -1.
</event>
<event>
 6    1  0.8989754E-006  0.1014336E+03  0.7561462E-02  0.1277310E+00
         -3   -1    0    0    0  501 -0.00000000000E+00  0.00000000000E+00  0.14844558977E+03  0.14844558977E+03  0.00000000000E+00 0.  1.
          3   -1    0    0  501    0  0.00000000000E+00 -0.00000000000E+00 -0.87223610322E+02  0.87223610322E+02  0.00000000000E+00 0. -1.
          5    1    1    2  502    0  0.38066250105E+02 -0.39379914653E+02 -0.17407688139E+02  0.57622192612E+02  0.41800000000E+01 0. -1.
         -5    1    1    2    0  502  0.11600075643E+01  0.47116229965E+02  0.57949266320E+02  0.74812262435E+02  0.41800000000E+01 0.  1.
        -11    1    1    2    0    0 -0.57888176964E+02  0.24908243970E+02  0.17986426906E+02  0.65536045065E+02  0.00000000000E+00 0.  1.
         11    1    1    2    0    0  0.18661919295E+02 -0.32644559282E+02  0.26939743642E+01  0.37698699983E+02  0.00000000000E+00 0. -1.
</event>
<event>
 6    1  0.8989754E-006  0.8190498E+02  0.7561462E-02  0.1323731E+00
         -3   -1    0    0    0  501 -0.00000000000E+00  0.00000000000E+00  0.15342110353E+02  0.15342110353E+02  0.00000000000E+00 0.  1.
          3   -1    0    0  501    0  0.00000000000E+00 -0.00000000000E+00 -0.90153538300E+03  0.90153538300E+03  0.00000000000E+00 0. -1.
          5    1    1    2  502    0  0.11173730503E+02 -0.23857146010E+02 -0.90317566644E+01  0.28161333377E+02  0.41800000000E+01 0.  1.
         -5    1    1    2    0  502 -0.41221568828E+02 -0.43759663390E+01 -0.38634048475E+03  0.38858050565E+03  0.41800000000E+01 0.  1.
        -11    1    1    2    0    0  0.25841333381E+02 -0.28564933030E+02 -0.17118447744E+03  0.17546468370E+03  0.00000000000E+00 0.  1.
         11    1    1    2    0    0  0.42065049437E+01  0.56798045379E+02 -0.31963655379E+03  0.32467097062E+03  0.00000000000E+00 0. -1.
</event>
<event>
 6    1  0.8989754E-006  0.1361349E+03  0.7561462E-02  0.1218626E+00
          3   -1    0    0  501    0  0.00000000000E+00  0.00000000000E+00  0.21915616348E+02  0.21915616348E+02  0.00000000000E+00 0. -1.
         -3   -1    0    0    0  501 -0.00000000000E+00 -0.00000000000E+00 -0.94500905266E+03  0.94500905266E+03  0.00000000000E+00 0.  1.
          5    1    1    2  502    0  0.25714929746E+01  0.83343277121E+02 -0.30394668647E+03  0.31520433854E+03  0.41800000000E+01 0.  1.
         -5    1    1    2    0  502  0.58874977816E+02 -0.26442647963E+02 -0.34077653974E+03  0.34685962446E+03  0.41800000000E+01 0.  1.
        -11    1    1    2    0    0 -0.76569749540E+02 -0.70265594503E+02 -0.22655486676E+03  0.24925346129E+03  0.00000000000E+00 0. -1.
         11    1    1    2    0    0  0.15123278749E+02  0.13364965344E+02 -0.51815343338E+02  0.55607244708E+02  0.00000000000E+00 0.  1.
</event>
<event>
 6    1  0.8989754E-006  0.1871879E+03  0.7561462E-02  0.1161022E+00
         -2   -1    0    0    0  501 -0.00000000000E+00  0.00000000000E+00  0.57252150163E+02  0.57252150163E+02  0.00000000000E+00 0.  1.
          2   -1    0    0  501    0  0.00000000000E+00 -0.00000000000E+00 -0.79948675280E+03  0.79948675280E+03  0.00000000000E+00 0. -1.
          5    1    1    2  502    0  0.11774202079E+02  0.44047730734E+02 -0.21646886299E+02  0.50644787529E+02  0.41800000000E+01 0. -1.
         -5    1    1    2    0  502  0.15617730264E+03 -0.13687502139E+02 -0.22610670799E+03  0.27517342418E+03  0.41800000000E+01 0. -1.
        -11    1    1    2    0    0 -0.85934216166E+02 -0.25319617548E+02 -0.37736274027E+03  0.38785101557E+03  0.00000000000E+00 0. -1.
         11    1    1    2    0    0 -0.82017288554E+02 -0.50406110469E+01 -0.11711826808E+03  0.14306967568E+03  0.00000000000E+00 0.  1.
</event>
<event>
 6    1  0.8989754E-006  0.8035262E+02  0.7561462E-02  0.1328054E+00
          3   -1    0    0  501    0  0.00000000000E+00  0.00000000000E+00  0.11513312118E+03  0.11513312118E+03  0.00000000000E+00 0. -1.
         -3   -1    0    0    0  501 -0.00000000000E+00 -0.00000000000E+00 -0.13976974278E+03  0.13976974278E+03  0.00000000000E+00 0.  1.
          5    1    1    2  502    0  0.17802647515E+02 -0.47783379620E+01  0.33178523431E+02  0.38184467906E+02  0.41800000000E+01 0. -1.
         -5    1    1    2    0  502 -0.76459247133E+02 -0.17753857135E+02 -0.73198199962E+02  0.10740886739E+03  0.41800000000E+01 0. -1.
        -11    1    1    2    0    0  0.23413962393E+02  0.12577175483E+02 -0.36900655764E+02  0.45475898824E+02  0.00000000000E+00 0.  1.
         11    1    1    2    0    0  0.35242637226E+02  0.99550196135E+01  0.52283710701E+02  0.63833629842E+02  0.00000000000E+00 0. -1.
</event>
<event>
 6    1  0.8989754E-006  0.1375155E+03  0.7561462E-02  0.1216712E+00
          2   -1    0    0  501    0  0.00000000000E+00  0.00000000000E+00  0.20428960849E+03  0.20428960849E+03  0.00000000000E+00 0. -1.
         -2   -1    0    0    0  501 -0.00000000000E+00 -0.00000000000E+00 -0.12222556763E+03  0.12222556763E+03  0.00000000000E+00 0.  1.
          5    1    1    2  502    0 -0.10009847491E+03 -0.62663377517E+01 -0.34540915970E+02  0.10615799049E+03  0.41800000000E+01 0. -1.
         -5    1    1    2    0  502  0.93336502259E+01  0.49056141404E+02  0.21931992566E+02  0.54700152961E+02  0.41800000000E+01 0. -1.
        -11    1    1    2    0    0  0.37689932963E+02 -0.58140676818E+02  0.18789678501E+02  0.71790816724E+02  0.00000000000E+00 0.  1.
         11    1    1    2    0    0  0.53074891720E+02  0.15350873166E+02  0.75883285768E+02  0.93866215951E+02  0.00000000000E+00 0. -1.
</event>
<event>
 6    1  0.8989754E-006  0.8241921E+02  0.7561462E-02  0.1322323E+00
          3   -1    0    0  501    0  0.00000000000E+00  0.00000000000E+00  0.33816163480E+03  0.33816163480E+03  0.00000000000E+00 0. -1.
         -3   -1    0    0    0  501 -0.00000000000E+00 -0.00000000000E+00 -0.48451531709E+02  0.48451531709E+02  0.00000000000E+00 0.  1.
          5    1    1    2  502    0 -0.24767526704E+02  0.24100257347E+01 -0.11900789697E+02  0.27898741880E+02  0.41800000000E+01 0. -1.
         -5    1    1    2    0  502  0.16806533817E+02  0.64352124244E+02  0.18126810559E+03  0.19313014777E+03  0.41800000000E+01 0. -1.
        -11    1    1    2    0    0 -0.10338843660E+02 -0.16477739399E+02 -0.11983772041E+02  0.22847721468E+02  0.00000000000E+00 0.  1.
         11    1    1    2    0    0  0.18299836547E+02 -0.50284410579E+02  0.13232655924E+03  0.14273655539E+03  0.00000000000E+00 0. -1.
</event>
<event>
 6    1  0.8989754E-006  0.1234405E+03  0.7561462E-02  0.1237527E+00
         -2   -1    0    0    0  501 -0.00000000000E+00  0.00000000000E+00  0.45994833974E+03  0.45994833974E+03  0.00000000000E+00 0.  1.
          2   -1    0    0  501    0  0.00000000000E+00 -0.00000000000E+00 -0.37933813285E+02  0.37933813285E+02  0.00000000000E+00 0. -1.
          5    1    1    2  502    0 -0.22877743533E+02 -0.21181851814E+02  0.46468709435E+02  0.56114840746E+02  0.41800000000E+01 0. -1.
         -5    1    1    2    0  502  0.10587291400E+03  0.23519379052E+02  0.19539423838E+03  0.22351424094E+03  0.41800000000E+01 0.  1.
        -11    1    1    2    0    0 -0.84634602488E+02 -0.21768939131E+02  0.17842469883E+03  0.19867630911E+03  0.00000000000E+00 0. -1.
         11    1    1    2    0    0  0.16394320161E+01  0.19431411893E+02  0.17268798099E+01  0.19576762229E+02  0.00000000000E+00 0.  1.
</event>
<event>
 6    1  0.8989754E-006  0.2212546E+03  0.7561462E-02  0.1132951E+00
         -1   -1    0    0    0  501 -0.00000000000E+00  0.00000000000E+00  0.18465685616E+03  0.18465685616E+03  0.00000000000E+00 0.  1.
          1   -1    0    0  501    0  0.00000000000E+00 -0.00000000000E+00 -0.29812486037E+03  0.29812486037E+03  0.00000000000E+00 0. -1.
          5    1    1    2  502    0  0.21076567968E+02 -0.90293853752E+01  0.23101098582E+02  0.32815921034E+02  0.41800000000E+01 0. -1.
         -5    1    1    2    0  502 -0.96690875740E+02 -0.17741523091E+03 -0.29048351888E+02  0.20417288938E+03  0.41800000000E+01 0. -1.
        -11    1    1    2    0    0  0.37550553546E+02  0.13314782383E+02 -0.38980749795E+02  0.55738912405E+02  0.00000000000E+00 0. -1.
         11    1    1    2    0    0  0.38063754226E+02  0.17312983390E+03 -0.68540001112E+02  0.19005399371E+03  0.00000000000E+00 0.  1.
</event>
<event>
 6    1  0.8989754E-006  0.9034980E+02  0.7561462E-02  0.1302007E+00
          1   -1    0    0  501    0  0.00000000000E+00  0.00000000000E+00  0.15017607562E+03  0.15017607562E+03  0.00000000000E+00 0. -1.
         -1   -1    0    0    0  501 -0.00000000000E+00 -0.00000000000E+00 -0.10414793166E+03  0.10414793166E+03  0.00000000000E+00 0.  1.
          5    1    1    2  502    0  0.11081189310E+02  0.40980569928E+01 -0.50956900448E+02  0.52475374519E+02  0.41800000000E+01 0.  1.
         -5    1    1    2    0  502 -0.48439563094E+02  0.43930406211E+02  0.56857108486E+02  0.86755259483E+02  0.41800000000E+01 0.  1.
        -11    1    1    2    0    0 -0.21739156137E+02 -0.36418568900E+02 -0.54815902186E+00  0.42417019563E+02  0.00000000000E+00 0.  1.
         11    1    1    2    0    0  0.59097529921E+02 -0.11609894304E+02  0.40676094948E+02  0.72676353711E+02  0.00000000000E+00 0. -1.
</event>
<event>
 6    1  0.8989754E-006  0.1808233E+03  0.7561462E-02  0.1167009E+00
         -2   -1    0    0    0  501 -0.00000000000E+00  0.00000000000E+00  0.36703368960E+02  0.36703368960E+02  0.00000000000E+00 0.  1.
          2   -1    0    0  501    0  0.00000000000E+00 -0.00000000000E+00 -0.10419368116E+04  0.10419368116E+04  0.00000000000E+00 0. -1.
          5    1    1    2  502    0 -0.10022147804E+03 -0.54169586528E+02 -0.33669665093E+03  0.35547263736E+03  0.41800000000E+01 0. -1.
         -5    1    1    2    0  502  0.18203505459E+02 -0.84454789248E+02 -0.17035529981E+03  0.19105595937E+03  0.41800000000E+01 0. -1.
        -11    1    1    2    0    0  0.34341030474E+02  0.62999837365E+02 -0.36313416662E+03  0.37015497950E+03  0.00000000000E+00 0. -1.
         11    1    1    2    0    0  0.47676942109E+02  0.75624538411E+02 -0.13504732526E+03  0.16195660430E+03  0.00000000000E+00 0.  1.
</event>
<event>
 6    1  0.8989754E-006  0.9036689E+02  0.7561462E-02  0.1301966E+00
         -1   -1    0    0    0  501 -0.00000000000E+00  0.00000000000E+00  0.39294472016E+03  0.39294472016E+03  0.00000000000E+00 0.  1.
          1   -1    0    0  501    0  0.00000000000E+00 -0.00000000000E+00 -0.31111666102E+02  0.31111666102E+02  0.00000000000E+00 0. -1.
          5    1    1    2  502    0  0.51248446700E+02  0.33840946779E+02  0.11417052814E+03  0.12970734313E+03  0.41800000000E+01 0.  1.
         -5    1    1    2    0  502 -0.54693519985E+02 -0.31353436247E+02  0.14041156134E+03  0.15397174433E+03  0.41800000000E+01 0.  1.
        -11    1    1    2    0    0  0.12790550140E+02  0.24390317499E+02 -0.18728642210E+01  0.27604227593E+02  0.00000000000E+00 0. -1.
         11    1    1    2    0    0 -0.93454768549E+01 -0.26877828031E+02  0.10912382880E+03  0.11277307121E+03  0.00000000000E+00 0.  1.
</event>
<event>
 6    1  0.8989754E-006  0.1238501E+03  0.7561462E-02  0.1236877E+00
          2   -1    0    0  501    0  0.00000000000E+00  0.00000000000E+00  0.46734943125E+03  0.46734943125E+03  0.00000000000E+00 0. -1.
         -2   -1    0    0    0  501 -0.00000000000E+00 -0.00000000000E+00 -0.49446594964E+02  0.49446594964E+02  0.00000000000E+00 0.  1.
          5    1    1    2  502    0 -0.62286190534E+01 -0.40038298844E+01 -0.17294794171E+02  0.19271965506E+02  0.41800000000E+01 0.  1.
         -5    1    1    2    0  502  0.65960847491E+02 -0.79917932484E+02  0.19731458207E+03  0.22290855980E+03  0.41800000000E+01 0.  1.
        -11    1    1    2    0    0 -0.36394715198E+01  0.79107475849E+02  0.11719797944E+03  0.14144470606E+03  0.00000000000E+00 0. -1.
         11    1    1    2    0    0 -0.56092756918E+02  0.48142865195E+01  0.12068506895E+03  0.13317079485E+03  0.00000000000E+00 0.  1.
</event>
<event>
 6    1  0.8989754E-006  0.9759626E+02  0.7561462E-02  0.1285433E+00
          1   -1    0    0  501    0  0.00000000000E+00  0.00000000000E+00  0.11375000045E+03  0.11375000045E+03  0.00000000000E+00 0. -1.
         -1   -1    0    0    0  501 -0.00000000000E+00 -0.00000000000E+00 -0.15481344140E+03  0.15481344140E+03  0.00000000000E+00 0.  1.
          5    1    1    2  502    0 -0.29469823770E+02 -0.74766975100E+02  0.10788696462E+02  0.81193838744E+02  0.41800000000E+01 0. -1.
         -5    1    1    2    0  502  0.16148478247E+02  0.96789128900E+01 -0.69510619220E+02  0.72136352062E+02  0.41800000000E+01 0. -1.
        -11    1    1    2    0    0  0.41555437133E+02  0.39215981874E+02 -0.20946212364E+02  0.60856317684E+02  0.00000000000E+00 0.  1.
         11    1    1    2    0    0 -0.28234091611E+02  0.25872080335E+02  0.38604694168E+02  0.54376933361E+02  0.00000000000E+00 0. -1.
</event>
<event>
 6    1  0.8989754E-006  0.1365742E+03  0.7561462E-02  0.1218014E+00
         -2   -1    0    0    0  501 -0.00000000000E+00  0.00000000000E+00  0.13276347254E+03  0.13276347254E+03  0.00000000000E+00 0.  1.
          2   -1    0    0  501    0  0.00000000000E+00 -0.00000000000E+00 -0.19099402077E+03  0.19099402077E+03  0.00000000000E+00 0. -1.
          5    1    1    2  502    0 -0.15956723144E+02 -0.73671783940E+01  0.28056814037E+02  0.33369889794E+02  0.41800000000E+01 0. -1.
         -5    1    1    2    0  502  0.95830649723E+02  0.93113776262E+02 -0.34937028602E+02  0.13817292471E+03  0.41800000000E+01 0. -1.
        -11    1    1    2    0    0 -0.27223079681E+02 -0.52478129006E+02  0.15226102321E+02  0.61048212777E+02  0.00000000000E+00 0.  1.
         11    1    1    2    0    0 -0.52650846898E+02 -0.33268468861E+02 -0.66576435984E+02  0.91166466026E+02  0.00000000000E+00 0. -1.
</event>
<event>
 6    1  0.8989754E-006  0.1060811E+03  0.7561462E-02  0.1268004E+00
          3   -1    0    0  501    0  0.00000000000E+00  0.00000000000E+00  0.30622134340E+03  0.30622134340E+03  0.00000000000E+00 0. -1.
         -3   -1    0    0    0  501 -0.00000000000E+00 -0.00000000000E+00 -0.42839223892E+02  0.42839223892E+02  0.00000000000E+00 0.  1.
          5    1    1    2  502    0 -0.61215235212E+01  0.58976040884E+02  0.37919855077E+02  0.70505561891E+02  0.41800000000E+01 0. -1.
         -5    1    1    2    0  502  0.19512784654E+02 -0.62526258801E+02  0.60476923929E+02  0.89248039377E+02  0.41800000000E+01 0. -1.
        -11    1    1    2    0    0 -0.11571842040E+02 -0.40948832613E+02  0.48081377616E+02  0.64206956742E+02  0.00000000000E+00 0.  1.
         11    1    1    2    0    0 -0.18194190928E+01  0.44499050531E+02  0.11690396289E+03  0.12510000929E+03  0.00000000000E+00 0. -1.
</event>
<event>
 6    1  0.8989754E-006  0.7108166E+02  0.7561462E-02  0.1356453E+00
         -3   -1    0    0    0  501 -0.00000000000E+00  0.00000000000E+00  0.15449579396E+03  0.15449579396E+03  0.00000000000E+00 0.  1.
          3   -1    0    0  501    0  0.00000000000E+00 -0.00000000000E+00 -0.85460656207E+02  0.85460656207E+02  0.00000000000E+00 0. -1.
          5    1    1    2  502    0 -0.36011544731E+02 -0.18559602727E+01  0.97968625723E+02  0.10447774868E+03  0.41800000000E+01 0. -1.
         -5    1    1    2    0  502  0.76351692492E+01 -0.74611183673E+00 -0.36678783955E+02  0.37704881445E+02  0.41800000000E+01 0. -1.
        -11    1    1    2    0    0  0.12231138877E+02 -0.45119201756E+02 -0.35079518534E+00  0.46748969856E+02  0.00000000000E+00 0.  1.
         11    1    1    2    0    0  0.16145236605E+02  0.47721273866E+02  0.80960911661E+01  0.51024850186E+02  0.00000000000E+00 0. -1.
</event>
<event>
 6    1  0.8989754E-006  0.1741414E+03  0.7561462E-02  0.1173597E+00
          3   -1    0    0  501    0  0.00000000000E+00  0.00000000000E+00  0.11901798329E+04  0.11901798329E+04  0.00000000000E+00 0. -1.
         -3   -1    0    0    0  501 -0.00000000000E+00 -0.00000000000E+00 -0.61556344591E+02  0.61556344591E+02  0.00000000000E+00 0.  1.
          5    1    1    2  502    0 -0.68270667900E+01  0.64847747764E+02  0.14548098218E+03  0.15948049350E+03  0.41800000000E+01 0.  1.
         -5    1    1    2    0  502 -0.27994652168E+02  0.10127913890E+03  0.16578627447E+02  0.10645885503E+03  0.41800000000E+01 0.  1.
        -11    1    1    2    0    0  0.13640733613E+02 -0.39116113274E+01  0.16550834757E+02  0.21801386374E+02  0.00000000000E+00 0.  1.
         11    1    1    2    0    0  0.21180985345E+02 -0.16221527534E+03  0.95001304392E+03  0.96399544258E+03  0.00000000000E+00 0. -1.
</event>
<event>
 6    1  0.8989754E-006  0.1100429E+03  0.7561462E-02  0.1260490E+00
          1   -1    0    0  501    0  0.00000000000E+00  0.00000000000E+00  0.10540268194E+03  0.10540268194E+03  0.00000000000E+00 0. -1.
         -1   -1    0    0    0  501 -0.00000000000E+00 -0.00000000000E+00 -0.13872925538E+03  0.13872925538E+03  0.00000000000E+00 0.  1.
          5    1    1    2  502    0  0.74880086348E+02 -0.25662909196E+01 -0.46360066626E+02  0.88206243306E+02  0.41800000000E+01 0. -1.
         -5    1    1    2    0  502 -0.54601581834E+02 -0.22122220773E+02 -0.13673206421E+02  0.60623051428E+02  0.41800000000E+01 0.  1.
        -11    1    1    2    0    0 -0.21555145105E+02  0.53222530372E+02  0.32754421027E+02  0.66106838652E+02  0.00000000000E+00 0.  1.
         11    1    1    2    0    0  0.12766405910E+01 -0.28534018679E+02 -0.60477214122E+01  0.29195803936E+02  0.00000000000E+00 0. -1.
</event>
<event>
 6    1  0.8989754E-006  0.9699529E+02  0.7561462E-02  0.1286744E+00
          2   -1    0    0  501    0  0.00000000000E+00  0.00000000000E+00  0.28582808493E+03  0.28582808493E+03  0.00000000000E+00 0. -1.
         -2   -1    0    0    0  501 -0.00000000000E+00 -0.00000000000E+00 -0.54987460813E+02  0.54987460813E+02  0.00000000000E+00 0.  1.
          5    1    1    2  502    0  0.45235974254E+02 -0.48226515643E+02  0.32819217755E+01  0.66335010276E+02  0.41800000000E+01 0.  1.
         -5    1    1    2    0  502 -0.24194005254E+02 -0.88072743543E+01  0.10998113355E+03  0.11303203134E+03  0.41800000000E+01 0.  1.
        -11    1    1    2    0    0  0.31375202122E+02  0.25916118388E+02  0.80226529461E+02  0.89957459556E+02  0.00000000000E+00 0. -1.
         11    1    1    2    0    0 -0.52417171122E+02  0.31117671610E+02  0.37351039329E+02  0.71491044570E+02  0.00000000000E+00 0.  1.
</event>
<event>
 6    1  0.8989754E-006  0.1083621E+03  0.7561462E-02  0.1263633E+00
         -2   -1    0    0    0  501 -0.00000000000E+00  0.00000000000E+00  0.69183283849E+02  0.69183283849E+02  0.00000000000E+00 0.  1.
          2   -1    0    0  501    0  0.00000000000E+00 -0.00000000000E+00 -0.23891426303E+03  0.23891426303E+03  0.00000000000E+00 0. -1.
          5    1    1    2  502    0  0.76523256433E+02 -0.15061835651E+02 -0.45971849574E+02  0.90628643494E+02  0.41800000000E+01 0. -1.
         -5    1    1    2    0  502 -0.39041930362E+02  0.11807932370E+01  0.18681368736E+02  0.43498649829E+02  0.41800000000E+01 0. -1.
        -11    1    1    2    0    0  0.11065475820E+02  0.41865410816E+02 -0.53201917506E+02  0.68597386279E+02  0.00000000000E+00 0. -1.
         11    1    1    2    0    0 -0.48546801891E+02 -0.27984368403E+02 -0.89238580839E+02  0.10537286728E+03  0.00000000000E+00 0.  1.
</event>
<event>
 6    1  0.8989754E-006  0.1214389E+03  0.7561462E-02  0.1240742E+00
         -1   -1    0    0    0  501 -0.00000000000E+00  0.00000000000E+00  0.80969697084E+02  0.80969697084E+02  0.00000000000E+00 0.  1.
          1   -1    0    0  501    0  0.00000000000E+00 -0.00000000000E+00 -0.30109433701E+03  0.30109433701E+03  0.00000000000E+00 0. -1.
          5    1    1    2  502    0  0.21165498256E+02 -0.22875602700E+02  0.16910792142E+02  0.35703204425E+02  0.41800000000E+01 0.  1.
         -5    1    1    2    0  502 -0.89254536468E+02  0.57805883474E+02 -0.35074228356E+02  0.11205162354E+03  0.41800000000E+01 0.  1.
        -11    1    1    2    0    0  0.45101201170E+02 -0.57311192891E+02 -0.80238602595E+02  0.10842935269E+03  0.00000000000E+00 0. -1.
         11    1    1    2    0    0  0.22987837042E+02  0.22380912117E+02 -0.12172260111E+03  0.12587985344E+03  0.00000000000E+00 0.  1.
</event>
<event>
 6    1  0.8989754E-006  0.1833206E+03  0.7561462E-02  0.1164627E+00
         -3   -1    0    0    0  501 -0.00000000000E+00  0.00000000000E+00  0.12819029305E+04  0.12819029305E+04  0.00000000000E+00 0.  1.
          3   -1    0    0  501    0  0.00000000000E+00 -0.00000000000E+00 -0.33553028472E+02  0.33553028472E+02  0.00000000000E+00 0. -1.
          5    1    1    2  502    0 -0.13597726348E+02 -0.62230819504E+02  0.48872871281E+03  0.49288010731E+03  0.41800000000E+01 0. -1.
         -5    1    1    2    0  502  0.81523917625E+02 -0.92408287799E+02  0.32649393026E+03  0.34900028609E+03  0.41800000000E+01 0. -1.
        -11    1    1    2    0    0 -0.70122316526E+01  0.91513935063E+02  0.13837999981E+03  0.16605118504E+03  0.00000000000E+00 0. -1.
         11    1    1    2    0    0 -0.60913959624E+02  0.63125172240E+02  0.29474725919E+03  0.30752438058E+03  0.00000000000E+00 0.  1.
</event>
<event>
 6    1  0.8989754E-006  0.9548726E+02  0.7561462E-02  0.1290082E+00
         -1   -1    0    0    0  501 -0.00000000000E+00  0.00000000000E+00  0.38410128091E+02  0.38410128091E+02  0.00000000000E+00 0.  1.
          1   -1    0    0  501    0  0.00000000000E+00 -0.00000000000E+00 -0.42382952676E+03  0.42382952676E+03  0.00000000000E+00 0. -1.
          5    1    1    2  502    0  0.10435702397E+02  0.52007858889E+02 -0.82132867497E+01  0.53839128428E+02  0.41800000000E+01 0. -1.
         -5    1    1    2    0  502 -0.27353942202E+02 -0.47844054634E+02 -0.92259386055E+02  0.10754793551E+03  0.41800000000E+01 0. -1.
        -11    1    1    2    0    0  0.56998193571E+01 -0.42331446630E+02 -0.22424198497E+03  0.22827375481E+03  0.00000000000E+00 0. -1.
         11    1    1    2    0    0  0.11218420448E+02  0.38167642375E+02 -0.60704740902E+02  0.72578836101E+02  0.00000000000E+00 0.  1.
</event>
<event>
 6    1  0.8989754E-006  0.4447083E+02  0.7561462E-02  0.1477672E+00
          3   -1    0    0  501    0  0.00000000000E+00  0.00000000000E+00  0.36553676303E+02  0.36553676303E+02  0.00000000000E+00 0. -1.
         -3   -1    0    0    0  501 -0.00000000000E+00 -0.00000000000E+00 -0.48433040158E+03  0.48433040158E+03  0.00000000000E+00 0.  1.
          5    1    1    2  502    0 -0.71788114593E+01 -0.26090525279E+02 -0.74665012950E+01  0.28380836578E+02  0.41800000000E+01 0.  1.
         -5    1    1    2    0  502  0.21521724874E+02 -0.61281522083E+01 -0.37256045098E+03  0.37325527581E+03  0.41800000000E+01 0.  1.
        -11    1    1    2    0    0 -0.14272572603E+01  0.22717789408E+02  0.19844498904E+02  0.30198330345E+02  0.00000000000E+00 0. -1.
         11    1    1    2    0    0 -0.12915656154E+02  0.95008880784E+01 -0.87594271907E+02  0.89049635143E+02  0.00000000000E+00 0.  1.
</event>
<event>
 6    1  0.8989754E-006  0.1808781E+03  0.7561462E-02  0.1166956E+00
          2   -1    0    0  501    0  0.00000000000E+00  0.00000000000E+00  0.51376892802E+03  0.51376892802E+03  0.00000000000E+00 0. -1.
         -2   -1    0    0    0  501 -0.00000000000E+00 -0.00000000000E+00 -0.85186696263E+02  0.85186696263E+02  0.00000000000E+00 0.  1.
          5    1    1    2  502    0 -0.24773007922E+02  0.14377077118E+03  0.19173532565E+03  0.24096398916E+03  0.41800000000E+01 0. -1.
         -5    1    1    2    0  502 -0.33238777081E+02  0.21899796025E+02 -0.96796887725E+01  0.41177495583E+02  0.41800000000E+01 0. -1.
        -11    1    1    2    0    0  0.46341678816E+02 -0.11977956329E+03  0.99838523313E+02  0.16267275653E+03  0.00000000000E+00 0.  1.
         11    1    1    2    0    0  0.11670106187E+02 -0.45891003912E+02  0.14668807156E+03  0.15414138301E+03  0.00000000000E+00 0. -1.
</event>
<event>
 6    1  0.8989754E-006  0.2992548E+03  0.7561462E-02  0.1085614E+00
          3   -1    0    0  501    0  0.00000000000E+00  0.00000000000E+00  0.21466599878E+03  0.21466599878E+03  0.00000000000E+00 0. -1.
         -3   -1    0    0    0  501 -0.00000000000E+00 -0.00000000000E+00 -0.46108017159E+03  0.46108017159E+03  0.00000000000E+00 0.  1.
          5    1    1    2  502    0 -0.98609582015E+02 -0.17677975447E+03 -0.99213875647E+02  0.22546795067E+03  0.41800000000E+01 0.  1.
         -5    1    1    2    0  502 -0.84837780710E+02 -0.49541684095E+02  0.22191852799E+02  0.10080564582E+03  0.41800000000E+01 0.  1.
        -11    1    1    2    0    0  0.93536618974E+02  0.16234093531E+03 -0.67128932315E+02  0.19902254124E+03  0.00000000000E+00 0. -1.
         11    1    1    2    0    0  0.89910743751E+02  0.63980503252E+02 -0.10226321765E+03  0.15045003264E+03  0.00000000000E+00 0.  1.
</event>
<event>
 6    1  0.8989754E-006  0.1476660E+03  0.7561462E-02  0.1203371E+00
          2   -1    0    0  501    0  0.00000000000E+00  0.00000000000E+00  0.43969945463E+03  0.43969945463E+03  0.00000000000E+00 0.  1.
         -2   -1    0    0    0  501 -0.00000000000E+00 -0.00000000000E+00 -0.10146484646E+03  0.10146484646E+03  0.00000000000E+00 0. -1.
          5    1    1    2  502    0  0.47473396367E+02 -0.57586955889E+01  0.75970228028E+02  0.89865643514E+02  0.41800000000E+01 0. -1.
         -5    1    1    2    0  502  0.90363621860E+02 -0.40671722940E+02 -0.37062328643E+02  0.10588135722E+03  0.41800000000E+01 0. -1.
        -11    1    1    2    0    0 -0.94073882712E+02  0.45189625004E+02  0.27754286589E+03  0.29651650885E+03  0.00000000000E+00 0.  1.
         11    1    1    2    0    0 -0.43763135515E+02  0.12407935242E+01  0.21783842891E+02  0.48900791504E+02  0.00000000000E+00 0. -1.
</event>
<event>
 6    1  0.8989754E-006  0.1949737E+03  0.7561462E-02  0.1154050E+00
          3   -1    0    0  501    0  0.00000000000E+00  0.00000000000E+00  0.55660596898E+03  0.55660596898E+03  0.00000000000E+00 0. -1.
         -3   -1    0    0    0  501 -0.00000000000E+00 -0.00000000000E+00 -0.10147944390E+03  0.10147944390E+03  0.00000000000E+00 0.  1.
          5    1    1    2  502    0  0.69460364758E+02  0.92270723895E+02 -0.64418887919E+01  0.11574799822E+03  0.41800000000E+01 0.  1.
         -5    1    1    2    0  502  0.34761316958E+02  0.65088206357E+02  0.11174069872E+03  0.13397119061E+03  0.41800000000E+01 0.  1.
        -11    1    1    2    0    0 -0.62240817981E+02 -0.35654038157E+02  0.19030037829E+03  0.20337001706E+03  0.00000000000E+00 0. -1.
         11    1    1    2    0    0 -0.41980863734E+02 -0.12170489209E+03  0.15952733686E+03  0.20499620700E+03  0.00000000000E+00 0.  1.
</event>
<event>
 6    1  0.9544155E-006  0.3218528E+03  0.7561462E-02  0.1074800E+00
         -2   -1    0    0    0  501 -0.00000000000E+00  0.00000000000E+00  0.73815563909E+02  0.73815563909E+02  0.00000000000E+00 0.  1.
          2   -1    0    0  501    0  0.00000000000E+00 -0.00000000000E+00 -0.14938808098E+04  0.14938808098E+04  0.00000000000E+00 0. -1.
          5    1    1    2  502    0  0.48385613054E+02 -0.90536851039E+02 -0.26064065356E+03  0.28015908273E+03  0.41800000000E+01 0.  1.
         -5    1    1    2    0  502  0.21612967519E+03 -0.75027895622E+02 -0.38861948430E+03  0.45098092819E+03  0.41800000000E+01 0.  1.
        -11    1    1    2    0    0 -0.20742966051E+03  0.12621219432E+03 -0.48402248054E+03  0.54151116676E+03  0.00000000000E+00 0. -1.
         11    1    1    2    0    0 -0.57085627731E+02  0.39352552341E+02 -0.28678262754E+03  0.29504519608E+03  0.00000000000E+00 0.  1.
</event>
<event>
 6    1  0.8989754E-006  0.1126321E+03  0.7561462E-02  0.1255772E+00
          1   -1    0    0  501    0  0.00000000000E+00  0.00000000000E+00  0.83367044671E+02  0.83367044671E+02  0.00000000000E+00 0. -1.
         -1   -1    0    0    0  501 -0.00000000000E+00 -0.00000000000E+00 -0.23557626983E+03  0.23557626983E+03  0.00000000000E+00 0.  1.
          5    1    1    2  502    0 -0.44853497708E+02 -0.40683654204E+02  0.33495159230E+01  0.60792167530E+02  0.41800000000E+01 0. -1.
         -5    1    1    2    0  502  0.20250235740E+02 -0.37459733725E+02 -0.12453569198E+03  0.13168110978E+03  0.41800000000E+01 0. -1.
        -11    1    1    2    0    0 -0.64427984470E+01 -0.18858058301E+02  0.24496248819E+00  0.19929777252E+02  0.00000000000E+00 0. -1.
         11    1    1    2    0    0  0.31046060415E+02  0.97001446230E+02 -0.31268011595E+02  0.10654025994E+03  0.00000000000E+00 0.  1.
</event>
<event>
 6    1  0.8989754E-006  0.9024763E+02  0.7561462E-02  0.1302253E+00
          2   -1    0    0  501    0  0.00000000000E+00  0.00000000000E+00  0.16016612380E+03  0.16016612380E+03  0.00000000000E+00 0. -1.
         -2   -1    0    0    0  501 -0.00000000000E+00 -0.00000000000E+00 -0.12052452865E+03  0.12052452865E+03  0.00000000000E+00 0.  1.
          5    1    1    2  502    0 -0.10052981507E+02 -0.80495248869E+01  0.64137233232E+02  0.65550853349E+02  0.41800000000E+01 0. -1.
         -5    1    1    2    0  502 -0.42953830136E+02 -0.57693933072E+02 -0.47485521186E+02  0.86290025837E+02  0.41800000000E+01 0. -1.
        -11    1    1    2    0    0  0.70279319754E+00  0.33404782061E+02 -0.32066843057E+02  0.46310428701E+02  0.00000000000E+00 0.  1.
         11    1    1    2    0    0  0.52304018445E+02  0.32338675898E+02  0.55056726159E+02  0.82539344556E+02  0.00000000000E+00 0. -1.
</event>
<event>
 6    1  0.8989754E-006  0.1191756E+03  0.7561462E-02  0.1244463E+00
          2   -1    0    0  501    0  0.00000000000E+00  0.00000000000E+00  0.96117695439E+02  0.96117695439E+02  0.00000000000E+00 0. -1.
         -2   -1    0    0    0  501 -0.00000000000E+00 -0.00000000000E+00 -0.18396135647E+03  0.18396135647E+03  0.00000000000E+00 0.  1.
          5    1    1    2  502    0 -0.36017424189E+02 -0.67325696867E+02 -0.13246424076E+02  0.77607631421E+02  0.41800000000E+01 0. -1.
         -5    1    1    2    0  502 -0.39425171208E+02  0.57203070252E+02 -0.22164490396E+02  0.73042949048E+02  0.41800000000E+01 0. -1.
        -11    1    1    2    0    0  0.81360920552E+02  0.94910797574E+00 -0.58421168449E+01  0.81575918802E+02  0.00000000000E+00 0. -1.
         11    1    1    2    0    0 -0.59183251550E+01  0.91735186393E+01 -0.46590629713E+02  0.47852552638E+02  0.00000000000E+00 0.  1.
</event>
<event>
 6    1  0.8989754E-006  0.1851382E+03  0.7561462E-02  0.1162921E+00
          2   -1    0    0  501    0  0.00000000000E+00  0.00000000000E+00  0.45216009683E+03  0.45216009683E+03  0.00000000000E+00 0.  1.
         -2   -1    0    0    0  501 -0.00000000000E+00 -0.00000000000E+00 -0.10554618642E+03  0.10554618642E+03  0.00000000000E+00 0. -1.
          5    1    1    2  502    0  0.95417556056E+01  0.31869276302E+01 -0.22187394208E+02  0.24717493188E+02  0.41800000000E+01 0.  1.
         -5    1    1    2    0  502 -0.28823899178E+02  0.17281903296E+03  0.12465684688E+03  0.21506751775E+03  0.41800000000E+01 0.  1.
        -11    1    1    2    0    0  0.34221712803E+02 -0.80693106789E+02  0.49456866337E+02  0.10064037330E+03  0.00000000000E+00 0. -1.
         11    1    1    2    0    0 -0.14939569230E+02 -0.95312853798E+02  0.19468759140E+03  0.21728089901E+03  0.00000000000E+00 0.  1.
</event>
<event>
 6    1  0.8989754E-006  0.1838246E+03  0.7561462E-02  0.1164152E+00
          2   -1    0    0  501    0  0.00000000000E+00  0.00000000000E+00  0.10771380632E+04  0.10771380632E+04  0.00000000000E+00 0. -1.
         -2   -1    0    0    0  501 -0.00000000000E+00 -0.00000000000E+00 -0.48436561170E+02  0.48436561170E+02  0.00000000000E+00 0.  1.
          5    1    1    2  502    0 -0.36165761574E+02  0.12004820245E+02  0.86084973084E+02  0.94234669895E+02  0.41800000000E+01 0. -1.
         -5    1    1    2    0  502  0.53420778221E+02  0.13961225937E+03  0.12714532451E+03  0.19628746383E+03  0.41800000000E+01 0. -1.
        -11    1    1    2    0    0  0.25945186616E+02 -0.43595761652E+01  0.12120744383E+03  0.12402984742E+03  0.00000000000E+00 0.  1.
         11    1    1    2    0    0 -0.43200203263E+02 -0.14725750345E+03  0.69426376061E+03  0.71102264323E+03  0.00000000000E+00 0. -1.
</event>
<event>
 6    1  0.8989754E-006  0.1210656E+03  0.7561462E-02  0.1241349E+00
         -1   -1    0    0    0  501 -0.00000000000E+00  0.00000000000E+00  0.14866409249E+03  0.14866409249E+03  0.00000000000E+00 0.  1.
          1   -1    0    0  501    0  0.00000000000E+00 -0.00000000000E+00 -0.13349743015E+03  0.13349743015E+03  0.00000000000E+00 0. -1.
          5    1    1    2  502    0 -0.96943186729E+02  0.15674453990E+01  0.31194056379E+02  0.10193615596E+03  0.41800000000E+01 0. -1.
         -5    1    1    2    0  502  0.35531224254E+02 -0.60483088935E+01  0.42092046230E+02  0.55572139542E+02  0.41800000000E+01 0. -1.
        -11    1    1    2    0    0  0.22627059144E+01 -0.36673814792E+02 -0.10258156704E+02  0.38148634424E+02  0.00000000000E+00 0.  1.
         11    1    1    2    0    0  0.59149256560E+02  0.41154678287E+02 -0.47861283571E+02  0.86504592719E+02  0.00000000000E+00 0. -1.
</event>
<event>
 6    1  0.8989754E-006  0.8852170E+02  0.7561462E-02  0.1306472E+00
         -1   -1    0    0    0  501 -0.00000000000E+00  0.00000000000E+00  0.63937316027E+03  0.63937316027E+03  0.00000000000E+00 0.  1.
          1   -1    0    0  501    0  0.00000000000E+00 -0.00000000000E+00 -0.25083945244E+02  0.25083945244E+02  0.00000000000E+00 0. -1.
          5    1    1    2  502    0  0.49633299046E+01 -0.91226960412E+01  0.36229367816E+03  0.36246660516E+03  0.41800000000E+01 0. -1.
         -5    1    1    2    0  502 -0.51083116533E+02 -0.42542703340E+02  0.90657830567E+02  0.11249747128E+03  0.41800000000E+01 0. -1.
        -11    1    1    2    0    0  0.18980225523E+02  0.65909672553E+02  0.11619620993E+03  0.13492921514E+03  0.00000000000E+00 0.  1.
         11    1    1    2    0    0  0.27139561105E+02 -0.14244273172E+02  0.45141496381E+02  0.54563813931E+02  0.00000000000E+00 0. -1.
</event>
<event>
 6    1  0.8989754E-006  0.6260126E+02  0.7561462E-02  0.1387229E+00
          2   -1    0    0  501    0  0.00000000000E+00  0.00000000000E+00  0.41462424919E+03  0.41462424919E+03  0.00000000000E+00 0. -1.
         -2   -1    0    0    0  501 -0.00000000000E+00 -0.00000000000E+00 -0.31735603076E+02  0.31735603076E+02  0.00000000000E+00 0.  1.
          5    1    1    2  502    0 -0.78116746214E+01 -0.41446771734E+02  0.18437093792E+03  0.18917973543E+03  0.41800000000E+01 0. -1.
         -5    1    1    2    0  502 -0.85737482429E+01  0.16597061068E+02 -0.14394339103E+02  0.23950803603E+02  0.41800000000E+01 0. -1.
        -11    1    1    2    0    0  0.78515624682E+01 -0.18183089949E+02  0.45804280927E+01  0.20328603366E+02  0.00000000000E+00 0.  1.
         11    1    1    2    0    0  0.85338603960E+01  0.43032800615E+02  0.20833161920E+03  0.21290070987E+03  0.00000000000E+00 0. -1.
</event>
<event>
 6    1  0.8989754E-006  0.1695805E+03  0.7561462E-02  0.1178286E+00
         -2   -1    0    0    0  501 -0.00000000000E+00  0.00000000000E+00  0.12843792664E+03  0.12843792664E+03  0.00000000000E+00 0.  1.
          2   -1    0    0  501    0  0.00000000000E+00 -0.00000000000E+00 -0.25874675241E+03  0.25874675241E+03  0.00000000000E+00 0. -1.
          5    1    1    2  502    0  0.41146936155E+02  0.79904252607E+02 -0.47631566660E+02  0.10180372529E+03  0.41800000000E+01 0. -1.
         -5    1    1    2    0  502  0.96365999902E+02 -0.31663602578E+02 -0.36707368697E+02  0.10795319811E+03  0.41800000000E+01 0. -1.
        -11    1    1    2    0    0 -0.96891113453E+02 -0.22158749126E+02 -0.71860215677E+02  0.12264904658E+03  0.00000000000E+00 0. -1.
         11    1    1    2    0    0 -0.40621822604E+02 -0.26081900903E+02  0.25890325255E+02  0.54778709077E+02  0.00000000000E+00 0.  1.
</event>
<event>
 6    1  0.8989754E-006  0.9917868E+02  0.7561462E-02  0.1282033E+00
         -1   -1    0    0    0  501 -0.00000000000E+00  0.00000000000E+00  0.26082907244E+03  0.26082907244E+03  0.00000000000E+00 0.  1.
          1   -1    0    0  501    0  0.00000000000E+00 -0.00000000000E+00 -0.98638178770E+02  0.98638178770E+02  0.00000000000E+00 0. -1.
          5    1    1    2  502    0 -0.28664317672E+02  0.31061443849E+02  0.92480987768E+01  0.43467874719E+02  0.41800000000E+01 0. -1.
         -5    1    1    2    0  502 -0.22557105805E+02 -0.46451984599E+02  0.19631800184E+03  0.20303901138E+03  0.41800000000E+01 0. -1.
        -11    1    1    2    0    0  0.43978609017E+02 -0.33103220187E+02 -0.26629902656E+02  0.61148123056E+02  0.00000000000E+00 0. -1.
         11    1    1    2    0    0  0.72428144607E+01  0.48493760936E+02 -0.16745304290E+02  0.51812242056E+02  0.00000000000E+00 0.  1.
</event>
<event>
 6    1  0.8989754E-006  0.1375121E+03  0.7561462E-02  0.1216716E+00
         -1   -1    0    0    0  501 -0.00000000000E+00  0.00000000000E+00  0.17170267464E+02  0.17170267464E+02  0.00000000000E+00 0.  1.
          1   -1    0    0  501    0  0.00000000000E+00 -0.00000000000E+00 -0.15532748878E+04  0.15532748878E+04  0.00000000000E+00 0. -1.
          5    1    1    2  502    0  0.55758343232E+02  0.64152327592E+02 -0.75343594315E+03  0.75822668563E+03  0.41800000000E+01 0.  1.
         -5    1    1    2    0  502  0.47011520788E+02  0.74808915235E+00 -0.76908328623E+02  0.90238606681E+02  0.41800000000E+01 0.  1.
        -11    1    1    2    0    0 -0.19244271824E+01  0.14339828075E+02 -0.22246353249E+02  0.26537413628E+02  0.00000000000E+00 0.  1.
         11    1    1    2    0    0 -0.10084543684E+03 -0.79240244819E+02 -0.68351399533E+03  0.69544244934E+03  0.00000000000E+00 0. -1.
</event>
<event>
 6    1  0.8989754E-006  0.1143497E+03  0.7561462E-02  0.1252721E+00
         -2   -1    0    0    0  501 -0.00000000000E+00  0.00000000000E+00  0.14562337919E+03  0.14562337919E+03  0.00000000000E+00 0.  1.
          2   -1    0    0  501    0  0.00000000000E+00 -0.00000000000E+00 -0.19189194626E+03  0.19189194626E+03  0.00000000000E+00 0. -1.
          5    1    1    2  502    0 -0.25729439738E+02  0.12293547353E+02  0.44210483875E+02  0.52774754004E+02  0.41800000000E+01 0. -1.
         -5    1    1    2    0  502  0.92696386281E+02 -0.60727251449E+02  0.31644618220E+02  0.11532247552E+03  0.41800000000E+01 0. -1.
        -11    1    1    2    0    0 -0.37648010422E+01  0.18809756218E+02  0.87576387201E+01  0.21087363321E+02  0.00000000000E+00 0.  1.
         11    1    1    2    0    0 -0.63202145500E+02  0.29623947878E+02 -0.13088130788E+03  0.14833073261E+03  0.00000000000E+00 0. -1.
</event>
<event>
 6    1  0.8989754E-006  0.9427373E+02  0.7561462E-02  0.1292820E+00
          1   -1    0    0  501    0  0.00000000000E+00  0.00000000000E+00  0.40158404111E+02  0.40158404111E+02  0.00000000000E+00 0. -1.
         -1   -1    0    0    0  501 -0.00000000000E+00 -0.00000000000E+00 -0.57023904783E+03  0.57023904783E+03  0.00000000000E+00 0.  1.
          5    1    1    2  502    0  0.11482337930E+02  0.14829997868E+02 -0.33855258693E+03  0.33909747778E+03  0.41800000000E+01 0. -1.
         -5    1    1    2    0  502  0.33047269376E+02 -0.64109271788E+02 -0.11279526755E+03  0.13394911543E+03  0.41800000000E+01 0. -1.
        -11    1    1    2    0    0 -0.63716148999E+02  0.32164992638E+02 -0.84895241674E+02  0.11091229172E+03  0.00000000000E+00 0.  1.
         11    1    1    2    0    0  0.19186541693E+02  0.17114281282E+02  0.61624524335E+01  0.26438567017E+02  0.00000000000E+00 0. -1.
</event>
<event>
 6    1  0.8989754E-006  0.9187208E+02  0.7561462E-02  0.1298380E+00
          1   -1    0    0  501    0  0.00000000000E+00  0.00000000000E+00  0.90391549041E+02  0.90391549041E+02  0.00000000000E+00 0. -1.
         -1   -1    0    0    0  501 -0.00000000000E+00 -0.00000000000E+00 -0.18224226181E+03  0.18224226181E+03  0.00000000000E+00 0.  1.
          5    1    1    2  502    0 -0.16590497856E+02 -0.75622662740E+02 -0.21144328173E+02  0.80365333029E+02  0.41800000000E+01 0.  1.
         -5    1    1    2    0  502 -0.89502198217E+01  0.35125384607E+02 -0.78521397327E+02  0.86585110249E+02  0.41800000000E+01 0.  1.
        -11    1    1    2    0    0  0.18528994482E+01 -0.11992646881E+02  0.38544818065E+02  0.40409897491E+02  0.00000000000E+00 0. -1.
         11    1    1    2    0    0  0.23687818229E+02  0.52489925014E+02 -0.30729805329E+02  0.65273470078E+02  0.00000000000E+00 0.  1.
</event>
<event>
 6    1  0.8989754E-006  0.8869957E+02  0.7561462E-02  0.1306032E+00
         -2   -1    0    0    0  501 -0.00000000000E+00  0.00000000000E+00  0.51387355300E+02  0.51387355300E+02  0.00000000000E+00 0.  1.
          2   -1    0    0  501    0  0.00000000000E+00 -0.00000000000E+00 -0.24016260575E+03  0.24016260575E+03  0.00000000000E+00 0. -1.
          5    1    1    2  502    0 -0.45972279925E+02  0.13868235269E+02 -0.95825331112E+02  0.10726483559E+03  0.41800000000E+01 0.  1.
         -5    1    1    2    0  502  0.44009309736E+02  0.31104921577E+01  0.99570365929E+01  0.45421464998E+02  0.41800000000E+01 0.  1.
        -11    1    1    2    0    0 -0.40176867216E+02 -0.14342467877E+02 -0.22945734249E+02  0.48439588813E+02  0.00000000000E+00 0.  1.
         11    1    1    2    0    0  0.42139837405E+02 -0.26362595495E+01 -0.79961221679E+02  0.90424071648E+02  0.00000000000E+00 0. -1.
</event>
<event>
 6    1  0.8989754E-006  0.1717001E+03  0.7561462E-02  0.1176086E+00
         -1   -1    0    0    0  501 -0.00000000000E+00  0.00000000000E+00  0.17912841077E+03  0.17912841077E+03  0.00000000000E+00 0.  1.
          1   -1    0    0  501    0  0.00000000000E+00 -0.00000000000E+00 -0.18068224614E+03  0.18068224614E+03  0.00000000000E+00 0. -1.
          5    1    1    2  502    0  0.93693392760E+01  0.48503128685E+02 -0.35048021056E+02  0.60713871485E+02  0.41800000000E+01 0. -1.
         -5    1    1    2    0  502 -0.12174475484E+03  0.38778153036E+02  0.19757900029E+02  0.12935755679E+03  0.41800000000E+01 0. -1.
        -11    1    1    2    0    0  0.44836299917E+02 -0.87641001457E+02  0.24247068014E+02  0.10138618858E+03  0.00000000000E+00 0. -1.
         11    1    1    2    0    0  0.67539115649E+02  0.35971973560E+00 -0.10510782353E+02  0.68353040068E+02  0.00000000000E+00 0.  1.
</event>
<event>
 6    1  0.8989754E-006  0.1510881E+03  0.7561462E-02  0.1199142E+00
          1   -1    0    0  501    0  0.00000000000E+00  0.00000000000E+00  0.64828308748E+03  0.64828308748E+03  0.00000000000E+00 0. -1.
         -1   -1    0    0    0  501 -0.00000000000E+00 -0.00000000000E+00 -0.45034035877E+02  0.45034035877E+02  0.00000000000E+00 0.  1.
          5    1    1    2  502    0 -0.11591806613E+03  0.40831647594E+02  0.14961461071E+03  0.19366524117E+03  0.41800000000E+01 0. -1.
         -5    1    1    2    0  502  0.12044034668E+02 -0.37370246278E+02  0.41582296564E+02  0.57342426400E+02  0.41800000000E+01 0. -1.
        -11    1    1    2    0    0  0.35345177684E+02  0.43942979906E+02  0.68154899438E+02  0.88461050106E+02  0.00000000000E+00 0.  1.
         11    1    1    2    0    0  0.68528853774E+02 -0.47404381221E+02  0.34389724489E+03  0.35384840568E+03  0.00000000000E+00 0. -1.
</event>
<event>
 6    1  0.8989754E-006  0.1703319E+03  0.7561462E-02  0.1177502E+00
          1   -1    0    0  501    0  0.00000000000E+00  0.00000000000E+00  0.36483965237E+03  0.36483965237E+03  0.00000000000E+00 0.  1.
         -1   -1    0    0    0  501 -0.00000000000E+00 -0.00000000000E+00 -0.86879608590E+02  0.86879608590E+02  0.00000000000E+00 0. -1.
          5    1    1    2  502    0  0.12471714406E+03 -0.59510915143E+02  0.84955319919E+02  0.16226766106E+03  0.41800000000E+01 0. -1.
         -5    1    1    2    0  502 -0.25984095847E+02 -0.41034547124E+02  0.47425098939E+02  0.68011908545E+02  0.41800000000E+01 0. -1.
        -11    1    1    2    0    0  0.26476955175E+01  0.30086660245E+02  0.71110360734E+02  0.77258661780E+02  0.00000000000E+00 0.  1.
         11    1    1    2    0    0 -0.10138074373E+03  0.70458802022E+02  0.74469264191E+02  0.14418102958E+03  0.00000000000E+00 0. -1.
</event>
<event>
 6    1  0.8989754E-006  0.9064956E+02  0.7561462E-02  0.1301286E+00
          1   -1    0    0  501    0  0.00000000000E+00  0.00000000000E+00  0.80964523778E+03  0.80964523778E+03  0.00000000000E+00 0. -1.
         -1   -1    0    0    0  501 -0.00000000000E+00 -0.00000000000E+00 -0.17834088933E+02  0.17834088933E+02  0.00000000000E+00 0.  1.
          5    1    1    2  502    0  0.91636679174E+01 -0.20962730658E+02  0.30339490348E+03  0.30428497949E+03  0.41800000000E+01 0.  1.
         -5    1    1    2    0  502 -0.54299376474E+02  0.36800423683E+02  0.91209861285E+02  0.11242510691E+03  0.41800000000E+01 0.  1.
        -11    1    1    2    0    0 -0.57496863516E+01  0.25881818520E+02  0.43105847646E+02  0.50606733982E+02  0.00000000000E+00 0.  1.
         11    1    1    2    0    0  0.50885394909E+02 -0.41719511545E+02  0.35410053644E+03  0.36016250633E+03  0.00000000000E+00 0. -1.
</event>
<event>
 6    1  0.8989754E-006  0.1277682E+03  0.7561462E-02  0.1230805E+00
         -2   -1    0    0    0  501 -0.00000000000E+00  0.00000000000E+00  0.59632991375E+02  0.59632991375E+02  0.00000000000E+00 0.  1.
          2   -1    0    0  501    0  0.00000000000E+00 -0.00000000000E+00 -0.47410779951E+03  0.47410779951E+03  0.00000000000E+00 0. -1.
          5    1    1    2  502    0  0.81370397293E+02  0.54175008656E+01 -0.32963086361E+02  0.88059799760E+02  0.41800000000E+01 0. -1.
         -5    1    1    2    0  502 -0.88826198783E+02  0.12896122501E+02 -0.52629267038E+02  0.10413316338E+03  0.41800000000E+01 0.  1.
        -11    1    1    2    0    0  0.41470666078E+02  0.64236841354E+01 -0.94177791100E+02  0.10310449165E+03  0.00000000000E+00 0. -1.
         11    1    1    2    0    0 -0.34014864589E+02 -0.24737307502E+02 -0.23470466363E+03  0.23844333609E+03  0.00000000000E+00 0.  1.
</event>
<event>
 6    1  0.8989754E-006  0.9939089E+02  0.7561462E-02  0.1281582E+00
         -1   -1    0    0    0  501 -0.00000000000E+00  0.00000000000E+00  0.84227064162E+03  0.84227064162E+03  0.00000000000E+00 0.  1.
          1   -1    0    0  501    0  0.00000000000E+00 -0.00000000000E+00 -0.10308265630E+03  0.10308265630E+03  0.00000000000E+00 0. -1.
          5    1    1    2  502    0 -0.30645526322E+02 -0.30693204659E+02  0.64589119869E+02  0.77913079141E+02  0.41800000000E+01 0. -1.
         -5    1    1    2    0  502  0.88217686950E+02  0.33740331457E+02  0.73610710303E+03  0.74215356214E+03  0.41800000000E+01 0.  1.
        -11    1    1    2    0    0 -0.43790136147E+02  0.59707868761E+01 -0.85464171696E+02  0.96215128558E+02  0.00000000000E+00 0. -1.
         11    1    1    2    0    0 -0.13782024481E+02 -0.90179136737E+01  0.23955934114E+02  0.29071528084E+02  0.00000000000E+00 0.  1.
</event>
<event>
 6    1  0.8989754E-006  0.1783274E+03  0.7561462E-02  0.1169432E+00
         -2   -1    0    0    0  501 -0.00000000000E+00  0.00000000000E+00  0.15596719967E+03  0.15596719967E+03  0.00000000000E+00 0.  1.
          2   -1    0    0  501    0  0.00000000000E+00 -0.00000000000E+00 -0.30441745354E+03  0.30441745354E+03  0.00000000000E+00 0. -1.
          5    1    1    2  502    0  0.10322957735E+03  0.11840636201E+03  0.56248840056E+02  0.16690661045E+03  0.41800000000E+01 0.  1.
         -5    1    1    2    0  502  0.10305177682E+02  0.37496189006E+01 -0.40491041616E+02  0.42157480713E+02  0.41800000000E+01 0.  1.
        -11    1    1    2    0    0 -0.98846282475E+02 -0.43904741794E+02 -0.11425761784E+03  0.15733091605E+03  0.00000000000E+00 0. -1.
         11    1    1    2    0    0 -0.14688472557E+02 -0.78251239115E+02 -0.49950434471E+02  0.93989645989E+02  0.00000000000E+00 0.  1.
</event>
<event>
 6    1  0.8989754E-006  0.1020095E+03  0.7561462E-02  0.1276126E+00
         -4   -1    0    0    0  501 -0.00000000000E+00  0.00000000000E+00  0.33856940066E+02  0.33856940066E+02  0.00000000000E+00 0.  1.
          4   -1    0    0  501    0  0.00000000000E+00 -0.00000000000E+00 -0.38480921256E+03  0.38480921256E+03  0.00000000000E+00 0. -1.
          5    1    1    2  502    0  0.44186198048E+02  0.34322930230E+01 -0.11896837566E+03  0.12702420061E+03  0.41800000000E+01 0. -1.
         -5    1    1    2    0  502 -0.66901272379E+02  0.26485647069E+02 -0.55754272153E+02  0.91122340894E+02  0.41800000000E+01 0. -1.
        -11    1    1    2    0    0  0.52210866159E+02 -0.23432769516E+02 -0.71833129963E+02  0.91842625140E+02  0.00000000000E+00 0.  1.
         11    1    1    2    0    0 -0.29495791827E+02 -0.64851705762E+01 -0.10439649472E+03  0.10867698599E+03  0.00000000000E+00 0. -1.
</event>
<event>
 6    1  0.8989754E-006  0.7755571E+02  0.7561462E-02  0.1336135E+00
         -4   -1    0    0    0  501 -0.00000000000E+00  0.00000000000E+00  0.71060302853E+02  0.71060302853E+02  0.00000000000E+00 0.  1.
          4   -1    0    0  501    0  0.00000000000E+00 -0.00000000000E+00 -0.17105531644E+03  0.17105531644E+03  0.00000000000E+00 0. -1.
          5    1    1    2  502    0 -0.33954956061E+02 -0.14292738330E+02 -0.93136388940E+02  0.10024510340E+03  0.41800000000E+01 0. -1.
         -5    1    1    2    0  502  0.31810823551E+02  0.80554461421E+01  0.25817809050E+02  0.41962487673E+02  0.41800000000E+01 0. -1.
        -11    1    1    2    0    0 -0.92165212928E+01 -0.38092751277E+02 -0.37055735604E+02  0.53936346797E+02  0.00000000000E+00 0. -1.
         11    1    1    2    0    0  0.11360653803E+02  0.44330043465E+02  0.43793019023E+01  0.45971681431E+02  0.00000000000E+00 0.  1.
</event>
<event>
 6    1  0.8989754E-006  0.1468170E+03  0.7561462E-02  0.1204440E+00
         -2   -1    0    0    0  501 -0.00000000000E+00  0.00000000000E+00  0.93708565204E+02  0.93708565204E+02  0.00000000000E+00 0.  1.
          2   -1    0    0  501    0  0.00000000000E+00 -0.00000000000E+00 -0.28831723665E+03  0.28831723665E+03  0.00000000000E+00 0. -1.
          5    1    1    2  502    0 -0.32444297023E+02 -0.13475963784E+03 -0.12474859553E+03  0.18652741591E+03  0.41800000000E+01 0.  1.
         -5    1    1    2    0  502 -0.10260143943E+02  0.20371513171E+02  0.69706516561E+01  0.24214282709E+02  0.41800000000E+01 0.  1.
        -11    1    1    2    0    0  0.29655881900E+02  0.18399445155E+02  0.14830543708E+02  0.37920389501E+02  0.00000000000E+00 0.  1.
         11    1    1    2    0    0  0.13048559065E+02  0.95988679511E+02 -0.91661271276E+02  0.13336371373E+03  0.00000000000E+00 0. -1.
</event>
<event>
 6    1  0.8989754E-006  0.1371458E+03  0.7561462E-02  0.1217222E+00
          2   -1    0    0  501    0  0.00000000000E+00  0.00000000000E+00  0.45816106473E+03  0.45816106473E+03  0.00000000000E+00 0.  1.
         -2   -1    0    0    0  501 -0.00000000000E+00 -0.00000000000E+00 -0.67015550112E+02  0.67015550112E+02  0.00000000000E+00 0. -1.
          5    1    1    2  502    0 -0.45413040763E+02  0.62918453712E+02  0.13500900379E+03  0.15577541395E+03  0.41800000000E+01 0.  1.
         -5    1    1    2    0  502 -0.38580091632E+02  0.24730412464E+02 -0.22976911314E+02  0.51433720695E+02  0.41800000000E+01 0.  1.
        -11    1    1    2    0    0  0.33627737863E+02 -0.93971061207E+02  0.16126308091E+03  0.18965011564E+03  0.00000000000E+00 0.  1.
         11    1    1    2    0    0  0.50365394532E+02  0.63221950308E+01  0.11785034124E+03  0.12831736456E+03  0.00000000000E+00 0. -1.
</event>
<event>
 6    1  0.8989754E-006  0.1742139E+03  0.7561462E-02  0.1173523E+00
         -2   -1    0    0    0  501 -0.00000000000E+00  0.00000000000E+00  0.45954451441E+02  0.45954451441E+02  0.00000000000E+00 0.  1.
          2   -1    0    0  501    0  0.00000000000E+00 -0.00000000000E+00 -0.10063088652E+04  0.10063088652E+04  0.00000000000E+00 0. -1.
          5    1    1    2  502    0 -0.57589770197E+02  0.14641284196E+03 -0.14345415619E+03  0.21295508740E+03  0.41800000000E+01 0. -1.
         -5    1    1    2    0  502 -0.16386785164E+01 -0.39000802443E+02 -0.17496273005E+03  0.17931307026E+03  0.41800000000E+01 0.  1.
        -11    1    1    2    0    0  0.44036336245E+02 -0.12261902740E+03 -0.57935706243E+03  0.59382592616E+03  0.00000000000E+00 0.  1.
         11    1    1    2    0    0  0.15192112468E+02  0.15206987883E+02 -0.62580465077E+02  0.66169232812E+02  0.00000000000E+00 0. -1.
</event>
<event>
 6    1  0.8989754E-006  0.1072934E+03  0.7561462E-02  0.1265666E+00
         -2   -1    0    0    0  501 -0.00000000000E+00  0.00000000000E+00  0.73680494524E+02  0.73680494524E+02  0.00000000000E+00 0.  1.
          2   -1    0    0  501    0  0.00000000000E+00 -0.00000000000E+00 -0.20197745336E+03  0.20197745336E+03  0.00000000000E+00 0. -1.
          5    1    1    2  502    0  0.33809675800E+02 -0.21396902349E+02 -0.42495892304E+02  0.58517474916E+02  0.41800000000E+01 0. -1.
         -5    1    1    2    0  502 -0.50179508232E+02  0.54213160373E+02  0.13018425847E+02  0.75126570636E+02  0.41800000000E+01 0. -1.
        -11    1    1    2    0    0  0.50825387684E+02  0.26833253160E+01 -0.37461819706E+02  0.63196583798E+02  0.00000000000E+00 0.  1.
         11    1    1    2    0    0 -0.34455555253E+02 -0.35499583340E+02 -0.61357672671E+02  0.78817318533E+02  0.00000000000E+00 0. -1.
</event>
<event>
 6    1  0.8989754E-006  0.1186219E+03  0.7561462E-02  0.1245388E+00
         -2   -1    0    0    0  501 -0.00000000000E+00  0.00000000000E+00  0.50075685112E+02  0.50075685112E+02  0.00000000000E+00 0.  1.
          2   -1    0    0  501    0  0.00000000000E+00 -0.00000000000E+00 -0.31300963760E+03  0.31300963760E+03  0.00000000000E+00 0. -1.
          5    1    1    2  502    0  0.58628723662E+02  0.74936515360E+01 -0.22799635050E+02  0.63488406895E+02  0.41800000000E+01 0. -1.
         -5    1    1    2    0  502 -0.51161254391E+02  0.51111647479E+02 -0.86471923904E+02  0.11280399143E+03  0.41800000000E+01 0. -1.
        -11    1    1    2    0    0  0.29994978547E+02  0.62641798706E+01 -0.54402683024E+02  0.62438694795E+02  0.00000000000E+00 0. -1.
         11    1    1    2    0    0 -0.37462447818E+02 -0.64869478885E+02 -0.99259710513E+02  0.12435422960E+03  0.00000000000E+00 0.  1.
</event>
<event>
 6    1  0.8989754E-006  0.1531501E+03  0.7561462E-02  0.1196655E+00
         -1   -1    0    0    0  501 -0.00000000000E+00  0.00000000000E+00  0.21437493283E+02  0.21437493283E+02  0.00000000000E+00 0.  1.
          1   -1    0    0  501    0  0.00000000000E+00 -0.00000000000E+00 -0.12631989203E+04  0.12631989203E+04  0.00000000000E+00 0. -1.
          5    1    1    2  502    0  0.32511875270E+02  0.71209480684E+02 -0.16036489534E+03  0.17849981577E+03  0.41800000000E+01 0. -1.
         -5    1    1    2    0  502 -0.59777639041E+02  0.46073834676E+02 -0.44091456978E+03  0.44734695105E+03  0.41800000000E+01 0. -1.
        -11    1    1    2    0    0  0.57664584453E+02 -0.42620344872E+02 -0.35355729963E+03  0.36075540497E+03  0.00000000000E+00 0.  1.
         11    1    1    2    0    0 -0.30398820681E+02 -0.74662970487E+02 -0.28692466231E+03  0.29803424182E+03  0.00000000000E+00 0. -1.
</event>
<event>
 6    1  0.8989754E-006  0.1072351E+03  0.7561462E-02  0.1265777E+00
         -3   -1    0    0    0  501 -0.00000000000E+00  0.00000000000E+00  0.25510573366E+03  0.25510573366E+03  0.00000000000E+00 0.  1.
          3   -1    0    0  501    0  0.00000000000E+00 -0.00000000000E+00 -0.53257024331E+02  0.53257024331E+02  0.00000000000E+00 0. -1.
          5    1    1    2  502    0  0.55899383891E+02  0.16035426056E+02  0.10167112043E+03  0.11720224032E+03  0.41800000000E+01 0.  1.
         -5    1    1    2    0  502 -0.50076278750E+02  0.28290861134E+02  0.14966552276E+02  0.59577484037E+02  0.41800000000E+01 0.  1.
        -11    1    1    2    0    0  0.39396064450E+02 -0.73257859144E+01  0.22855839283E+02  0.46131403867E+02  0.00000000000E+00 0. -1.
         11    1    1    2    0    0 -0.45219169591E+02 -0.37000501276E+02  0.62355197341E+02  0.85451629760E+02  0.00000000000E+00 0.  1.
</event>
<event>
 6    1  0.8989754E-006  0.1086134E+03  0.7561462E-02  0.1263159E+00
          3   -1    0    0  501    0  0.00000000000E+00  0.00000000000E+00  0.37005687935E+03  0.37005687935E+03  0.00000000000E+00 0. -1.
         -3   -1    0    0    0  501 -0.00000000000E+00 -0.00000000000E+00 -0.41319972490E+02  0.41319972490E+02  0.00000000000E+00 0.  1.
          5    1    1    2  502    0  0.48386858021E+02  0.53198020272E+02  0.87850361040E+02  0.11360667113E+03  0.41800000000E+01 0.  1.
         -5    1    1    2    0  502 -0.65444798428E+02  0.19399472272E+01  0.71519418345E+02  0.97052999114E+02  0.41800000000E+01 0.  1.
        -11    1    1    2    0    0 -0.65748288212E+01  0.90501362844E+01 -0.58490944864E+01  0.12623202728E+02  0.00000000000E+00 0.  1.
         11    1    1    2    0    0  0.23632769228E+02 -0.64188103784E+02  0.17521622196E+03  0.18809397887E+03  0.00000000000E+00 0. -1.
</event>
<event>
 6    1  0.8989754E-006  0.8042476E+02  0.7561462E-02  0.1327850E+00
         -1   -1    0    0    0  501 -0.00000000000E+00  0.00000000000E+00  0.34799950200E+02  0.34799950200E+02  0.00000000000E+00 0.  1.
          1   -1    0    0  501    0  0.00000000000E+00 -0.00000000000E+00 -0.36890573396E+03  0.36890573396E+03  0.00000000000E+00 0. -1.
          5    1    1    2  502    0 -0.25931975735E+02 -0.25582498142E+02 -0.17332706815E+03  0.17716285313E+03  0.41800000000E+01 0. -1.
         -5    1    1    2    0  502  0.64377543542E+02 -0.12957660409E+02 -0.43060375203E+02  0.78638650728E+02  0.41800000000E+01 0. -1.
        -11    1    1    2    0    0 -0.31214888843E+02  0.16753512054E+02 -0.11972981155E+03  0.12486103165E+03  0.00000000000E+00 0. -1.
         11    1    1    2    0    0 -0.72306789636E+01  0.21786646497E+02  0.20114711318E+01  0.23043148656E+02  0.00000000000E+00 0.  1.
</event>
<event>
 6    1  0.8989754E-006  0.1065811E+03  0.7561462E-02  0.1267035E+00
         -2   -1    0    0    0  501 -0.00000000000E+00  0.00000000000E+00  0.18044202747E+03  0.18044202747E+03  0.00000000000E+00 0.  1.
          2   -1    0    0  501    0  0.00000000000E+00 -0.00000000000E+00 -0.86872108314E+02  0.86872108314E+02  0.00000000000E+00 0. -1.
          5    1    1    2  502    0 -0.25646113661E+02  0.37182979750E+02  0.12060000770E+02  0.46938397369E+02  0.41800000000E+01 0. -1.
         -5    1    1    2    0  502  0.15209326345E+02 -0.77953138287E+02  0.88501118761E+02  0.11898712451E+03  0.41800000000E+01 0. -1.
        -11    1    1    2    0    0  0.30677253342E+02 -0.11071380257E+02  0.21304446115E+02  0.38955728176E+02  0.00000000000E+00 0.  1.
         11    1    1    2    0    0 -0.20240466026E+02  0.51841538794E+02 -0.28295646495E+02  0.62432885726E+02  0.00000000000E+00 0. -1.
</event>
<event>
 6    1  0.8989754E-006  0.1164903E+03  0.7561462E-02  0.1249002E+00
         -2   -1    0    0    0  501 -0.00000000000E+00  0.00000000000E+00  0.81534926286E+02  0.81534926286E+02  0.00000000000E+00 0.  1.
          2   -1    0    0  501    0  0.00000000000E+00 -0.00000000000E+00 -0.29054168635E+03  0.29054168635E+03  0.00000000000E+00 0. -1.
          5    1    1    2  502    0  0.14557673261E+01 -0.60620142187E+02  0.12036426488E+02  0.61961833897E+02  0.41800000000E+01 0.  1.
         -5    1    1    2    0  502 -0.62131378464E+02  0.43990487244E+02 -0.17162929704E+02  0.78150557988E+02  0.41800000000E+01 0.  1.
        -11    1    1    2    0    0  0.27925382981E+02  0.44777759115E+02 -0.16711532122E+03  0.17524955153E+03  0.00000000000E+00 0. -1.
         11    1    1    2    0    0  0.32750228157E+02 -0.28148104172E+02 -0.36764935626E+02  0.56714669217E+02  0.00000000000E+00 0.  1.
</event>
<event>
 6    1  0.8989754E-006  0.1414575E+03  0.7561462E-02  0.1211381E+00
         -1   -1    0    0    0  501 -0.00000000000E+00  0.00000000000E+00  0.39510084478E+02  0.39510084478E+02  0.00000000000E+00 0.  1.
          1   -1    0    0  501    0  0.00000000000E+00 -0.00000000000E+00 -0.72504350040E+03  0.72504350040E+03  0.00000000000E+00 0. -1.
          5    1    1    2  502    0  0.98223156819E+01 -0.46004513697E+01 -0.10900791455E+03  0.10962590877E+03  0.41800000000E+01 0. -1.
         -5    1    1    2    0  502 -0.88489284199E+02  0.94171746354E+02 -0.12825457270E+03  0.18211364322E+03  0.41800000000E+01 0.  1.
        -11    1    1    2    0    0  0.14193877497E+02 -0.74432407921E+02 -0.16003076570E+03  0.17706353515E+03  0.00000000000E+00 0.  1.
         11    1    1    2    0    0  0.64473091020E+02 -0.15138887064E+02 -0.28824016297E+03  0.29575049774E+03  0.00000000000E+00 0. -1.
</event>
<event>
 6    1  0.8989754E-006  0.1122199E+03  0.7561462E-02  0.1256513E+00
          2   -1    0    0  501    0  0.00000000000E+00  0.00000000000E+00  0.47331763368E+03  0.47331763368E+03  0.00000000000E+00 0.  1.
         -2   -1    0    0    0  501 -0.00000000000E+00 -0.00000000000E+00 -0.36583066700E+02  0.36583066700E+02  0.00000000000E+00 0. -1.
          5    1    1    2  502    0 -0.91284414573E+01  0.52641886427E+02  0.17535517904E+03  0.18336141324E+03  0.41800000000E+01 0. -1.
         -5    1    1    2    0  502  0.76115702657E+02 -0.21451587436E+02  0.96085960431E+02  0.12451407546E+03  0.41800000000E+01 0. -1.
        -11    1    1    2    0    0 -0.49061512202E+02 -0.46863060351E+02  0.16478830652E+03  0.17820876625E+03  0.00000000000E+00 0.  1.
         11    1    1    2    0    0 -0.17925748998E+02  0.15672761361E+02  0.50512099655E+00  0.23816445432E+02  0.00000000000E+00 0. -1.
</event>
<event>
 6    1  0.8989754E-006  0.9238123E+02  0.7561462E-02  0.1297186E+00
         -2   -1    0    0    0  501 -0.00000000000E+00  0.00000000000E+00  0.50563078861E+02  0.50563078861E+02  0.00000000000E+00 0.  1.
          2   -1    0    0  501    0  0.00000000000E+00 -0.00000000000E+00 -0.29508213121E+03  0.29508213121E+03  0.00000000000E+00 0. -1.
          5    1    1    2  502    0 -0.22719858407E+02 -0.32965504381E+02  0.27967836698E+01  0.40351094707E+02  0.41800000000E+01 0.  1.
         -5    1    1    2    0  502  0.61642411721E+02  0.48435068106E+02 -0.81966882815E+02  0.11349795163E+03  0.41800000000E+01 0.  1.
        -11    1    1    2    0    0  0.27585199397E+01  0.14439456655E+02  0.36793756944E+01  0.15154047191E+02  0.00000000000E+00 0.  1.
         11    1    1    2    0    0 -0.41681073253E+02 -0.29909020380E+02 -0.16902832890E+03  0.17664211654E+03  0.00000000000E+00 0. -1.
</event>
<event>
 6    1  0.8989754E-006  0.1087595E+03  0.7561462E-02  0.1262884E+00
          1   -1    0    0  501    0  0.00000000000E+00  0.00000000000E+00  0.99736668156E+02  0.99736668156E+02  0.00000000000E+00 0. -1.
         -1   -1    0    0    0  501 -0.00000000000E+00 -0.00000000000E+00 -0.14815192908E+03  0.14815192908E+03  0.00000000000E+00 0.  1.
          5    1    1    2  502    0 -0.28724378150E+02 -0.14461904019E+02  0.25025488724E+02  0.40963203656E+02  0.41800000000E+01 0. -1.
         -5    1    1    2    0  502  0.65364591133E+02  0.52948652897E+02 -0.47775763952E+02  0.96830189708E+02  0.41800000000E+01 0. -1.
        -11    1    1    2    0    0 -0.10747423170E+02  0.27744315884E+02 -0.25184698187E+02  0.38981061958E+02  0.00000000000E+00 0.  1.
         11    1    1    2    0    0 -0.25892789814E+02 -0.66231064762E+02 -0.48028750672E+00  0.71114141912E+02  0.00000000000E+00 0. -1.
</event>
<event>
 6    1  0.8989754E-006  0.8264295E+02  0.7561462E-02  0.1321714E+00
         -1   -1    0    0    0  501 -0.00000000000E+00  0.00000000000E+00  0.28139443374E+02  0.28139443374E+02  0.00000000000E+00 0.  1.
          1   -1    0    0  501    0  0.00000000000E+00 -0.00000000000E+00 -0.32675555810E+03  0.32675555810E+03  0.00000000000E+00 0. -1.
          5    1    1    2  502    0 -0.42800103445E+01 -0.68519614428E+02 -0.63732472363E+02  0.93768632726E+02  0.41800000000E+01 0.  1.
         -5    1    1    2    0  502  0.67623768586E+01  0.55253726249E+02 -0.75551549158E+02  0.93937282191E+02  0.41800000000E+01 0.  1.
        -11    1    1    2    0    0  0.10502665932E+02 -0.97022886684E+01 -0.16038308896E+02  0.21486455020E+02  0.00000000000E+00 0.  1.
         11    1    1    2    0    0 -0.12985032446E+02  0.22968176848E+02 -0.14329378431E+03  0.14570263154E+03  0.00000000000E+00 0. -1.
</event>
<event>
 6    1  0.8989754E-006  0.1878711E+03  0.7561462E-02  0.1160396E+00
          1   -1    0    0  501    0  0.00000000000E+00  0.00000000000E+00  0.52617499855E+03  0.52617499855E+03  0.00000000000E+00 0. -1.
         -1   -1    0    0    0  501 -0.00000000000E+00 -0.00000000000E+00 -0.80897272421E+02  0.80897272421E+02  0.00000000000E+00 0.  1.
          5    1    1    2  502    0 -0.11546516845E+03 -0.67331767532E+01  0.15234737906E+03  0.19132364491E+03  0.41800000000E+01 0.  1.
         -5    1    1    2    0  502 -0.35316187089E+02 -0.72320464423E+02  0.24630383320E+02  0.84271055692E+02  0.41800000000E+01 0.  1.
        -11    1    1    2    0    0  0.61823216154E+02  0.64373438643E+02  0.19787109607E+03  0.21706916022E+03  0.00000000000E+00 0. -1.
         11    1    1    2    0    0  0.88958139389E+02  0.14680202533E+02  0.70428867673E+02  0.11440841014E+03  0.00000000000E+00 0.  1.
</event>
<event>
 6    1  0.8989754E-006  0.8172375E+02  0.7561462E-02  0.1324230E+00
         -2   -1    0    0    0  501 -0.00000000000E+00  0.00000000000E+00  0.83879200092E+02  0.83879200092E+02  0.00000000000E+00 0.  1.
          2   -1    0    0  501    0  0.00000000000E+00 -0.00000000000E+00 -0.14798668328E+03  0.14798668328E+03  0.00000000000E+00 0. -1.
          5    1    1    2  502    0 -0.47073864049E+02  0.37002729176E+02 -0.22760310385E+02  0.64192326424E+02  0.41800000000E+01 0.  1.
         -5    1    1    2    0  502  0.53621794245E+02 -0.28533533493E+02  0.11097233427E+02  0.61887642881E+02  0.41800000000E+01 0.  1.
        -11    1    1    2    0    0 -0.47918040955E+01  0.16667738725E+02  0.21524967495E+02  0.27642342997E+02  0.00000000000E+00 0.  1.
         11    1    1    2    0    0 -0.17561261006E+01 -0.25136934408E+02 -0.73969373721E+02  0.78143571066E+02  0.00000000000E+00 0. -1.
</event>
<event>
 6    1  0.8989754E-006  0.1148420E+03  0.7561462E-02  0.1251857E+00
         -4   -1    0    0    0  501 -0.00000000000E+00  0.00000000000E+00  0.16684875129E+03  0.16684875129E+03  0.00000000000E+00 0.  1.
          4   -1    0    0  501    0  0.00000000000E+00 -0.00000000000E+00 -0.10220552564E+03  0.10220552564E+03  0.00000000000E+00 0. -1.
          5    1    1    2  502    0 -0.22198638071E+02  0.65301121071E+02  0.40954716392E+01  0.69218936956E+02  0.41800000000E+01 0. -1.
         -5    1    1    2    0  502  0.19757928039E+02 -0.67886540184E+02  0.80887323846E+02  0.10751367177E+03  0.41800000000E+01 0.  1.
        -11    1    1    2    0    0 -0.15401195741E+02  0.42949842039E+02 -0.66133461698E+01  0.46104469512E+02  0.00000000000E+00 0. -1.
         11    1    1    2    0    0  0.17841905773E+02 -0.40364422926E+02 -0.13726223665E+02  0.46217198702E+02  0.00000000000E+00 0.  1.
</event>
<event>
 6    1  0.8989754E-006  0.9944741E+02  0.7561462E-02  0.1281462E+00
         -1   -1    0    0    0  501 -0.00000000000E+00  0.00000000000E+00  0.79009444709E+03  0.79009444709E+03  0.00000000000E+00 0.  1.
          1   -1    0    0  501    0  0.00000000000E+00 -0.00000000000E+00 -0.17611451365E+02  0.17611451365E+02  0.00000000000E+00 0. -1.
          5    1    1    2  502    0 -0.70203181083E+02 -0.87204575571E+01  0.14995253790E+03  0.16585466239E+03  0.41800000000E+01 0.  1.
         -5    1    1    2    0  502  0.29827529956E+02 -0.34953158034E+01  0.34736709890E+03  0.34868793007E+03  0.41800000000E+01 0.  1.
        -11    1    1    2    0    0  0.32912977525E+01 -0.36407711044E+02  0.68521255984E+02  0.77662839158E+02  0.00000000000E+00 0. -1.
         11    1    1    2    0    0  0.37084353374E+02  0.48623484404E+02  0.20664210294E+03  0.21550046684E+03  0.00000000000E+00 0.  1.
</event>
<event>
 6    1  0.8989754E-006  0.1309040E+03  0.7561462E-02  0.1226120E+00
          1   -1    0    0  501    0  0.00000000000E+00  0.00000000000E+00  0.17333126090E+03  0.17333126090E+03  0.00000000000E+00 0. -1.
         -1   -1    0    0    0  501 -0.00000000000E+00 -0.00000000000E+00 -0.13128223117E+03  0.13128223117E+03  0.00000000000E+00 0.  1.
          5    1    1    2  502    0  0.40535725473E+02 -0.10688218064E+03  0.37001242171E+02  0.12022275117E+03  0.41800000000E+01 0.  1.
         -5    1    1    2    0  502 -0.27802845140E+02  0.49273199036E+01 -0.30515357046E+02  0.41784400139E+02  0.41800000000E+01 0.  1.
        -11    1    1    2    0    0 -0.35789382467E+02  0.76943887986E+02 -0.10323733834E+02  0.85485795756E+02  0.00000000000E+00 0.  1.
         11    1    1    2    0    0  0.23056502134E+02  0.25010972749E+02  0.45886878438E+02  0.57120545002E+02  0.00000000000E+00 0. -1.
</event>
<event>
 6    1  0.8989754E-006  0.8672198E+02  0.7561462E-02  0.1310990E+00
         -3   -1    0    0    0  501 -0.00000000000E+00  0.00000000000E+00  0.48121062926E+02  0.48121062926E+02  0.00000000000E+00 0.  1.
          3   -1    0    0  501    0  0.00000000000E+00 -0.00000000000E+00 -0.25848897223E+03  0.25848897223E+03  0.00000000000E+00 0. -1.
          5    1    1    2  502    0 -0.88606721367E+01  0.52182622785E+02 -0.81429613400E+02  0.97210040479E+02  0.41800000000E+01 0.  1.
         -5    1    1    2    0  502  0.27218092705E+02 -0.41093557682E+02  0.67835906726E+01  0.49929896414E+02  0.41800000000E+01 0.  1.
        -11    1    1    2    0    0  0.82672332234E+01 -0.34470933872E+02 -0.11030953484E+03  0.11586537836E+03  0.00000000000E+00 0. -1.
         11    1    1    2    0    0 -0.26624653792E+02  0.23381868768E+02 -0.25412351739E+02  0.43604719900E+02  0.00000000000E+00 0.  1.
</event>
<event>
 6    1  0.8989754E-006  0.7836767E+02  0.7561462E-02  0.1333749E+00
          4   -1    0    0  501    0  0.00000000000E+00  0.00000000000E+00  0.39090834599E+02  0.39090834599E+02  0.00000000000E+00 0. -1.
         -4   -1    0    0    0  501 -0.00000000000E+00 -0.00000000000E+00 -0.34279797230E+03  0.34279797230E+03  0.00000000000E+00 0.  1.
          5    1    1    2  502    0 -0.43288033019E+02 -0.32361304342E+02 -0.82447072759E+02  0.98671677942E+02  0.41800000000E+01 0. -1.
         -5    1    1    2    0  502  0.49418817677E+02  0.48075857180E+02 -0.17241567066E+03  0.18573675854E+03  0.41800000000E+01 0. -1.
        -11    1    1    2    0    0  0.73619908851E+01 -0.18291754755E+02  0.19522353120E+02  0.27747242623E+02  0.00000000000E+00 0. -1.
         11    1    1    2    0    0 -0.13492775543E+02  0.25772019168E+01 -0.68366747396E+02  0.69733127788E+02  0.00000000000E+00 0.  1.
</event>
<event>
 6    1  0.8989754E-006  0.8921528E+02  0.7561462E-02  0.1304763E+00
         -1   -1    0    0    0  501 -0.00000000000E+00  0.00000000000E+00  0.12214886337E+03  0.12214886337E+03  0.00000000000E+00 0.  1.
          1   -1    0    0  501    0  0.00000000000E+00 -0.00000000000E+00 -0.13331577972E+03  0.13331577972E+03  0.00000000000E+00 0. -1.
          5    1    1    2  502    0  0.35342703512E+02 -0.30865877014E+02  0.38999137498E+02  0.61157290497E+02  0.41800000000E+01 0.  1.
         -5    1    1    2    0  502 -0.54098252642E+02 -0.33422000446E+02 -0.50290346937E+02  0.81180308251E+02  0.41800000000E+01 0.  1.
        -11    1    1    2    0    0  0.76568528506E+01  0.42041973378E+02  0.44854542881E+02  0.61952279524E+02  0.00000000000E+00 0.  1.
         11    1    1    2    0    0  0.11098696279E+02  0.22245904082E+02 -0.44730249795E+02  0.51174764818E+02  0.00000000000E+00 0. -1.
</event>
<event>
 6    1  0.8989754E-006  0.1306120E+03  0.7561462E-02  0.1226550E+00
          1   -1    0    0  501    0  0.00000000000E+00  0.00000000000E+00  0.26640344684E+03  0.26640344684E+03  0.00000000000E+00 0. -1.
         -1   -1    0    0    0  501 -0.00000000000E+00 -0.00000000000E+00 -0.80075328712E+02  0.80075328712E+02  0.00000000000E+00 0.  1.
          5    1    1    2  502    0  0.24415459182E+02  0.10480503322E+02 -0.13822440718E+02  0.30240500398E+02  0.41800000000E+01 0. -1.
         -5    1    1    2    0  502 -0.32171281079E+02 -0.10387735322E+03  0.59942738167E+02  0.12424210276E+03  0.41800000000E+01 0.  1.
        -11    1    1    2    0    0  0.45635613150E+02  0.45578575317E+02  0.99784478157E+02  0.11881480462E+03  0.00000000000E+00 0. -1.
         11    1    1    2    0    0 -0.37879791253E+02  0.47818274582E+02  0.40423342524E+02  0.73181367780E+02  0.00000000000E+00 0.  1.
</event>
<event>
 6    1  0.8989754E-006  0.1227611E+03  0.7561462E-02  0.1238610E+00
          1   -1    0    0  501    0  0.00000000000E+00  0.00000000000E+00  0.61859001204E+02  0.61859001204E+02  0.00000000000E+00 0. -1.
         -1   -1    0    0    0  501 -0.00000000000E+00 -0.00000000000E+00 -0.61273196286E+03  0.61273196286E+03  0.00000000000E+00 0.  1.
          5    1    1    2  502    0  0.64459362548E+02 -0.30424883688E+02 -0.10011003733E+03  0.12296412055E+03  0.41800000000E+01 0. -1.
         -5    1    1    2    0  502  0.18527834168E+01  0.61191740427E+02 -0.42554402013E+03  0.42994540045E+03  0.41800000000E+01 0.  1.
        -11    1    1    2    0    0 -0.86992368348E+02 -0.30150462003E+02 -0.35378147756E+02  0.98632326590E+02  0.00000000000E+00 0. -1.
         11    1    1    2    0    0  0.20680222383E+02 -0.61639473495E+00  0.10159243564E+02  0.23049116470E+02  0.00000000000E+00 0.  1.
</event>
<event>
 6    1  0.8989754E-006  0.1325961E+03  0.7561462E-02  0.1223654E+00
          2   -1    0    0  501    0  0.00000000000E+00  0.00000000000E+00  0.34343005730E+03  0.34343005730E+03  0.00000000000E+00 0. -1.
         -2   -1    0    0    0  501 -0.00000000000E+00 -0.00000000000E+00 -0.54821228469E+02  0.54821228469E+02  0.00000000000E+00 0.  1.
          5    1    1    2  502    0 -0.10964403497E+03 -0.16509075185E+02  0.17116833072E+03  0.20398635692E+03  0.41800000000E+01 0.  1.
         -5    1    1    2    0  502  0.33429599783E+02  0.48847284203E+01  0.31761453495E+02  0.46558146886E+02  0.41800000000E+01 0.  1.
        -11    1    1    2    0    0  0.22130535412E+02  0.49460935529E+02  0.35265543508E+02  0.64651398283E+02  0.00000000000E+00 0.  1.
         11    1    1    2    0    0  0.54083899777E+02 -0.37836588764E+02  0.50413501113E+02  0.83055383684E+02  0.00000000000E+00 0. -1.
</event>
<event>
 6    1  0.8989754E-006  0.8074411E+02  0.7561462E-02  0.1326953E+00
         -2   -1    0    0    0  501 -0.00000000000E+00  0.00000000000E+00  0.93647230191E+02  0.93647230191E+02  0.00000000000E+00 0.  1.
          2   -1    0    0  501    0  0.00000000000E+00 -0.00000000000E+00 -0.12706152319E+03  0.12706152319E+03  0.00000000000E+00 0. -1.
          5    1    1    2  502    0 -0.76211509607E+01  0.47821839129E+02 -0.50761004106E+02  0.70279173142E+02  0.41800000000E+01 0.  1.
         -5    1    1    2    0  502  0.12445084285E+02 -0.44572427331E+02  0.31897071436E+02  0.56360242789E+02  0.41800000000E+01 0.  1.
        -11    1    1    2    0    0 -0.21438543798E+02 -0.28822165260E+02  0.25265327921E+02  0.43916570511E+02  0.00000000000E+00 0.  1.
         11    1    1    2    0    0  0.16614610474E+02  0.25572753463E+02 -0.39815688253E+02  0.50152766942E+02  0.00000000000E+00 0. -1.
</event>
<event>
 6    1  0.8989754E-006  0.1269476E+03  0.7561462E-02  0.1232057E+00
          1   -1    0    0  501    0  0.00000000000E+00  0.00000000000E+00  0.10621359225E+03  0.10621359225E+03  0.00000000000E+00 0. -1.
         -1   -1    0    0    0  501 -0.00000000000E+00 -0.00000000000E+00 -0.22151702760E+03  0.22151702760E+03  0.00000000000E+00 0.  1.
          5    1    1    2  502    0 -0.10348765894E+03  0.91037107390E+00 -0.17839830638E+02  0.10510117167E+03  0.41800000000E+01 0.  1.
         -5    1    1    2    0  502  0.71336479733E+01  0.52425067845E+01 -0.80317837021E+02  0.80912299155E+02  0.41800000000E+01 0.  1.
        -11    1    1    2    0    0  0.36590962921E+02 -0.53131117934E+02 -0.46443025578E+01  0.64679083224E+02  0.00000000000E+00 0.  1.
         11    1    1    2    0    0  0.59763048045E+02  0.46978240076E+02 -0.12501465133E+02  0.77038065803E+02  0.00000000000E+00 0. -1.
</event>
<event>
 6    1  0.8989754E-006  0.1180870E+03  0.7561462E-02  0.1246287E+00
          1   -1    0    0  501    0  0.00000000000E+00  0.00000000000E+00  0.52665560233E+03  0.52665560233E+03  0.00000000000E+00 0. -1.
         -1   -1    0    0    0  501 -0.00000000000E+00 -0.00000000000E+00 -0.33028554642E+02  0.33028554642E+02  0.00000000000E+00 0.  1.
          5    1    1    2  502    0 -0.68083481562E+02  0.30040773484E+01  0.13887604545E+03  0.15475274906E+03  0.41800000000E+01 0.  1.
         -5    1    1    2    0  502  0.31179910457E+02 -0.54743007144E+02  0.50005185293E+02  0.80541756894E+02  0.41800000000E+01 0.  1.
        -11    1    1    2    0    0  0.31604560222E+02 -0.16951309157E+02  0.57876634242E+02  0.68087443043E+02  0.00000000000E+00 0.  1.
         11    1    1    2    0    0  0.52990108835E+01  0.68690238953E+02  0.24686918270E+03  0.25630220797E+03  0.00000000000E+00 0. -1.
</event>
<event>
 6    1  0.8989754E-006  0.1181193E+03  0.7561462E-02  0.1246232E+00
         -4   -1    0    0    0  501 -0.00000000000E+00  0.00000000000E+00  0.36860677282E+02  0.36860677282E+02  0.00000000000E+00 0. -1.
          4   -1    0    0  501    0  0.00000000000E+00 -0.00000000000E+00 -0.53596933741E+03  0.53596933741E+03  0.00000000000E+00 0.  1.
          5    1    1    2  502    0  0.87135944540E+02 -0.43855315905E+02 -0.80855403810E+02  0.12677156735E+03  0.41800000000E+01 0. -1.
         -5    1    1    2    0  502 -0.11554948770E+02  0.66797847805E+01 -0.13978266134E+03  0.14048060783E+03  0.41800000000E+01 0. -1.
        -11    1    1    2    0    0 -0.97245848805E+02  0.31443494749E+02 -0.24303786541E+03  0.26365290154E+03  0.00000000000E+00 0.  1.
         11    1    1    2    0    0  0.21664853035E+02  0.57320363757E+01 -0.35432729566E+02  0.41924937955E+02  0.00000000000E+00 0. -1.
</event>
<event>
 6    1  0.8989754E-006  0.1194576E+03  0.7561462E-02  0.1243995E+00
         -1   -1    0    0    0  501 -0.00000000000E+00  0.00000000000E+00  0.51733959522E+02  0.51733959522E+02  0.00000000000E+00 0.  1.
          1   -1    0    0  501    0  0.00000000000E+00 -0.00000000000E+00 -0.35225703843E+03  0.35225703843E+03  0.00000000000E+00 0. -1.
          5    1    1    2  502    0  0.91756136914E+02  0.31953197488E+02 -0.18480884216E+03  0.20883480560E+03  0.41800000000E+01 0.  1.
         -5    1    1    2    0  502 -0.12959462544E+02 -0.21699582764E+02  0.29232383418E+01  0.25784438795E+02  0.41800000000E+01 0.  1.
        -11    1    1    2    0    0  0.80252871810E+01  0.22007027605E+02 -0.46158680209E+02  0.51762324687E+02  0.00000000000E+00 0.  1.
         11    1    1    2    0    0 -0.86821961552E+02 -0.32260642329E+02 -0.72478794887E+02  0.11760942887E+03  0.00000000000E+00 0. -1.
</event>
<event>
 6    1  0.8989754E-006  0.7171184E+02  0.7561462E-02  0.1354367E+00
          2   -1    0    0  501    0  0.00000000000E+00  0.00000000000E+00  0.25997839652E+03  0.25997839652E+03  0.00000000000E+00 0.  1.
         -2   -1    0    0    0  501 -0.00000000000E+00 -0.00000000000E+00 -0.47395193178E+02  0.47395193178E+02  0.00000000000E+00 0. -1.
          5    1    1    2  502    0  0.12811586570E+02  0.98154496480E+01  0.13273806501E+03  0.13378096316E+03  0.41800000000E+01 0.  1.
         -5    1    1    2    0  502 -0.14132369979E+02 -0.30601987053E+02 -0.16928482208E+02  0.37950644299E+02  0.41800000000E+01 0.  1.
        -11    1    1    2    0    0 -0.19935757858E+02 -0.30971503355E+02  0.53283639227E+02  0.64775108419E+02  0.00000000000E+00 0.  1.
         11    1    1    2    0    0  0.21256541268E+02  0.51758040761E+02  0.43489981318E+02  0.70866873820E+02  0.00000000000E+00 0. -1.
</event>
<event>
 6    1  0.8989754E-006  0.7695442E+02  0.7561462E-02  0.1337923E+00
          2   -1    0    0  501    0  0.00000000000E+00  0.00000000000E+00  0.21095264523E+03  0.21095264523E+03  0.00000000000E+00 0. -1.
         -2   -1    0    0    0  501 -0.00000000000E+00 -0.00000000000E+00 -0.61633904589E+02  0.61633904589E+02  0.00000000000E+00 0.  1.
          5    1    1    2  502    0 -0.26186014614E+02 -0.62755149162E+01  0.88338442998E+02  0.92445888823E+02  0.41800000000E+01 0. -1.
         -5    1    1    2    0  502  0.27019290885E+02 -0.15221753579E+02 -0.33476928781E+02  0.45824895227E+02  0.41800000000E+01 0. -1.
        -11    1    1    2    0    0  0.39364947058E+02  0.35290163160E+02  0.55761126177E+02  0.76839429106E+02  0.00000000000E+00 0. -1.
         11    1    1    2    0    0 -0.40198223329E+02 -0.13792894665E+02  0.38696100250E+02  0.57476336667E+02  0.00000000000E+00 0.  1.
</event>
<event>
 6    1  0.8989754E-006  0.1904692E+03  0.7561462E-02  0.1158039E+00
          2   -1    0    0  501    0  0.00000000000E+00  0.00000000000E+00  0.58968374065E+02  0.58968374065E+02  0.00000000000E+00 0. -1.
         -2   -1    0    0    0  501 -0.00000000000E+00 -0.00000000000E+00 -0.83167648213E+03  0.83167648213E+03  0.00000000000E+00 0.  1.
          5    1    1    2  502    0  0.79593772664E+02 -0.11128502734E+03 -0.20833223197E+03  0.24927759072E+03  0.41800000000E+01 0. -1.
         -5    1    1    2    0  502  0.86319498312E+00 -0.53898992612E+02 -0.31034302510E+03  0.31501763782E+03  0.41800000000E+01 0. -1.
        -11    1    1    2    0    0  0.23226227045E+01  0.39030804854E+02 -0.11390857250E+03  0.12043239262E+03  0.00000000000E+00 0.  1.
         11    1    1    2    0    0 -0.82779590352E+02  0.12615321510E+03 -0.14012427850E+03  0.20591723504E+03  0.00000000000E+00 0. -1.
</event>
<event>
 6    1  0.8989754E-006  0.1268250E+03  0.7561462E-02  0.1232244E+00
          1   -1    0    0  501    0  0.00000000000E+00  0.00000000000E+00  0.38877528715E+03  0.38877528715E+03  0.00000000000E+00 0. -1.
         -1   -1    0    0    0  501 -0.00000000000E+00 -0.00000000000E+00 -0.49134851206E+02  0.49134851206E+02  0.00000000000E+00 0.  1.
          5    1    1    2  502    0 -0.84489525106E+02  0.37188183041E+02  0.14637255211E+03  0.17310065633E+03  0.41800000000E+01 0. -1.
         -5    1    1    2    0  502  0.81393856550E+00 -0.49831999387E+02  0.27015691450E+02  0.56843738823E+02  0.41800000000E+01 0. -1.
        -11    1    1    2    0    0 -0.81981029689E+01  0.17398705038E+02  0.78524268556E+02  0.80845436368E+02  0.00000000000E+00 0. -1.
         11    1    1    2    0    0  0.91873689510E+02 -0.47548886924E+01  0.87727923827E+02  0.12712030683E+03  0.00000000000E+00 0.  1.
</event>
<event>
 6    1  0.8989754E-006  0.1036650E+03  0.7561462E-02  0.1272772E+00
          1   -1    0    0  501    0  0.00000000000E+00  0.00000000000E+00  0.47918362643E+03  0.47918362643E+03  0.00000000000E+00 0. -1.
         -1   -1    0    0    0  501 -0.00000000000E+00 -0.00000000000E+00 -0.41874560549E+02  0.41874560549E+02  0.00000000000E+00 0.  1.
          5    1    1    2  502    0  0.69798490398E+02 -0.68832010660E+02  0.15641970505E+03  0.18464634164E+03  0.41800000000E+01 0.  1.
         -5    1    1    2    0  502 -0.61077831991E+01  0.28070621910E+02  0.17757033203E+03  0.17992765226E+03  0.41800000000E+01 0.  1.
        -11    1    1    2    0    0 -0.19236943368E+02  0.27929443538E+02  0.10484183977E+03  0.11019040418E+03  0.00000000000E+00 0. -1.
         11    1    1    2    0    0 -0.44453763831E+02  0.12831945211E+02 -0.15228109805E+01  0.46293788891E+02  0.00000000000E+00 0.  1.
</event>
<event>
 6    1  0.8989754E-006  0.1227957E+03  0.7561462E-02  0.1238555E+00
         -2   -1    0    0    0  501 -0.00000000000E+00  0.00000000000E+00  0.27001033224E+03  0.27001033224E+03  0.00000000000E+00 0.  1.
          2   -1    0    0  501    0  0.00000000000E+00 -0.00000000000E+00 -0.14691775213E+03  0.14691775213E+03  0.00000000000E+00 0. -1.
          5    1    1    2  502    0  0.29909898296E+02 -0.59357332345E+02  0.17777674187E+03  0.18984187438E+03  0.41800000000E+01 0.  1.
         -5    1    1    2    0  502 -0.59970534453E+02 -0.97131773860E+01  0.41841268215E+02  0.73884876283E+02  0.41800000000E+01 0.  1.
        -11    1    1    2    0    0  0.62911142523E+02  0.46792684158E+02 -0.55102759376E+02  0.95831525268E+02  0.00000000000E+00 0. -1.
         11    1    1    2    0    0 -0.32850506365E+02  0.22277825573E+02 -0.41422670601E+02  0.57369808440E+02  0.00000000000E+00 0.  1.
</event>
<event>
 6    1  0.8989754E-006  0.1156842E+03  0.7561462E-02  0.1250391E+00
         -1   -1    0    0    0  501 -0.00000000000E+00  0.00000000000E+00  0.10401868918E+03  0.10401868918E+03  0.00000000000E+00 0.  1.
          1   -1    0    0  501    0  0.00000000000E+00 -0.00000000000E+00 -0.17517534319E+03  0.17517534319E+03  0.00000000000E+00 0. -1.
          5    1    1    2  502    0 -0.58511371501E+02  0.83832811773E+02  0.11859256974E+01  0.10232497127E+03  0.41800000000E+01 0.  1.
         -5    1    1    2    0  502  0.39035996774E+02 -0.14429103788E+02 -0.46857276478E+01  0.42088436938E+02  0.41800000000E+01 0.  1.
        -11    1    1    2    0    0 -0.14988162655E+02 -0.36993083562E+02  0.12394817217E+02  0.41794314746E+02  0.00000000000E+00 0.  1.
         11    1    1    2    0    0  0.34463537381E+02 -0.32410624424E+02 -0.80051669277E+02  0.92986309414E+02  0.00000000000E+00 0. -1.
</event>
<event>
 6    1  0.8989754E-006  0.1376415E+03  0.7561462E-02  0.1216538E+00
          2   -1    0    0  501    0  0.00000000000E+00  0.00000000000E+00  0.27076936211E+03  0.27076936211E+03  0.00000000000E+00 0.  1.
         -2   -1    0    0    0  501 -0.00000000000E+00 -0.00000000000E+00 -0.70425389113E+02  0.70425389113E+02  0.00000000000E+00 0. -1.
          5    1    1    2  502    0  0.19807026090E+02  0.83489062442E+02  0.61870877600E+02  0.10586887987E+03  0.41800000000E+01 0. -1.
         -5    1    1    2    0  502  0.53599992474E+02 -0.37999464887E+02  0.38123382528E+02  0.76077481689E+02  0.41800000000E+01 0. -1.
        -11    1    1    2    0    0 -0.65849062324E+02 -0.71057218786E+02  0.81453754268E+02  0.12656990730E+03  0.00000000000E+00 0.  1.
         11    1    1    2    0    0 -0.75579562394E+01  0.25567621231E+02  0.18895958604E+02  0.32678482362E+02  0.00000000000E+00 0. -1.
</event>
<event>
 6    1  0.8989754E-006  0.9964932E+02  0.7561462E-02  0.1281035E+00
         -2   -1    0    0    0  501 -0.00000000000E+00  0.00000000000E+00  0.50362311740E+02  0.50362311740E+02  0.00000000000E+00 0.  1.
          2   -1    0    0  501    0  0.00000000000E+00 -0.00000000000E+00 -0.27866493977E+03  0.27866493977E+03  0.00000000000E+00 0. -1.
          5    1    1    2  502    0  0.86205978329E+01  0.56518125982E+02 -0.98498315183E+02  0.11396492340E+03  0.41800000000E+01 0.  1.
         -5    1    1    2    0  502 -0.44034577845E+02 -0.30357127157E+02 -0.42936570840E+01  0.53819207597E+02  0.41800000000E+01 0.  1.
        -11    1    1    2    0    0  0.59319716650E+02 -0.11935827708E+02 -0.43168812954E+02  0.74329261925E+02  0.00000000000E+00 0.  1.
         11    1    1    2    0    0 -0.23905736637E+02 -0.14225171117E+02 -0.82341842810E+02  0.86913858589E+02  0.00000000000E+00 0. -1.
</event>
<event>
 6    1  0.8989754E-006  0.1465996E+03  0.7561462E-02  0.1204715E+00
         -2   -1    0    0    0  501 -0.00000000000E+00  0.00000000000E+00  0.30715485773E+03  0.30715485773E+03  0.00000000000E+00 0.  1.
          2   -1    0    0  501    0  0.00000000000E+00 -0.00000000000E+00 -0.74077068991E+02  0.74077068991E+02  0.00000000000E+00 0. -1.
          5    1    1    2  502    0  0.68933059031E+02 -0.58000929411E+02  0.89296561795E+02  0.12691423399E+03  0.41800000000E+01 0.  1.
         -5    1    1    2    0  502 -0.55828663572E+02 -0.44325254304E+02  0.54926576011E+02  0.90088672971E+02  0.41800000000E+01 0.  1.
        -11    1    1    2    0    0 -0.66071271930E+01 -0.13799330264E+02  0.30458266362E+02  0.34084918003E+02  0.00000000000E+00 0.  1.
         11    1    1    2    0    0 -0.64972682650E+01  0.11612551398E+03  0.58396384568E+02  0.13014410176E+03  0.00000000000E+00 0. -1.
</event>
<event>
 6    1  0.8989754E-006  0.1245532E+03  0.7561462E-02  0.1235769E+00
         -3   -1    0    0    0  501 -0.00000000000E+00  0.00000000000E+00  0.88980044261E+03  0.88980044261E+03  0.00000000000E+00 0.  1.
          3   -1    0    0  501    0  0.00000000000E+00 -0.00000000000E+00 -0.30360753112E+02  0.30360753112E+02  0.00000000000E+00 0. -1.
          5    1    1    2  502    0  0.28692662515E+02 -0.53033868854E+01  0.55345263780E+02  0.62705385874E+02  0.41800000000E+01 0. -1.
         -5    1    1    2    0  502 -0.10176905318E+03 -0.39233081017E+02  0.60955756824E+03  0.61925283708E+03  0.41800000000E+01 0. -1.
        -11    1    1    2    0    0  0.16224734501E+02 -0.19157156452E+02  0.12668526755E+03  0.12914873467E+03  0.00000000000E+00 0.  1.
         11    1    1    2    0    0  0.56851656165E+02  0.63693624354E+02  0.67851589932E+02  0.10905423810E+03  0.00000000000E+00 0. -1.
</event>
<event>
 6    1  0.8989754E-006  0.1113755E+03  0.7561462E-02  0.1258044E+00
         -1   -1    0    0    0  501 -0.00000000000E+00  0.00000000000E+00  0.85210391736E+02  0.85210391736E+02  0.00000000000E+00 0.  1.
          1   -1    0    0  501    0  0.00000000000E+00 -0.00000000000E+00 -0.18959839991E+03  0.18959839991E+03  0.00000000000E+00 0. -1.
          5    1    1    2  502    0 -0.48104708509E+01 -0.54104356719E+02  0.25127734019E+02  0.59994145237E+02  0.41800000000E+01 0.  1.
         -5    1    1    2    0  502 -0.50759711426E+02  0.28945474963E+02 -0.59284724704E+02  0.83345904567E+02  0.41800000000E+01 0.  1.
        -11    1    1    2    0    0  0.17278399223E+02  0.57205563139E+02 -0.48712637834E+02  0.77096955962E+02  0.00000000000E+00 0. -1.
         11    1    1    2    0    0  0.38291783054E+02 -0.32046681383E+02 -0.21518379658E+02  0.54371785884E+02  0.00000000000E+00 0.  1.
</event>
<event>
 6    1  0.8989754E-006  0.2713632E+03  0.7561462E-02  0.1100502E+00
          2   -1    0    0  501    0  0.00000000000E+00  0.00000000000E+00  0.14045414331E+04  0.14045414331E+04  0.00000000000E+00 0. -1.
         -2   -1    0    0    0  501 -0.00000000000E+00 -0.00000000000E+00 -0.73696812898E+02  0.73696812898E+02  0.00000000000E+00 0.  1.
          5    1    1    2  502    0  0.10259145919E+03  0.70176026229E+02  0.65789892874E+02  0.14069635589E+03  0.41800000000E+01 0.  1.
         -5    1    1    2    0  502  0.12144882374E+03  0.69772373065E+02  0.27212899222E+03  0.30608766985E+03  0.41800000000E+01 0.  1.
        -11    1    1    2    0    0 -0.16005714727E+03 -0.14235598544E+03  0.72483954928E+03  0.75582794946E+03  0.00000000000E+00 0. -1.
         11    1    1    2    0    0 -0.63983135663E+02  0.24075861493E+01  0.26808618587E+03  0.27562627083E+03  0.00000000000E+00 0.  1.
</event>
<event>
 6    1  0.8989754E-006  0.2472123E+03  0.7561462E-02  0.1115079E+00
          2   -1    0    0  501    0  0.00000000000E+00  0.00000000000E+00  0.99353480194E+03  0.99353480194E+03  0.00000000000E+00 0. -1.
         -2   -1    0    0    0  501 -0.00000000000E+00 -0.00000000000E+00 -0.71262280119E+02  0.71262280119E+02  0.00000000000E+00 0.  1.
          5    1    1    2  502    0 -0.18488765551E+03  0.10275915749E+03  0.38781058067E+03  0.44176623738E+03  0.41800000000E+01 0.  1.
         -5    1    1    2    0  502 -0.20696790277E+02  0.17726923036E+02 -0.30913409578E+01  0.27742201012E+02  0.41800000000E+01 0.  1.
        -11    1    1    2    0    0  0.14985154176E+03 -0.36065570270E+02  0.30697956512E+03  0.34350060164E+03  0.00000000000E+00 0.  1.
         11    1    1    2    0    0  0.55732904025E+02 -0.84420510255E+02  0.23057371698E+03  0.25178804202E+03  0.00000000000E+00 0. -1.
</event>
<event>
 6    1  0.8989754E-006  0.1163205E+03  0.7561462E-02  0.1249294E+00
         -2   -1    0    0    0  501 -0.00000000000E+00  0.00000000000E+00  0.10893171649E+04  0.10893171649E+04  0.00000000000E+00 0. -1.
          2   -1    0    0  501    0  0.00000000000E+00 -0.00000000000E+00 -0.18288186111E+02  0.18288186111E+02  0.00000000000E+00 0.  1.
          5    1    1    2  502    0  0.18451383181E+02 -0.27622765520E+02  0.51074204613E+03  0.51183823695E+03  0.41800000000E+01 0. -1.
         -5    1    1    2    0  502  0.34142923852E+02  0.67226940557E+02  0.22426863314E+03  0.23664127492E+03  0.41800000000E+01 0. -1.
        -11    1    1    2    0    0  0.30485525249E+02  0.23432552936E+01  0.12150578784E+03  0.12529371322E+03  0.00000000000E+00 0. -1.
         11    1    1    2    0    0 -0.83079832282E+02 -0.41947430331E+02  0.21451251166E+03  0.23383212590E+03  0.00000000000E+00 0.  1.
</event>
<event>
 6    1  0.8989754E-006  0.1187890E+03  0.7561462E-02  0.1245108E+00
          1   -1    0    0  501    0  0.00000000000E+00  0.00000000000E+00  0.16267661713E+03  0.16267661713E+03  0.00000000000E+00 0. -1.
         -1   -1    0    0    0  501 -0.00000000000E+00 -0.00000000000E+00 -0.11424467915E+03  0.11424467915E+03  0.00000000000E+00 0.  1.
          5    1    1    2  502    0  0.98025991073E+02 -0.65969229533E+01 -0.18477922348E+02  0.10005758508E+03  0.41800000000E+01 0.  1.
         -5    1    1    2    0  502 -0.39254879522E+02  0.50488064529E+01 -0.97341869164E+01  0.40971487742E+02  0.41800000000E+01 0.  1.
        -11    1    1    2    0    0 -0.78692547490E+02  0.63586248492E+01  0.29138546991E+02  0.84154643730E+02  0.00000000000E+00 0.  1.
         11    1    1    2    0    0  0.19921435940E+02 -0.48105083488E+01  0.47505500253E+02  0.51737579715E+02  0.00000000000E+00 0. -1.
</event>
<event>
 6    1  0.8989754E-006  0.8936865E+02  0.7561462E-02  0.1304388E+00
          1   -1    0    0  501    0  0.00000000000E+00  0.00000000000E+00  0.31659484858E+03  0.31659484858E+03  0.00000000000E+00 0. -1.
         -1   -1    0    0    0  501 -0.00000000000E+00 -0.00000000000E+00 -0.38955563164E+02  0.38955563164E+02  0.00000000000E+00 0.  1.
          5    1    1    2  502    0 -0.27498820029E+02 -0.16633912055E+02  0.12545837086E+03  0.12957680098E+03  0.41800000000E+01 0.  1.
         -5    1    1    2    0  502  0.39174284880E+02  0.39592840469E+02  0.10278313764E+02  0.56792021852E+02  0.41800000000E+01 0.  1.
        -11    1    1    2    0    0  0.81810514613E+00  0.33064441963E+02  0.67903862508E+02  0.75530531323E+02  0.00000000000E+00 0.  1.
         11    1    1    2    0    0 -0.12493569997E+02 -0.56023370378E+02  0.73998738282E+02  0.93651057587E+02  0.00000000000E+00 0. -1.
</event>
<event>
 6    1  0.8989754E-006  0.1057449E+03  0.7561462E-02  0.1268659E+00
         -1   -1    0    0    0  501 -0.00000000000E+00  0.00000000000E+00  0.45007831538E+02  0.45007831538E+02  0.00000000000E+00 0.  1.
          1   -1    0    0  501    0  0.00000000000E+00 -0.00000000000E+00 -0.26726800607E+03  0.26726800607E+03  0.00000000000E+00 0. -1.
          5    1    1    2  502    0  0.40364931439E+02  0.47678527848E+02 -0.56845776965E+02  0.84566450006E+02  0.41800000000E+01 0.  1.
         -5    1    1    2    0  502 -0.24274380907E+02 -0.58274568881E+02 -0.76686205811E+02  0.99415378632E+02  0.41800000000E+01 0.  1.
        -11    1    1    2    0    0 -0.26407920304E+02  0.43633204014E+02 -0.75771470107E+02  0.91337563080E+02  0.00000000000E+00 0. -1.
         11    1    1    2    0    0  0.10317369772E+02 -0.33037162980E+02 -0.12956721646E+02  0.36956445887E+02  0.00000000000E+00 0.  1.
</event>
<event>
 6    1  0.8989754E-006  0.1197529E+03  0.7561462E-02  0.1243505E+00
          2   -1    0    0  501    0  0.00000000000E+00  0.00000000000E+00  0.52706944462E+02  0.52706944462E+02  0.00000000000E+00 0. -1.
         -2   -1    0    0    0  501 -0.00000000000E+00 -0.00000000000E+00 -0.29550908162E+03  0.29550908162E+03  0.00000000000E+00 0.  1.
          5    1    1    2  502    0 -0.65733058413E+02  0.96921788420E+01 -0.56326151178E+02  0.87205968864E+02  0.41800000000E+01 0.  1.
         -5    1    1    2    0  502  0.34529999576E+02 -0.58987807538E+02 -0.10177858226E+03  0.12267124567E+03  0.41800000000E+01 0.  1.
        -11    1    1    2    0    0  0.12580617302E+02 -0.24930649060E+02 -0.42770022318E+02  0.51079193449E+02  0.00000000000E+00 0.  1.
         11    1    1    2    0    0  0.18622441536E+02  0.74226277756E+02 -0.41927381400E+02  0.87259618091E+02  0.00000000000E+00 0. -1.
</event>
<event>
 6    1  0.8989754E-006  0.9850772E+02  0.7561462E-02  0.1283466E+00
         -2   -1    0    0    0  501 -0.00000000000E+00  0.00000000000E+00  0.27107596173E+03  0.27107596173E+03  0.00000000000E+00 0. -1.
          2   -1    0    0  501    0  0.00000000000E+00 -0.00000000000E+00 -0.11019267688E+03  0.11019267688E+03  0.00000000000E+00 0.  1.
          5    1    1    2  502    0  0.64530088208E+01  0.15236947058E+02 -0.14622257312E+02  0.22474178236E+02  0.41800000000E+01 0. -1.
         -5    1    1    2    0  502  0.60258091649E+02  0.17358400886E+02  0.22276814133E+03  0.23146375284E+03  0.41800000000E+01 0. -1.
        -11    1    1    2    0    0 -0.81581169856E+02 -0.48835804595E+02 -0.45008158911E+02  0.10519580531E+03  0.00000000000E+00 0.  1.
         11    1    1    2    0    0  0.14870069386E+02  0.16240456650E+02 -0.22544402601E+01  0.22134902228E+02  0.00000000000E+00 0. -1.
</event>
<event>
 6    1  0.8989754E-006  0.1060795E+03  0.7561462E-02  0.1268007E+00
         -2   -1    0    0    0  501 -0.00000000000E+00  0.00000000000E+00  0.11125105390E+03  0.11125105390E+03  0.00000000000E+00 0.  1.
          2   -1    0    0  501    0  0.00000000000E+00 -0.00000000000E+00 -0.13547916736E+03  0.13547916736E+03  0.00000000000E+00 0. -1.
          5    1    1    2  502    0  0.16989076071E+02 -0.72034693729E+02 -0.31416699464E+01  0.74195473557E+02  0.41800000000E+01 0. -1.
         -5    1    1    2    0  502  0.43548526178E+02  0.37857272958E+02 -0.53850234940E+01  0.58104372694E+02  0.41800000000E+01 0.  1.
        -11    1    1    2    0    0 -0.29081258933E+02 -0.54432368468E+01 -0.46565127850E+02  0.55169371758E+02  0.00000000000E+00 0. -1.
         11    1    1    2    0    0 -0.31456343316E+02  0.39620657617E+02  0.30863707835E+02  0.59261003250E+02  0.00000000000E+00 0.  1.
</event>
<event>
 6    1  0.8989754E-006  0.9215570E+02  0.7561462E-02  0.1297714E+00
         -2   -1    0    0    0  501 -0.00000000000E+00  0.00000000000E+00  0.22687792907E+02  0.22687792907E+02  0.00000000000E+00 0. -1.
          2   -1    0    0  501    0  0.00000000000E+00 -0.00000000000E+00 -0.53167724636E+03  0.53167724636E+03  0.00000000000E+00 0.  1.
          5    1    1    2  502    0 -0.39725149760E+02 -0.11401721710E+02 -0.31919201142E+02  0.52386969592E+02  0.41800000000E+01 0.  1.
         -5    1    1    2    0  502  0.58468649863E+02  0.21690184663E+02 -0.23493315382E+03  0.24310513423E+03  0.41800000000E+01 0.  1.
        -11    1    1    2    0    0 -0.46533927987E+02 -0.20247895485E+02 -0.85081037350E+02  0.99066475873E+02  0.00000000000E+00 0. -1.
         11    1    1    2    0    0  0.27790427885E+02  0.99594325316E+01 -0.15705606114E+03  0.15980645957E+03  0.00000000000E+00 0.  1.
</event>
<event>
 6    1  0.8989754E-006  0.1297659E+03  0.7561462E-02  0.1227803E+00
         -4   -1    0    0    0  501 -0.00000000000E+00  0.00000000000E+00  0.52111960329E+03  0.52111960329E+03  0.00000000000E+00 0.  1.
          4   -1    0    0  501    0  0.00000000000E+00 -0.00000000000E+00 -0.44206851334E+02  0.44206851334E+02  0.00000000000E+00 0. -1.
          5    1    1    2  502    0 -0.92641854476E+02  0.52065275526E+02  0.24075040133E+03  0.26319485986E+03  0.41800000000E+01 0.  1.
         -5    1    1    2    0  502  0.86078436176E+01  0.11036746884E+02 -0.11303689561E+02  0.18470261266E+02  0.41800000000E+01 0.  1.
        -11    1    1    2    0    0  0.24449941371E+02  0.23196245686E+02  0.64380326393E+02  0.72668369139E+02  0.00000000000E+00 0. -1.
         11    1    1    2    0    0  0.59584069488E+02 -0.86298268096E+02  0.18308571380E+03  0.21099296436E+03  0.00000000000E+00 0.  1.
</event>
<event>
 6    1  0.8989754E-006  0.1083918E+03  0.7561462E-02  0.1263577E+00
          2   -1    0    0  501    0  0.00000000000E+00  0.00000000000E+00  0.80479418508E+02  0.80479418508E+02  0.00000000000E+00 0. -1.
         -2   -1    0    0    0  501 -0.00000000000E+00 -0.00000000000E+00 -0.18414615516E+03  0.18414615516E+03  0.00000000000E+00 0.  1.
          5    1    1    2  502    0 -0.20311513866E+01  0.82314702576E+02 -0.16400378426E+02  0.84061172063E+02  0.41800000000E+01 0.  1.
         -5    1    1    2    0  502 -0.28292119055E+02 -0.36055120637E+02 -0.50107992055E+02  0.68034542643E+02  0.41800000000E+01 0.  1.
        -11    1    1    2    0    0  0.48688804245E+02 -0.13114421313E+02 -0.51442171372E+02  0.72033913545E+02  0.00000000000E+00 0.  1.
         11    1    1    2    0    0 -0.18365533804E+02 -0.33145160625E+02  0.14283805197E+02  0.40495945422E+02  0.00000000000E+00 0. -1.
</event>
<event>
 6    1  0.8989754E-006  0.1053165E+03  0.7561462E-02  0.1269497E+00
         -4   -1    0    0    0  501 -0.00000000000E+00  0.00000000000E+00  0.45675818525E+02  0.45675818525E+02  0.00000000000E+00 0.  1.
          4   -1    0    0  501    0  0.00000000000E+00 -0.00000000000E+00 -0.36468032364E+03  0.36468032364E+03  0.00000000000E+00 0. -1.
          5    1    1    2  502    0 -0.41537415141E+02 -0.21569201924E+02 -0.49833009119E+02  0.68493711581E+02  0.41800000000E+01 0.  1.
         -5    1    1    2    0  502  0.69574933218E+02  0.27939743714E+02 -0.20577781297E+02  0.77860247201E+02  0.41800000000E+01 0.  1.
        -11    1    1    2    0    0  0.26019411614E+02 -0.19982048822E+02 -0.81498145294E+02  0.87853512976E+02  0.00000000000E+00 0. -1.
         11    1    1    2    0    0 -0.54056929691E+02  0.13611507032E+02 -0.16709556941E+03  0.17614867041E+03  0.00000000000E+00 0.  1.
</event>
<event>
 6    1  0.8989754E-006  0.1231875E+03  0.7561462E-02  0.1237929E+00
          2   -1    0    0  501    0  0.00000000000E+00  0.00000000000E+00  0.19279925037E+03  0.19279925037E+03  0.00000000000E+00 0. -1.
         -2   -1    0    0    0  501 -0.00000000000E+00 -0.00000000000E+00 -0.10176641540E+03  0.10176641540E+03  0.00000000000E+00 0.  1.
          5    1    1    2  502    0 -0.30617922282E+02 -0.51580008314E+02 -0.28480800344E+02  0.66532569548E+02  0.41800000000E+01 0.  1.
         -5    1    1    2    0  502  0.63823025355E+02 -0.25972428031E+02  0.51427745053E+02  0.86082698287E+02  0.41800000000E+01 0.  1.
        -11    1    1    2    0    0 -0.45129360334E+02  0.89562717448E+02  0.73321844702E+02  0.12423458629E+03  0.00000000000E+00 0. -1.
         11    1    1    2    0    0  0.11924257261E+02 -0.12010281103E+02 -0.52359544433E+01  0.17715811648E+02  0.00000000000E+00 0.  1.
</event>
<event>
 6    1  0.8989754E-006  0.2188847E+03  0.7561462E-02  0.1134717E+00
          1   -1    0    0  501    0  0.00000000000E+00  0.00000000000E+00  0.14099270180E+04  0.14099270180E+04  0.00000000000E+00 0. -1.
         -1   -1    0    0    0  501 -0.00000000000E+00 -0.00000000000E+00 -0.37431712800E+02  0.37431712800E+02  0.00000000000E+00 0.  1.
          5    1    1    2  502    0 -0.18389481034E+03 -0.97038956032E+02  0.48587795320E+03  0.52851557978E+03  0.41800000000E+01 0.  1.
         -5    1    1    2    0  502  0.88653223013E+01 -0.71224285106E+00  0.14223908563E+03  0.14257815790E+03  0.41800000000E+01 0.  1.
        -11    1    1    2    0    0  0.23138884946E+02 -0.17743843532E+02  0.87251223831E+02  0.91994717456E+02  0.00000000000E+00 0.  1.
         11    1    1    2    0    0  0.15189060309E+03  0.11549504242E+03  0.65712704250E+03  0.68427027563E+03  0.00000000000E+00 0. -1.
</event>
<event>
 6    1  0.8989754E-006  0.2085937E+03  0.7561462E-02  0.1142685E+00
          1   -1    0    0  501    0  0.00000000000E+00  0.00000000000E+00  0.59427452542E+03  0.59427452542E+03  0.00000000000E+00 0. -1.
         -1   -1    0    0    0  501 -0.00000000000E+00 -0.00000000000E+00 -0.77638783863E+02  0.77638783863E+02  0.00000000000E+00 0.  1.
          5    1    1    2  502    0 -0.10693439797E+03 -0.10473968501E+03  0.18794058893E+03  0.24030086236E+03  0.41800000000E+01 0. -1.
         -5    1    1    2    0  502  0.25843654922E+02 -0.59053669972E+02  0.33000526132E+02  0.72537835382E+02  0.41800000000E+01 0. -1.
        -11    1    1    2    0    0  0.19565631698E+02  0.13228553582E+03  0.17885510249E+03  0.22331910939E+03  0.00000000000E+00 0.  1.
         11    1    1    2    0    0  0.61525111348E+02  0.31507819167E+02  0.11683952401E+03  0.13575550215E+03  0.00000000000E+00 0. -1.
</event>
<event>
 6    1  0.8989754E-006  0.2470432E+03  0.7561462E-02  0.1115188E+00
         -1   -1    0    0    0  501 -0.00000000000E+00  0.00000000000E+00  0.45561599165E+02  0.45561599165E+02  0.00000000000E+00 0.  1.
          1   -1    0    0  501    0  0.00000000000E+00 -0.00000000000E+00 -0.15103166675E+04  0.15103166675E+04  0.00000000000E+00 0. -1.
          5    1    1    2  502    0  0.17906571157E+03  0.14352706537E+03 -0.49062150233E+03  0.54165623647E+03  0.41800000000E+01 0. -1.
         -5    1    1    2    0  502  0.20714709773E+02 -0.23022718378E+02 -0.11753545478E+03  0.12161907865E+03  0.41800000000E+01 0. -1.
        -11    1    1    2    0    0 -0.95391654615E+02 -0.57623518437E+02 -0.24750423202E+03  0.27143762177E+03  0.00000000000E+00 0.  1.
         11    1    1    2    0    0 -0.10438876673E+03 -0.62880828557E+02 -0.60909387923E+03  0.62116532979E+03  0.00000000000E+00 0. -1.
</event>
<event>
 6    1  0.8989754E-006  0.4122399E+03  0.7561462E-02  0.1039622E+00
         -4   -1    0    0    0  501 -0.00000000000E+00  0.00000000000E+00  0.10503266810E+04  0.10503266810E+04  0.00000000000E+00 0.  1.
          4   -1    0    0  501    0  0.00000000000E+00 -0.00000000000E+00 -0.17720291234E+03  0.17720291234E+03  0.00000000000E+00 0. -1.
          5    1    1    2  502    0  0.26008940841E+03 -0.13596991102E+03  0.33746247404E+03  0.44725016585E+03  0.41800000000E+01 0.  1.
         -5    1    1    2    0  502  0.12091031339E+03 -0.19019913318E+01  0.24468732522E+03  0.27296937737E+03  0.41800000000E+01 0.  1.
        -11    1    1    2    0    0 -0.30529724129E+03  0.13605570550E+03  0.20226903343E+03  0.39067930892E+03  0.00000000000E+00 0.  1.
         11    1    1    2    0    0 -0.75702480514E+02  0.18161968541E+01  0.88704935967E+02  0.11663074120E+03  0.00000000000E+00 0. -1.
</event>
<event>
 6    1  0.8989754E-006  0.1808667E+03  0.7561462E-02  0.1166967E+00
         -3   -1    0    0    0  501 -0.00000000000E+00  0.00000000000E+00  0.37961253712E+03  0.37961253712E+03  0.00000000000E+00 0.  1.
          3   -1    0    0  501    0  0.00000000000E+00 -0.00000000000E+00 -0.13299384918E+03  0.13299384918E+03  0.00000000000E+00 0. -1.
          5    1    1    2  502    0 -0.17364830724E+03  0.37225977306E+01  0.23759449410E+03  0.29434029348E+03  0.41800000000E+01 0.  1.
         -5    1    1    2    0  502  0.17519737977E+02  0.17340775677E+02  0.17421715533E+02  0.30473468657E+02  0.41800000000E+01 0.  1.
        -11    1    1    2    0    0  0.79172964964E+02 -0.31743212445E+02 -0.50801089322E+02  0.99281119020E+02  0.00000000000E+00 0. -1.
         11    1    1    2    0    0  0.76955604295E+02  0.10679839038E+02  0.42403567631E+02  0.88511505140E+02  0.00000000000E+00 0.  1.
</event>
<event>
 6    1  0.1338038E-005  0.3387551E+03  0.7561462E-02  0.1067327E+00
          1   -1    0    0  501    0  0.00000000000E+00  0.00000000000E+00  0.74407962993E+03  0.74407962993E+03  0.00000000000E+00 0. -1.
         -1   -1    0    0    0  501 -0.00000000000E+00 -0.00000000000E+00 -0.15698840256E+03  0.15698840256E+03  0.00000000000E+00 0.  1.
          5    1    1    2  502    0 -0.99160364636E+02 -0.24783016389E+01  0.53538918242E+02  0.11279542571E+03  0.41800000000E+01 0.  1.
         -5    1    1    2    0  502 -0.17581410119E+03  0.16959524865E+03  0.19501333276E+03  0.31260329316E+03  0.41800000000E+01 0.  1.
        -11    1    1    2    0    0  0.16412029581E+03 -0.47559363540E+02  0.16440537239E+03  0.23712125806E+03  0.00000000000E+00 0. -1.
         11    1    1    2    0    0  0.11085417001E+03 -0.11955758348E+03  0.17413360398E+03  0.23854805556E+03  0.00000000000E+00 0.  1.
</event>
<event>
 6    1  0.8989754E-006  0.1045188E+03  0.7561462E-02  0.1271071E+00
         -1   -1    0    0    0  501 -0.00000000000E+00  0.00000000000E+00  0.75908411288E+02  0.75908411288E+02  0.00000000000E+00 0.  1.
          1   -1    0    0  501    0  0.00000000000E+00 -0.00000000000E+00 -0.18507356884E+03  0.18507356884E+03  0.00000000000E+00 0. -1.
          5    1    1    2  502    0  0.11611588508E+02  0.56315533071E+02 -0.77950639746E+01  0.58176487305E+02  0.41800000000E+01 0. -1.
         -5    1    1    2    0  502 -0.57130422724E+02 -0.47254521509E+02 -0.33795252629E+02  0.81587171197E+02  0.41800000000E+01 0. -1.
        -11    1    1    2    0    0  0.54054552436E+02  0.11145480752E+02 -0.79090520914E+02  0.96443905348E+02  0.00000000000E+00 0. -1.
         11    1    1    2    0    0 -0.85357182197E+01 -0.20206492315E+02  0.11515679961E+02  0.24774416283E+02  0.00000000000E+00 0.  1.
</event>
<event>
 6    1  0.8989754E-006  0.1217091E+03  0.7561462E-02  0.1240304E+00
         -1   -1    0    0    0  501 -0.00000000000E+00  0.00000000000E+00  0.13563742355E+03  0.13563742355E+03  0.00000000000E+00 0.  1.
          1   -1    0    0  501    0  0.00000000000E+00 -0.00000000000E+00 -0.12422601510E+03  0.12422601510E+03  0.00000000000E+00 0. -1.
          5    1    1    2  502    0  0.39391429541E+02 -0.88452785051E+02 -0.14622131507E+02  0.98014585825E+02  0.41800000000E+01 0.  1.
         -5    1    1    2    0  502  0.56857650352E+01  0.42970637352E+02 -0.95868509834E+01  0.44589053705E+02  0.41800000000E+01 0.  1.
        -11    1    1    2    0    0  0.23623788225E+02  0.12940576847E+02  0.31048515504E+02  0.41104162979E+02  0.00000000000E+00 0.  1.
         11    1    1    2    0    0 -0.68700982801E+02  0.32541570852E+02  0.45718754327E+01  0.76155636143E+02  0.00000000000E+00 0. -1.
</event>
<event>
 6    1  0.8989754E-006  0.2426399E+03  0.7561462E-02  0.1118047E+00
         -2   -1    0    0    0  501 -0.00000000000E+00  0.00000000000E+00  0.78258928901E+02  0.78258928901E+02  0.00000000000E+00 0.  1.
          2   -1    0    0  501    0  0.00000000000E+00 -0.00000000000E+00 -0.77450073761E+03  0.77450073761E+03  0.00000000000E+00 0. -1.
          5    1    1    2  502    0  0.44616586910E+02  0.21041773351E+03 -0.32017769695E+03  0.38574278014E+03  0.41800000000E+01 0. -1.
         -5    1    1    2    0  502  0.35245352565E+02 -0.66424933440E+01 -0.39973096581E+02  0.53867229793E+02  0.41800000000E+01 0. -1.
        -11    1    1    2    0    0 -0.63462515697E+02 -0.53894418679E+02 -0.77140411831E+02  0.11350216915E+03  0.00000000000E+00 0. -1.
         11    1    1    2    0    0 -0.16399423778E+02 -0.14988082149E+03 -0.25895060335E+03  0.29964748743E+03  0.00000000000E+00 0.  1.
</event>
<event>
 6    1  0.8989754E-006  0.1211612E+03  0.7561462E-02  0.1241194E+00
         -2   -1    0    0    0  501 -0.00000000000E+00  0.00000000000E+00  0.53302420307E+02  0.53302420307E+02  0.00000000000E+00 0.  1.
          2   -1    0    0  501    0  0.00000000000E+00 -0.00000000000E+00 -0.46955559120E+03  0.46955559120E+03  0.00000000000E+00 0. -1.
          5    1    1    2  502    0 -0.80649999741E+01  0.45589673013E+02 -0.26965838076E+02  0.53740965130E+02  0.41800000000E+01 0.  1.
         -5    1    1    2    0  502  0.77766646932E+02 -0.58095290096E+02 -0.47724531418E+02  0.10824886792E+03  0.41800000000E+01 0.  1.
        -11    1    1    2    0    0 -0.58266888472E+02  0.38799633800E+02 -0.31171799198E+03  0.31948168711E+03  0.00000000000E+00 0. -1.
         11    1    1    2    0    0 -0.11434758486E+02 -0.26294016717E+02 -0.29844809413E+02  0.41386491343E+02  0.00000000000E+00 0.  1.
</event>
<event>
 6    1  0.8989754E-006  0.6916851E+02  0.7561462E-02  0.1362944E+00
         -1   -1    0    0    0  501 -0.00000000000E+00  0.00000000000E+00  0.24909334591E+02  0.24909334591E+02  0.00000000000E+00 0.  1.
          1   -1    0    0  501    0  0.00000000000E+00 -0.00000000000E+00 -0.55576796156E+03  0.55576796156E+03  0.00000000000E+00 0. -1.
          5    1    1    2  502    0  0.20698671880E+02  0.44231574467E+02 -0.27851997664E+03  0.28279978251E+03  0.41800000000E+01 0.  1.
         -5    1    1    2    0  502  0.18530776474E+01 -0.83971210325E+01  0.11582386672E+02  0.15018975312E+02  0.41800000000E+01 0.  1.
        -11    1    1    2    0    0 -0.32032344717E+02 -0.51969228095E+02 -0.25485388869E+03  0.26206368760E+03  0.00000000000E+00 0. -1.
         11    1    1    2    0    0  0.94805951890E+01  0.16134774661E+02 -0.90671483035E+01  0.20794850729E+02  0.00000000000E+00 0.  1.
</event>
<event>
 6    1  0.8989754E-006  0.9317314E+02  0.7561462E-02  0.1295344E+00
          2   -1    0    0  501    0  0.00000000000E+00  0.00000000000E+00  0.35628655172E+02  0.35628655172E+02  0.00000000000E+00 0. -1.
         -2   -1    0    0    0  501 -0.00000000000E+00 -0.00000000000E+00 -0.69326543911E+03  0.69326543911E+03  0.00000000000E+00 0.  1.
          5    1    1    2  502    0 -0.26284888471E+02  0.47146880651E+02 -0.12833109229E+03  0.13928411742E+03  0.41800000000E+01 0. -1.
         -5    1    1    2    0  502  0.18213257881E+02 -0.36173635256E+02 -0.48649549155E+03  0.48819626212E+03  0.41800000000E+01 0.  1.
        -11    1    1    2    0    0  0.33125647048E+02 -0.40789157018E+02 -0.19631877932E+02  0.56093443946E+02  0.00000000000E+00 0. -1.
         11    1    1    2    0    0 -0.25054016457E+02  0.29815911624E+02 -0.23178322169E+02  0.45320270798E+02  0.00000000000E+00 0.  1.
</event>
<event>
 6    1  0.8989754E-006  0.1440278E+03  0.7561462E-02  0.1208010E+00
         -2   -1    0    0    0  501 -0.00000000000E+00  0.00000000000E+00  0.21116169383E+02  0.21116169383E+02  0.00000000000E+00 0.  1.
          2   -1    0    0  501    0  0.00000000000E+00 -0.00000000000E+00 -0.10785888602E+04  0.10785888602E+04  0.00000000000E+00 0. -1.
          5    1    1    2  502    0 -0.38196778888E+02 -0.77373885114E+02 -0.23500788437E+03  0.25038348614E+03  0.41800000000E+01 0.  1.
         -5    1    1    2    0  502 -0.55075199192E+02  0.42420830748E+02 -0.30229366723E+03  0.31021240803E+03  0.41800000000E+01 0.  1.
        -11    1    1    2    0    0  0.43108793041E+02 -0.28092683420E+02 -0.11472221430E+03  0.12573286505E+03  0.00000000000E+00 0. -1.
         11    1    1    2    0    0  0.50163185039E+02  0.63045737786E+02 -0.40544892488E+03  0.41337627033E+03  0.00000000000E+00 0.  1.
</event>
<event>
 6    1  0.8989754E-006  0.1271413E+03  0.7561462E-02  0.1231760E+00
         -2   -1    0    0    0  501 -0.00000000000E+00  0.00000000000E+00  0.47942220714E+02  0.47942220714E+02  0.00000000000E+00 0.  1.
          2   -1    0    0  501    0  0.00000000000E+00 -0.00000000000E+00 -0.54402666192E+03  0.54402666192E+03  0.00000000000E+00 0. -1.
          5    1    1    2  502    0  0.17376963462E+02  0.37921984830E+02 -0.77632617707E+02  0.88228858797E+02  0.41800000000E+01 0. -1.
         -5    1    1    2    0  502 -0.10524253473E+03  0.22436414695E+01 -0.59298770628E+02  0.12089185928E+03  0.41800000000E+01 0. -1.
        -11    1    1    2    0    0  0.42500882091E+02 -0.44382613500E+02 -0.84723339277E+02  0.10466224524E+03  0.00000000000E+00 0.  1.
         11    1    1    2    0    0  0.45364689173E+02  0.42169872008E+01 -0.27442971359E+03  0.27818591932E+03  0.00000000000E+00 0. -1.
</event>
<event>
 6    1  0.8989754E-006  0.1057253E+03  0.7561462E-02  0.1268697E+00
          1   -1    0    0  501    0  0.00000000000E+00  0.00000000000E+00  0.14255684537E+02  0.14255684537E+02  0.00000000000E+00 0. -1.
         -1   -1    0    0    0  501 -0.00000000000E+00 -0.00000000000E+00 -0.91795143067E+03  0.91795143067E+03  0.00000000000E+00 0.  1.
          5    1    1    2  502    0  0.46900337514E+02 -0.51820890094E+02 -0.44823143993E+03  0.45366721554E+03  0.41800000000E+01 0.  1.
         -5    1    1    2    0  502 -0.43551478750E+02  0.30913255082E+02 -0.21361655590E+03  0.22023139194E+03  0.41800000000E+01 0.  1.
        -11    1    1    2    0    0  0.14077076639E+02  0.51098876257E+02 -0.11274107290E+03  0.12457852447E+03  0.00000000000E+00 0.  1.
         11    1    1    2    0    0 -0.17425935403E+02 -0.30191241245E+02 -0.12910667740E+03  0.13372998326E+03  0.00000000000E+00 0. -1.
</event>
<event>
 6    1  0.8989754E-006  0.1460576E+03  0.7561462E-02  0.1205403E+00
         -1   -1    0    0    0  501 -0.00000000000E+00  0.00000000000E+00  0.23488883761E+03  0.23488883761E+03  0.00000000000E+00 0.  1.
          1   -1    0    0  501    0  0.00000000000E+00 -0.00000000000E+00 -0.41853519597E+03  0.41853519597E+03  0.00000000000E+00 0. -1.
          5    1    1    2  502    0  0.59785950415E+02 -0.58363427309E+02  0.62803257871E+02  0.10460578910E+03  0.41800000000E+01 0.  1.
         -5    1    1    2    0  502 -0.54062251224E+02 -0.46462930683E+02  0.12773611598E+03  0.14634042046E+03  0.41800000000E+01 0.  1.
        -11    1    1    2    0    0 -0.44675390742E+02  0.77558972853E+02 -0.16251704447E+03  0.18553456431E+03  0.00000000000E+00 0.  1.
         11    1    1    2    0    0  0.38951691551E+02  0.27267385139E+02 -0.21166868773E+03  0.21694325971E+03  0.00000000000E+00 0. -1.
</event>
<event>
 6    1  0.8989754E-006  0.1308085E+03  0.7561462E-02  0.1226261E+00
          1   -1    0    0  501    0  0.00000000000E+00  0.00000000000E+00  0.73532889038E+02  0.73532889038E+02  0.00000000000E+00 0. -1.
         -1   -1    0    0    0  501 -0.00000000000E+00 -0.00000000000E+00 -0.27311361360E+03  0.27311361360E+03  0.00000000000E+00 0.  1.
          5    1    1    2  502    0  0.43602426743E+02 -0.53402296121E+02 -0.62776847163E+02  0.93334783380E+02  0.41800000000E+01 0. -1.
         -5    1    1    2    0  502  0.42183177554E+02  0.72178861582E+02 -0.69585648331E+02  0.10885239263E+03  0.41800000000E+01 0. -1.
        -11    1    1    2    0    0 -0.50677357380E+02 -0.42774412616E+02 -0.76177747287E+02  0.10099947578E+03  0.00000000000E+00 0.  1.
         11    1    1    2    0    0 -0.35108246917E+02  0.23997847154E+02  0.89595182142E+01  0.43459850854E+02  0.00000000000E+00 0. -1.
</event>
<event>
 6    1  0.8989754E-006  0.2226645E+03  0.7561462E-02  0.1131912E+00
          2   -1    0    0  501    0  0.00000000000E+00  0.00000000000E+00  0.69696512276E+02  0.69696512276E+02  0.00000000000E+00 0. -1.
         -2   -1    0    0    0  501 -0.00000000000E+00 -0.00000000000E+00 -0.11140688796E+04  0.11140688796E+04  0.00000000000E+00 0.  1.
          5    1    1    2  502    0 -0.73409248791E+02  0.53697045134E+02 -0.76566483786E+02  0.11896297451E+03  0.41800000000E+01 0. -1.
         -5    1    1    2    0  502  0.57326972457E+01 -0.18879453586E+03 -0.79817400031E+03  0.82022889961E+03  0.41800000000E+01 0.  1.
        -11    1    1    2    0    0 -0.10183616366E+02  0.45619730662E+02 -0.13800759244E+02  0.48737324749E+02  0.00000000000E+00 0.  1.
         11    1    1    2    0    0  0.77860167912E+02  0.89477760066E+02 -0.15583112403E+03  0.19583619306E+03  0.00000000000E+00 0. -1.
</event>
<event>
 6    1  0.8989755E-006  0.1701143E+03  0.7561462E-02  0.1177729E+00
          1   -1    0    0  501    0  0.00000000000E+00  0.00000000000E+00  0.23634599801E+03  0.23634599801E+03  0.00000000000E+00 0. -1.
         -1   -1    0    0    0  501 -0.00000000000E+00 -0.00000000000E+00 -0.14349405403E+03  0.14349405403E+03  0.00000000000E+00 0.  1.
          5    1    1    2  502    0  0.81515779273E+01  0.15542043365E+03  0.17346088574E+02  0.15665349855E+03  0.41800000000E+01 0. -1.
         -5    1    1    2    0  502  0.13950061071E+02 -0.17406242604E+02 -0.21053631320E+02  0.30956570825E+02  0.41800000000E+01 0. -1.
        -11    1    1    2    0    0  0.30327937200E+02 -0.35428664423E+02  0.89311892910E+01  0.47484104495E+02  0.00000000000E+00 0. -1.
         11    1    1    2    0    0 -0.52429576198E+02 -0.10258552663E+03  0.87628297435E+02  0.14474587816E+03  0.00000000000E+00 0.  1.
</event>
<event>
 6    1  0.8989754E-006  0.1104125E+03  0.7561462E-02  0.1259808E+00
          1   -1    0    0  501    0  0.00000000000E+00  0.00000000000E+00  0.45830741632E+03  0.45830741632E+03  0.00000000000E+00 0. -1.
         -1   -1    0    0    0  501 -0.00000000000E+00 -0.00000000000E+00 -0.33491507650E+02  0.33491507650E+02  0.00000000000E+00 0.  1.
          5    1    1    2  502    0 -0.17341801470E+02 -0.81384277827E+02  0.16717317400E+03  0.18678458518E+03  0.41800000000E+01 0. -1.
         -5    1    1    2    0  502 -0.27107382269E+02  0.30185454182E+02  0.17442869060E+02  0.44358740951E+02  0.41800000000E+01 0.  1.
        -11    1    1    2    0    0 -0.26842827854E+00 -0.16001831636E+02  0.76259205481E+02  0.77920453605E+02  0.00000000000E+00 0. -1.
         11    1    1    2    0    0  0.44717612017E+02  0.67200655281E+02  0.16394066013E+03  0.18273514423E+03  0.00000000000E+00 0.  1.
</event>
<event>
 6    1  0.8989754E-006  0.1050305E+03  0.7561462E-02  0.1270060E+00
          1   -1    0    0  501    0  0.00000000000E+00  0.00000000000E+00  0.45166616385E+03  0.45166616385E+03  0.00000000000E+00 0. -1.
         -1   -1    0    0    0  501 -0.00000000000E+00 -0.00000000000E+00 -0.42853804387E+02  0.42853804387E+02  0.00000000000E+00 0.  1.
          5    1    1    2  502    0  0.25564835138E+02  0.33779438612E+02  0.50277158442E+02  0.65877737739E+02  0.41800000000E+01 0. -1.
         -5    1    1    2    0  502  0.18299811996E+02 -0.91192658392E+02  0.26618989376E+03  0.28200268793E+03  0.41800000000E+01 0. -1.
        -11    1    1    2    0    0 -0.33865364704E+02  0.30124962360E+02 -0.44805177598E+01  0.45546144986E+02  0.00000000000E+00 0.  1.
         11    1    1    2    0    0 -0.99992824301E+01  0.27288257420E+02  0.96825825021E+02  0.10109339757E+03  0.00000000000E+00 0. -1.
</event>
<event>
 6    1  0.8989754E-006  0.8810099E+02  0.7561462E-02  0.1307517E+00
          2   -1    0    0  501    0  0.00000000000E+00  0.00000000000E+00  0.21303577759E+03  0.21303577759E+03  0.00000000000E+00 0. -1.
         -2   -1    0    0    0  501 -0.00000000000E+00 -0.00000000000E+00 -0.74729901890E+02  0.74729901890E+02  0.00000000000E+00 0.  1.
          5    1    1    2  502    0  0.42272572171E+02 -0.50415873538E+02 -0.30804330978E+02  0.72767505588E+02  0.41800000000E+01 0. -1.
         -5    1    1    2    0  502 -0.25774649456E+02  0.25773240010E+02  0.42764565856E+02  0.56346010933E+02  0.41800000000E+01 0. -1.
        -11    1    1    2    0    0 -0.29650443574E+02  0.42246323225E+02  0.29717662154E+02  0.59557032113E+02  0.00000000000E+00 0.  1.
         11    1    1    2    0    0  0.13152520860E+02 -0.17603689698E+02  0.96627978668E+02  0.99095130846E+02  0.00000000000E+00 0. -1.
</event>
<event>
 6    1  0.8989754E-006  0.2076097E+03  0.7561462E-02  0.1143473E+00
         -2   -1    0    0    0  501 -0.00000000000E+00  0.00000000000E+00  0.83403569893E+02  0.83403569893E+02  0.00000000000E+00 0.  1.
          2   -1    0    0  501    0  0.00000000000E+00 -0.00000000000E+00 -0.62560863458E+03  0.62560863458E+03  0.00000000000E+00 0. -1.
          5    1    1    2  502    0 -0.97289851004E+02  0.15926173182E+03 -0.20226623619E+03  0.27524301450E+03  0.41800000000E+01 0. -1.
         -5    1    1    2    0  502  0.12019297096E+02 -0.88495404030E+02 -0.33720168268E+02  0.95553242672E+02  0.41800000000E+01 0.  1.
        -11    1    1    2    0    0 -0.12017760716E+02 -0.32405071301E+02 -0.11727217100E+03  0.12225905819E+03  0.00000000000E+00 0.  1.
         11    1    1    2    0    0  0.97288314623E+02 -0.38361256484E+02 -0.18894648923E+03  0.21595688911E+03  0.00000000000E+00 0. -1.
</event>
<event>
 6    1  0.8989754E-006  0.1138618E+03  0.7561462E-02  0.1253581E+00
         -2   -1    0    0    0  501 -0.00000000000E+00  0.00000000000E+00  0.30729682140E+02  0.30729682140E+02  0.00000000000E+00 0.  1.
          2   -1    0    0  501    0  0.00000000000E+00 -0.00000000000E+00 -0.66539042709E+03  0.66539042709E+03  0.00000000000E+00 0. -1.
          5    1    1    2  502    0 -0.32075169623E+02  0.71202249779E+02 -0.27328224648E+03  0.28425206335E+03  0.41800000000E+01 0. -1.
         -5    1    1    2    0  502  0.27296847249E+02  0.14937616400E+02 -0.36248012419E+01  0.31604775549E+02  0.41800000000E+01 0. -1.
        -11    1    1    2    0    0  0.32873195914E+02 -0.62840359915E+01 -0.43955098970E+02  0.55246600288E+02  0.00000000000E+00 0.  1.
         11    1    1    2    0    0 -0.28094873539E+02 -0.79855830188E+02 -0.31379859826E+03  0.32501667004E+03  0.00000000000E+00 0. -1.
</event>
<event>
 6    1  0.9246566E-006  0.1326165E+03  0.7561462E-02  0.1223624E+00
         -1   -1    0    0    0  501 -0.00000000000E+00  0.00000000000E+00  0.12234101911E+04  0.12234101911E+04  0.00000000000E+00 0.  1.
          1   -1    0    0  501    0  0.00000000000E+00 -0.00000000000E+00 -0.20084575583E+02  0.20084575583E+02  0.00000000000E+00 0. -1.
          5    1    1    2  502    0 -0.11748669001E+02  0.30421016092E+02  0.50826575494E+03  0.50932800775E+03  0.41800000000E+01 0. -1.
         -5    1    1    2    0  502 -0.83023146557E+02 -0.53768336379E+02  0.36256164564E+03  0.37583546420E+03  0.41800000000E+01 0. -1.
        -11    1    1    2    0    0  0.88996926557E+02 -0.18675937239E+02  0.23644499957E+03  0.25332880095E+03  0.00000000000E+00 0.  1.
         11    1    1    2    0    0  0.57748890007E+01  0.42023257526E+02  0.96053215320E+02  0.10500249373E+03  0.00000000000E+00 0. -1.
</event>
<event>
 6    1  0.8989754E-006  0.1396525E+03  0.7561462E-02  0.1213797E+00
         -2   -1    0    0    0  501 -0.00000000000E+00  0.00000000000E+00  0.11668951859E+03  0.11668951859E+03  0.00000000000E+00 0.  1.
          2   -1    0    0  501    0  0.00000000000E+00 -0.00000000000E+00 -0.25811828221E+03  0.25811828221E+03  0.00000000000E+00 0. -1.
          5    1    1    2  502    0 -0.10887867785E+03  0.39542421501E+02 -0.81989435834E+02  0.14197855323E+03  0.41800000000E+01 0. -1.
         -5    1    1    2    0  502  0.59723055341E+02 -0.64640376653E+02  0.30636345332E+02  0.93280650128E+02  0.41800000000E+01 0.  1.
        -11    1    1    2    0    0  0.55779092938E+02  0.72486419206E+01 -0.10242647535E+03  0.11685475117E+03  0.00000000000E+00 0. -1.
         11    1    1    2    0    0 -0.66234704316E+01  0.17849313231E+02  0.12350802223E+02  0.22693846279E+02  0.00000000000E+00 0.  1.
</event>
<event>
 6    1  0.8989754E-006  0.1337817E+03  0.7561462E-02  0.1221950E+00
         -2   -1    0    0    0  501 -0.00000000000E+00  0.00000000000E+00  0.29165490187E+02  0.29165490187E+02  0.00000000000E+00 0.  1.
          2   -1    0    0  501    0  0.00000000000E+00 -0.00000000000E+00 -0.98369351440E+03  0.98369351440E+03  0.00000000000E+00 0. -1.
          5    1    1    2  502    0 -0.80630776826E+01 -0.20442772122E+02 -0.25081838391E+01  0.22509632158E+02  0.41800000000E+01 0.  1.
         -5    1    1    2    0  502 -0.66312333380E+02 -0.86728779534E+02 -0.49217157362E+03  0.50415229548E+03  0.41800000000E+01 0.  1.
        -11    1    1    2    0    0  0.21673084423E+02  0.64761004989E+02 -0.35436813171E+03  0.36088846356E+03  0.00000000000E+00 0. -1.
         11    1    1    2    0    0  0.52702326639E+02  0.42410546666E+02 -0.10548013504E+03  0.12530861339E+03  0.00000000000E+00 0.  1.
</event>
<event>
 6    1  0.8989754E-006  0.2002432E+03  0.7561462E-02  0.1149534E+00
          1   -1    0    0  501    0  0.00000000000E+00  0.00000000000E+00  0.11980214966E+03  0.11980214966E+03  0.00000000000E+00 0. -1.
         -1   -1    0    0    0  501 -0.00000000000E+00 -0.00000000000E+00 -0.38936543785E+03  0.38936543785E+03  0.00000000000E+00 0.  1.
          5    1    1    2  502    0  0.63968378562E+00  0.14784590021E+03 -0.11447137941E+03  0.18702937873E+03  0.41800000000E+01 0. -1.
         -5    1    1    2    0  502 -0.67959699943E+02  0.20367186272E+02 -0.76586913349E+02  0.10448143753E+03  0.41800000000E+01 0. -1.
        -11    1    1    2    0    0  0.53199840188E+02 -0.11980644016E+03 -0.97922319049E+02  0.16362330723E+03  0.00000000000E+00 0.  1.
         11    1    1    2    0    0  0.14120175970E+02 -0.48406646318E+02  0.19417323619E+02  0.54033464017E+02  0.00000000000E+00 0. -1.
</event>
<event>
 6    1  0.8989754E-006  0.1612745E+03  0.7561462E-02  0.1187265E+00
          2   -1    0    0  501    0  0.00000000000E+00  0.00000000000E+00  0.24138846710E+03  0.24138846710E+03  0.00000000000E+00 0. -1.
         -2   -1    0    0    0  501 -0.00000000000E+00 -0.00000000000E+00 -0.15347413579E+03  0.15347413579E+03  0.00000000000E+00 0.  1.
          5    1    1    2  502    0  0.68550957190E+02 -0.17623949803E+02  0.39944305043E+02  0.81380939068E+02  0.41800000000E+01 0.  1.
         -5    1    1    2    0  502  0.35078433119E+02 -0.75139096979E+02 -0.68929055181E+02  0.10791231354E+03  0.41800000000E+01 0.  1.
        -11    1    1    2    0    0 -0.84780763044E+02  0.11279910022E+03  0.10333428624E+03  0.17489822614E+03  0.00000000000E+00 0. -1.
         11    1    1    2    0    0 -0.18848627265E+02 -0.20036053440E+02  0.13564795211E+02  0.30671124146E+02  0.00000000000E+00 0.  1.
</event>
<event>
 6    1  0.8989754E-006  0.1251333E+03  0.7561462E-02  0.1234861E+00
          2   -1    0    0  501    0  0.00000000000E+00  0.00000000000E+00  0.13948677539E+03  0.13948677539E+03  0.00000000000E+00 0.  1.
         -2   -1    0    0    0  501 -0.00000000000E+00 -0.00000000000E+00 -0.19166488404E+03  0.19166488404E+03  0.00000000000E+00 0. -1.
          5    1    1    2  502    0 -0.25439298916E+02 -0.66353854523E+02 -0.89138472409E+02  0.11407511386E+03  0.41800000000E+01 0.  1.
         -5    1    1    2    0  502  0.58098086116E+02 -0.37663815370E+02  0.94441613143E+01  0.70004394016E+02  0.41800000000E+01 0.  1.
        -11    1    1    2    0    0 -0.13343173840E+02  0.62732767105E+02 -0.32347063681E+02  0.71831559119E+02  0.00000000000E+00 0. -1.
         11    1    1    2    0    0 -0.19315613361E+02  0.41284902789E+02  0.59863266133E+02  0.75240592435E+02  0.00000000000E+00 0.  1.
</event>
<event>
 6    1  0.1088883E-005  0.1218570E+03  0.7561462E-02  0.1240065E+00
         -1   -1    0    0    0  501 -0.00000000000E+00  0.00000000000E+00  0.40137238826E+02  0.40137238826E+02  0.00000000000E+00 0. -1.
          1   -1    0    0  501    0  0.00000000000E+00 -0.00000000000E+00 -0.65457567243E+03  0.65457567243E+03  0.00000000000E+00 0.  1.
          5    1    1    2  502    0 -0.84748642027E+02  0.11966632288E+02 -0.50615702708E+02  0.99523637264E+02  0.41800000000E+01 0.  1.
         -5    1    1    2    0  502  0.28393066408E+01  0.52296612479E+02 -0.14921416826E+03  0.15819398772E+03  0.41800000000E+01 0.  1.
        -11    1    1    2    0    0  0.70965709390E+01 -0.12937991424E+02 -0.24366370122E+01  0.14956274306E+02  0.00000000000E+00 0. -1.
         11    1    1    2    0    0  0.74812764447E+02 -0.51325253343E+02 -0.41217192562E+03  0.42203901197E+03  0.00000000000E+00 0.  1.
</event>
<event>
 6    1  0.8989754E-006  0.1062903E+03  0.7561462E-02  0.1267598E+00
         -1   -1    0    0    0  501 -0.00000000000E+00  0.00000000000E+00  0.54831425970E+02  0.54831425970E+02  0.00000000000E+00 0.  1.
          1   -1    0    0  501    0  0.00000000000E+00 -0.00000000000E+00 -0.30291623997E+03  0.30291623997E+03  0.00000000000E+00 0. -1.
          5    1    1    2  502    0 -0.29732214004E+02 -0.40900902373E+02 -0.46075232037E+02  0.68536762192E+02  0.41800000000E+01 0. -1.
         -5    1    1    2    0  502  0.30125212410E+01  0.76073237547E+02 -0.16069767988E+02  0.77922542299E+02  0.41800000000E+01 0. -1.
        -11    1    1    2    0    0  0.51779553847E+02 -0.16504707645E+02 -0.57568923976E+02  0.79168861169E+02  0.00000000000E+00 0.  1.
         11    1    1    2    0    0 -0.25059861084E+02 -0.18667627530E+02 -0.12837089000E+03  0.13211950028E+03  0.00000000000E+00 0. -1.
</event>
<event>
 6    1  0.8989754E-006  0.1069859E+03  0.7561462E-02  0.1266255E+00
         -2   -1    0    0    0  501 -0.00000000000E+00  0.00000000000E+00  0.61812062158E+03  0.61812062158E+03  0.00000000000E+00 0.  1.
          2   -1    0    0  501    0  0.00000000000E+00 -0.00000000000E+00 -0.22535041968E+02  0.22535041968E+02  0.00000000000E+00 0. -1.
          5    1    1    2  502    0 -0.46486079075E+02 -0.49741398923E+01  0.10039058492E+03  0.11082165653E+03  0.41800000000E+01 0.  1.
         -5    1    1    2    0  502  0.76358108084E+02 -0.18094766195E+02  0.31372924915E+03  0.32342154444E+03  0.41800000000E+01 0.  1.
        -11    1    1    2    0    0  0.24619357927E+02  0.23388057008E+02  0.11786932235E+03  0.12266332438E+03  0.00000000000E+00 0.  1.
         11    1    1    2    0    0 -0.54491386936E+02 -0.31915092130E+00  0.63596423192E+02  0.83749138207E+02  0.00000000000E+00 0. -1.
</event>
<event>
 6    1  0.8989754E-006  0.8666434E+02  0.7561462E-02  0.1311137E+00
          2   -1    0    0  501    0  0.00000000000E+00  0.00000000000E+00  0.36742813755E+03  0.36742813755E+03  0.00000000000E+00 0. -1.
         -2   -1    0    0    0  501 -0.00000000000E+00 -0.00000000000E+00 -0.45252986582E+02  0.45252986582E+02  0.00000000000E+00 0.  1.
          5    1    1    2  502    0 -0.15386398169E+02  0.17364526811E+02  0.15245673349E+03  0.15426858405E+03  0.41800000000E+01 0.  1.
         -5    1    1    2    0  502 -0.48858154705E+02 -0.45351623770E+02  0.19415625138E+02  0.69558090538E+02  0.41800000000E+01 0.  1.
        -11    1    1    2    0    0  0.17210893836E+02  0.31396119378E+02  0.50745941483E+01  0.36161895476E+02  0.00000000000E+00 0.  1.
         11    1    1    2    0    0  0.47033659038E+02 -0.34090224193E+01  0.14522819819E+03  0.15269255407E+03  0.00000000000E+00 0. -1.
</event>
<event>
 6    1  0.8989754E-006  0.1085609E+03  0.7561462E-02  0.1263258E+00
          2   -1    0    0  501    0  0.00000000000E+00  0.00000000000E+00  0.15087604223E+03  0.15087604223E+03  0.00000000000E+00 0. -1.
         -2   -1    0    0    0  501 -0.00000000000E+00 -0.00000000000E+00 -0.95539418291E+02  0.95539418291E+02  0.00000000000E+00 0.  1.
          5    1    1    2  502    0  0.64988647907E+02  0.23414272186E+02 -0.28394245438E+02  0.74802794552E+02  0.41800000000E+01 0.  1.
         -5    1    1    2    0  502 -0.48499568988E+02  0.14938968085E+02  0.25648809844E+02  0.57015040173E+02  0.41800000000E+01 0.  1.
        -11    1    1    2    0    0 -0.22499019531E+02  0.24842632384E+02  0.10043833274E+02  0.34989153326E+02  0.00000000000E+00 0.  1.
         11    1    1    2    0    0  0.60099406121E+01 -0.63195872655E+02  0.48038226255E+02  0.79608472467E+02  0.00000000000E+00 0. -1.
</event>
<event>
 6    1  0.8989754E-006  0.1113135E+03  0.7561462E-02  0.1258157E+00
         -1   -1    0    0    0  501 -0.00000000000E+00  0.00000000000E+00  0.64529845389E+02  0.64529845389E+02  0.00000000000E+00 0.  1.
          1   -1    0    0  501    0  0.00000000000E+00 -0.00000000000E+00 -0.24074195773E+03  0.24074195773E+03  0.00000000000E+00 0. -1.
          5    1    1    2  502    0 -0.12704552935E+02  0.41681826257E+02 -0.34148135707E+02  0.55518896582E+02  0.41800000000E+01 0.  1.
         -5    1    1    2    0  502  0.14114951025E+02 -0.79299735676E+02 -0.48664034869E+01  0.80801201746E+02  0.41800000000E+01 0.  1.
        -11    1    1    2    0    0 -0.40091450380E+02  0.43403287944E+02 -0.74993375990E+02  0.95473432118E+02  0.00000000000E+00 0.  1.
         11    1    1    2    0    0  0.38681052291E+02 -0.57853785251E+01 -0.62204197152E+02  0.73478272669E+02  0.00000000000E+00 0. -1.
</event>
<event>
 6    1  0.8989754E-006  0.1254714E+03  0.7561462E-02  0.1234334E+00
         -1   -1    0    0    0  501 -0.00000000000E+00  0.00000000000E+00  0.47351625928E+02  0.47351625928E+02  0.00000000000E+00 0. -1.
          1   -1    0    0  501    0  0.00000000000E+00 -0.00000000000E+00 -0.55446395647E+03  0.55446395647E+03  0.00000000000E+00 0.  1.
          5    1    1    2  502    0 -0.10391490446E+02  0.82738983748E+02 -0.75832749392E+02  0.11279096057E+03  0.41800000000E+01 0. -1.
         -5    1    1    2    0  502  0.65063720515E+02 -0.16365192986E+02 -0.40755365752E+02  0.78610301528E+02  0.41800000000E+01 0. -1.
        -11    1    1    2    0    0  0.93705987773E+01 -0.16815874039E+02 -0.10640311468E+02  0.21995407914E+02  0.00000000000E+00 0. -1.
         11    1    1    2    0    0 -0.64042828846E+02 -0.49557916723E+02 -0.37988390393E+03  0.38841891239E+03  0.00000000000E+00 0.  1.
</event>
<event>
 6    1  0.8989754E-006  0.3443286E+03  0.7561462E-02  0.1064967E+00
          2   -1    0    0  501    0  0.00000000000E+00  0.00000000000E+00  0.36089296470E+03  0.36089296470E+03  0.00000000000E+00 0.  1.
         -2   -1    0    0    0  501 -0.00000000000E+00 -0.00000000000E+00 -0.73425126637E+03  0.73425126637E+03  0.00000000000E+00 0. -1.
          5    1    1    2  502    0 -0.28014558898E+03 -0.14145107649E+03 -0.56441057499E+03  0.64580703591E+03  0.41800000000E+01 0.  1.
         -5    1    1    2    0  502 -0.25635768568E+02  0.20296407259E+02 -0.28073520680E+02  0.43298172491E+02  0.41800000000E+01 0.  1.
        -11    1    1    2    0    0  0.64740677740E+02  0.70145686482E+02  0.61665552307E+02  0.11364159902E+03  0.00000000000E+00 0. -1.
         11    1    1    2    0    0  0.24104067981E+03  0.51008982752E+02  0.15746024170E+03  0.29239742365E+03  0.00000000000E+00 0.  1.
</event>
<event>
 6    1  0.8989754E-006  0.9954588E+02  0.7561462E-02  0.1281254E+00
         -1   -1    0    0    0  501 -0.00000000000E+00  0.00000000000E+00  0.40838690830E+02  0.40838690830E+02  0.00000000000E+00 0.  1.
          1   -1    0    0  501    0  0.00000000000E+00 -0.00000000000E+00 -0.30054110345E+03  0.30054110345E+03  0.00000000000E+00 0. -1.
          5    1    1    2  502    0 -0.48327675264E+01 -0.58670043809E+02 -0.10079859465E+03  0.11680478914E+03  0.41800000000E+01 0.  1.
         -5    1    1    2    0  502  0.29578876762E+01  0.50677245977E+02 -0.13141515147E+02  0.52603271568E+02  0.41800000000E+01 0.  1.
        -11    1    1    2    0    0  0.33129980158E+02 -0.26622736352E+02 -0.51262132134E+02  0.66589577766E+02  0.00000000000E+00 0.  1.
         11    1    1    2    0    0 -0.31255100308E+02  0.34615534184E+02 -0.94500170689E+02  0.10538215581E+03  0.00000000000E+00 0. -1.
</event>
<event>
 6    1  0.8989754E-006  0.9597689E+02  0.7561462E-02  0.1288991E+00
         -2   -1    0    0    0  501 -0.00000000000E+00  0.00000000000E+00  0.56332159434E+02  0.56332159434E+02  0.00000000000E+00 0.  1.
          2   -1    0    0  501    0  0.00000000000E+00 -0.00000000000E+00 -0.25848079000E+03  0.25848079000E+03  0.00000000000E+00 0. -1.
          5    1    1    2  502    0  0.50330522222E+02 -0.17505266091E+02  0.90308701881E+01  0.54209084334E+02  0.41800000000E+01 0. -1.
         -5    1    1    2    0  502 -0.21952335895E+02 -0.26589915882E+02 -0.10869026422E+03  0.11410510337E+03  0.41800000000E+01 0. -1.
        -11    1    1    2    0    0  0.76694814004E+00  0.66811979248E+02 -0.74977742202E+02  0.10042953055E+03  0.00000000000E+00 0.  1.
         11    1    1    2    0    0 -0.29145134466E+02 -0.22716797275E+02 -0.27511494326E+02  0.46069231180E+02  0.00000000000E+00 0. -1.
</event>
<event>
 6    1  0.8989754E-006  0.1399441E+03  0.7561462E-02  0.1213404E+00
          4   -1    0    0  501    0  0.00000000000E+00  0.00000000000E+00  0.10478812201E+03  0.10478812201E+03  0.00000000000E+00 0.  1.
         -4   -1    0    0    0  501 -0.00000000000E+00 -0.00000000000E+00 -0.20143956519E+03  0.20143956519E+03  0.00000000000E+00 0. -1.
          5    1    1    2  502    0  0.85298086386E+02  0.68249324496E+02 -0.58177103606E+02  0.12383772292E+03  0.41800000000E+01 0. -1.
         -5    1    1    2    0  502 -0.40620879110E+02  0.15470749601E+02 -0.17955245557E+00  0.43668118255E+02  0.41800000000E+01 0. -1.
        -11    1    1    2    0    0 -0.69862577563E+02 -0.65966062226E+02 -0.95094620314E+01  0.96554290311E+02  0.00000000000E+00 0.  1.
         11    1    1    2    0    0  0.25185370287E+02 -0.17754011870E+02 -0.28785325086E+02  0.42167555707E+02  0.00000000000E+00 0. -1.
</event>
<event>
 6    1  0.8989754E-006  0.9536908E+02  0.7561462E-02  0.1290347E+00
         -2   -1    0    0    0  501 -0.00000000000E+00  0.00000000000E+00  0.11733380084E+03  0.11733380084E+03  0.00000000000E+00 0.  1.
          2   -1    0    0  501    0  0.00000000000E+00 -0.00000000000E+00 -0.20724176428E+03  0.20724176428E+03  0.00000000000E+00 0. -1.
          5    1    1    2  502    0  0.24678373279E+02 -0.29496882444E+02 -0.11539377403E+02  0.40369763591E+02  0.41800000000E+01 0.  1.
         -5    1    1    2    0  502 -0.67504890418E+02  0.37652121095E+02  0.70222079117E+02  0.10451413899E+03  0.41800000000E+01 0.  1.
        -11    1    1    2    0    0  0.12702167572E+02  0.26100408778E+02 -0.12501853587E+03  0.12834411054E+03  0.00000000000E+00 0. -1.
         11    1    1    2    0    0  0.30124349568E+02 -0.34255647429E+02 -0.23572129276E+02  0.51347551999E+02  0.00000000000E+00 0.  1.
</event>
<event>
 6    1  0.8989754E-006  0.1276627E+03  0.7561462E-02  0.1230966E+00
          1   -1    0    0  501    0  0.00000000000E+00  0.00000000000E+00  0.17789517810E+03  0.17789517810E+03  0.00000000000E+00 0. -1.
         -1   -1    0    0    0  501 -0.00000000000E+00 -0.00000000000E+00 -0.95072990266E+02  0.95072990266E+02  0.00000000000E+00 0.  1.
          5    1    1    2  502    0  0.40059731042E+02  0.53594517180E+02  0.21451502676E+02  0.70390295425E+02  0.41800000000E+01 0. -1.
         -5    1    1    2    0  502 -0.73730066642E+02  0.57251435536E+01  0.26937165855E+01  0.74119015811E+02  0.41800000000E+01 0. -1.
        -11    1    1    2    0    0  0.56217689536E+02 -0.69570322070E+02  0.44201241273E+02  0.99770777584E+02  0.00000000000E+00 0. -1.
         11    1    1    2    0    0 -0.22547353937E+02  0.10250661336E+02  0.14475727304E+02  0.28688079551E+02  0.00000000000E+00 0.  1.
</event>
<event>
 6    1  0.8989754E-006  0.1112138E+03  0.7561462E-02  0.1258338E+00
         -2   -1    0    0    0  501 -0.00000000000E+00  0.00000000000E+00  0.40128352850E+02  0.40128352850E+02  0.00000000000E+00 0.  1.
          2   -1    0    0  501    0  0.00000000000E+00 -0.00000000000E+00 -0.34322677117E+03  0.34322677117E+03  0.00000000000E+00 0. -1.
          5    1    1    2  502    0  0.31164390014E+02  0.46467963864E+02 -0.60671150743E+02  0.82637472148E+02  0.41800000000E+01 0.  1.
         -5    1    1    2    0  502 -0.63478126419E+00 -0.75779921802E+02 -0.88269252698E+02  0.11641276935E+03  0.41800000000E+01 0.  1.
        -11    1    1    2    0    0  0.91314389559E+01 -0.23017196796E+02 -0.11584469126E+02  0.27338150096E+02  0.00000000000E+00 0. -1.
         11    1    1    2    0    0 -0.39661047706E+02  0.52329154734E+02 -0.14257354576E+03  0.15696673243E+03  0.00000000000E+00 0.  1.
</event>
<event>
 6    1  0.8989754E-006  0.1531073E+03  0.7561462E-02  0.1196706E+00
         -1   -1    0    0    0  501 -0.00000000000E+00  0.00000000000E+00  0.40700994633E+02  0.40700994633E+02  0.00000000000E+00 0.  1.
          1   -1    0    0  501    0  0.00000000000E+00 -0.00000000000E+00 -0.59643551595E+03  0.59643551595E+03  0.00000000000E+00 0. -1.
          5    1    1    2  502    0 -0.96538926943E+01  0.31836068674E+02 -0.35771675575E+02  0.49028747549E+02  0.41800000000E+01 0. -1.
         -5    1    1    2    0  502  0.11906199518E+03 -0.53695392617E+02 -0.25763211928E+03  0.28887840897E+03  0.41800000000E+01 0. -1.
        -11    1    1    2    0    0  0.97397826898E+01  0.20675536129E+02 -0.26409649843E+02  0.34925789410E+02  0.00000000000E+00 0.  1.
         11    1    1    2    0    0 -0.11914788518E+03  0.11837878141E+01 -0.23592107662E+03  0.26430356465E+03  0.00000000000E+00 0. -1.
</event>
<event>
 6    1  0.8989754E-006  0.1090952E+03  0.7561462E-02  0.1262255E+00
         -1   -1    0    0    0  501 -0.00000000000E+00  0.00000000000E+00  0.12542242989E+02  0.12542242989E+02  0.00000000000E+00 0.  1.
          1   -1    0    0  501    0  0.00000000000E+00 -0.00000000000E+00 -0.12094055935E+04  0.12094055935E+04  0.00000000000E+00 0. -1.
          5    1    1    2  502    0  0.71119258886E+02 -0.33095089707E+02 -0.25897145875E+03  0.27062321185E+03  0.41800000000E+01 0. -1.
         -5    1    1    2    0  502 -0.16056226634E+02  0.29516773150E+02 -0.45916895737E+03  0.46041573184E+03  0.41800000000E+01 0. -1.
        -11    1    1    2    0    0  0.20178569357E+02  0.20382104740E+02 -0.84985812111E+02  0.89695000502E+02  0.00000000000E+00 0.  1.
         11    1    1    2    0    0 -0.75241601610E+02 -0.16803788183E+02 -0.39373712232E+03  0.40121389233E+03  0.00000000000E+00 0. -1.
</event>
<event>
 6    1  0.8989754E-006  0.1017800E+03  0.7561462E-02  0.1276597E+00
         -2   -1    0    0    0  501 -0.00000000000E+00  0.00000000000E+00  0.52917395757E+02  0.52917395757E+02  0.00000000000E+00 0.  1.
          2   -1    0    0  501    0  0.00000000000E+00 -0.00000000000E+00 -0.35144341494E+03  0.35144341494E+03  0.00000000000E+00 0. -1.
          5    1    1    2  502    0 -0.59759281282E+02  0.21249847774E+02 -0.14044808449E+03  0.15416181293E+03  0.41800000000E+01 0.  1.
         -5    1    1    2    0  502 -0.43273312140E-01  0.25185976932E+02  0.22244138518E+02  0.33861621417E+02  0.41800000000E+01 0.  1.
        -11    1    1    2    0    0  0.43095771204E+02 -0.72009136240E+02 -0.15657242861E+03  0.17764426982E+03  0.00000000000E+00 0.  1.
         11    1    1    2    0    0  0.16706783391E+02  0.25573311534E+02 -0.23749644591E+02  0.38693106522E+02  0.00000000000E+00 0. -1.
</event>
<event>
 6    1  0.8989754E-006  0.1495133E+03  0.7561462E-02  0.1201072E+00
         -4   -1    0    0    0  501 -0.00000000000E+00  0.00000000000E+00  0.10564499181E+04  0.10564499181E+04  0.00000000000E+00 0.  1.
          4   -1    0    0  501    0  0.00000000000E+00 -0.00000000000E+00 -0.22720729124E+02  0.22720729124E+02  0.00000000000E+00 0. -1.
          5    1    1    2  502    0  0.96578978906E+02  0.82482836661E+02  0.50600142704E+03  0.52171432229E+03  0.41800000000E+01 0.  1.
         -5    1    1    2    0  502 -0.36537948248E+02  0.82912919279E+01  0.11470070071E+03  0.12073727811E+03  0.41800000000E+01 0.  1.
        -11    1    1    2    0    0 -0.66278049755E+02 -0.29307607287E+02  0.29170241770E+03  0.30056948650E+03  0.00000000000E+00 0.  1.
         11    1    1    2    0    0  0.62370190977E+01 -0.61466521302E+02  0.12132464352E+03  0.13614956032E+03  0.00000000000E+00 0. -1.
</event>
<event>
 6    1  0.8989754E-006  0.1241090E+03  0.7561462E-02  0.1236468E+00
          2   -1    0    0  501    0  0.00000000000E+00  0.00000000000E+00  0.67052695939E+03  0.67052695939E+03  0.00000000000E+00 0. -1.
         -2   -1    0    0    0  501 -0.00000000000E+00 -0.00000000000E+00 -0.27318693693E+02  0.27318693693E+02  0.00000000000E+00 0.  1.
          5    1    1    2  502    0 -0.33858198093E+02 -0.29954126879E+01  0.13405004015E+03  0.13835546877E+03  0.41800000000E+01 0. -1.
         -5    1    1    2    0  502  0.98285728033E+02 -0.43609712720E+02  0.20023821203E+03  0.22732071031E+03  0.41800000000E+01 0. -1.
        -11    1    1    2    0    0  0.15448603948E+02  0.46131965791E+01  0.79779614332E+01  0.17988574575E+02  0.00000000000E+00 0.  1.
         11    1    1    2    0    0 -0.79876133887E+02  0.41991928828E+02  0.30094205208E+03  0.31418089942E+03  0.00000000000E+00 0. -1.
</event>
<event>
 6    1  0.8989754E-006  0.1195640E+03  0.7561462E-02  0.1243818E+00
         -2   -1    0    0    0  501 -0.00000000000E+00  0.00000000000E+00  0.13367623156E+02  0.13367623156E+02  0.00000000000E+00 0. -1.
          2   -1    0    0  501    0  0.00000000000E+00 -0.00000000000E+00 -0.11393721844E+04  0.11393721844E+04  0.00000000000E+00 0.  1.
          5    1    1    2  502    0  0.35792250843E+01 -0.45338983401E+02 -0.19481080527E+03  0.20009286973E+03  0.41800000000E+01 0. -1.
         -5    1    1    2    0  502  0.40048404604E+02  0.79994376046E+02 -0.53782593678E+03  0.54523131383E+03  0.41800000000E+01 0. -1.
        -11    1    1    2    0    0 -0.48710231583E+02  0.17303610958E+02 -0.23667979183E+03  0.24225900493E+03  0.00000000000E+00 0.  1.
         11    1    1    2    0    0  0.50826018949E+01 -0.51959003602E+02 -0.15668802737E+03  0.16515661906E+03  0.00000000000E+00 0. -1.
</event>
<event>
 6    1  0.8989754E-006  0.8012310E+02  0.7561462E-02  0.1328702E+00
         -1   -1    0    0    0  501 -0.00000000000E+00  0.00000000000E+00  0.52383175441E+02  0.52383175441E+02  0.00000000000E+00 0.  1.
          1   -1    0    0  501    0  0.00000000000E+00 -0.00000000000E+00 -0.31749231158E+03  0.31749231158E+03  0.00000000000E+00 0. -1.
          5    1    1    2  502    0  0.86965695338E+00 -0.11189281536E+02 -0.82360508227E+02  0.83226690670E+02  0.41800000000E+01 0. -1.
         -5    1    1    2    0  502 -0.71747358607E+02  0.15098416992E+02 -0.38183267210E+01  0.73537049721E+02  0.41800000000E+01 0.  1.
        -11    1    1    2    0    0  0.30612681138E+02 -0.13473893783E+02 -0.16660615184E+03  0.16993025596E+03  0.00000000000E+00 0. -1.
         11    1    1    2    0    0  0.40265020516E+02  0.95647583276E+01 -0.12324149350E+02  0.43181490667E+02  0.00000000000E+00 0.  1.
</event>
<event>
 6    1  0.8989754E-006  0.9616739E+02  0.7561462E-02  0.1288568E+00
          3   -1    0    0  501    0  0.00000000000E+00  0.00000000000E+00  0.23595806171E+02  0.23595806171E+02  0.00000000000E+00 0. -1.
         -3   -1    0    0    0  501 -0.00000000000E+00 -0.00000000000E+00 -0.73824199377E+03  0.73824199377E+03  0.00000000000E+00 0.  1.
          5    1    1    2  502    0  0.23939826254E+02 -0.66468225981E+02 -0.16222878644E+03  0.17699376230E+03  0.41800000000E+01 0.  1.
         -5    1    1    2    0  502  0.55798130950E+00  0.28776860496E+02 -0.38700724000E+03  0.38809856385E+03  0.41800000000E+01 0.  1.
        -11    1    1    2    0    0  0.28202553857E+02  0.26297802577E+02 -0.12067305264E+03  0.12668442721E+03  0.00000000000E+00 0.  1.
         11    1    1    2    0    0 -0.52700361420E+02  0.11393562908E+02 -0.44737108523E+02  0.70061046585E+02  0.00000000000E+00 0. -1.
</event>
<event>
 6    1  0.8989754E-006  0.1331037E+03  0.7561462E-02  0.1222922E+00
          1   -1    0    0  501    0  0.00000000000E+00  0.00000000000E+00  0.36376308089E+03  0.36376308089E+03  0.00000000000E+00 0. -1.
         -1   -1    0    0    0  501 -0.00000000000E+00 -0.00000000000E+00 -0.61783232592E+02  0.61783232592E+02  0.00000000000E+00 0.  1.
          5    1    1    2  502    0  0.22989889285E+02 -0.76821831472E+01 -0.41502480203E+01  0.24944897391E+02  0.41800000000E+01 0. -1.
         -5    1    1    2    0  502 -0.12241070209E+03 -0.47123617861E+01  0.13143986460E+03  0.17972338953E+03  0.41800000000E+01 0. -1.
        -11    1    1    2    0    0  0.82781820631E+02 -0.17696730554E+02  0.67383622682E+02  0.10819684240E+03  0.00000000000E+00 0.  1.
         11    1    1    2    0    0  0.16638992171E+02  0.30091275488E+02  0.10730660904E+03  0.11268118416E+03  0.00000000000E+00 0. -1.
</event>
<event>
 6    1  0.8989754E-006  0.9697300E+02  0.7561462E-02  0.1286793E+00
          2   -1    0    0  501    0  0.00000000000E+00  0.00000000000E+00  0.35850846648E+03  0.35850846648E+03  0.00000000000E+00 0. -1.
         -2   -1    0    0    0  501 -0.00000000000E+00 -0.00000000000E+00 -0.41482708898E+02  0.41482708898E+02  0.00000000000E+00 0.  1.
          5    1    1    2  502    0 -0.12877467636E+02  0.30322456397E+02  0.11000707849E+03  0.11491000937E+03  0.41800000000E+01 0. -1.
         -5    1    1    2    0  502  0.53930499363E+02 -0.46760704044E+02  0.28733112363E+02  0.77059239228E+02  0.41800000000E+01 0. -1.
        -11    1    1    2    0    0 -0.54470782590E+02  0.36161728420E+02  0.64788405351E+02  0.92044957636E+02  0.00000000000E+00 0.  1.
         11    1    1    2    0    0  0.13417750863E+02 -0.19723480772E+02  0.11349716138E+03  0.11597696915E+03  0.00000000000E+00 0. -1.
</event>
<event>
 6    1  0.8989754E-006  0.1393864E+03  0.7561462E-02  0.1214157E+00
          1   -1    0    0  501    0  0.00000000000E+00  0.00000000000E+00  0.11659387764E+04  0.11659387764E+04  0.00000000000E+00 0. -1.
         -1   -1    0    0    0  501 -0.00000000000E+00 -0.00000000000E+00 -0.17581188618E+02  0.17581188618E+02  0.00000000000E+00 0.  1.
          5    1    1    2  502    0 -0.16111801055E+02  0.33117873858E+02  0.16006775674E+03  0.16430320402E+03  0.41800000000E+01 0. -1.
         -5    1    1    2    0  502 -0.23196754501E+02 -0.11192509579E+03  0.35013533297E+03  0.36834432300E+03  0.41800000000E+01 0. -1.
        -11    1    1    2    0    0  0.34452081242E+02 -0.11930650623E+02  0.15323884904E+03  0.15751644734E+03  0.00000000000E+00 0.  1.
         11    1    1    2    0    0  0.48564743138E+01  0.90737872553E+02  0.48491564905E+03  0.49335599069E+03  0.00000000000E+00 0. -1.
</event>
<event>
 6    1  0.8989754E-006  0.1829307E+03  0.7561462E-02  0.1164996E+00
          1   -1    0    0  501    0  0.00000000000E+00  0.00000000000E+00  0.84706742900E+03  0.84706742900E+03  0.00000000000E+00 0. -1.
         -1   -1    0    0    0  501 -0.00000000000E+00 -0.00000000000E+00 -0.47165036371E+02  0.47165036371E+02  0.00000000000E+00 0.  1.
          5    1    1    2  502    0  0.21129822524E+02  0.16682351023E+02  0.81129967905E+02  0.85582208010E+02  0.41800000000E+01 0. -1.
         -5    1    1    2    0  502 -0.15296449400E+03  0.76231387187E+02  0.23134561435E+03  0.28765887174E+03  0.41800000000E+01 0. -1.
        -11    1    1    2    0    0  0.56939007539E+02 -0.68082582768E+02  0.14850507953E+03  0.17300591695E+03  0.00000000000E+00 0.  1.
         11    1    1    2    0    0  0.74895663934E+02 -0.24831155443E+02  0.33892173086E+03  0.34798546867E+03  0.00000000000E+00 0. -1.
</event>
<event>
 6    1  0.8989754E-006  0.1056921E+03  0.7561462E-02  0.1268762E+00
         -1   -1    0    0    0  501 -0.00000000000E+00  0.00000000000E+00  0.15491429363E+04  0.15491429363E+04  0.00000000000E+00 0.  1.
          1   -1    0    0  501    0  0.00000000000E+00 -0.00000000000E+00 -0.95642476446E+01  0.95642476446E+01  0.00000000000E+00 0. -1.
          5    1    1    2  502    0 -0.29602365291E+02 -0.34168276268E+02  0.68950560653E+03  0.69099871561E+03  0.41800000000E+01 0.  1.
         -5    1    1    2    0  502  0.20319687347E+02  0.69160755191E+02  0.42474904449E+03  0.43084257328E+03  0.41800000000E+01 0.  1.
        -11    1    1    2    0    0  0.13202773534E+00  0.29067560392E+02  0.71669566609E+02  0.77339946188E+02  0.00000000000E+00 0. -1.
         11    1    1    2    0    0  0.91506502087E+01 -0.64060039315E+02  0.35365447105E+03  0.35952594889E+03  0.00000000000E+00 0.  1.
</event>
<event>
 6    1  0.8989754E-006  0.2262073E+03  0.7561462E-02  0.1129338E+00
          2   -1    0    0  501    0  0.00000000000E+00  0.00000000000E+00  0.44963036108E+02  0.44963036108E+02  0.00000000000E+00 0. -1.
         -2   -1    0    0    0  501 -0.00000000000E+00 -0.00000000000E+00 -0.12227184654E+04  0.12227184654E+04  0.00000000000E+00 0.  1.
          5    1    1    2  502    0  0.72929025109E+01  0.69660163778E+02 -0.30914013234E+03  0.31700286855E+03  0.41800000000E+01 0.  1.
         -5    1    1    2    0  502 -0.13597091200E+03  0.88793613990E+02 -0.41376791555E+03  0.44451519111E+03  0.41800000000E+01 0.  1.
        -11    1    1    2    0    0  0.71505111000E+02 -0.14407928877E+03 -0.36278482250E+03  0.39684335674E+03  0.00000000000E+00 0.  1.
         11    1    1    2    0    0  0.57172898486E+02 -0.14374489000E+02 -0.92062558886E+02  0.10932008509E+03  0.00000000000E+00 0. -1.
</event>
<event>
 6    1  0.8989754E-006  0.8601867E+02  0.7561462E-02  0.1312790E+00
          1   -1    0    0  501    0  0.00000000000E+00  0.00000000000E+00  0.40065563602E+03  0.40065563602E+03  0.00000000000E+00 0. -1.
         -1   -1    0    0    0  501 -0.00000000000E+00 -0.00000000000E+00 -0.43088092328E+02  0.43088092328E+02  0.00000000000E+00 0.  1.
          5    1    1    2  502    0 -0.45096468229E+02  0.46291435961E+01  0.14991604969E+03  0.15667614615E+03  0.41800000000E+01 0.  1.
         -5    1    1    2    0  502 -0.20377794193E+02 -0.10135723637E+02 -0.23454838237E+02  0.32948281087E+02  0.41800000000E+01 0.  1.
        -11    1    1    2    0    0 -0.10145236056E+02  0.23538642384E+02  0.82749538919E+02  0.86628400027E+02  0.00000000000E+00 0.  1.
         11    1    1    2    0    0  0.75619498478E+02 -0.18032062343E+02  0.14835679332E+03  0.16749090109E+03  0.00000000000E+00 0. -1.
</event>
<event>
 6    1  0.8989754E-006  0.9423128E+02  0.7561462E-02  0.1292917E+00
         -2   -1    0    0    0  501 -0.00000000000E+00  0.00000000000E+00  0.17761901308E+03  0.17761901308E+03  0.00000000000E+00 0.  1.
          2   -1    0    0  501    0  0.00000000000E+00 -0.00000000000E+00 -0.14503699529E+03  0.14503699529E+03  0.00000000000E+00 0. -1.
          5    1    1    2  502    0  0.20008452000E+02  0.53055402294E+02 -0.15814828565E+02  0.59015210468E+02  0.41800000000E+01 0. -1.
         -5    1    1    2    0  502  0.99512009733E+01  0.21112872684E+02  0.12014899117E+03  0.12246645366E+03  0.41800000000E+01 0. -1.
        -11    1    1    2    0    0 -0.51000739205E+02 -0.30510593414E+02 -0.63436366315E+01  0.59767996751E+02  0.00000000000E+00 0.  1.
         11    1    1    2    0    0  0.21041086232E+02 -0.43657681564E+02 -0.65408508178E+02  0.81406347489E+02  0.00000000000E+00 0. -1.
</event>
<event>
 6    1  0.8989754E-006  0.1905336E+03  0.7561462E-02  0.1157981E+00
         -1   -1    0    0    0  501 -0.00000000000E+00  0.00000000000E+00  0.10084971827E+03  0.10084971827E+03  0.00000000000E+00 0.  1.
          1   -1    0    0  501    0  0.00000000000E+00 -0.00000000000E+00 -0.40692290323E+03  0.40692290323E+03  0.00000000000E+00 0. -1.
          5    1    1    2  502    0 -0.17509633976E+01  0.10582303570E+02 -0.55075054356E+02  0.56265309329E+02  0.41800000000E+01 0. -1.
         -5    1    1    2    0  502  0.12150825845E+03 -0.12129911879E+03 -0.78234759797E+02  0.18872170816E+03  0.41800000000E+01 0. -1.
        -11    1    1    2    0    0 -0.87022317868E+02  0.13247959368E+03 -0.14303270061E+03  0.21349960186E+03  0.00000000000E+00 0. -1.
         11    1    1    2    0    0 -0.32734977182E+02 -0.21762778460E+02 -0.29730670192E+02  0.49286002146E+02  0.00000000000E+00 0.  1.
</event>
<event>
 6    1  0.8989754E-006  0.1163942E+03  0.7561462E-02  0.1249167E+00
          2   -1    0    0  501    0  0.00000000000E+00  0.00000000000E+00  0.34380400905E+03  0.34380400905E+03  0.00000000000E+00 0. -1.
         -2   -1    0    0    0  501 -0.00000000000E+00 -0.00000000000E+00 -0.54637349555E+02  0.54637349555E+02  0.00000000000E+00 0.  1.
          5    1    1    2  502    0  0.24164775930E+02 -0.92410008728E+02  0.15014890339E+03  0.17800480807E+03  0.41800000000E+01 0. -1.
         -5    1    1    2    0  502 -0.31456456067E+02  0.91886845038E+01 -0.20359017997E+01  0.33099212186E+02  0.41800000000E+01 0. -1.
        -11    1    1    2    0    0 -0.26127755105E+02  0.21024334801E+02  0.48027515234E+01  0.33878439498E+02  0.00000000000E+00 0.  1.
         11    1    1    2    0    0  0.33419435242E+02  0.62196989424E+02  0.13625090639E+03  0.15345889885E+03  0.00000000000E+00 0. -1.
</event>
<event>
 6    1  0.8989754E-006  0.1123566E+03  0.7561462E-02  0.1256267E+00
         -3   -1    0    0    0  501 -0.00000000000E+00  0.00000000000E+00  0.14388034571E+03  0.14388034571E+03  0.00000000000E+00 0.  1.
          3   -1    0    0  501    0  0.00000000000E+00 -0.00000000000E+00 -0.18752854730E+03  0.18752854730E+03  0.00000000000E+00 0. -1.
          5    1    1    2  502    0  0.64837932116E+02 -0.11186200618E+02  0.72586179960E+02  0.98057709776E+02  0.41800000000E+01 0. -1.
         -5    1    1    2    0  502 -0.37402924808E+02  0.43744736888E+02  0.21993293015E+02  0.61755632352E+02  0.41800000000E+01 0.  1.
        -11    1    1    2    0    0 -0.55830062588E+02 -0.43368244364E+02 -0.87820655831E+02  0.11273982481E+03  0.00000000000E+00 0.  1.
         11    1    1    2    0    0  0.28395055280E+02  0.10809708094E+02 -0.50407018734E+02  0.58855726069E+02  0.00000000000E+00 0. -1.
</event>
<event>
 6    1  0.8989754E-006  0.1743868E+03  0.7561462E-02  0.1173349E+00
          2   -1    0    0  501    0  0.00000000000E+00  0.00000000000E+00  0.23493009610E+03  0.23493009610E+03  0.00000000000E+00 0. -1.
         -2   -1    0    0    0  501 -0.00000000000E+00 -0.00000000000E+00 -0.14435322221E+03  0.14435322221E+03  0.00000000000E+00 0.  1.
          5    1    1    2  502    0  0.52015957031E+02  0.68417497071E+02  0.10104956486E+02  0.86638306983E+02  0.41800000000E+01 0. -1.
         -5    1    1    2    0  502 -0.70312274367E+02  0.68552420110E+02 -0.18001029096E+02  0.99923769335E+02  0.41800000000E+01 0. -1.
        -11    1    1    2    0    0 -0.33407392769E+02 -0.84080770279E+02  0.65752769914E+02  0.11184389377E+03  0.00000000000E+00 0.  1.
         11    1    1    2    0    0  0.51703710104E+02 -0.52889146902E+02  0.32720176592E+02  0.80877348218E+02  0.00000000000E+00 0. -1.
</event>
<event>
 6    1  0.8989754E-006  0.1159960E+03  0.7561462E-02  0.1249852E+00
         -2   -1    0    0    0  501 -0.00000000000E+00  0.00000000000E+00  0.11989224673E+04  0.11989224673E+04  0.00000000000E+00 0.  1.
          2   -1    0    0  501    0  0.00000000000E+00 -0.00000000000E+00 -0.16128531850E+02  0.16128531850E+02  0.00000000000E+00 0. -1.
          5    1    1    2  502    0 -0.35406823905E+02 -0.73153042236E+02  0.26599827086E+03  0.27816822836E+03  0.41800000000E+01 0. -1.
         -5    1    1    2    0  502  0.22268074198E+01  0.54691717807E+02  0.65913777198E+03  0.66141984965E+03  0.41800000000E+01 0.  1.
        -11    1    1    2    0    0 -0.16370925796E+02 -0.24948781271E+02  0.58138391552E+02  0.65349227008E+02  0.00000000000E+00 0. -1.
         11    1    1    2    0    0  0.49550942281E+02  0.43410105700E+02  0.19951950108E+03  0.21011369415E+03  0.00000000000E+00 0.  1.
</event>
<event>
 6    1  0.8989754E-006  0.9355677E+02  0.7561462E-02  0.1294460E+00
          1   -1    0    0  501    0  0.00000000000E+00  0.00000000000E+00  0.25426596520E+02  0.25426596520E+02  0.00000000000E+00 0. -1.
         -1   -1    0    0    0  501 -0.00000000000E+00 -0.00000000000E+00 -0.53763915307E+03  0.53763915307E+03  0.00000000000E+00 0.  1.
          5    1    1    2  502    0 -0.58485168803E+01  0.49493477585E+02 -0.70370201687E+02  0.86332190744E+02  0.41800000000E+01 0. -1.
         -5    1    1    2    0  502 -0.19201997418E-01 -0.46490522954E+02 -0.32701513892E+03  0.33032974824E+03  0.41800000000E+01 0. -1.
        -11    1    1    2    0    0  0.22959920076E+02 -0.41987903431E+02 -0.67594214492E+02  0.82819803170E+02  0.00000000000E+00 0. -1.
         11    1    1    2    0    0 -0.17092201198E+02  0.38984948799E+02 -0.47233001449E+02  0.63584007428E+02  0.00000000000E+00 0.  1.
</event>
<event>
 6    1  0.8989754E-006  0.9838218E+02  0.7561462E-02  0.1283735E+00
          2   -1    0    0  501    0  0.00000000000E+00  0.00000000000E+00  0.60259631323E+02  0.60259631323E+02  0.00000000000E+00 0. -1.
         -2   -1    0    0    0  501 -0.00000000000E+00 -0.00000000000E+00 -0.26461294113E+03  0.26461294113E+03  0.00000000000E+00 0.  1.
          5    1    1    2  502    0  0.23976650109E+02  0.43293618133E+02 -0.95780175592E+02  0.10789129510E+03  0.41800000000E+01 0. -1.
         -5    1    1    2    0  502  0.22775567445E+02 -0.79287513007E+02 -0.72251048777E+02  0.10974025078E+03  0.41800000000E+01 0. -1.
        -11    1    1    2    0    0 -0.41706420685E+02  0.17327738007E+02 -0.60994287901E+02  0.75894526728E+02  0.00000000000E+00 0.  1.
         11    1    1    2    0    0 -0.50457968687E+01  0.18666156866E+02  0.24672202465E+02  0.31346499847E+02  0.00000000000E+00 0. -1.
</event>
<event>
 6    1  0.8989754E-006  0.1061178E+03  0.7561462E-02  0.1267933E+00
         -1   -1    0    0    0  501 -0.00000000000E+00  0.00000000000E+00  0.52196121412E+03  0.52196121412E+03  0.00000000000E+00 0.  1.
          1   -1    0    0  501    0  0.00000000000E+00 -0.00000000000E+00 -0.28691121463E+02  0.28691121463E+02  0.00000000000E+00 0. -1.
          5    1    1    2  502    0  0.24849080959E+02  0.29642932580E+02  0.23057054652E+03  0.23382991597E+03  0.41800000000E+01 0. -1.
         -5    1    1    2    0  502 -0.71496969184E+02 -0.18947937591E+02  0.11502693049E+03  0.13681925333E+03  0.41800000000E+01 0. -1.
        -11    1    1    2    0    0  0.33296039020E+02 -0.48683304699E+02  0.63327529429E+02  0.86539391923E+02  0.00000000000E+00 0. -1.
         11    1    1    2    0    0  0.13351849205E+02  0.37988309709E+02  0.84345086210E+02  0.93463774370E+02  0.00000000000E+00 0.  1.
</event>
<event>
 6    1  0.8989754E-006  0.2353706E+03  0.7561462E-02  0.1122916E+00
         -2   -1    0    0    0  501 -0.00000000000E+00  0.00000000000E+00  0.87191718493E+02  0.87191718493E+02  0.00000000000E+00 0. -1.
          2   -1    0    0  501    0  0.00000000000E+00 -0.00000000000E+00 -0.68055560816E+03  0.68055560816E+03  0.00000000000E+00 0.  1.
          5    1    1    2  502    0 -0.11268785115E+02  0.24281277859E+02 -0.38387034009E+01  0.27363735422E+02  0.41800000000E+01 0.  1.
         -5    1    1    2    0  502  0.19397871392E+03  0.85482223862E+02 -0.23121244560E+03  0.31370626301E+03  0.41800000000E+01 0.  1.
        -11    1    1    2    0    0 -0.11289827616E+03 -0.14947034661E+02 -0.17273701969E+03  0.20689976457E+03  0.00000000000E+00 0. -1.
         11    1    1    2    0    0 -0.69811652651E+02 -0.94816467059E+02 -0.18557572098E+03  0.21977756366E+03  0.00000000000E+00 0.  1.
</event>
<event>
 6    1  0.8989754E-006  0.1217385E+03  0.7561462E-02  0.1240256E+00
         -3   -1    0    0    0  501 -0.00000000000E+00  0.00000000000E+00  0.88684950821E+02  0.88684950821E+02  0.00000000000E+00 0.  1.
          3   -1    0    0  501    0  0.00000000000E+00 -0.00000000000E+00 -0.21760539952E+03  0.21760539952E+03  0.00000000000E+00 0. -1.
          5    1    1    2  502    0 -0.37416104893E+02  0.91572316772E+01 -0.20853685842E+02  0.44001913715E+02  0.41800000000E+01 0.  1.
         -5    1    1    2    0  502  0.67429355051E+02 -0.88402534248E+02 -0.27082902593E+02  0.11451061958E+03  0.41800000000E+01 0.  1.
        -11    1    1    2    0    0 -0.12896181544E+02  0.74635752068E+02 -0.12164876444E+02  0.76712392768E+02  0.00000000000E+00 0.  1.
         11    1    1    2    0    0 -0.17117068614E+02  0.46095505025E+01 -0.68818983817E+02  0.71065424275E+02  0.00000000000E+00 0. -1.
</event>
<event>
 6    1  0.8989754E-006  0.1194357E+03  0.7561462E-02  0.1244031E+00
          1   -1    0    0  501    0  0.00000000000E+00  0.00000000000E+00  0.66260065478E+03  0.66260065478E+03  0.00000000000E+00 0. -1.
         -1   -1    0    0    0  501 -0.00000000000E+00 -0.00000000000E+00 -0.32705114415E+02  0.32705114415E+02  0.00000000000E+00 0.  1.
          5    1    1    2  502    0  0.25714483870E+02 -0.59625818197E+01  0.13383368534E+03  0.13647605942E+03  0.41800000000E+01 0. -1.
         -5    1    1    2    0  502 -0.36831397375E+02  0.89160762017E+02  0.81740148813E+02  0.12651133405E+03  0.41800000000E+01 0. -1.
        -11    1    1    2    0    0  0.22534002846E+02  0.78221979611E+01  0.37127329655E+02  0.44129430911E+02  0.00000000000E+00 0.  1.
         11    1    1    2    0    0 -0.11417089341E+02 -0.91020378159E+02  0.37719437656E+03  0.38818894482E+03  0.00000000000E+00 0. -1.
</event>
<event>
 6    1  0.8989754E-006  0.1584649E+03  0.7561462E-02  0.1190441E+00
          1   -1    0    0  501    0  0.00000000000E+00  0.00000000000E+00  0.79939728319E+03  0.79939728319E+03  0.00000000000E+00 0. -1.
         -1   -1    0    0    0  501 -0.00000000000E+00 -0.00000000000E+00 -0.33973546238E+02  0.33973546238E+02  0.00000000000E+00 0.  1.
          5    1    1    2  502    0 -0.81536909747E+01 -0.43886765607E+02  0.16381171879E+03  0.16983604590E+03  0.41800000000E+01 0. -1.
         -5    1    1    2    0  502 -0.11550421656E+03  0.49467394871E+02  0.24960334021E+03  0.27947727464E+03  0.41800000000E+01 0. -1.
        -11    1    1    2    0    0  0.10592848426E+03 -0.35397345481E+02  0.20976598415E+03  0.23764592139E+03  0.00000000000E+00 0.  1.
         11    1    1    2    0    0  0.17729423280E+02  0.29816716217E+02  0.14224269380E+03  0.14641158750E+03  0.00000000000E+00 0. -1.
</event>
<event>
 6    1  0.8989754E-006  0.2085250E+03  0.7561462E-02  0.1142739E+00
          1   -1    0    0  501    0  0.00000000000E+00  0.00000000000E+00  0.11733432624E+03  0.11733432624E+03  0.00000000000E+00 0. -1.
         -1   -1    0    0    0  501 -0.00000000000E+00 -0.00000000000E+00 -0.39973998788E+03  0.39973998788E+03  0.00000000000E+00 0.  1.
          5    1    1    2  502    0  0.11809694678E+02 -0.10059058450E+02  0.60182020450E+01  0.17156476944E+02  0.41800000000E+01 0.  1.
         -5    1    1    2    0  502 -0.19518055598E+03 -0.18174380431E+02 -0.18201859246E+03  0.26753317166E+03  0.41800000000E+01 0.  1.
        -11    1    1    2    0    0  0.97696738709E+02  0.58710768192E+02 -0.44401178191E+02  0.12232363501E+03  0.00000000000E+00 0. -1.
         11    1    1    2    0    0  0.85674122592E+02 -0.30477329311E+02 -0.62004093035E+02  0.11006103051E+03  0.00000000000E+00 0.  1.
</event>
<event>
 6    1  0.8989754E-006  0.8681073E+02  0.7561462E-02  0.1310764E+00
         -1   -1    0    0    0  501 -0.00000000000E+00  0.00000000000E+00  0.51561057116E+02  0.51561057116E+02  0.00000000000E+00 0.  1.
          1   -1    0    0  501    0  0.00000000000E+00 -0.00000000000E+00 -0.29309821828E+03  0.29309821828E+03  0.00000000000E+00 0. -1.
          5    1    1    2  502    0 -0.47705593282E+02 -0.21876901296E+02 -0.15699529149E+01  0.52672189938E+02  0.41800000000E+01 0.  1.
         -5    1    1    2    0  502 -0.55282152136E+01  0.33360253288E+02 -0.13940571182E+03  0.14350920720E+03  0.41800000000E+01 0.  1.
        -11    1    1    2    0    0 -0.40767003978E+01 -0.27175900621E+02  0.44332074344E+01  0.27835272387E+02  0.00000000000E+00 0.  1.
         11    1    1    2    0    0  0.57310508894E+02  0.15692548629E+02 -0.10499470386E+03  0.12064260587E+03  0.00000000000E+00 0. -1.
</event>
<event>
 6    1  0.8989754E-006  0.1623218E+03  0.7561462E-02  0.1186100E+00
          3   -1    0    0  501    0  0.00000000000E+00  0.00000000000E+00  0.36270908038E+03  0.36270908038E+03  0.00000000000E+00 0. -1.
         -3   -1    0    0    0  501 -0.00000000000E+00 -0.00000000000E+00 -0.10104361963E+03  0.10104361963E+03  0.00000000000E+00 0.  1.
          5    1    1    2  502    0  0.30633345800E+01  0.11924036853E+03  0.13981911552E+03  0.18383282343E+03  0.41800000000E+01 0.  1.
         -5    1    1    2    0  502  0.31158141586E+01  0.36535932317E+02 -0.26964033755E+02  0.45706828423E+02  0.41800000000E+01 0.  1.
        -11    1    1    2    0    0 -0.27569445594E+02 -0.13753956061E+03  0.15089651362E+03  0.20602660723E+03  0.00000000000E+00 0. -1.
         11    1    1    2    0    0  0.21390296856E+02 -0.18236740238E+02 -0.20861346409E+01  0.28186440922E+02  0.00000000000E+00 0.  1.
</event>
<event>
 6    1  0.8989754E-006  0.1020294E+03  0.7561462E-02  0.1276085E+00
          2   -1    0    0  501    0  0.00000000000E+00  0.00000000000E+00  0.76477147214E+03  0.76477147214E+03  0.00000000000E+00 0.  1.
         -2   -1    0    0    0  501 -0.00000000000E+00 -0.00000000000E+00 -0.22945631095E+02  0.22945631095E+02  0.00000000000E+00 0. -1.
          5    1    1    2  502    0 -0.49448616619E+02  0.36305475483E+02  0.46207886804E+02  0.76914851872E+02  0.41800000000E+01 0. -1.
         -5    1    1    2    0  502  0.43653863244E+02  0.62543245135E+01  0.17768572692E+03  0.18312418274E+03  0.41800000000E+01 0. -1.
        -11    1    1    2    0    0  0.30631701456E+02 -0.60379943952E+02  0.40779938134E+03  0.41338163262E+03  0.00000000000E+00 0.  1.
         11    1    1    2    0    0 -0.24836948081E+02  0.17820143956E+02  0.11013284598E+03  0.11429643601E+03  0.00000000000E+00 0. -1.
</event>
<event>
 6    1  0.8989754E-006  0.1074311E+03  0.7561462E-02  0.1265402E+00
         -2   -1    0    0    0  501 -0.00000000000E+00  0.00000000000E+00  0.34495088155E+03  0.34495088155E+03  0.00000000000E+00 0.  1.
          2   -1    0    0  501    0  0.00000000000E+00 -0.00000000000E+00 -0.56564520402E+02  0.56564520402E+02  0.00000000000E+00 0. -1.
          5    1    1    2  502    0 -0.45550122181E+02  0.14733538215E+02 -0.48822863618E+00  0.48058314018E+02  0.41800000000E+01 0.  1.
         -5    1    1    2    0  502 -0.18034923273E+02  0.40487567779E+02  0.18478125539E+03  0.19006863588E+03  0.41800000000E+01 0.  1.
        -11    1    1    2    0    0 -0.22755406302E+02 -0.12287218129E+02  0.39904207078E+02  0.47551340547E+02  0.00000000000E+00 0.  1.
         11    1    1    2    0    0  0.86340451755E+02 -0.42933887864E+02  0.64189127317E+02  0.11583711151E+03  0.00000000000E+00 0. -1.
</event>
<event>
 6    1  0.8989754E-006  0.9518673E+02  0.7561462E-02  0.1290756E+00
         -1   -1    0    0    0  501 -0.00000000000E+00  0.00000000000E+00  0.13482474322E+03  0.13482474322E+03  0.00000000000E+00 0.  1.
          1   -1    0    0  501    0  0.00000000000E+00 -0.00000000000E+00 -0.10125005333E+03  0.10125005333E+03  0.00000000000E+00 0. -1.
          5    1    1    2  502    0 -0.42354851044E+02 -0.21410721743E+02  0.73624501939E+02  0.87694880685E+02  0.41800000000E+01 0.  1.
         -5    1    1    2    0  502  0.49624886730E+02  0.65503931811E+01 -0.13587633212E+02  0.52034922985E+02  0.41800000000E+01 0.  1.
        -11    1    1    2    0    0  0.29299603018E+02  0.38928065445E+02 -0.16565197896E+02  0.51461313601E+02  0.00000000000E+00 0.  1.
         11    1    1    2    0    0 -0.36569638703E+02 -0.24067736882E+02 -0.98969809457E+01  0.44883679276E+02  0.00000000000E+00 0. -1.
</event>
<event>
 6    1  0.8989754E-006  0.9003876E+02  0.7561462E-02  0.1302758E+00
         -2   -1    0    0    0  501 -0.00000000000E+00  0.00000000000E+00  0.40349112292E+03  0.40349112292E+03  0.00000000000E+00 0. -1.
          2   -1    0    0  501    0  0.00000000000E+00 -0.00000000000E+00 -0.33225578941E+02  0.33225578941E+02  0.00000000000E+00 0.  1.
          5    1    1    2  502    0 -0.42120387073E+02  0.29748973760E+01  0.45306494020E+02  0.62073567820E+02  0.41800000000E+01 0.  1.
         -5    1    1    2    0  502  0.81158101269E+02 -0.10863208645E+02  0.20000929494E+03  0.21616159965E+03  0.41800000000E+01 0.  1.
        -11    1    1    2    0    0 -0.10012659782E+02  0.21411166674E+02 -0.54090261776E+01  0.24247659236E+02  0.00000000000E+00 0.  1.
         11    1    1    2    0    0 -0.29025054414E+02 -0.13522855405E+02  0.13035878120E+03  0.13423387515E+03  0.00000000000E+00 0. -1.
</event>
<event>
 6    1  0.8989754E-006  0.9787419E+02  0.7561462E-02  0.1284831E+00
          1   -1    0    0  501    0  0.00000000000E+00  0.00000000000E+00  0.22496461901E+03  0.22496461901E+03  0.00000000000E+00 0. -1.
         -1   -1    0    0    0  501 -0.00000000000E+00 -0.00000000000E+00 -0.71237197139E+02  0.71237197139E+02  0.00000000000E+00 0.  1.
          5    1    1    2  502    0 -0.15871994114E+02 -0.63205197930E+02  0.17104199856E+02  0.67504394637E+02  0.41800000000E+01 0.  1.
         -5    1    1    2    0  502  0.30266781199E+02  0.48236447400E+02 -0.16056050516E+02  0.59313590855E+02  0.41800000000E+01 0.  1.
        -11    1    1    2    0    0  0.51978243352E+01  0.40686444114E+02  0.85572887826E+02  0.94895327827E+02  0.00000000000E+00 0. -1.
         11    1    1    2    0    0 -0.19592611421E+02 -0.25717693584E+02  0.67106384701E+02  0.74488502825E+02  0.00000000000E+00 0.  1.
</event>
<event>
 6    1  0.8989754E-006  0.1233702E+03  0.7561462E-02  0.1237639E+00
         -1   -1    0    0    0  501 -0.00000000000E+00  0.00000000000E+00  0.95704560142E+02  0.95704560142E+02  0.00000000000E+00 0.  1.
          1   -1    0    0  501    0  0.00000000000E+00 -0.00000000000E+00 -0.19083812385E+03  0.19083812385E+03  0.00000000000E+00 0. -1.
          5    1    1    2  502    0 -0.21186836777E+02 -0.76490967635E+02  0.62529929398E+01  0.79726548295E+02  0.41800000000E+01 0.  1.
         -5    1    1    2    0  502  0.56841775413E+02  0.74147353802E+01 -0.43797298055E+02  0.72260926162E+02  0.41800000000E+01 0.  1.
        -11    1    1    2    0    0 -0.52282351581E+02  0.16781928423E+02 -0.57740550319E+02  0.79680917161E+02  0.00000000000E+00 0. -1.
         11    1    1    2    0    0  0.16627412945E+02  0.52294303832E+02  0.15129172388E+00  0.54874292376E+02  0.00000000000E+00 0.  1.
</event>
<event>
 6    1  0.8989754E-006  0.1615993E+03  0.7561462E-02  0.1186903E+00
          2   -1    0    0  501    0  0.00000000000E+00  0.00000000000E+00  0.93204358756E+03  0.93204358756E+03  0.00000000000E+00 0.  1.
         -2   -1    0    0    0  501 -0.00000000000E+00 -0.00000000000E+00 -0.14193211225E+03  0.14193211225E+03  0.00000000000E+00 0. -1.
          5    1    1    2  502    0  0.12806524969E+03 -0.15203398271E+02 -0.42552782972E+02  0.13586781531E+03  0.41800000000E+01 0.  1.
         -5    1    1    2    0  502 -0.18730634724E+02 -0.36822656033E+02 -0.36708805382E+02  0.55423401800E+02  0.41800000000E+01 0.  1.
        -11    1    1    2    0    0 -0.75488037659E+02 -0.15541830568E+02  0.45269783061E+03  0.45921162677E+03  0.00000000000E+00 0.  1.
         11    1    1    2    0    0 -0.33846577310E+02  0.67567884873E+02  0.41667523305E+03  0.42347285592E+03  0.00000000000E+00 0. -1.
</event>
<event>
 6    1  0.8989754E-006  0.6880416E+02  0.7561462E-02  0.1364207E+00
          2   -1    0    0  501    0  0.00000000000E+00  0.00000000000E+00  0.12420414803E+03  0.12420414803E+03  0.00000000000E+00 0. -1.
         -2   -1    0    0    0  501 -0.00000000000E+00 -0.00000000000E+00 -0.18722198895E+03  0.18722198895E+03  0.00000000000E+00 0.  1.
          5    1    1    2  502    0 -0.10064537753E+01 -0.35838552820E+02  0.16177571828E+02  0.39555038209E+02  0.41800000000E+01 0.  1.
         -5    1    1    2    0  502 -0.84914622683E+01 -0.11817970885E+02 -0.14727895488E+03  0.14805516647E+03  0.41800000000E+01 0.  1.
        -11    1    1    2    0    0  0.31408472327E+01  0.66454285523E+02  0.77257196003E+02  0.10195445709E+03  0.00000000000E+00 0. -1.
         11    1    1    2    0    0  0.63570688109E+01 -0.18797761818E+02 -0.91736538784E+01  0.21861475218E+02  0.00000000000E+00 0.  1.
</event>
<event>
 6    1  0.8989754E-006  0.6870182E+02  0.7561462E-02  0.1364564E+00
          2   -1    0    0  501    0  0.00000000000E+00  0.00000000000E+00  0.26215640054E+03  0.26215640054E+03  0.00000000000E+00 0. -1.
         -2   -1    0    0    0  501 -0.00000000000E+00 -0.00000000000E+00 -0.47165565596E+02  0.47165565596E+02  0.00000000000E+00 0.  1.
          5    1    1    2  502    0  0.13407094458E+02  0.48337251046E+02  0.11015746464E+03  0.12111308533E+03  0.41800000000E+01 0. -1.
         -5    1    1    2    0  502 -0.12431261626E+02 -0.32154790276E+02 -0.14052640375E+02  0.37462193006E+02  0.41800000000E+01 0. -1.
        -11    1    1    2    0    0  0.18538561042E+02 -0.24837628282E+02  0.10695133962E+01  0.31011770074E+02  0.00000000000E+00 0.  1.
         11    1    1    2    0    0 -0.19514393874E+02  0.86551675121E+01  0.11781649728E+03  0.11973491773E+03  0.00000000000E+00 0. -1.
</event>
<event>
 6    1  0.8989754E-006  0.3322550E+02  0.7561462E-02  0.1564948E+00
          3   -1    0    0  501    0  0.00000000000E+00  0.00000000000E+00  0.40508137498E+02  0.40508137498E+02  0.00000000000E+00 0. -1.
         -3   -1    0    0    0  501 -0.00000000000E+00 -0.00000000000E+00 -0.39264310285E+03  0.39264310285E+03  0.00000000000E+00 0.  1.
          5    1    1    2  502    0 -0.12639531804E+01 -0.18225882832E+02  0.52141086433E+01  0.19453526970E+02  0.41800000000E+01 0. -1.
         -5    1    1    2    0  502 -0.41467611764E-01  0.10914583825E+02 -0.30821759065E+03  0.30843911141E+03  0.41800000000E+01 0. -1.
        -11    1    1    2    0    0  0.22918212453E+01  0.21588765961E+02  0.23054498166E+02  0.31667604047E+02  0.00000000000E+00 0. -1.
         11    1    1    2    0    0 -0.98640045311E+00 -0.14277466955E+02 -0.72185981509E+02  0.73590997921E+02  0.00000000000E+00 0.  1.
</event>
<event>
 6    1  0.8989754E-006  0.1727089E+03  0.7561462E-02  0.1175052E+00
         -1   -1    0    0    0  501 -0.00000000000E+00  0.00000000000E+00  0.22687709161E+03  0.22687709161E+03  0.00000000000E+00 0.  1.
          1   -1    0    0  501    0  0.00000000000E+00 -0.00000000000E+00 -0.18993082748E+03  0.18993082748E+03  0.00000000000E+00 0. -1.
          5    1    1    2  502    0 -0.34610158403E+02 -0.90862325396E+02 -0.79368748557E+01  0.97643697305E+02  0.41800000000E+01 0. -1.
         -5    1    1    2    0  502  0.12663757122E+03  0.43454384007E+02  0.10559747096E+03  0.17056862609E+03  0.41800000000E+01 0.  1.
        -11    1    1    2    0    0 -0.91770118429E+02  0.29728885489E+02 -0.12537380147E+02  0.97276652748E+02  0.00000000000E+00 0. -1.
         11    1    1    2    0    0 -0.25729438755E+00  0.17679055899E+02 -0.48176951821E+02  0.51318942942E+02  0.00000000000E+00 0.  1.
</event>
<event>
 6    1  0.8989754E-006  0.1103439E+03  0.7561462E-02  0.1259934E+00
          1   -1    0    0  501    0  0.00000000000E+00  0.00000000000E+00  0.85413336054E+02  0.85413336054E+02  0.00000000000E+00 0. -1.
         -1   -1    0    0    0  501 -0.00000000000E+00 -0.00000000000E+00 -0.34526233875E+03  0.34526233875E+03  0.00000000000E+00 0.  1.
          5    1    1    2  502    0 -0.14105007523E+02  0.98852351987E+02 -0.20917832092E+03  0.23182704992E+03  0.41800000000E+01 0.  1.
         -5    1    1    2    0  502  0.18995438238E+02 -0.34818120708E+02 -0.63836934674E+02  0.75271208520E+02  0.41800000000E+01 0.  1.
        -11    1    1    2    0    0 -0.26910434837E+02 -0.40592742207E+02 -0.38932367496E+02  0.62351194550E+02  0.00000000000E+00 0.  1.
         11    1    1    2    0    0  0.22020004123E+02 -0.23441489072E+02  0.52098620391E+02  0.61226221818E+02  0.00000000000E+00 0. -1.
</event>
<event>
 6    1  0.8989754E-006  0.1477636E+03  0.7561462E-02  0.1203248E+00
          1   -1    0    0  501    0  0.00000000000E+00  0.00000000000E+00  0.63698410696E+02  0.63698410696E+02  0.00000000000E+00 0. -1.
         -1   -1    0    0    0  501 -0.00000000000E+00 -0.00000000000E+00 -0.39196111990E+03  0.39196111990E+03  0.00000000000E+00 0.  1.
          5    1    1    2  502    0  0.10543817700E+03  0.10233694284E+03 -0.14349968011E+03  0.20542563041E+03  0.41800000000E+01 0. -1.
         -5    1    1    2    0  502 -0.21046472530E+02 -0.14337461848E+02 -0.42644056558E+02  0.49844806931E+02  0.41800000000E+01 0. -1.
        -11    1    1    2    0    0 -0.65006880501E+02 -0.58661745933E+02 -0.47867367746E+02  0.99791682236E+02  0.00000000000E+00 0. -1.
         11    1    1    2    0    0 -0.19384823966E+02 -0.29337735054E+02 -0.94251604790E+02  0.10059741102E+03  0.00000000000E+00 0.  1.
</event>
<event>
 6    1  0.8989754E-006  0.2117521E+03  0.7561462E-02  0.1140186E+00
         -2   -1    0    0    0  501 -0.00000000000E+00  0.00000000000E+00  0.56127983921E+02  0.56127983921E+02  0.00000000000E+00 0. -1.
          2   -1    0    0  501    0  0.00000000000E+00 -0.00000000000E+00 -0.80939779081E+03  0.80939779081E+03  0.00000000000E+00 0.  1.
          5    1    1    2  502    0 -0.31609574612E+02 -0.55767365408E+02 -0.98722936353E+02  0.11778308373E+03  0.41800000000E+01 0.  1.
         -5    1    1    2    0  502  0.11525962890E+03 -0.10515247164E+03 -0.24371998188E+03  0.28941099895E+03  0.41800000000E+01 0. -1.
        -11    1    1    2    0    0 -0.60222944681E+02  0.24899194836E+02 -0.13352089462E+03  0.14857524110E+03  0.00000000000E+00 0.  1.
         11    1    1    2    0    0 -0.23427109608E+02  0.13602064221E+03 -0.27730599404E+03  0.30975645095E+03  0.00000000000E+00 0. -1.
</event>
<event>
 6    1  0.8989754E-006  0.1425156E+03  0.7561462E-02  0.1209984E+00
          2   -1    0    0  501    0  0.00000000000E+00  0.00000000000E+00  0.44428917962E+03  0.44428917962E+03  0.00000000000E+00 0. -1.
         -2   -1    0    0    0  501 -0.00000000000E+00 -0.00000000000E+00 -0.69386297637E+02  0.69386297637E+02  0.00000000000E+00 0.  1.
          5    1    1    2  502    0 -0.87790107044E+02  0.52524816692E+02  0.98863818959E+02  0.14232879667E+03  0.41800000000E+01 0. -1.
         -5    1    1    2    0  502  0.18473135436E+02  0.32938934439E+02 -0.18937751520E+02  0.42453986473E+02  0.41800000000E+01 0. -1.
        -11    1    1    2    0    0  0.88540897839E+02 -0.88496946564E+02  0.26602477524E+03  0.29400745090E+03  0.00000000000E+00 0.  1.
         11    1    1    2    0    0 -0.19223926230E+02  0.30331954327E+01  0.28952039303E+02  0.34885243213E+02  0.00000000000E+00 0. -1.
</event>
<event>
 6    1  0.8989754E-006  0.1569529E+03  0.7561462E-02  0.1192180E+00
         -1   -1    0    0    0  501 -0.00000000000E+00  0.00000000000E+00  0.12581990737E+03  0.12581990737E+03  0.00000000000E+00 0.  1.
          1   -1    0    0  501    0  0.00000000000E+00 -0.00000000000E+00 -0.37689680306E+03  0.37689680306E+03  0.00000000000E+00 0. -1.
          5    1    1    2  502    0 -0.73736435216E+02  0.52929968957E+02  0.46969364518E+02  0.10228507758E+03  0.41800000000E+01 0. -1.
         -5    1    1    2    0  502  0.11653969100E+03 -0.95956935756E+02 -0.12522065792E+03  0.19618083155E+03  0.41800000000E+01 0.  1.
        -11    1    1    2    0    0 -0.15070023252E+02  0.41609320051E+02 -0.19378394344E+02  0.48311109316E+02  0.00000000000E+00 0.  1.
         11    1    1    2    0    0 -0.27733232528E+02  0.14176467475E+01 -0.15344720795E+03  0.15593969198E+03  0.00000000000E+00 0. -1.
</event>
<event>
 6    1  0.8989754E-006  0.2041064E+03  0.7561462E-02  0.1146320E+00
          2   -1    0    0  501    0  0.00000000000E+00  0.00000000000E+00  0.94997355442E+02  0.94997355442E+02  0.00000000000E+00 0. -1.
         -2   -1    0    0    0  501 -0.00000000000E+00 -0.00000000000E+00 -0.50489652447E+03  0.50489652447E+03  0.00000000000E+00 0.  1.
          5    1    1    2  502    0  0.52728637877E+00 -0.22186101548E+02 -0.43911200856E+02  0.49377799601E+02  0.41800000000E+01 0. -1.
         -5    1    1    2    0  502  0.15172717479E+03  0.12936384488E+03 -0.21787271824E+03  0.29536779392E+03  0.41800000000E+01 0. -1.
        -11    1    1    2    0    0 -0.10166128723E+03 -0.71030962063E+02 -0.39787798020E+02  0.13024393946E+03  0.00000000000E+00 0. -1.
         11    1    1    2    0    0 -0.50593173937E+02 -0.36146781267E+02 -0.10832745191E+03  0.12490434694E+03  0.00000000000E+00 0.  1.
</event>
<event>
 6    1  0.8989754E-006  0.1640950E+03  0.7561462E-02  0.1184150E+00
          2   -1    0    0  501    0  0.00000000000E+00  0.00000000000E+00  0.39808644776E+03  0.39808644776E+03  0.00000000000E+00 0. -1.
         -2   -1    0    0    0  501 -0.00000000000E+00 -0.00000000000E+00 -0.82286398981E+02  0.82286398981E+02  0.00000000000E+00 0.  1.
          5    1    1    2  502    0 -0.52592760283E+02  0.14668563314E+03  0.96026008169E+02  0.18308779328E+03  0.41800000000E+01 0. -1.
         -5    1    1    2    0  502  0.30130733359E+02 -0.84920574799E+01  0.25120103428E+02  0.40354282663E+02  0.41800000000E+01 0. -1.
        -11    1    1    2    0    0  0.23470246646E+02 -0.10839082653E+03  0.19797984232E+03  0.22692607104E+03  0.00000000000E+00 0. -1.
         11    1    1    2    0    0 -0.10082197228E+01 -0.29802749129E+02 -0.33259051358E+01  0.30004699759E+02  0.00000000000E+00 0.  1.
</event>
<event>
 6    1  0.8989754E-006  0.1793671E+03  0.7561462E-02  0.1168417E+00
         -2   -1    0    0    0  501 -0.00000000000E+00  0.00000000000E+00  0.85909125109E+02  0.85909125109E+02  0.00000000000E+00 0.  1.
          2   -1    0    0  501    0  0.00000000000E+00 -0.00000000000E+00 -0.47943804991E+03  0.47943804991E+03  0.00000000000E+00 0. -1.
          5    1    1    2  502    0 -0.97073762928E+02  0.12004358080E+03 -0.14749828859E+03  0.21355794127E+03  0.41800000000E+01 0.  1.
         -5    1    1    2    0  502  0.17283222611E+02  0.22105017872E+02  0.13826662814E+02  0.31559318806E+02  0.41800000000E+01 0.  1.
        -11    1    1    2    0    0 -0.92816181169E+01 -0.36881895646E+02 -0.11091944330E+03  0.11725845626E+03  0.00000000000E+00 0. -1.
         11    1    1    2    0    0  0.89072158433E+02 -0.10526670303E+03 -0.14893785572E+03  0.20297145869E+03  0.00000000000E+00 0.  1.
</event>
<event>
 6    1  0.8989754E-006  0.1355947E+03  0.7561462E-02  0.1219383E+00
         -1   -1    0    0    0  501 -0.00000000000E+00  0.00000000000E+00  0.15761956736E+03  0.15761956736E+03  0.00000000000E+00 0.  1.
          1   -1    0    0  501    0  0.00000000000E+00 -0.00000000000E+00 -0.20601559862E+03  0.20601559862E+03  0.00000000000E+00 0. -1.
          5    1    1    2  502    0 -0.10179820624E+02  0.61227398698E+02  0.69886685130E+02  0.93563049639E+02  0.41800000000E+01 0. -1.
         -5    1    1    2    0  502 -0.76326596785E+02 -0.11337398359E+02  0.16566774341E+02  0.79033008234E+02  0.41800000000E+01 0.  1.
        -11    1    1    2    0    0  0.36892816780E+02  0.23041174882E+02 -0.25039413092E+02  0.50189121111E+02  0.00000000000E+00 0.  1.
         11    1    1    2    0    0  0.49613600629E+02 -0.72931175221E+02 -0.10981007763E+03  0.14084998699E+03  0.00000000000E+00 0. -1.
</event>
<event>
 6    1  0.8989754E-006  0.1384325E+03  0.7561462E-02  0.1215454E+00
          2   -1    0    0  501    0  0.00000000000E+00  0.00000000000E+00  0.31576802439E+02  0.31576802439E+02  0.00000000000E+00 0.  1.
         -2   -1    0    0    0  501 -0.00000000000E+00 -0.00000000000E+00 -0.87784759584E+03  0.87784759584E+03  0.00000000000E+00 0. -1.
          5    1    1    2  502    0  0.12787017306E+02  0.36709875000E+02 -0.16632357750E+03  0.17085703839E+03  0.41800000000E+01 0.  1.
         -5    1    1    2    0  502 -0.11076760331E+03 -0.46131496869E+02 -0.49043953994E+03  0.50492176789E+03  0.41800000000E+01 0.  1.
        -11    1    1    2    0    0  0.44656554787E+02  0.36705965515E+02 -0.34148090919E+02  0.67138870286E+02  0.00000000000E+00 0.  1.
         11    1    1    2    0    0  0.53324031220E+02 -0.27284343646E+02 -0.15535958503E+03  0.16650672171E+03  0.00000000000E+00 0. -1.
</event>
<event>
 6    1  0.8989754E-006  0.1358891E+03  0.7561462E-02  0.1218970E+00
          1   -1    0    0  501    0  0.00000000000E+00  0.00000000000E+00  0.94413082382E+03  0.94413082382E+03  0.00000000000E+00 0. -1.
         -1   -1    0    0    0  501 -0.00000000000E+00 -0.00000000000E+00 -0.31386887248E+02  0.31386887248E+02  0.00000000000E+00 0.  1.
          5    1    1    2  502    0  0.46465625258E+01  0.11852784542E+03  0.27113013495E+03  0.29597206483E+03  0.41800000000E+01 0. -1.
         -5    1    1    2    0  502 -0.51884172952E+00 -0.11108478701E+02 -0.81792705610E+01  0.14423604359E+02  0.41800000000E+01 0. -1.
        -11    1    1    2    0    0 -0.43871707346E+02 -0.84797409277E+02  0.47045926268E+03  0.48004921120E+03  0.00000000000E+00 0. -1.
         11    1    1    2    0    0  0.39743986550E+02 -0.22621957445E+02  0.17933380950E+03  0.18507283068E+03  0.00000000000E+00 0.  1.
</event>
<event>
 6    1  0.8989754E-006  0.6749443E+02  0.7561462E-02  0.1368827E+00
         -1   -1    0    0    0  501 -0.00000000000E+00  0.00000000000E+00  0.12818673844E+03  0.12818673844E+03  0.00000000000E+00 0.  1.
          1   -1    0    0  501    0  0.00000000000E+00 -0.00000000000E+00 -0.16376420765E+03  0.16376420765E+03  0.00000000000E+00 0. -1.
          5    1    1    2  502    0  0.13278086556E+01 -0.26823238395E+02  0.10324749428E+03  0.10676500676E+03  0.41800000000E+01 0.  1.
         -5    1    1    2    0  502 -0.20013103571E+02  0.21228703317E+02 -0.27884781622E+02  0.40573582602E+02  0.41800000000E+01 0.  1.
        -11    1    1    2    0    0 -0.23530252305E+02  0.22785939719E+02 -0.87347183636E+02  0.93286667384E+02  0.00000000000E+00 0. -1.
         11    1    1    2    0    0  0.42215547219E+02 -0.17191404641E+02 -0.23592998232E+02  0.51325689339E+02  0.00000000000E+00 0.  1.
</event>
<event>
 6    1  0.8989754E-006  0.1856280E+03  0.7561462E-02  0.1162465E+00
         -1   -1    0    0    0  501 -0.00000000000E+00  0.00000000000E+00  0.29077326546E+03  0.29077326546E+03  0.00000000000E+00 0.  1.
          1   -1    0    0  501    0  0.00000000000E+00 -0.00000000000E+00 -0.15565296727E+03  0.15565296727E+03  0.00000000000E+00 0. -1.
          5    1    1    2  502    0 -0.41538369036E+02 -0.13925065902E+03  0.88088233948E+02  0.16997997382E+03  0.41800000000E+01 0.  1.
         -5    1    1    2    0  502  0.43881147521E+02 -0.19659030767E+02  0.78007092165E+02  0.91731191132E+02  0.41800000000E+01 0.  1.
        -11    1    1    2    0    0 -0.38746883682E+02  0.53202068786E+02 -0.31378994444E+02  0.72913801234E+02  0.00000000000E+00 0.  1.
         11    1    1    2    0    0  0.36404105197E+02  0.10570762100E+03  0.40396652118E+00  0.11180126654E+03  0.00000000000E+00 0. -1.
</event>
<event>
 6    1  0.8989754E-006  0.5515338E+02  0.7561462E-02  0.1419375E+00
         -1   -1    0    0    0  501 -0.00000000000E+00  0.00000000000E+00  0.69714022330E+02  0.69714022330E+02  0.00000000000E+00 0.  1.
          1   -1    0    0  501    0  0.00000000000E+00 -0.00000000000E+00 -0.20175097794E+03  0.20175097794E+03  0.00000000000E+00 0. -1.
          5    1    1    2  502    0  0.67340617408E+01 -0.86447970090E+01  0.50894303695E+02  0.52228178711E+02  0.41800000000E+01 0.  1.
         -5    1    1    2    0  502 -0.13093528583E+02  0.79113289632E+01 -0.73322309916E+02  0.75017752220E+02  0.41800000000E+01 0.  1.
        -11    1    1    2    0    0  0.28927963206E+02  0.32655322732E+02 -0.23274860891E+02  0.49446094967E+02  0.00000000000E+00 0.  1.
         11    1    1    2    0    0 -0.22568496364E+02 -0.31921854686E+02 -0.86334088495E+02  0.94772974371E+02  0.00000000000E+00 0. -1.
</event>
<event>
 6    1  0.8989754E-006  0.1715195E+03  0.7561462E-02  0.1176272E+00
         -2   -1    0    0    0  501 -0.00000000000E+00  0.00000000000E+00  0.66695894139E+02  0.66695894139E+02  0.00000000000E+00 0.  1.
          2   -1    0    0  501    0  0.00000000000E+00 -0.00000000000E+00 -0.10938075771E+04  0.10938075771E+04  0.00000000000E+00 0. -1.
          5    1    1    2  502    0  0.43538252153E+02  0.47069830850E+01 -0.27309203949E+03  0.27661248982E+03  0.41800000000E+01 0. -1.
         -5    1    1    2    0  502  0.64464089010E+02  0.10452392983E+03 -0.15392430417E+02  0.12383565719E+03  0.41800000000E+01 0.  1.
        -11    1    1    2    0    0  0.76167911821E+01  0.83275660249E+01 -0.22266549860E+02  0.24963235096E+02  0.00000000000E+00 0.  1.
         11    1    1    2    0    0 -0.11561913234E+03 -0.11755847894E+03 -0.71636066324E+03  0.73509208917E+03  0.00000000000E+00 0. -1.
</event>
<event>
 6    1  0.8989754E-006  0.1192506E+03  0.7561462E-02  0.1244338E+00
          1   -1    0    0  501    0  0.00000000000E+00  0.00000000000E+00  0.41756669070E+03  0.41756669070E+03  0.00000000000E+00 0. -1.
         -1   -1    0    0    0  501 -0.00000000000E+00 -0.00000000000E+00 -0.47539752171E+02  0.47539752171E+02  0.00000000000E+00 0.  1.
          5    1    1    2  502    0 -0.66997154244E+02 -0.58607033055E+02  0.15636079461E+03  0.17997103515E+03  0.41800000000E+01 0.  1.
         -5    1    1    2    0  502 -0.82705993694E+01  0.24661388631E+02 -0.11253513607E+02  0.28647877262E+02  0.41800000000E+01 0.  1.
        -11    1    1    2    0    0  0.82601438657E+02 -0.56320651306E+01  0.14382370010E+03  0.16595172351E+03  0.00000000000E+00 0.  1.
         11    1    1    2    0    0 -0.73336850433E+01  0.39577709554E+02  0.81095957423E+02  0.90535806951E+02  0.00000000000E+00 0. -1.
</event>
<event>
 6    1  0.8989754E-006  0.1057497E+03  0.7561462E-02  0.1268650E+00
          1   -1    0    0  501    0  0.00000000000E+00  0.00000000000E+00  0.23262539867E+03  0.23262539867E+03  0.00000000000E+00 0. -1.
         -1   -1    0    0    0  501 -0.00000000000E+00 -0.00000000000E+00 -0.62524874994E+02  0.62524874994E+02  0.00000000000E+00 0.  1.
          5    1    1    2  502    0 -0.40127829963E+02  0.15386230070E+02  0.35402094713E+01  0.43324176812E+02  0.41800000000E+01 0.  1.
         -5    1    1    2    0  502  0.85213813686E+02  0.15465148320E+02  0.71858530162E+02  0.11261299043E+03  0.41800000000E+01 0.  1.
        -11    1    1    2    0    0 -0.52124010745E+02 -0.22647230130E+01  0.15058788039E+02  0.54302933288E+02  0.00000000000E+00 0.  1.
         11    1    1    2    0    0  0.70380270213E+01 -0.28586655377E+02  0.79642995999E+02  0.84910173134E+02  0.00000000000E+00 0. -1.
</event>
<event>
 6    1  0.4291802E-005  0.1542604E+03  0.7561462E-02  0.1195333E+00
          1   -1    0    0  501    0  0.00000000000E+00  0.00000000000E+00  0.74924623861E+03  0.74924623861E+03  0.00000000000E+00 0. -1.
         -1   -1    0    0    0  501 -0.00000000000E+00 -0.00000000000E+00 -0.33305153571E+02  0.33305153571E+02  0.00000000000E+00 0.  1.
          5    1    1    2  502    0 -0.93231133131E+02  0.88376435683E+02  0.22916975895E+03  0.26275214440E+03  0.41800000000E+01 0.  1.
         -5    1    1    2    0  502 -0.74569516648E+01 -0.34912584832E+02  0.12009349605E+03  0.12535714938E+03  0.41800000000E+01 0.  1.
        -11    1    1    2    0    0 -0.15263164087E+02  0.22103051539E+01  0.25221602970E+02  0.29563133853E+02  0.00000000000E+00 0. -1.
         11    1    1    2    0    0  0.11595124888E+03 -0.55674156005E+02  0.34145622708E+03  0.36487896455E+03  0.00000000000E+00 0.  1.
</event>
<event>
 6    1  0.8989754E-006  0.8996897E+02  0.7561462E-02  0.1302927E+00
          2   -1    0    0  501    0  0.00000000000E+00  0.00000000000E+00  0.29587201201E+03  0.29587201201E+03  0.00000000000E+00 0. -1.
         -2   -1    0    0    0  501 -0.00000000000E+00 -0.00000000000E+00 -0.40638136323E+02  0.40638136323E+02  0.00000000000E+00 0.  1.
          5    1    1    2  502    0 -0.49636039309E+02  0.25783893724E+01  0.71956412787E+01  0.50394782899E+02  0.41800000000E+01 0.  1.
         -5    1    1    2    0  502  0.42247462810E+02 -0.23515203368E+01  0.12373985054E+03  0.13084112799E+03  0.41800000000E+01 0.  1.
        -11    1    1    2    0    0  0.45868092456E+02  0.11548844407E+02  0.40321947364E+02  0.62153979374E+02  0.00000000000E+00 0.  1.
         11    1    1    2    0    0 -0.38479515958E+02 -0.11775713442E+02  0.83976436500E+02  0.93120258068E+02  0.00000000000E+00 0. -1.
</event>
<event>
 6    1  0.8989754E-006  0.1097740E+03  0.7561462E-02  0.1260989E+00
         -1   -1    0    0    0  501 -0.00000000000E+00  0.00000000000E+00  0.34048972654E+02  0.34048972654E+02  0.00000000000E+00 0.  1.
          1   -1    0    0  501    0  0.00000000000E+00 -0.00000000000E+00 -0.46747790149E+03  0.46747790149E+03  0.00000000000E+00 0. -1.
          5    1    1    2  502    0  0.23890849157E+02 -0.84111481455E+02 -0.21864521389E+03  0.23551797372E+03  0.41800000000E+01 0.  1.
         -5    1    1    2    0  502  0.96699852279E+00  0.24914050405E+02 -0.10361696936E+01  0.25301996786E+02  0.41800000000E+01 0.  1.
        -11    1    1    2    0    0  0.28459384948E+02  0.19920227505E+01 -0.89138975952E+02  0.93593064807E+02  0.00000000000E+00 0. -1.
         11    1    1    2    0    0 -0.53317232627E+02  0.57205408299E+02 -0.12460856929E+03  0.14711383883E+03  0.00000000000E+00 0.  1.
</event>
<event>
 6    1  0.8989754E-006  0.1034670E+03  0.7561462E-02  0.1273170E+00
         -2   -1    0    0    0  501 -0.00000000000E+00  0.00000000000E+00  0.27056520772E+03  0.27056520772E+03  0.00000000000E+00 0.  1.
          2   -1    0    0  501    0  0.00000000000E+00 -0.00000000000E+00 -0.63182297137E+02  0.63182297137E+02  0.00000000000E+00 0. -1.
          5    1    1    2  502    0  0.61518275045E+02  0.19465811061E+00  0.15878203880E+03  0.17033421354E+03  0.41800000000E+01 0. -1.
         -5    1    1    2    0  502 -0.20454058453E+02  0.42662019192E+02  0.11012395551E+02  0.48756144685E+02  0.41800000000E+01 0. -1.
        -11    1    1    2    0    0 -0.60546253688E+02 -0.12682455135E+02  0.46810330935E+02  0.77575128657E+02  0.00000000000E+00 0.  1.
         11    1    1    2    0    0  0.19482037096E+02 -0.30174222167E+02 -0.92218547058E+01  0.37082017974E+02  0.00000000000E+00 0. -1.
</event>
<event>
 6    1  0.8989754E-006  0.9561820E+02  0.7561462E-02  0.1289790E+00
         -1   -1    0    0    0  501 -0.00000000000E+00  0.00000000000E+00  0.55638079873E+02  0.55638079873E+02  0.00000000000E+00 0.  1.
          1   -1    0    0  501    0  0.00000000000E+00 -0.00000000000E+00 -0.28744197521E+03  0.28744197521E+03  0.00000000000E+00 0. -1.
          5    1    1    2  502    0  0.60599215447E+02 -0.51338993075E+02 -0.19917696564E+02  0.81988683117E+02  0.41800000000E+01 0.  1.
         -5    1    1    2    0  502 -0.14270875640E+01  0.27724530467E+02 -0.96133365038E+02  0.10014880150E+03  0.41800000000E+01 0.  1.
        -11    1    1    2    0    0 -0.12132079175E+02 -0.17405512208E+02  0.77316605131E+01  0.22581359008E+02  0.00000000000E+00 0.  1.
         11    1    1    2    0    0 -0.47040048707E+02  0.41019974817E+02 -0.12348449425E+03  0.13836121146E+03  0.00000000000E+00 0. -1.
</event>
<event>
 6    1  0.8989754E-006  0.9423759E+02  0.7561462E-02  0.1292903E+00
          2   -1    0    0  501    0  0.00000000000E+00  0.00000000000E+00  0.33801601202E+03  0.33801601202E+03  0.00000000000E+00 0. -1.
         -2   -1    0    0    0  501 -0.00000000000E+00 -0.00000000000E+00 -0.63565084918E+02  0.63565084918E+02  0.00000000000E+00 0.  1.
          5    1    1    2  502    0 -0.48765804806E+02 -0.21630162899E+02 -0.25177570310E+02  0.59138397951E+02  0.41800000000E+01 0. -1.
         -5    1    1    2    0  502  0.51299889110E+02  0.15706016550E+02  0.39873246919E+02  0.66975411894E+02  0.41800000000E+01 0. -1.
        -11    1    1    2    0    0 -0.21083486013E+02 -0.32352865045E+02  0.60880453794E+02  0.72094735683E+02  0.00000000000E+00 0.  1.
         11    1    1    2    0    0  0.18549401710E+02  0.38277011393E+02  0.19887479670E+03  0.20337255141E+03  0.00000000000E+00 0. -1.
</event>
<event>
 6    1  0.8989754E-006  0.1050661E+03  0.7561462E-02  0.1269989E+00
         -1   -1    0    0    0  501 -0.00000000000E+00  0.00000000000E+00  0.16515938305E+03  0.16515938305E+03  0.00000000000E+00 0. -1.
          1   -1    0    0  501    0  0.00000000000E+00 -0.00000000000E+00 -0.11068606150E+03  0.11068606150E+03  0.00000000000E+00 0.  1.
          5    1    1    2  502    0 -0.10587292996E+01  0.68623815793E+02 -0.23898551511E+02  0.72793970671E+02  0.41800000000E+01 0. -1.
         -5    1    1    2    0  502 -0.52413929646E+02 -0.93742256725E+01  0.59199070674E+02  0.79731414741E+02  0.41800000000E+01 0. -1.
        -11    1    1    2    0    0  0.12713510550E+02 -0.41685620258E+02 -0.33115456969E+02  0.54735343034E+02  0.00000000000E+00 0.  1.
         11    1    1    2    0    0  0.40759148396E+02 -0.17563969863E+02  0.52288259357E+02  0.68584716095E+02  0.00000000000E+00 0. -1.
</event>
<event>
 6    1  0.8989754E-006  0.1403401E+03  0.7561462E-02  0.1212872E+00
          1   -1    0    0  501    0  0.00000000000E+00  0.00000000000E+00  0.44707552966E+02  0.44707552966E+02  0.00000000000E+00 0. -1.
         -1   -1    0    0    0  501 -0.00000000000E+00 -0.00000000000E+00 -0.59066437729E+03  0.59066437729E+03  0.00000000000E+00 0.  1.
          5    1    1    2  502    0 -0.62252928994E+02 -0.79404619960E+02 -0.21898792973E+03  0.24115079640E+03  0.41800000000E+01 0.  1.
         -5    1    1    2    0  502 -0.39011669272E+02  0.23790655513E+02 -0.15077173877E+02  0.48298024817E+02  0.41800000000E+01 0.  1.
        -11    1    1    2    0    0  0.69359447421E+02 -0.38503815337E+00 -0.23786466465E+03  0.24777102310E+03  0.00000000000E+00 0.  1.
         11    1    1    2    0    0  0.31905150846E+02  0.55999002600E+02 -0.74027056075E+02  0.98152085938E+02  0.00000000000E+00 0. -1.
</event>
<event>
 6    1  0.8989754E-006  0.1401585E+03  0.7561462E-02  0.1213116E+00
         -1   -1    0    0    0  501 -0.00000000000E+00  0.00000000000E+00  0.42184017566E+02  0.42184017566E+02  0.00000000000E+00 0.  1.
          1   -1    0    0  501    0  0.00000000000E+00 -0.00000000000E+00 -0.52783421899E+03  0.52783421899E+03  0.00000000000E+00 0. -1.
          5    1    1    2  502    0  0.61637421157E+02  0.70337760337E+02 -0.84578123071E+02  0.12616458900E+03  0.41800000000E+01 0. -1.
         -5    1    1    2    0  502  0.30154055408E+02 -0.49117197588E+02 -0.10382926343E+03  0.11882657321E+03  0.41800000000E+01 0. -1.
        -11    1    1    2    0    0  0.17599661607E+02 -0.52320661831E+01 -0.23639009266E+02  0.29932012366E+02  0.00000000000E+00 0. -1.
         11    1    1    2    0    0 -0.10939113817E+03 -0.15988496567E+02 -0.27360380565E+03  0.29509506197E+03  0.00000000000E+00 0.  1.
</event>
<event>
 6    1  0.8989754E-006  0.1345926E+03  0.7561462E-02  0.1220796E+00
         -2   -1    0    0    0  501 -0.00000000000E+00  0.00000000000E+00  0.18827116756E+02  0.18827116756E+02  0.00000000000E+00 0.  1.
          2   -1    0    0  501    0  0.00000000000E+00 -0.00000000000E+00 -0.13331288608E+04  0.13331288608E+04  0.00000000000E+00 0. -1.
          5    1    1    2  502    0 -0.52800504934E+02 -0.19371113476E+02 -0.77692917699E+02  0.96004141678E+02  0.41800000000E+01 0. -1.
         -5    1    1    2    0  502 -0.57381668964E+02  0.41070724443E+02 -0.52330811699E+03  0.52806090373E+03  0.41800000000E+01 0. -1.
        -11    1    1    2    0    0  0.38235640261E+02  0.33957431465E+02 -0.19092768519E+03  0.19765741148E+03  0.00000000000E+00 0.  1.
         11    1    1    2    0    0  0.71946533637E+02 -0.55657042431E+02 -0.52237302415E+03  0.53023352066E+03  0.00000000000E+00 0. -1.
</event>
<event>
 6    1  0.8989754E-006  0.1550315E+03  0.7561462E-02  0.1194423E+00
          2   -1    0    0  501    0  0.00000000000E+00  0.00000000000E+00  0.29168683997E+03  0.29168683997E+03  0.00000000000E+00 0. -1.
         -2   -1    0    0    0  501 -0.00000000000E+00 -0.00000000000E+00 -0.89333027235E+02  0.89333027235E+02  0.00000000000E+00 0.  1.
          5    1    1    2  502    0 -0.31455388034E+02  0.44133420360E+01  0.55612290717E+02  0.64180357611E+02  0.41800000000E+01 0.  1.
         -5    1    1    2    0  502  0.71662755911E+02  0.10814797369E+03  0.53826485461E+02  0.14052152054E+03  0.41800000000E+01 0.  1.
        -11    1    1    2    0    0  0.26341614982E+02 -0.51772619702E+02  0.49288089236E+02  0.76181366299E+02  0.00000000000E+00 0. -1.
         11    1    1    2    0    0 -0.66548982859E+02 -0.60788696027E+02  0.43626947325E+02  0.10013662276E+03  0.00000000000E+00 0.  1.
</event>
<event>
 6    1  0.8989754E-006  0.9212498E+02  0.7561462E-02  0.1297786E+00
          1   -1    0    0  501    0  0.00000000000E+00  0.00000000000E+00  0.58872311981E+03  0.58872311981E+03  0.00000000000E+00 0. -1.
         -1   -1    0    0    0  501 -0.00000000000E+00 -0.00000000000E+00 -0.25952150231E+02  0.25952150231E+02  0.00000000000E+00 0.  1.
          5    1    1    2  502    0 -0.39178929384E+02  0.43558048629E+00  0.15728156287E+02  0.42426707841E+02  0.41800000000E+01 0. -1.
         -5    1    1    2    0  502  0.87943440628E+01 -0.51134605137E+02  0.27076918462E+03  0.27572724216E+03  0.41800000000E+01 0. -1.
        -11    1    1    2    0    0  0.54051144365E+02  0.35413503771E+02  0.10761245798E+03  0.12552323916E+03  0.00000000000E+00 0.  1.
         11    1    1    2    0    0 -0.23666559044E+02  0.15285520880E+02  0.16866117069E+03  0.17099808088E+03  0.00000000000E+00 0. -1.
</event>
<event>
 6    1  0.8989754E-006  0.9735938E+02  0.7561462E-02  0.1285949E+00
         -1   -1    0    0    0  501 -0.00000000000E+00  0.00000000000E+00  0.64565252993E+02  0.64565252993E+02  0.00000000000E+00 0.  1.
          1   -1    0    0  501    0  0.00000000000E+00 -0.00000000000E+00 -0.29634589209E+03  0.29634589209E+03  0.00000000000E+00 0. -1.
          5    1    1    2  502    0  0.79939005396E+02  0.26292131105E+02 -0.63743154959E+02  0.10565123258E+03  0.41800000000E+01 0.  1.
         -5    1    1    2    0  502 -0.26572739939E+02 -0.12077572849E+02  0.22587019076E+02  0.37143291514E+02  0.41800000000E+01 0.  1.
        -11    1    1    2    0    0 -0.59428354646E+02 -0.28166069562E+02 -0.19189547421E+03  0.20285198997E+03  0.00000000000E+00 0. -1.
         11    1    1    2    0    0  0.60620891888E+01  0.13951511306E+02  0.12709709955E+01  0.15264631025E+02  0.00000000000E+00 0.  1.
</event>
<event>
 6    1  0.8989754E-006  0.1274684E+03  0.7561462E-02  0.1231261E+00
          1   -1    0    0  501    0  0.00000000000E+00  0.00000000000E+00  0.11248376687E+03  0.11248376687E+03  0.00000000000E+00 0. -1.
         -1   -1    0    0    0  501 -0.00000000000E+00 -0.00000000000E+00 -0.17078191587E+03  0.17078191587E+03  0.00000000000E+00 0.  1.
          5    1    1    2  502    0  0.16691753401E+02 -0.25755906974E+02  0.52965631804E+01  0.31424629786E+02  0.41800000000E+01 0. -1.
         -5    1    1    2    0  502 -0.54665221675E+02  0.91767903139E+02 -0.76312485832E+02  0.13134192933E+03  0.41800000000E+01 0. -1.
        -11    1    1    2    0    0 -0.24115987461E+02 -0.45811130489E+02 -0.71215567053E+01  0.52258560044E+02  0.00000000000E+00 0.  1.
         11    1    1    2    0    0  0.62089455736E+02 -0.20200865676E+02  0.19839330359E+02  0.68240563573E+02  0.00000000000E+00 0. -1.
</event>
<event>
 6    1  0.8989754E-006  0.5720842E+02  0.7561462E-02  0.1409935E+00
         -2   -1    0    0    0  501 -0.00000000000E+00  0.00000000000E+00  0.17938473627E+03  0.17938473627E+03  0.00000000000E+00 0.  1.
          2   -1    0    0  501    0  0.00000000000E+00 -0.00000000000E+00 -0.28987405054E+02  0.28987405054E+02  0.00000000000E+00 0. -1.
          5    1    1    2  502    0  0.21234610294E+02  0.42860520423E+02  0.13643749872E+02  0.49915500557E+02  0.41800000000E+01 0. -1.
         -5    1    1    2    0  502 -0.37705598040E+01 -0.38540913027E+02  0.11899517814E+03  0.12520760328E+03  0.41800000000E+01 0.  1.
        -11    1    1    2    0    0 -0.85789479801E+01 -0.12642176621E+02  0.62852415707E+01  0.16520509670E+02  0.00000000000E+00 0. -1.
         11    1    1    2    0    0 -0.88851025095E+01  0.83225692249E+01  0.11473161633E+02  0.16728527818E+02  0.00000000000E+00 0.  1.
</event>
<event>
 6    1  0.8989754E-006  0.1427691E+03  0.7561462E-02  0.1209651E+00
         -1   -1    0    0    0  501 -0.00000000000E+00  0.00000000000E+00  0.41580485231E+02  0.41580485231E+02  0.00000000000E+00 0.  1.
          1   -1    0    0  501    0  0.00000000000E+00 -0.00000000000E+00 -0.57360440973E+03  0.57360440973E+03  0.00000000000E+00 0. -1.
          5    1    1    2  502    0 -0.97471337705E+02  0.38032546062E+02 -0.29270503774E+03  0.31087111116E+03  0.41800000000E+01 0. -1.
         -5    1    1    2    0  502 -0.91225441476E+01 -0.45207789078E+02 -0.44030062891E+02  0.63899012850E+02  0.41800000000E+01 0. -1.
        -11    1    1    2    0    0  0.33925760622E+02  0.41955400312E+02 -0.11318248496E+03  0.12538535700E+03  0.00000000000E+00 0. -1.
         11    1    1    2    0    0  0.72668121230E+02 -0.34780157296E+02 -0.82106338909E+02  0.11502941395E+03  0.00000000000E+00 0.  1.
</event>
<event>
 6    1  0.8989754E-006  0.1023233E+03  0.7561462E-02  0.1275485E+00
         -2   -1    0    0    0  501 -0.00000000000E+00  0.00000000000E+00  0.89034984344E+02  0.89034984344E+02  0.00000000000E+00 0.  1.
          2   -1    0    0  501    0  0.00000000000E+00 -0.00000000000E+00 -0.16795861181E+03  0.16795861181E+03  0.00000000000E+00 0. -1.
          5    1    1    2  502    0  0.54465143708E+02 -0.43654485327E+02  0.91091150399E+00  0.69931882058E+02  0.41800000000E+01 0.  1.
         -5    1    1    2    0  502 -0.72321109391E+01  0.62287401716E+02 -0.22689913509E+02  0.66815630029E+02  0.41800000000E+01 0.  1.
        -11    1    1    2    0    0 -0.30869625063E+02 -0.36396022778E+02 -0.75907014813E+02  0.89663142502E+02  0.00000000000E+00 0. -1.
         11    1    1    2    0    0 -0.16363407706E+02  0.17763106389E+02  0.18762389354E+02  0.30582941563E+02  0.00000000000E+00 0.  1.
</event>
<event>
 6    1  0.8989754E-006  0.1167518E+03  0.7561462E-02  0.1248554E+00
         -3   -1    0    0    0  501 -0.00000000000E+00  0.00000000000E+00  0.12705866498E+03  0.12705866498E+03  0.00000000000E+00 0.  1.
          3   -1    0    0  501    0  0.00000000000E+00 -0.00000000000E+00 -0.14496908570E+03  0.14496908570E+03  0.00000000000E+00 0. -1.
          5    1    1    2  502    0 -0.17610880563E+02 -0.85155689547E+02  0.46201780283E+02  0.98558162918E+02  0.41800000000E+01 0.  1.
         -5    1    1    2    0  502 -0.22006302417E+02  0.14047786705E+02 -0.43276052576E+02  0.50713970303E+02  0.41800000000E+01 0.  1.
        -11    1    1    2    0    0  0.66398685521E+02  0.35027470907E+02 -0.54833208963E+01  0.75271348899E+02  0.00000000000E+00 0.  1.
         11    1    1    2    0    0 -0.26781502542E+02  0.36080431935E+02 -0.15352827535E+02  0.47484268556E+02  0.00000000000E+00 0. -1.
</event>
<event>
 6    1  0.8989754E-006  0.1164720E+03  0.7561462E-02  0.1249033E+00
          2   -1    0    0  501    0  0.00000000000E+00  0.00000000000E+00  0.96310353662E+02  0.96310353662E+02  0.00000000000E+00 0. -1.
         -2   -1    0    0    0  501 -0.00000000000E+00 -0.00000000000E+00 -0.16401171440E+03  0.16401171440E+03  0.00000000000E+00 0.  1.
          5    1    1    2  502    0 -0.46953569571E+02  0.17178816847E+02 -0.53669754990E+02  0.73468799122E+02  0.41800000000E+01 0.  1.
         -5    1    1    2    0  502  0.39694821813E+02 -0.67746744731E+02 -0.23187444326E+02  0.81978230493E+02  0.41800000000E+01 0.  1.
        -11    1    1    2    0    0 -0.41666377520E+02  0.18130491433E+02  0.81489369181E+01  0.46164996568E+02  0.00000000000E+00 0.  1.
         11    1    1    2    0    0  0.48925125278E+02  0.32437436451E+02  0.10069016563E+01  0.58710041883E+02  0.00000000000E+00 0. -1.
</event>
<event>
 6    1  0.8989754E-006  0.8238123E+02  0.7561462E-02  0.1322426E+00
          2   -1    0    0  501    0  0.00000000000E+00  0.00000000000E+00  0.41521645673E+03  0.41521645673E+03  0.00000000000E+00 0. -1.
         -2   -1    0    0    0  501 -0.00000000000E+00 -0.00000000000E+00 -0.29125189619E+02  0.29125189619E+02  0.00000000000E+00 0.  1.
          5    1    1    2  502    0 -0.43531465405E+02  0.41852681889E+00  0.17834013024E+03  0.18362417624E+03  0.41800000000E+01 0. -1.
         -5    1    1    2    0  502  0.52644226931E+02 -0.17714896161E+02  0.39316147642E+02  0.68179645354E+02  0.41800000000E+01 0. -1.
        -11    1    1    2    0    0  0.18680320596E+02  0.29544428683E+02  0.18482231984E+02  0.39540113086E+02  0.00000000000E+00 0.  1.
         11    1    1    2    0    0 -0.27793082121E+02 -0.12248059341E+02  0.14995275724E+03  0.15299771167E+03  0.00000000000E+00 0. -1.
</event>
<event>
 6    1  0.8989754E-006  0.9972234E+02  0.7561462E-02  0.1280881E+00
          1   -1    0    0  501    0  0.00000000000E+00  0.00000000000E+00  0.11340739386E+03  0.11340739386E+03  0.00000000000E+00 0. -1.
         -1   -1    0    0    0  501 -0.00000000000E+00 -0.00000000000E+00 -0.11765585974E+03  0.11765585974E+03  0.00000000000E+00 0.  1.
          5    1    1    2  502    0 -0.62862780829E+02  0.19953272633E+02 -0.20481244187E+02  0.69186820030E+02  0.41800000000E+01 0.  1.
         -5    1    1    2    0  502  0.36280839455E+02 -0.50759692187E+02  0.75602560051E+01  0.62987899896E+02  0.41800000000E+01 0.  1.
        -11    1    1    2    0    0 -0.17811390881E+02  0.16241920101E+02 -0.29826128360E+02  0.38348970608E+02  0.00000000000E+00 0.  1.
         11    1    1    2    0    0  0.44393332255E+02  0.14564499452E+02  0.38498650667E+02  0.60539563066E+02  0.00000000000E+00 0. -1.
</event>
<event>
 6    1  0.8989754E-006  0.1174551E+03  0.7561462E-02  0.1247355E+00
          2   -1    0    0  501    0  0.00000000000E+00  0.00000000000E+00  0.42390903055E+03  0.42390903055E+03  0.00000000000E+00 0. -1.
         -2   -1    0    0    0  501 -0.00000000000E+00 -0.00000000000E+00 -0.42325089208E+02  0.42325089208E+02  0.00000000000E+00 0.  1.
          5    1    1    2  502    0 -0.28923890360E+02  0.59997606307E+02  0.38028505412E+02  0.76811091777E+02  0.41800000000E+01 0.  1.
         -5    1    1    2    0  502 -0.23056085382E+02 -0.62124182864E+02  0.69837935618E+02  0.96362891307E+02  0.41800000000E+01 0.  1.
        -11    1    1    2    0    0 -0.86405362473E+01  0.32743022718E+02  0.61062418262E+02  0.69823945230E+02  0.00000000000E+00 0.  1.
         11    1    1    2    0    0  0.60620511989E+02 -0.30616446161E+02  0.21265508205E+03  0.22323619144E+03  0.00000000000E+00 0. -1.
</event>
<event>
 6    1  0.8989754E-006  0.8524282E+02  0.7561462E-02  0.1314799E+00
          1   -1    0    0  501    0  0.00000000000E+00  0.00000000000E+00  0.16058435116E+03  0.16058435116E+03  0.00000000000E+00 0. -1.
         -1   -1    0    0    0  501 -0.00000000000E+00 -0.00000000000E+00 -0.84354565772E+02  0.84354565772E+02  0.00000000000E+00 0.  1.
          5    1    1    2  502    0 -0.10091492004E+01  0.48086337759E+02 -0.43030228982E+02  0.64671379044E+02  0.41800000000E+01 0.  1.
         -5    1    1    2    0  502 -0.21094696196E+02 -0.26869319802E+02  0.54743031612E+02  0.64662341933E+02  0.41800000000E+01 0.  1.
        -11    1    1    2    0    0  0.20352097158E+02 -0.52579349343E+02  0.17450352920E+02  0.59019578558E+02  0.00000000000E+00 0. -1.
         11    1    1    2    0    0  0.17517482376E+01  0.31362331386E+02  0.47066629835E+02  0.56585617394E+02  0.00000000000E+00 0.  1.
</event>
<event>
 6    1  0.8989754E-006  0.1515309E+03  0.7561462E-02  0.1198604E+00
         -1   -1    0    0    0  501 -0.00000000000E+00  0.00000000000E+00  0.82123282278E+03  0.82123282278E+03  0.00000000000E+00 0.  1.
          1   -1    0    0  501    0  0.00000000000E+00 -0.00000000000E+00 -0.41269792631E+02  0.41269792631E+02  0.00000000000E+00 0. -1.
          5    1    1    2  502    0  0.14176196170E+03 -0.25552213425E+02  0.45722537166E+03  0.47939741581E+03  0.41800000000E+01 0. -1.
         -5    1    1    2    0  502 -0.39983788239E+02  0.14390103919E+02  0.13497747719E+02  0.44782139367E+02  0.41800000000E+01 0.  1.
        -11    1    1    2    0    0 -0.66671383807E+02  0.33530118248E+02  0.27336991819E+03  0.28337334812E+03  0.00000000000E+00 0.  1.
         11    1    1    2    0    0 -0.35106789650E+02 -0.22368008742E+02  0.35869992575E+02  0.54949712119E+02  0.00000000000E+00 0. -1.
</event>
<event>
 6    1  0.8989754E-006  0.8265462E+02  0.7561462E-02  0.1321682E+00
          2   -1    0    0  501    0  0.00000000000E+00  0.00000000000E+00  0.21394379209E+03  0.21394379209E+03  0.00000000000E+00 0. -1.
         -2   -1    0    0    0  501 -0.00000000000E+00 -0.00000000000E+00 -0.63108535195E+02  0.63108535195E+02  0.00000000000E+00 0.  1.
          5    1    1    2  502    0 -0.38328206651E+02 -0.34156892050E+02 -0.27180157764E+02  0.58240690893E+02  0.41800000000E+01 0.  1.
         -5    1    1    2    0  502  0.20884645987E+02  0.11448250323E+02  0.74839076676E+02  0.78648526185E+02  0.41800000000E+01 0.  1.
        -11    1    1    2    0    0 -0.33620662852E+01 -0.31435732850E+02  0.15947941320E+02  0.35409682600E+02  0.00000000000E+00 0.  1.
         11    1    1    2    0    0  0.20805626949E+02  0.54144374577E+02  0.87228396668E+02  0.10475342761E+03  0.00000000000E+00 0. -1.
</event>
<event>
 6    1  0.8989754E-006  0.8681564E+02  0.7561462E-02  0.1310752E+00
         -2   -1    0    0    0  501 -0.00000000000E+00  0.00000000000E+00  0.43690498502E+02  0.43690498502E+02  0.00000000000E+00 0.  1.
          2   -1    0    0  501    0  0.00000000000E+00 -0.00000000000E+00 -0.32322441939E+03  0.32322441939E+03  0.00000000000E+00 0. -1.
          5    1    1    2  502    0  0.24656281149E+02  0.24988176668E+02 -0.82857422533E+02  0.90084216387E+02  0.41800000000E+01 0.  1.
         -5    1    1    2    0  502 -0.54214099590E+02 -0.51504154808E+02 -0.22466694681E+02  0.78192527307E+02  0.41800000000E+01 0.  1.
        -11    1    1    2    0    0  0.40646048319E+02  0.74438974717E+01 -0.17150388786E+03  0.17641172411E+03  0.00000000000E+00 0. -1.
         11    1    1    2    0    0 -0.11088229879E+02  0.19072080668E+02 -0.27059158112E+01  0.22226450082E+02  0.00000000000E+00 0.  1.
</event>
<event>
 6    1  0.8989754E-006  0.1455775E+03  0.7561462E-02  0.1206015E+00
          1   -1    0    0  501    0  0.00000000000E+00  0.00000000000E+00  0.37756328855E+03  0.37756328855E+03  0.00000000000E+00 0. -1.
         -1   -1    0    0    0  501 -0.00000000000E+00 -0.00000000000E+00 -0.58643153431E+02  0.58643153431E+02  0.00000000000E+00 0.  1.
          5    1    1    2  502    0 -0.46110697991E+02  0.11328818334E+03  0.12206380651E+03  0.17285095954E+03  0.41800000000E+01 0.  1.
         -5    1    1    2    0  502  0.33517550689E+02 -0.13274896418E+02  0.58406285204E+02  0.68763475991E+02  0.41800000000E+01 0.  1.
        -11    1    1    2    0    0 -0.17599194063E+02 -0.10075175941E+03  0.12505581412E+03  0.16155372264E+03  0.00000000000E+00 0. -1.
         11    1    1    2    0    0  0.30192341365E+02  0.73847248256E+00  0.13394229285E+02  0.33038283806E+02  0.00000000000E+00 0.  1.
</event>
<event>
 6    1  0.8989754E-006  0.1089816E+03  0.7561462E-02  0.1262468E+00
          2   -1    0    0  501    0  0.00000000000E+00  0.00000000000E+00  0.59621450331E+03  0.59621450331E+03  0.00000000000E+00 0. -1.
         -2   -1    0    0    0  501 -0.00000000000E+00 -0.00000000000E+00 -0.23093794034E+02  0.23093794034E+02  0.00000000000E+00 0.  1.
          5    1    1    2  502    0 -0.62866228729E+02  0.39186042356E+02  0.11714744893E+03  0.13866760912E+03  0.41800000000E+01 0. -1.
         -5    1    1    2    0  502  0.51486183860E+02 -0.11259805194E+01  0.15688125520E+03  0.16517050461E+03  0.41800000000E+01 0. -1.
        -11    1    1    2    0    0  0.13396340206E+02 -0.64350816736E+02  0.14586397226E+03  0.15998996203E+03  0.00000000000E+00 0.  1.
         11    1    1    2    0    0 -0.20162953376E+01  0.26290754899E+02  0.15322803289E+03  0.15548022158E+03  0.00000000000E+00 0. -1.
</event>
<event>
 6    1  0.8989754E-006  0.1528200E+03  0.7561462E-02  0.1197050E+00
          1   -1    0    0  501    0  0.00000000000E+00  0.00000000000E+00  0.15339831489E+03  0.15339831489E+03  0.00000000000E+00 0. -1.
         -1   -1    0    0    0  501 -0.00000000000E+00 -0.00000000000E+00 -0.17611614739E+03  0.17611614739E+03  0.00000000000E+00 0.  1.
          5    1    1    2  502    0  0.89199681499E+02  0.59372391110E+02 -0.61105857598E+02  0.12342229231E+03  0.41800000000E+01 0.  1.
         -5    1    1    2    0  502 -0.38721242115E+02  0.40201756211E+02 -0.29255259284E+01  0.56049503970E+02  0.41800000000E+01 0.  1.
        -11    1    1    2    0    0 -0.75623077610E+02 -0.83169965753E+02  0.22582751330E+02  0.11465632877E+03  0.00000000000E+00 0.  1.
         11    1    1    2    0    0  0.25144638226E+02 -0.16404181568E+02  0.18730799696E+02  0.35386337218E+02  0.00000000000E+00 0. -1.
</event>
<event>
 6    1  0.8989754E-006  0.9523161E+02  0.7561462E-02  0.1290655E+00
          1   -1    0    0  501    0  0.00000000000E+00  0.00000000000E+00  0.48345341159E+02  0.48345341159E+02  0.00000000000E+00 0. -1.
         -1   -1    0    0    0  501 -0.00000000000E+00 -0.00000000000E+00 -0.31357766576E+03  0.31357766576E+03  0.00000000000E+00 0.  1.
          5    1    1    2  502    0 -0.36570873004E+02 -0.60327448385E+02 -0.90291956865E+02  0.11466010490E+03  0.41800000000E+01 0. -1.
         -5    1    1    2    0  502  0.28527659556E+02  0.25765453551E+02 -0.13686006403E+03  0.14221756390E+03  0.41800000000E+01 0.  1.
        -11    1    1    2    0    0 -0.30547246393E+02  0.29029035568E+02  0.98359438736E+01  0.43273143635E+02  0.00000000000E+00 0.  1.
         11    1    1    2    0    0  0.38590459840E+02  0.55329592661E+01 -0.47916247578E+02  0.61772194480E+02  0.00000000000E+00 0. -1.
</event>
<event>
 6    1  0.8989754E-006  0.9410197E+02  0.7561462E-02  0.1293212E+00
          1   -1    0    0  501    0  0.00000000000E+00  0.00000000000E+00  0.50740765847E+03  0.50740765847E+03  0.00000000000E+00 0. -1.
         -1   -1    0    0    0  501 -0.00000000000E+00 -0.00000000000E+00 -0.40126029569E+02  0.40126029569E+02  0.00000000000E+00 0.  1.
          5    1    1    2  502    0 -0.66326336690E+02  0.18924406340E+02  0.15998029032E+03  0.17426554962E+03  0.41800000000E+01 0. -1.
         -5    1    1    2    0  502  0.11029597345E+01  0.36242923324E+01 -0.22985684149E+02  0.23667828183E+02  0.41800000000E+01 0. -1.
        -11    1    1    2    0    0  0.80267889359E+02  0.67253514915E+01  0.25536304873E+03  0.26776566448E+03  0.00000000000E+00 0.  1.
         11    1    1    2    0    0 -0.15044512403E+02 -0.29274050164E+02  0.74923973995E+02  0.81834645754E+02  0.00000000000E+00 0. -1.
</event>
<event>
 6    1  0.8989754E-006  0.1467241E+03  0.7561462E-02  0.1204557E+00
         -2   -1    0    0    0  501 -0.00000000000E+00  0.00000000000E+00  0.87519238288E+03  0.87519238288E+03  0.00000000000E+00 0.  1.
          2   -1    0    0  501    0  0.00000000000E+00 -0.00000000000E+00 -0.32042184540E+02  0.32042184540E+02  0.00000000000E+00 0. -1.
          5    1    1    2  502    0 -0.57645632491E+02 -0.72600335449E+02  0.25707797934E+03  0.27331371629E+03  0.41800000000E+01 0. -1.
         -5    1    1    2    0  502 -0.45052482912E+02  0.41014926373E+02  0.37401991057E+03  0.37897271182E+03  0.41800000000E+01 0. -1.
        -11    1    1    2    0    0  0.37516349053E+02  0.58144354095E+02  0.84042298672E+02  0.10886390736E+03  0.00000000000E+00 0.  1.
         11    1    1    2    0    0  0.65181766350E+02 -0.26558945019E+02  0.12801000976E+03  0.14608423195E+03  0.00000000000E+00 0. -1.
</event>
<event>
 6    1  0.8989754E-006  0.1250056E+03  0.7561462E-02  0.1235060E+00
          1   -1    0    0  501    0  0.00000000000E+00  0.00000000000E+00  0.61602063666E+03  0.61602063666E+03  0.00000000000E+00 0. -1.
         -1   -1    0    0    0  501 -0.00000000000E+00 -0.00000000000E+00 -0.29714958022E+02  0.29714958022E+02  0.00000000000E+00 0.  1.
          5    1    1    2  502    0 -0.89172791626E+02  0.25778897869E+02  0.18004446047E+03  0.20260754795E+03  0.41800000000E+01 0. -1.
         -5    1    1    2    0  502  0.40738959657E+02  0.16040821958E+02  0.46743376991E+02  0.64182446942E+02  0.41800000000E+01 0. -1.
        -11    1    1    2    0    0  0.68732384372E+02 -0.24030224199E+01  0.15337279687E+03  0.16808667407E+03  0.00000000000E+00 0. -1.
         11    1    1    2    0    0 -0.20298552402E+02 -0.39416697407E+02  0.20614504431E+03  0.21085892572E+03  0.00000000000E+00 0.  1.
</event>
<event>
 6    1  0.8989754E-006  0.9602183E+02  0.7561462E-02  0.1288891E+00
          1   -1    0    0  501    0  0.00000000000E+00  0.00000000000E+00  0.12325157129E+03  0.12325157129E+03  0.00000000000E+00 0. -1.
         -1   -1    0    0    0  501 -0.00000000000E+00 -0.00000000000E+00 -0.29844710718E+03  0.29844710718E+03  0.00000000000E+00 0.  1.
          5    1    1    2  502    0  0.58922314015E+02 -0.24800804945E+02 -0.23329557423E+03  0.24193225575E+03  0.41800000000E+01 0.  1.
         -5    1    1    2    0  502 -0.21539846005E+02 -0.34868235133E+02 -0.13106620734E+02  0.43232102589E+02  0.41800000000E+01 0.  1.
        -11    1    1    2    0    0 -0.48358780105E+02  0.34744302000E+02  0.86716794457E+02  0.10519287322E+03  0.00000000000E+00 0. -1.
         11    1    1    2    0    0  0.10976312095E+02  0.24924738078E+02 -0.15510135375E+02  0.31341446916E+02  0.00000000000E+00 0.  1.
</event>
<event>
 6    1  0.8989754E-006  0.9423993E+02  0.7561462E-02  0.1292897E+00
          1   -1    0    0  501    0  0.00000000000E+00  0.00000000000E+00  0.16070556964E+03  0.16070556964E+03  0.00000000000E+00 0. -1.
         -1   -1    0    0    0  501 -0.00000000000E+00 -0.00000000000E+00 -0.90092065930E+02  0.90092065930E+02  0.00000000000E+00 0.  1.
          5    1    1    2  502    0  0.69867814839E+02 -0.92804249291E+01  0.49399999036E+02  0.86171167696E+02  0.41800000000E+01 0.  1.
         -5    1    1    2    0  502 -0.21135214356E+02  0.70668894309E+00 -0.43425351474E+02  0.48481236017E+02  0.41800000000E+01 0.  1.
        -11    1    1    2    0    0 -0.18010693682E+02  0.45115707412E+02  0.29074546756E+02  0.56613968340E+02  0.00000000000E+00 0. -1.
         11    1    1    2    0    0 -0.30721906802E+02 -0.36541971426E+02  0.35564309388E+02  0.59531263513E+02  0.00000000000E+00 0.  1.
</event>
<event>
 6    1  0.8989754E-006  0.1196625E+03  0.7561462E-02  0.1243655E+00
         -2   -1    0    0    0  501 -0.00000000000E+00  0.00000000000E+00  0.50279488237E+02  0.50279488237E+02  0.00000000000E+00 0.  1.
          2   -1    0    0  501    0  0.00000000000E+00 -0.00000000000E+00 -0.45689439383E+03  0.45689439383E+03  0.00000000000E+00 0. -1.
          5    1    1    2  502    0  0.24200620323E+02  0.62097311584E+02 -0.23819356250E+02  0.70898379827E+02  0.41800000000E+01 0.  1.
         -5    1    1    2    0  502 -0.73838388537E+02  0.80209617271E+01 -0.10189106639E+03  0.12615746216E+03  0.41800000000E+01 0.  1.
        -11    1    1    2    0    0  0.10925071471E+02 -0.55834852502E+02 -0.25528520158E+03  0.26154812576E+03  0.00000000000E+00 0. -1.
         11    1    1    2    0    0  0.38712696742E+02 -0.14283420809E+02 -0.25619281365E+02  0.48569914317E+02  0.00000000000E+00 0.  1.
</event>
<event>
 6    1  0.8989754E-006  0.1200493E+03  0.7561462E-02  0.1243016E+00
         -1   -1    0    0    0  501 -0.00000000000E+00  0.00000000000E+00  0.19012885193E+02  0.19012885193E+02  0.00000000000E+00 0.  1.
          1   -1    0    0  501    0  0.00000000000E+00 -0.00000000000E+00 -0.78143285053E+03  0.78143285053E+03  0.00000000000E+00 0. -1.
          5    1    1    2  502    0  0.68219861145E+02  0.60249729858E+02 -0.30148000991E+03  0.31494705615E+03  0.41800000000E+01 0.  1.
         -5    1    1    2    0  502 -0.42452562967E+02 -0.12178157233E+02 -0.11171485670E+03  0.12020070393E+03  0.41800000000E+01 0.  1.
        -11    1    1    2    0    0  0.32529671698E+02 -0.68970170487E+01 -0.15093026560E+03  0.15454997075E+03  0.00000000000E+00 0.  1.
         11    1    1    2    0    0 -0.58296969877E+02 -0.41174555576E+02 -0.19829483313E+03  0.21074800490E+03  0.00000000000E+00 0. -1.
</event>
<event>
 6    1  0.8989754E-006  0.1428822E+03  0.7561462E-02  0.1209502E+00
         -1   -1    0    0    0  501 -0.00000000000E+00  0.00000000000E+00  0.38440270470E+03  0.38440270470E+03  0.00000000000E+00 0.  1.
          1   -1    0    0  501    0  0.00000000000E+00 -0.00000000000E+00 -0.72517464721E+02  0.72517464721E+02  0.00000000000E+00 0. -1.
          5    1    1    2  502    0  0.39612149365E+02  0.19844828169E+02  0.91718288478E+02  0.10194437907E+03  0.41800000000E+01 0.  1.
         -5    1    1    2    0  502 -0.94055080239E+02  0.70702445611E+02  0.17069150964E+03  0.20736021267E+03  0.41800000000E+01 0.  1.
        -11    1    1    2    0    0  0.73656835001E+01  0.10046934347E+02 -0.14758459981E+02  0.19313371643E+02  0.00000000000E+00 0. -1.
         11    1    1    2    0    0  0.47077247374E+02 -0.10059420813E+03  0.64233901839E+02  0.12830220604E+03  0.00000000000E+00 0.  1.
</event>
<event>
 6    1  0.8989754E-006  0.8730064E+02  0.7561462E-02  0.1309523E+00
          1   -1    0    0  501    0  0.00000000000E+00  0.00000000000E+00  0.12361212454E+03  0.12361212454E+03  0.00000000000E+00 0. -1.
         -1   -1    0    0    0  501 -0.00000000000E+00 -0.00000000000E+00 -0.11877535926E+03  0.11877535926E+03  0.00000000000E+00 0.  1.
          5    1    1    2  502    0 -0.20430809920E+02 -0.31876849840E+02  0.45639585425E+02  0.59447419687E+02  0.41800000000E+01 0. -1.
         -5    1    1    2    0  502  0.62029242309E+02 -0.15247257774E+01 -0.44633995988E+02  0.76548139677E+02  0.41800000000E+01 0. -1.
        -11    1    1    2    0    0 -0.21561674370E+02  0.45895104659E+02 -0.34528492198E+02  0.61347234711E+02  0.00000000000E+00 0.  1.
         11    1    1    2    0    0 -0.20036758019E+02 -0.12493529041E+02  0.38359668042E+02  0.45044689721E+02  0.00000000000E+00 0. -1.
</event>
<event>
 6    1  0.8989754E-006  0.8262420E+02  0.7561462E-02  0.1321765E+00
         -2   -1    0    0    0  501 -0.00000000000E+00  0.00000000000E+00  0.18466085891E+03  0.18466085891E+03  0.00000000000E+00 0. -1.
          2   -1    0    0  501    0  0.00000000000E+00 -0.00000000000E+00 -0.65491375482E+02  0.65491375482E+02  0.00000000000E+00 0.  1.
          5    1    1    2  502    0 -0.60293694298E+02  0.18447631815E+01  0.79975670927E+02  0.10026122413E+03  0.41800000000E+01 0.  1.
         -5    1    1    2    0  502  0.38313927537E+02 -0.28526154326E+00 -0.16268686620E+02  0.41835164417E+02  0.41800000000E+01 0.  1.
        -11    1    1    2    0    0  0.30948694803E+01  0.29623003772E+02  0.64020370461E+02  0.70609548954E+02  0.00000000000E+00 0. -1.
         11    1    1    2    0    0  0.18884897282E+02 -0.31182505411E+02 -0.85578713406E+01  0.37446296892E+02  0.00000000000E+00 0.  1.
</event>
<event>
 6    1  0.8989754E-006  0.2131792E+03  0.7561462E-02  0.1139073E+00
          2   -1    0    0  501    0  0.00000000000E+00  0.00000000000E+00  0.87510667077E+03  0.87510667077E+03  0.00000000000E+00 0.  1.
         -2   -1    0    0    0  501 -0.00000000000E+00 -0.00000000000E+00 -0.73306653017E+02  0.73306653017E+02  0.00000000000E+00 0. -1.
          5    1    1    2  502    0  0.75496102913E+02  0.11917054418E+03  0.60297944078E+02  0.15347506187E+03  0.41800000000E+01 0. -1.
         -5    1    1    2    0  502 -0.68653362836E+00  0.66080933076E+02  0.14383719616E+03  0.15834700011E+03  0.41800000000E+01 0. -1.
        -11    1    1    2    0    0 -0.71356350788E+02 -0.58669222834E+02  0.26505672584E+03  0.28069355963E+03  0.00000000000E+00 0.  1.
         11    1    1    2    0    0 -0.34532184963E+01 -0.12658225442E+03  0.33260815167E+03  0.35589770217E+03  0.00000000000E+00 0. -1.
</event>
<event>
 6    1  0.8989754E-006  0.7713484E+02  0.7561462E-02  0.1337385E+00
         -2   -1    0    0    0  501 -0.00000000000E+00  0.00000000000E+00  0.97698152419E+02  0.97698152419E+02  0.00000000000E+00 0.  1.
          2   -1    0    0  501    0  0.00000000000E+00 -0.00000000000E+00 -0.15116235775E+03  0.15116235775E+03  0.00000000000E+00 0. -1.
          5    1    1    2  502    0  0.46562987892E+02 -0.26991977983E+02  0.56910619310E+02  0.78440867582E+02  0.41800000000E+01 0. -1.
         -5    1    1    2    0  502 -0.40268316791E+01  0.13121519635E+02 -0.52555855534E+02  0.54479170348E+02  0.41800000000E+01 0. -1.
        -11    1    1    2    0    0 -0.25909218529E+02 -0.29635295207E+02  0.28366261768E+01  0.39466248553E+02  0.00000000000E+00 0.  1.
         11    1    1    2    0    0 -0.16626937684E+02  0.43505753555E+02 -0.60655595281E+02  0.76474223683E+02  0.00000000000E+00 0. -1.
</event>
<event>
 6    1  0.8989754E-006  0.1206009E+03  0.7561462E-02  0.1242109E+00
          2   -1    0    0  501    0  0.00000000000E+00  0.00000000000E+00  0.52292422690E+03  0.52292422690E+03  0.00000000000E+00 0. -1.
         -2   -1    0    0    0  501 -0.00000000000E+00 -0.00000000000E+00 -0.28987070604E+02  0.28987070604E+02  0.00000000000E+00 0.  1.
          5    1    1    2  502    0  0.24763763126E+02  0.41610996263E+02  0.80522540313E+02  0.94053553216E+02  0.41800000000E+01 0.  1.
         -5    1    1    2    0  502  0.10411119802E+02 -0.84561675037E+02  0.22910871017E+03  0.24447360139E+03  0.41800000000E+01 0.  1.
        -11    1    1    2    0    0  0.10471274395E+02  0.58227839746E+02  0.10866642105E+03  0.12372760393E+03  0.00000000000E+00 0. -1.
         11    1    1    2    0    0 -0.45646157323E+02 -0.15277160973E+02  0.75639484763E+02  0.89656538974E+02  0.00000000000E+00 0.  1.
</event>
<event>
 6    1  0.8989754E-006  0.1129135E+03  0.7561462E-02  0.1255268E+00
          1   -1    0    0  501    0  0.00000000000E+00  0.00000000000E+00  0.66276901974E+03  0.66276901974E+03  0.00000000000E+00 0. -1.
         -1   -1    0    0    0  501 -0.00000000000E+00 -0.00000000000E+00 -0.24109480278E+02  0.24109480278E+02  0.00000000000E+00 0.  1.
          5    1    1    2  502    0 -0.47574768030E+02  0.15865399738E+02  0.66423871489E+02  0.83334702049E+02  0.41800000000E+01 0.  1.
         -5    1    1    2    0  502  0.68400827959E+02  0.43185969856E+02  0.24579498220E+03  0.25879788819E+03  0.41800000000E+01 0.  1.
        -11    1    1    2    0    0  0.20146960528E+02 -0.48011493459E+02  0.85570381839E+02  0.10016633052E+03  0.00000000000E+00 0.  1.
         11    1    1    2    0    0 -0.40973020457E+02 -0.11039876135E+02  0.24087030394E+03  0.24457957926E+03  0.00000000000E+00 0. -1.
</event>
<event>
 6    1  0.9718976E-006  0.2858710E+03  0.7561462E-02  0.1092525E+00
          1   -1    0    0  501    0  0.00000000000E+00  0.00000000000E+00  0.73796319556E+03  0.73796319556E+03  0.00000000000E+00 0. -1.
         -1   -1    0    0    0  501 -0.00000000000E+00 -0.00000000000E+00 -0.11382039065E+03  0.11382039065E+03  0.00000000000E+00 0.  1.
          5    1    1    2  502    0 -0.14973962577E+01  0.86845019600E+02  0.11830304352E+03  0.14682432405E+03  0.41800000000E+01 0. -1.
         -5    1    1    2    0  502 -0.17181310234E+03  0.11536627041E+03  0.24933887120E+03  0.32406243777E+03  0.41800000000E+01 0. -1.
        -11    1    1    2    0    0  0.13848647992E+03 -0.10284656733E+03  0.12818807805E+03  0.21491418028E+03  0.00000000000E+00 0.  1.
         11    1    1    2    0    0  0.34824018677E+02 -0.99364722680E+02  0.12831281213E+03  0.16598264411E+03  0.00000000000E+00 0. -1.
</event>
<event>
 6    1  0.8989754E-006  0.2005484E+03  0.7561462E-02  0.1149277E+00
         -1   -1    0    0    0  501 -0.00000000000E+00  0.00000000000E+00  0.10355367254E+03  0.10355367254E+03  0.00000000000E+00 0.  1.
          1   -1    0    0  501    0  0.00000000000E+00 -0.00000000000E+00 -0.74608927182E+03  0.74608927182E+03  0.00000000000E+00 0. -1.
          5    1    1    2  502    0  0.22034560251E+02 -0.52552147078E+01 -0.38318367906E+00  0.23038193436E+02  0.41800000000E+01 0.  1.
         -5    1    1    2    0  502 -0.16988440934E+03 -0.90025590947E+02 -0.45704384295E+02  0.19766558300E+03  0.41800000000E+01 0.  1.
        -11    1    1    2    0    0  0.99913410180E+02  0.94922396557E+02 -0.32074037805E+03  0.34909503149E+03  0.00000000000E+00 0.  1.
         11    1    1    2    0    0  0.47936438905E+02  0.35840909830E+00 -0.27570765325E+03  0.27984413643E+03  0.00000000000E+00 0. -1.
</event>
<event>
 6    1  0.8989754E-006  0.2800625E+03  0.7561462E-02  0.1095655E+00
         -2   -1    0    0    0  501 -0.00000000000E+00  0.00000000000E+00  0.15396958477E+03  0.15396958477E+03  0.00000000000E+00 0.  1.
          2   -1    0    0  501    0  0.00000000000E+00 -0.00000000000E+00 -0.66586302557E+03  0.66586302557E+03  0.00000000000E+00 0. -1.
          5    1    1    2  502    0 -0.59070345467E+02  0.74037515338E+02 -0.84628847372E+02  0.12708412017E+03  0.41800000000E+01 0. -1.
         -5    1    1    2    0  502 -0.20732566512E+02  0.18667657314E+03 -0.12738670507E+02  0.18830222622E+03  0.41800000000E+01 0. -1.
        -11    1    1    2    0    0  0.43794275340E+02 -0.64539493590E+02 -0.18255668565E+03  0.19852009536E+03  0.00000000000E+00 0. -1.
         11    1    1    2    0    0  0.36008636639E+02 -0.19617459489E+03 -0.23196923726E+03  0.30592616859E+03  0.00000000000E+00 0.  1.
</event>
<event>
 6    1  0.8989754E-006  0.1024855E+03  0.7561462E-02  0.1275154E+00
         -2   -1    0    0    0  501 -0.00000000000E+00  0.00000000000E+00  0.43697666877E+02  0.43697666877E+02  0.00000000000E+00 0.  1.
          2   -1    0    0  501    0  0.00000000000E+00 -0.00000000000E+00 -0.31344006807E+03  0.31344006807E+03  0.00000000000E+00 0. -1.
          5    1    1    2  502    0  0.19362613322E+01 -0.63947130841E+02 -0.86332974087E+02  0.10753529405E+03  0.41800000000E+01 0. -1.
         -5    1    1    2    0  502 -0.47133530109E+02  0.41552878599E+02 -0.26527700820E+02  0.68333027821E+02  0.41800000000E+01 0. -1.
        -11    1    1    2    0    0 -0.13469145984E+02  0.12527053687E+02 -0.89557581563E+02  0.91427049515E+02  0.00000000000E+00 0. -1.
         11    1    1    2    0    0  0.58666414761E+02  0.98671985546E+01 -0.67324144720E+02  0.89842363562E+02  0.00000000000E+00 0.  1.
</event>
<event>
 6    1  0.8989754E-006  0.9538515E+02  0.7561462E-02  0.1290311E+00
         -2   -1    0    0    0  501 -0.00000000000E+00  0.00000000000E+00  0.90125341681E+02  0.90125341681E+02  0.00000000000E+00 0.  1.
          2   -1    0    0  501    0  0.00000000000E+00 -0.00000000000E+00 -0.25196716012E+03  0.25196716012E+03  0.00000000000E+00 0. -1.
          5    1    1    2  502    0  0.59057372315E+02 -0.59901063474E+01 -0.87502619474E+02  0.10581982524E+03  0.41800000000E+01 0. -1.
         -5    1    1    2    0  502 -0.37858621317E+02  0.59039503452E+01  0.60934915355E+02  0.72101790179E+02  0.41800000000E+01 0.  1.
        -11    1    1    2    0    0  0.29677983942E+02 -0.22312935638E+02 -0.47780399024E+02  0.60511291165E+02  0.00000000000E+00 0.  1.
         11    1    1    2    0    0 -0.50876734939E+02  0.22399091640E+02 -0.87493715295E+02  0.10365959522E+03  0.00000000000E+00 0. -1.
</event>
<event>
 6    1  0.8989754E-006  0.1320251E+03  0.7561462E-02  0.1224481E+00
         -2   -1    0    0    0  501 -0.00000000000E+00  0.00000000000E+00  0.20403434836E+03  0.20403434836E+03  0.00000000000E+00 0.  1.
          2   -1    0    0  501    0  0.00000000000E+00 -0.00000000000E+00 -0.10366069288E+03  0.10366069288E+03  0.00000000000E+00 0. -1.
          5    1    1    2  502    0  0.59866210036E+02 -0.28320952078E+02  0.24927166972E+02  0.70886356120E+02  0.41800000000E+01 0. -1.
         -5    1    1    2    0  502  0.13791302263E+02  0.90249000849E+02  0.40358164145E+02  0.99906636344E+02  0.41800000000E+01 0. -1.
        -11    1    1    2    0    0 -0.36706678921E+02 -0.58667599038E+02 -0.18586041007E+02  0.71656879465E+02  0.00000000000E+00 0. -1.
         11    1    1    2    0    0 -0.36950833379E+02 -0.32604497326E+01  0.53674365369E+02  0.65245169304E+02  0.00000000000E+00 0.  1.
</event>
<event>
 6    1  0.8989754E-006  0.1501040E+03  0.7561462E-02  0.1200345E+00
         -2   -1    0    0    0  501 -0.00000000000E+00  0.00000000000E+00  0.14177812715E+03  0.14177812715E+03  0.00000000000E+00 0.  1.
          2   -1    0    0  501    0  0.00000000000E+00 -0.00000000000E+00 -0.20398190929E+03  0.20398190929E+03  0.00000000000E+00 0. -1.
          5    1    1    2  502    0 -0.34850986695E+02 -0.41792185318E+02 -0.29403579108E+02  0.61993716550E+02  0.41800000000E+01 0.  1.
         -5    1    1    2    0  502 -0.89452715189E+02  0.72255201851E+02  0.21850945624E+02  0.11712189665E+03  0.41800000000E+01 0.  1.
        -11    1    1    2    0    0  0.11050705767E+03 -0.17980998454E+02 -0.78248959630E+02  0.13659438416E+03  0.00000000000E+00 0. -1.
         11    1    1    2    0    0  0.13796644218E+02 -0.12482018080E+02  0.23597810970E+02  0.30050039095E+02  0.00000000000E+00 0.  1.
</event>
<event>
 6    1  0.8989754E-006  0.8533654E+02  0.7561462E-02  0.1314555E+00
         -1   -1    0    0    0  501 -0.00000000000E+00  0.00000000000E+00  0.35489927905E+03  0.35489927905E+03  0.00000000000E+00 0.  1.
          1   -1    0    0  501    0  0.00000000000E+00 -0.00000000000E+00 -0.34381794095E+02  0.34381794095E+02  0.00000000000E+00 0. -1.
          5    1    1    2  502    0  0.13045701503E+02  0.30920739184E+02  0.19187800597E+01  0.33873832915E+02  0.41800000000E+01 0.  1.
         -5    1    1    2    0  502 -0.26640071956E+02 -0.44999940569E+02  0.18200902200E+03  0.18941870176E+03  0.41800000000E+01 0.  1.
        -11    1    1    2    0    0  0.32199071820E+02  0.40711314989E+02  0.11713888521E+03  0.12812380662E+03  0.00000000000E+00 0.  1.
         11    1    1    2    0    0 -0.18604701367E+02 -0.26632113604E+02  0.19450797684E+02  0.37864731856E+02  0.00000000000E+00 0. -1.
</event>
<event>
 6    1  0.8989754E-006  0.1061827E+03  0.7561462E-02  0.1267807E+00
         -3   -1    0    0    0  501 -0.00000000000E+00  0.00000000000E+00  0.62496415496E+02  0.62496415496E+02  0.00000000000E+00 0.  1.
          3   -1    0    0  501    0  0.00000000000E+00 -0.00000000000E+00 -0.24877858383E+03  0.24877858383E+03  0.00000000000E+00 0. -1.
          5    1    1    2  502    0  0.31055515676E+02 -0.29161923264E+02 -0.42220372829E+01  0.43013495802E+02  0.41800000000E+01 0.  1.
         -5    1    1    2    0  502 -0.68062782023E+02  0.54794912945E+02 -0.48256711533E+02  0.99905992760E+02  0.41800000000E+01 0.  1.
        -11    1    1    2    0    0  0.57124792634E+02 -0.13898447931E+02 -0.13258353095E+03  0.14503379423E+03  0.00000000000E+00 0. -1.
         11    1    1    2    0    0 -0.20117526287E+02 -0.11734541751E+02 -0.12198885645E+01  0.23321716534E+02  0.00000000000E+00 0.  1.
</event>
<event>
 6    1  0.8989754E-006  0.1622022E+03  0.7561462E-02  0.1186233E+00
          1   -1    0    0  501    0  0.00000000000E+00  0.00000000000E+00  0.67591477986E+03  0.67591477986E+03  0.00000000000E+00 0. -1.
         -1   -1    0    0    0  501 -0.00000000000E+00 -0.00000000000E+00 -0.74104310815E+02  0.74104310815E+02  0.00000000000E+00 0.  1.
          5    1    1    2  502    0 -0.14892137449E+03  0.30758421526E+02  0.13040590589E+03  0.20036673617E+03  0.41800000000E+01 0. -1.
         -5    1    1    2    0  502 -0.26477080600E+01 -0.82227303067E+01 -0.22856984874E+02  0.24789873118E+02  0.41800000000E+01 0. -1.
        -11    1    1    2    0    0  0.42459212556E+02  0.18232252798E+02  0.25020103390E+03  0.25443222504E+03  0.00000000000E+00 0. -1.
         11    1    1    2    0    0  0.10910986999E+03 -0.40767944018E+02  0.24406051413E+03  0.27043025634E+03  0.00000000000E+00 0.  1.
</event>
<event>
 6    1  0.8989754E-006  0.8398276E+02  0.7561462E-02  0.1318114E+00
          2   -1    0    0  501    0  0.00000000000E+00  0.00000000000E+00  0.24317388402E+02  0.24317388402E+02  0.00000000000E+00 0. -1.
         -2   -1    0    0    0  501 -0.00000000000E+00 -0.00000000000E+00 -0.60150775928E+03  0.60150775928E+03  0.00000000000E+00 0.  1.
          5    1    1    2  502    0 -0.40566481475E+02  0.76635527407E+00 -0.31160730324E+03  0.31426550965E+03  0.41800000000E+01 0. -1.
         -5    1    1    2    0  502  0.64121004442E+02 -0.31634752179E+02 -0.16214230775E+03  0.17725648399E+03  0.41800000000E+01 0. -1.
        -11    1    1    2    0    0 -0.17005467241E+02 -0.60579676249E+01 -0.93881544315E+02  0.95601408205E+02  0.00000000000E+00 0.  1.
         11    1    1    2    0    0 -0.65490557269E+01  0.36926364530E+02 -0.95592155711E+01  0.38701745834E+02  0.00000000000E+00 0. -1.
</event>
<event>
 6    1  0.8989754E-006  0.4015834E+03  0.7561462E-02  0.1043233E+00
         -2   -1    0    0    0  501 -0.00000000000E+00  0.00000000000E+00  0.68967377857E+02  0.68967377857E+02  0.00000000000E+00 0.  1.
          2   -1    0    0  501    0  0.00000000000E+00 -0.00000000000E+00 -0.30172653940E+04  0.30172653940E+04  0.00000000000E+00 0. -1.
          5    1    1    2  502    0  0.25006821323E+03 -0.17822112824E+03 -0.49971902418E+03  0.58654365341E+03  0.41800000000E+01 0.  1.
         -5    1    1    2    0  502  0.83995071437E+02 -0.34949982979E+02 -0.31692988057E+03  0.32975550782E+03  0.41800000000E+01 0.  1.
        -11    1    1    2    0    0 -0.24538182979E+03  0.19737394273E+03 -0.15975756740E+04  0.16283171527E+04  0.00000000000E+00 0.  1.
         11    1    1    2    0    0 -0.88681454883E+02  0.15797168486E+02 -0.53407343746E+03  0.54161645799E+03  0.00000000000E+00 0. -1.
</event>
<event>
 6    1  0.8989754E-006  0.6304831E+02  0.7561462E-02  0.1385467E+00
         -3   -1    0    0    0  501 -0.00000000000E+00  0.00000000000E+00  0.37062867927E+03  0.37062867927E+03  0.00000000000E+00 0.  1.
          3   -1    0    0  501    0  0.00000000000E+00 -0.00000000000E+00 -0.35685489557E+02  0.35685489557E+02  0.00000000000E+00 0. -1.
          5    1    1    2  502    0 -0.28998108126E+02 -0.69175281355E+01 -0.52237760478E+01  0.30553276528E+02  0.41800000000E+01 0. -1.
         -5    1    1    2    0  502  0.20991306687E+02  0.29796026245E+02  0.19247864929E+03  0.19594371888E+03  0.41800000000E+01 0. -1.
        -11    1    1    2    0    0  0.31350282455E+02 -0.12276061832E+02  0.15031974497E+03  0.15404404445E+03  0.00000000000E+00 0.  1.
         11    1    1    2    0    0 -0.23343481016E+02 -0.10602436277E+02 -0.26314284925E+01  0.25773128969E+02  0.00000000000E+00 0. -1.
</event>
<event>
 6    1  0.8989754E-006  0.1142953E+03  0.7561462E-02  0.1252816E+00
          2   -1    0    0  501    0  0.00000000000E+00  0.00000000000E+00  0.51038334319E+03  0.51038334319E+03  0.00000000000E+00 0.  1.
         -2   -1    0    0    0  501 -0.00000000000E+00 -0.00000000000E+00 -0.29965844054E+02  0.29965844054E+02  0.00000000000E+00 0. -1.
          5    1    1    2  502    0 -0.33692984389E+02 -0.59443157266E+02  0.77398250555E+02  0.10332796200E+03  0.41800000000E+01 0.  1.
         -5    1    1    2    0  502  0.55619592794E+02  0.26810023334E+02  0.92313400238E+02  0.11113753964E+03  0.41800000000E+01 0.  1.
        -11    1    1    2    0    0 -0.14566068008E+02 -0.30968760766E+02  0.10352015120E+03  0.10903052868E+03  0.00000000000E+00 0.  1.
         11    1    1    2    0    0 -0.73605403969E+01  0.63601894698E+02  0.20718569714E+03  0.21685315692E+03  0.00000000000E+00 0. -1.
</event>
<event>
 6    1  0.8989754E-006  0.1199972E+03  0.7561462E-02  0.1243102E+00
         -2   -1    0    0    0  501 -0.00000000000E+00  0.00000000000E+00  0.18103337103E+02  0.18103337103E+02  0.00000000000E+00 0.  1.
          2   -1    0    0  501    0  0.00000000000E+00 -0.00000000000E+00 -0.10702982008E+04  0.10702982008E+04  0.00000000000E+00 0. -1.
          5    1    1    2  502    0 -0.28492599364E+02  0.63448083823E+02 -0.13139541890E+03  0.14872698500E+03  0.41800000000E+01 0.  1.
         -5    1    1    2    0  502  0.38468871533E+02  0.21785808178E+02 -0.44804077186E+03  0.45023602828E+03  0.41800000000E+01 0.  1.
        -11    1    1    2    0    0 -0.40568749724E+02 -0.60438346488E+01 -0.18037439250E+03  0.18497911466E+03  0.00000000000E+00 0.  1.
         11    1    1    2    0    0  0.30592477555E+02 -0.79190057352E+02 -0.29238428046E+03  0.30445940998E+03  0.00000000000E+00 0. -1.
</event>
<event>
 6    1  0.8989754E-006  0.2132314E+03  0.7561462E-02  0.1139032E+00
          3   -1    0    0  501    0  0.00000000000E+00  0.00000000000E+00  0.14102268728E+04  0.14102268728E+04  0.00000000000E+00 0. -1.
         -3   -1    0    0    0  501 -0.00000000000E+00 -0.00000000000E+00 -0.36918502127E+02  0.36918502127E+02  0.00000000000E+00 0.  1.
          5    1    1    2  502    0 -0.48880174260E+02  0.82221341332E+02  0.22522724520E+03  0.24473333403E+03  0.41800000000E+01 0.  1.
         -5    1    1    2    0  502 -0.12798624187E+03 -0.19044550635E+02  0.26466396599E+03  0.29463139736E+03  0.41800000000E+01 0.  1.
        -11    1    1    2    0    0  0.10178222453E+03 -0.73386256656E+02  0.66114410637E+03  0.67294627815E+03  0.00000000000E+00 0. -1.
         11    1    1    2    0    0  0.75084191594E+02  0.10209465959E+02  0.22227305309E+03  0.23483436536E+03  0.00000000000E+00 0.  1.
</event>
<event>
 6    1  0.8989754E-006  0.1124443E+03  0.7561462E-02  0.1256109E+00
          2   -1    0    0  501    0  0.00000000000E+00  0.00000000000E+00  0.34558413883E+03  0.34558413883E+03  0.00000000000E+00 0. -1.
         -2   -1    0    0    0  501 -0.00000000000E+00 -0.00000000000E+00 -0.10526567332E+03  0.10526567332E+03  0.00000000000E+00 0.  1.
          5    1    1    2  502    0  0.99821125244E+01  0.37248582044E+02 -0.42647086551E+02  0.57648467682E+02  0.41800000000E+01 0. -1.
         -5    1    1    2    0  502 -0.20327994859E+02 -0.81681508028E+02 -0.74108607436E+01  0.84601946701E+02  0.41800000000E+01 0. -1.
        -11    1    1    2    0    0  0.50673539949E+02  0.30562791147E+02  0.13346435343E+03  0.14599529270E+03  0.00000000000E+00 0.  1.
         11    1    1    2    0    0 -0.40327657615E+02  0.13870134836E+02  0.15691205937E+03  0.16260410507E+03  0.00000000000E+00 0. -1.
</event>
<event>
 6    1  0.8989754E-006  0.9301485E+02  0.7561462E-02  0.1295711E+00
          4   -1    0    0  501    0  0.00000000000E+00  0.00000000000E+00  0.54207410192E+02  0.54207410192E+02  0.00000000000E+00 0.  1.
         -4   -1    0    0    0  501 -0.00000000000E+00 -0.00000000000E+00 -0.27529624759E+03  0.27529624759E+03  0.00000000000E+00 0. -1.
          5    1    1    2  502    0  0.52308651223E+02 -0.25645281648E+02 -0.16172410707E+03  0.17194776728E+03  0.41800000000E+01 0. -1.
         -5    1    1    2    0  502 -0.39477620772E+02  0.42753721262E+02 -0.61103052133E+02  0.84483244514E+02  0.41800000000E+01 0. -1.
        -11    1    1    2    0    0  0.25852717141E+02  0.23855719269E+01 -0.10582608082E+02  0.28036503541E+02  0.00000000000E+00 0. -1.
         11    1    1    2    0    0 -0.38683747591E+02 -0.19494011541E+02  0.12320929886E+02  0.45036142452E+02  0.00000000000E+00 0.  1.
</event>
<event>
 6    1  0.8989754E-006  0.1461428E+03  0.7561462E-02  0.1205294E+00
         -2   -1    0    0    0  501 -0.00000000000E+00  0.00000000000E+00  0.92582084315E+02  0.92582084315E+02  0.00000000000E+00 0.  1.
          2   -1    0    0  501    0  0.00000000000E+00 -0.00000000000E+00 -0.26676580647E+03  0.26676580647E+03  0.00000000000E+00 0. -1.
          5    1    1    2  502    0  0.96897581809E+02 -0.23467882406E+02 -0.71070536843E+02  0.12250867917E+03  0.41800000000E+01 0. -1.
         -5    1    1    2    0  502 -0.16381863771E+02 -0.54349662146E+02  0.66596270640E+01  0.57306843122E+02  0.41800000000E+01 0. -1.
        -11    1    1    2    0    0 -0.81760884065E+02  0.29006814162E+02 -0.94704415662E+02  0.12843349943E+03  0.00000000000E+00 0.  1.
         11    1    1    2    0    0  0.12451660273E+01  0.48810730390E+02 -0.15068396716E+02  0.51098869060E+02  0.00000000000E+00 0. -1.
</event>
<event>
 6    1  0.8989754E-006  0.1455609E+03  0.7561462E-02  0.1206036E+00
          1   -1    0    0  501    0  0.00000000000E+00  0.00000000000E+00  0.31802609786E+02  0.31802609786E+02  0.00000000000E+00 0. -1.
         -1   -1    0    0    0  501 -0.00000000000E+00 -0.00000000000E+00 -0.10114365885E+04  0.10114365885E+04  0.00000000000E+00 0.  1.
          5    1    1    2  502    0  0.56043907008E+02  0.13329157450E+02 -0.48552722455E+03  0.48895065613E+03  0.41800000000E+01 0.  1.
         -5    1    1    2    0  502 -0.20450925434E+02  0.90037159182E+02 -0.29833463586E+03  0.31232348253E+03  0.41800000000E+01 0.  1.
        -11    1    1    2    0    0  0.26118329404E+02 -0.79443125365E+01 -0.51749706586E+02  0.58509070786E+02  0.00000000000E+00 0.  1.
         11    1    1    2    0    0 -0.61711310978E+02 -0.95422004096E+02 -0.14402241176E+03  0.18345598888E+03  0.00000000000E+00 0. -1.
</event>
<event>
 6    1  0.8989754E-006  0.1013799E+03  0.7561462E-02  0.1277421E+00
         -2   -1    0    0    0  501 -0.00000000000E+00  0.00000000000E+00  0.42386759625E+02  0.42386759625E+02  0.00000000000E+00 0. -1.
          2   -1    0    0  501    0  0.00000000000E+00 -0.00000000000E+00 -0.34422798147E+03  0.34422798147E+03  0.00000000000E+00 0.  1.
          5    1    1    2  502    0 -0.21423932392E+02  0.67923548982E+02 -0.11364718044E+03  0.13418549627E+03  0.41800000000E+01 0. -1.
         -5    1    1    2    0  502  0.15408147895E+02 -0.30435554546E+02  0.63336371090E+01  0.34947408504E+02  0.41800000000E+01 0. -1.
        -11    1    1    2    0    0 -0.41154335296E+02 -0.25365768483E+02 -0.10391680411E+03  0.11461153389E+03  0.00000000000E+00 0.  1.
         11    1    1    2    0    0  0.47170119793E+02 -0.12122225953E+02 -0.90610874401E+02  0.10287030243E+03  0.00000000000E+00 0. -1.
</event>
<event>
 6    1  0.8989754E-006  0.1030781E+03  0.7561462E-02  0.1273953E+00
          2   -1    0    0  501    0  0.00000000000E+00  0.00000000000E+00  0.37256958326E+02  0.37256958326E+02  0.00000000000E+00 0.  1.
         -2   -1    0    0    0  501 -0.00000000000E+00 -0.00000000000E+00 -0.63631509482E+03  0.63631509482E+03  0.00000000000E+00 0. -1.
          5    1    1    2  502    0 -0.11420839296E+02 -0.30179757842E+02 -0.13801066594E+02  0.35343955534E+02  0.41800000000E+01 0.  1.
         -5    1    1    2    0  502  0.32876328123E+02 -0.65416465086E+02 -0.42630416089E+03  0.43256545961E+03  0.41800000000E+01 0.  1.
        -11    1    1    2    0    0  0.27692751725E+01  0.33764928683E+02 -0.52785579293E+00  0.33882413221E+02  0.00000000000E+00 0.  1.
         11    1    1    2    0    0 -0.24224763999E+02  0.61831294245E+02 -0.15842505321E+03  0.17178022477E+03  0.00000000000E+00 0. -1.
</event>
<event>
 6    1  0.8989754E-006  0.1697864E+03  0.7561462E-02  0.1178071E+00
         -3   -1    0    0    0  501 -0.00000000000E+00  0.00000000000E+00  0.39201404904E+03  0.39201404904E+03  0.00000000000E+00 0.  1.
          3   -1    0    0  501    0  0.00000000000E+00 -0.00000000000E+00 -0.78503982346E+02  0.78503982346E+02  0.00000000000E+00 0. -1.
          5    1    1    2  502    0 -0.14378547385E+03  0.41857348872E+02  0.11912710417E+03  0.19140281997E+03  0.41800000000E+01 0.  1.
         -5    1    1    2    0  502  0.63877857193E+01 -0.35167203817E+02  0.33151753590E+02  0.48929001592E+02  0.41800000000E+01 0.  1.
        -11    1    1    2    0    0  0.21385309743E+02  0.25595004255E+02  0.74978275229E+02  0.82062034291E+02  0.00000000000E+00 0.  1.
         11    1    1    2    0    0  0.11601237838E+03 -0.32285149311E+02  0.86252933697E+02  0.14812417553E+03  0.00000000000E+00 0. -1.
</event>
<event>
 6    1  0.8989754E-006  0.1088268E+03  0.7561462E-02  0.1262758E+00
          1   -1    0    0  501    0  0.00000000000E+00  0.00000000000E+00  0.34063266898E+03  0.34063266898E+03  0.00000000000E+00 0. -1.
         -1   -1    0    0    0  501 -0.00000000000E+00 -0.00000000000E+00 -0.75853672171E+02  0.75853672171E+02  0.00000000000E+00 0.  1.
          5    1    1    2  502    0 -0.93167678781E+02 -0.41154414610E+02  0.89813907365E+02  0.13585990051E+03  0.41800000000E+01 0.  1.
         -5    1    1    2    0  502  0.59334659743E+01 -0.42312536901E+01 -0.32264708487E+02  0.33340565982E+02  0.41800000000E+01 0.  1.
        -11    1    1    2    0    0  0.90035415956E+02  0.35069031159E+02  0.21388199078E+03  0.23469494893E+03  0.00000000000E+00 0. -1.
         11    1    1    2    0    0 -0.28012031495E+01  0.10316637141E+02 -0.66521928484E+01  0.12590925728E+02  0.00000000000E+00 0.  1.
</event>
<event>
 6    1  0.8989754E-006  0.1777344E+03  0.7561462E-02  0.1170014E+00
         -1   -1    0    0    0  501 -0.00000000000E+00  0.00000000000E+00  0.50211880557E+02  0.50211880557E+02  0.00000000000E+00 0. -1.
          1   -1    0    0  501    0  0.00000000000E+00 -0.00000000000E+00 -0.64370770626E+03  0.64370770626E+03  0.00000000000E+00 0.  1.
          5    1    1    2  502    0 -0.85419004570E+02 -0.97172105784E+02 -0.16864699100E+03  0.21259845827E+03  0.41800000000E+01 0.  1.
         -5    1    1    2    0  502 -0.42923297311E+02  0.38310320954E+02 -0.10432212585E+03  0.11920850844E+03  0.41800000000E+01 0.  1.
        -11    1    1    2    0    0  0.14287408000E+03  0.56377537260E+02 -0.29655097807E+03  0.33396693255E+03  0.00000000000E+00 0.  1.
         11    1    1    2    0    0 -0.14531778119E+02  0.24842475699E+01 -0.23975730782E+02  0.28145687553E+02  0.00000000000E+00 0. -1.
</event>
<event>
 6    1  0.8989754E-006  0.1751179E+03  0.7561462E-02  0.1172613E+00
          2   -1    0    0  501    0  0.00000000000E+00  0.00000000000E+00  0.19389593482E+03  0.19389593482E+03  0.00000000000E+00 0. -1.
         -2   -1    0    0    0  501 -0.00000000000E+00 -0.00000000000E+00 -0.20660219845E+03  0.20660219845E+03  0.00000000000E+00 0.  1.
          5    1    1    2  502    0  0.41775557990E+02 -0.56973270050E+02 -0.64380481094E+02  0.95673765952E+02  0.41800000000E+01 0. -1.
         -5    1    1    2    0  502  0.13720967198E+02 -0.10125404473E+03  0.50361583660E+02  0.11399301743E+03  0.41800000000E+01 0. -1.
        -11    1    1    2    0    0  0.91835142438E+01  0.52191491823E+02 -0.32423388589E+02  0.62125396419E+02  0.00000000000E+00 0.  1.
         11    1    1    2    0    0 -0.64680039432E+02  0.10603582296E+03  0.33736022390E+02  0.12870595347E+03  0.00000000000E+00 0. -1.
</event>
<event>
 6    1  0.8989754E-006  0.6468306E+02  0.7561462E-02  0.1379168E+00
         -2   -1    0    0    0  501 -0.00000000000E+00  0.00000000000E+00  0.69835402204E+02  0.69835402204E+02  0.00000000000E+00 0.  1.
          2   -1    0    0  501    0  0.00000000000E+00 -0.00000000000E+00 -0.18676589642E+03  0.18676589642E+03  0.00000000000E+00 0. -1.
          5    1    1    2  502    0  0.33254180436E+02 -0.32161787916E+02  0.29459771164E+02  0.55005196440E+02  0.41800000000E+01 0. -1.
         -5    1    1    2    0  502  0.80111641670E+00  0.79923998754E+01 -0.89356805188E+02  0.89814426885E+02  0.41800000000E+01 0. -1.
        -11    1    1    2    0    0 -0.50329948793E+01  0.40329296574E+02  0.54610402612E+01  0.41007391533E+02  0.00000000000E+00 0.  1.
         11    1    1    2    0    0 -0.29022301973E+02 -0.16159908533E+02 -0.62494500457E+02  0.70774283769E+02  0.00000000000E+00 0. -1.
</event>
<event>
 6    1  0.8989754E-006  0.1208431E+03  0.7561462E-02  0.1241713E+00
         -1   -1    0    0    0  501 -0.00000000000E+00  0.00000000000E+00  0.16555818146E+02  0.16555818146E+02  0.00000000000E+00 0.  1.
          1   -1    0    0  501    0  0.00000000000E+00 -0.00000000000E+00 -0.11468447089E+04  0.11468447089E+04  0.00000000000E+00 0. -1.
          5    1    1    2  502    0  0.22222295188E+02 -0.75677074759E+02 -0.24208977772E+03  0.25464835151E+03  0.41800000000E+01 0.  1.
         -5    1    1    2    0  502 -0.63414637702E+02 -0.12992807603E+02 -0.50320675116E+03  0.50737041314E+03  0.41800000000E+01 0.  1.
        -11    1    1    2    0    0  0.19685963570E+02  0.38159635607E+02 -0.73784594274E+02  0.85368971550E+02  0.00000000000E+00 0.  1.
         11    1    1    2    0    0  0.21506378943E+02  0.50510246754E+02 -0.31120776758E+03  0.31601279082E+03  0.00000000000E+00 0. -1.
</event>
<event>
 6    1  0.8989754E-006  0.2379053E+03  0.7561462E-02  0.1121196E+00
         -2   -1    0    0    0  501 -0.00000000000E+00  0.00000000000E+00  0.41775279070E+02  0.41775279070E+02  0.00000000000E+00 0.  1.
          2   -1    0    0  501    0  0.00000000000E+00 -0.00000000000E+00 -0.16868775824E+04  0.16868775824E+04  0.00000000000E+00 0. -1.
          5    1    1    2  502    0 -0.16827176232E+03 -0.14827969115E+03 -0.43503858511E+03  0.48946735921E+03  0.41800000000E+01 0.  1.
         -5    1    1    2    0  502 -0.10033260597E+02  0.23675425554E+02 -0.64272753661E+02  0.69351649991E+02  0.41800000000E+01 0.  1.
        -11    1    1    2    0    0  0.14309180504E+03  0.12533031516E+03 -0.10626454582E+04  0.10795361608E+04  0.00000000000E+00 0. -1.
         11    1    1    2    0    0  0.35213217879E+02 -0.72604956809E+00 -0.83145506285E+02  0.90297691425E+02  0.00000000000E+00 0.  1.
</event>
<event>
 6    1  0.8989754E-006  0.1074527E+03  0.7561462E-02  0.1265361E+00
         -1   -1    0    0    0  501 -0.00000000000E+00  0.00000000000E+00  0.12612396097E+03  0.12612396097E+03  0.00000000000E+00 0.  1.
          1   -1    0    0  501    0  0.00000000000E+00 -0.00000000000E+00 -0.17543395018E+03  0.17543395018E+03  0.00000000000E+00 0. -1.
          5    1    1    2  502    0 -0.41559789446E+02 -0.39667831914E+02  0.67289494956E+02  0.88578222600E+02  0.41800000000E+01 0. -1.
         -5    1    1    2    0  502  0.58222373198E+02 -0.14716932524E+02 -0.86576435986E+01  0.60818254138E+02  0.41800000000E+01 0. -1.
        -11    1    1    2    0    0 -0.11116332468E+02 -0.19801872280E+02 -0.58720338563E+02  0.62958439897E+02  0.00000000000E+00 0. -1.
         11    1    1    2    0    0 -0.55462512846E+01  0.74186636718E+02 -0.49221502004E+02  0.89202994514E+02  0.00000000000E+00 0.  1.
</event>
<event>
 6    1  0.8989754E-006  0.1529992E+03  0.7561462E-02  0.1196835E+00
          2   -1    0    0  501    0  0.00000000000E+00  0.00000000000E+00  0.91539460410E+03  0.91539460410E+03  0.00000000000E+00 0. -1.
         -2   -1    0    0    0  501 -0.00000000000E+00 -0.00000000000E+00 -0.30119810570E+02  0.30119810570E+02  0.00000000000E+00 0.  1.
          5    1    1    2  502    0 -0.33062290113E+02  0.94043949844E+02  0.15198147234E+03  0.18180544509E+03  0.41800000000E+01 0.  1.
         -5    1    1    2    0  502  0.42736613928E+02  0.30328470437E+02  0.28016236175E+03  0.28505202267E+03  0.41800000000E+01 0.  1.
        -11    1    1    2    0    0 -0.49945087805E+02 -0.67665699370E+02  0.26832554750E+03  0.28119700942E+03  0.00000000000E+00 0. -1.
         11    1    1    2    0    0  0.40270763990E+02 -0.56706720912E+02  0.18480541194E+03  0.19745993748E+03  0.00000000000E+00 0.  1.
</event>
<event>
 6    1  0.8989754E-006  0.1305690E+03  0.7561462E-02  0.1226614E+00
          3   -1    0    0  501    0  0.00000000000E+00  0.00000000000E+00  0.12693398535E+03  0.12693398535E+03  0.00000000000E+00 0. -1.
         -3   -1    0    0    0  501 -0.00000000000E+00 -0.00000000000E+00 -0.15927127361E+03  0.15927127361E+03  0.00000000000E+00 0.  1.
          5    1    1    2  502    0  0.74669186956E+02  0.62820449044E+02 -0.99828898234E+00  0.97674793471E+02  0.41800000000E+01 0.  1.
         -5    1    1    2    0  502  0.14326667966E+02 -0.47768291349E+02 -0.33992671556E+02  0.60498241239E+02  0.41800000000E+01 0.  1.
        -11    1    1    2    0    0 -0.34739504204E+02 -0.40615728288E+02  0.30901169398E+02  0.61736154778E+02  0.00000000000E+00 0. -1.
         11    1    1    2    0    0 -0.54256350718E+02  0.25563570593E+02 -0.28247497114E+02  0.66296069475E+02  0.00000000000E+00 0.  1.
</event>
<event>
 6    1  0.8989754E-006  0.1922914E+03  0.7561462E-02  0.1156411E+00
         -1   -1    0    0    0  501 -0.00000000000E+00  0.00000000000E+00  0.12331648802E+03  0.12331648802E+03  0.00000000000E+00 0.  1.
          1   -1    0    0  501    0  0.00000000000E+00 -0.00000000000E+00 -0.42052874640E+03  0.42052874640E+03  0.00000000000E+00 0. -1.
          5    1    1    2  502    0  0.43481022499E+02  0.68120445943E+02  0.29314173558E+02  0.86068505532E+02  0.41800000000E+01 0.  1.
         -5    1    1    2    0  502  0.11320356815E+03  0.12130836837E+02 -0.69919511300E+02  0.13367279269E+03  0.41800000000E+01 0.  1.
        -11    1    1    2    0    0 -0.88956115526E+02 -0.58916282528E+01 -0.74993175517E+02  0.11649840405E+03  0.00000000000E+00 0.  1.
         11    1    1    2    0    0 -0.67728475123E+02 -0.74359654527E+02 -0.18161374511E+03  0.20760553215E+03  0.00000000000E+00 0. -1.
</event>
<event>
 6    1  0.8989754E-006  0.1109582E+03  0.7561462E-02  0.1258806E+00
          2   -1    0    0  501    0  0.00000000000E+00  0.00000000000E+00  0.52530745289E+03  0.52530745289E+03  0.00000000000E+00 0. -1.
         -2   -1    0    0    0  501 -0.00000000000E+00 -0.00000000000E+00 -0.25915298686E+02  0.25915298686E+02  0.00000000000E+00 0.  1.
          5    1    1    2  502    0 -0.68085861402E+01 -0.49579087007E+02  0.14049791066E+03  0.14920314344E+03  0.41800000000E+01 0.  1.
         -5    1    1    2    0  502  0.48317039724E+02  0.60743063880E+02  0.12052927433E+03  0.14341908697E+03  0.41800000000E+01 0.  1.
        -11    1    1    2    0    0 -0.56590456899E+02 -0.34430830698E+02  0.12038770541E+03  0.13740873891E+03  0.00000000000E+00 0.  1.
         11    1    1    2    0    0  0.15082003315E+02  0.23266853825E+02  0.11797726380E+03  0.12119178225E+03  0.00000000000E+00 0. -1.
</event>
<event>
 6    1  0.8989754E-006  0.1072392E+03  0.7561462E-02  0.1265770E+00
         -2   -1    0    0    0  501 -0.00000000000E+00  0.00000000000E+00  0.19451907548E+03  0.19451907548E+03  0.00000000000E+00 0.  1.
          2   -1    0    0  501    0  0.00000000000E+00 -0.00000000000E+00 -0.47543633741E+03  0.47543633741E+03  0.00000000000E+00 0. -1.
          5    1    1    2  502    0  0.18273191342E+02 -0.14142335293E+01 -0.10036258320E+02  0.21309820726E+02  0.41800000000E+01 0. -1.
         -5    1    1    2    0  502 -0.68106576879E+02 -0.10814687465E+02  0.17341283387E+03  0.18666801180E+03  0.41800000000E+01 0.  1.
        -11    1    1    2    0    0 -0.12367808032E+02  0.51545308333E+02 -0.18714667605E+03  0.19450902252E+03  0.00000000000E+00 0.  1.
         11    1    1    2    0    0  0.62201193568E+02 -0.39316387339E+02 -0.25714716144E+03  0.26746855784E+03  0.00000000000E+00 0. -1.
</event>
<event>
 6    1  0.8989754E-006  0.1126072E+03  0.7561462E-02  0.1255816E+00
          1   -1    0    0  501    0  0.00000000000E+00  0.00000000000E+00  0.38834884390E+03  0.38834884390E+03  0.00000000000E+00 0. -1.
         -1   -1    0    0    0  501 -0.00000000000E+00 -0.00000000000E+00 -0.37619062206E+02  0.37619062206E+02  0.00000000000E+00 0.  1.
          5    1    1    2  502    0  0.78721802404E+02  0.40089547600E+02  0.18711090928E+03  0.20695955830E+03  0.41800000000E+01 0. -1.
         -5    1    1    2    0  502 -0.23595570323E+02 -0.20715860288E+02  0.14715455883E+02  0.34927279427E+02  0.41800000000E+01 0.  1.
        -11    1    1    2    0    0 -0.21889621351E+02  0.35052289771E+02  0.80960865043E+02  0.90898185954E+02  0.00000000000E+00 0.  1.
         11    1    1    2    0    0 -0.33236610730E+02 -0.54425977083E+02  0.67942551492E+02  0.93182882427E+02  0.00000000000E+00 0. -1.
</event>
<event>
 6    1  0.8989754E-006  0.1116179E+03  0.7561462E-02  0.1257603E+00
          2   -1    0    0  501    0  0.00000000000E+00  0.00000000000E+00  0.54123682888E+03  0.54123682888E+03  0.00000000000E+00 0.  1.
         -2   -1    0    0    0  501 -0.00000000000E+00 -0.00000000000E+00 -0.42478044960E+02  0.42478044960E+02  0.00000000000E+00 0. -1.
          5    1    1    2  502    0  0.15502686928E+02 -0.82059950717E+02  0.23338966740E+02  0.86812145361E+02  0.41800000000E+01 0.  1.
         -5    1    1    2    0  502 -0.27631066797E+02  0.75185669756E+01  0.10095569792E+03  0.10502156942E+03  0.41800000000E+01 0.  1.
        -11    1    1    2    0    0 -0.20738677249E+02 -0.76944649220E+01  0.38117885361E+02  0.44071200448E+02  0.00000000000E+00 0.  1.
         11    1    1    2    0    0  0.32867057118E+02  0.82235848663E+02  0.33634623390E+03  0.34780995861E+03  0.00000000000E+00 0. -1.
</event>
<event>
 6    1  0.8989754E-006  0.1010151E+03  0.7561462E-02  0.1278176E+00
         -1   -1    0    0    0  501 -0.00000000000E+00  0.00000000000E+00  0.23922984905E+03  0.23922984905E+03  0.00000000000E+00 0.  1.
          1   -1    0    0  501    0  0.00000000000E+00 -0.00000000000E+00 -0.11839410680E+03  0.11839410680E+03  0.00000000000E+00 0. -1.
          5    1    1    2  502    0  0.78333757381E+01 -0.34315694902E+02  0.16391951500E+03  0.16770810502E+03  0.41800000000E+01 0.  1.
         -5    1    1    2    0  502 -0.55637440268E+02  0.17947394804E+02  0.23339402054E+02  0.63085924168E+02  0.41800000000E+01 0.  1.
        -11    1    1    2    0    0  0.67748827371E+02 -0.16315762620E+02 -0.40662646168E+02  0.80681835089E+02  0.00000000000E+00 0. -1.
         11    1    1    2    0    0 -0.19944762840E+02  0.32684062718E+02 -0.25760528637E+02  0.46148091576E+02  0.00000000000E+00 0.  1.
</event>
<event>
 6    1  0.8989754E-006  0.1020711E+03  0.7561462E-02  0.1276000E+00
          4   -1    0    0  501    0  0.00000000000E+00  0.00000000000E+00  0.37091922985E+03  0.37091922985E+03  0.00000000000E+00 0. -1.
         -4   -1    0    0    0  501 -0.00000000000E+00 -0.00000000000E+00 -0.45086452357E+02  0.45086452357E+02  0.00000000000E+00 0.  1.
          5    1    1    2  502    0  0.59663867569E+01 -0.86000282238E+02  0.84252468925E+02  0.12061342063E+03  0.41800000000E+01 0.  1.
         -5    1    1    2    0  502 -0.39825749045E+02  0.33907124554E+02  0.69890781846E+02  0.87395521450E+02  0.41800000000E+01 0.  1.
        -11    1    1    2    0    0  0.20634692878E+02  0.13733368405E+02 -0.61899268151E+01  0.25548212303E+02  0.00000000000E+00 0.  1.
         11    1    1    2    0    0  0.13224669411E+02  0.38359789279E+02  0.17787945354E+03  0.18244852783E+03  0.00000000000E+00 0. -1.
</event>
<event>
 6    1  0.8989754E-006  0.1171908E+03  0.7561462E-02  0.1247805E+00
          1   -1    0    0  501    0  0.00000000000E+00  0.00000000000E+00  0.20441218194E+02  0.20441218194E+02  0.00000000000E+00 0. -1.
         -1   -1    0    0    0  501 -0.00000000000E+00 -0.00000000000E+00 -0.88626705012E+03  0.88626705012E+03  0.00000000000E+00 0.  1.
          5    1    1    2  502    0  0.81025382182E+02  0.56523899709E+02 -0.52155429645E+03  0.53084500595E+03  0.41800000000E+01 0.  1.
         -5    1    1    2    0  502 -0.22497299735E+02 -0.33096389530E+02 -0.16288909920E+03  0.16778507244E+03  0.41800000000E+01 0.  1.
        -11    1    1    2    0    0 -0.71647797155E+02 -0.33139336824E+02 -0.11344819241E+03  0.13821040064E+03  0.00000000000E+00 0. -1.
         11    1    1    2    0    0  0.13119714707E+02  0.97118266446E+01 -0.67934243854E+02  0.69867789280E+02  0.00000000000E+00 0.  1.
</event>
<event>
 6    1  0.8989754E-006  0.1168710E+03  0.7561462E-02  0.1248350E+00
         -2   -1    0    0    0  501 -0.00000000000E+00  0.00000000000E+00  0.24608185554E+02  0.24608185554E+02  0.00000000000E+00 0. -1.
          2   -1    0    0  501    0  0.00000000000E+00 -0.00000000000E+00 -0.82652412360E+03  0.82652412360E+03  0.00000000000E+00 0.  1.
          5    1    1    2  502    0  0.76626397338E+02 -0.17824005842E+02 -0.27998667236E+03  0.29085960368E+03  0.41800000000E+01 0. -1.
         -5    1    1    2    0  502 -0.14896294660E+02 -0.31138787162E+02 -0.12650829310E+02  0.37000534357E+02  0.41800000000E+01 0. -1.
        -11    1    1    2    0    0 -0.44196570699E+02 -0.20375721797E+02 -0.20195505317E+03  0.20773625202E+03  0.00000000000E+00 0. -1.
         11    1    1    2    0    0 -0.17533531979E+02  0.69338514801E+02 -0.30732338321E+03  0.31553591910E+03  0.00000000000E+00 0.  1.
</event>
<event>
 6    1  0.8989754E-006  0.1094418E+03  0.7561462E-02  0.1261607E+00
          1   -1    0    0  501    0  0.00000000000E+00  0.00000000000E+00  0.25703004391E+03  0.25703004391E+03  0.00000000000E+00 0. -1.
         -1   -1    0    0    0  501 -0.00000000000E+00 -0.00000000000E+00 -0.69390437594E+02  0.69390437594E+02  0.00000000000E+00 0.  1.
          5    1    1    2  502    0  0.14956075847E+02  0.43110300204E+02  0.18441203179E+02  0.49393649016E+02  0.41800000000E+01 0. -1.
         -5    1    1    2    0  502 -0.63962294186E+02 -0.61874945744E+02  0.15205391313E+02  0.90378981590E+02  0.41800000000E+01 0. -1.
        -11    1    1    2    0    0 -0.10074537985E+02  0.22622536084E+02  0.11034898724E+03  0.11309365340E+03  0.00000000000E+00 0. -1.
         11    1    1    2    0    0  0.59080756324E+02 -0.38578905438E+01  0.43644024577E+02  0.73554197491E+02  0.00000000000E+00 0.  1.
</event>
<event>
 6    1  0.8989754E-006  0.8778245E+02  0.7561462E-02  0.1308312E+00
         -2   -1    0    0    0  501 -0.00000000000E+00  0.00000000000E+00  0.38987842842E+02  0.38987842842E+02  0.00000000000E+00 0.  1.
          2   -1    0    0  501    0  0.00000000000E+00 -0.00000000000E+00 -0.42752759891E+03  0.42752759891E+03  0.00000000000E+00 0. -1.
          5    1    1    2  502    0 -0.43492006375E+00 -0.16656316123E+01 -0.18828035841E+03  0.18833462041E+03  0.41800000000E+01 0. -1.
         -5    1    1    2    0  502 -0.26763040238E+02  0.65414953452E+02 -0.40792390735E+02  0.81712104365E+02  0.41800000000E+01 0. -1.
        -11    1    1    2    0    0  0.50867017047E+02 -0.30108863278E+02 -0.43408817005E+02  0.73337047015E+02  0.00000000000E+00 0.  1.
         11    1    1    2    0    0 -0.23669056745E+02 -0.33640458561E+02 -0.11605818992E+03  0.12313166996E+03  0.00000000000E+00 0. -1.
</event>
<event>
 6    1  0.8989754E-006  0.8949088E+02  0.7561462E-02  0.1304089E+00
         -1   -1    0    0    0  501 -0.00000000000E+00  0.00000000000E+00  0.65152373874E+02  0.65152373874E+02  0.00000000000E+00 0.  1.
          1   -1    0    0  501    0  0.00000000000E+00 -0.00000000000E+00 -0.20594300081E+03  0.20594300081E+03  0.00000000000E+00 0. -1.
          5    1    1    2  502    0  0.55693364208E+02  0.21083418842E+02 -0.77914887532E+02  0.98155302791E+02  0.41800000000E+01 0.  1.
         -5    1    1    2    0  502 -0.52740415763E+02  0.21508569823E+02 -0.37975824302E+01  0.57236911717E+02  0.41800000000E+01 0.  1.
        -11    1    1    2    0    0  0.20792217167E+02 -0.14285440018E+02  0.17483256719E+02  0.30692904013E+02  0.00000000000E+00 0.  1.
         11    1    1    2    0    0 -0.23745165612E+02 -0.28306548646E+02 -0.76561413694E+02  0.85010256164E+02  0.00000000000E+00 0. -1.
</event>
<event>
 6    1  0.8989754E-006  0.9102607E+02  0.7561462E-02  0.1300386E+00
          2   -1    0    0  501    0  0.00000000000E+00  0.00000000000E+00  0.41266684958E+03  0.41266684958E+03  0.00000000000E+00 0. -1.
         -2   -1    0    0    0  501 -0.00000000000E+00 -0.00000000000E+00 -0.37900549952E+02  0.37900549952E+02  0.00000000000E+00 0.  1.
          5    1    1    2  502    0  0.23398469681E+02  0.10079640968E+02  0.18884613281E+03  0.19060278546E+03  0.41800000000E+01 0.  1.
         -5    1    1    2    0  502  0.43426784307E+01  0.48690964879E+02  0.54279078804E+01  0.49361964110E+02  0.41800000000E+01 0.  1.
        -11    1    1    2    0    0  0.29165233524E+02 -0.34845928953E+02  0.60522094293E+02  0.75682055395E+02  0.00000000000E+00 0.  1.
         11    1    1    2    0    0 -0.56906381636E+02 -0.23924676894E+02  0.11997016464E+03  0.13492059457E+03  0.00000000000E+00 0. -1.
</event>
<event>
 6    1  0.8989754E-006  0.2490382E+03  0.7561462E-02  0.1113914E+00
          3   -1    0    0  501    0  0.00000000000E+00  0.00000000000E+00  0.15434909396E+03  0.15434909396E+03  0.00000000000E+00 0. -1.
         -3   -1    0    0    0  501 -0.00000000000E+00 -0.00000000000E+00 -0.45754732535E+03  0.45754732535E+03  0.00000000000E+00 0.  1.
          5    1    1    2  502    0  0.14346607208E+03 -0.59332781350E+02 -0.42645018090E+02  0.16105577527E+03  0.41800000000E+01 0.  1.
         -5    1    1    2    0  502  0.88529988218E+02 -0.41343411503E+01 -0.14031553196E+03  0.16601377202E+03  0.41800000000E+01 0.  1.
        -11    1    1    2    0    0 -0.43621788112E+02  0.48266141885E+02 -0.93927585165E+01  0.65732067996E+02  0.00000000000E+00 0. -1.
         11    1    1    2    0    0 -0.18837427219E+03  0.15200980615E+02 -0.11084492282E+03  0.21909480402E+03  0.00000000000E+00 0.  1.
</event>
<event>
 6    1  0.8989754E-006  0.1380447E+03  0.7561462E-02  0.1215984E+00
         -1   -1    0    0    0  501 -0.00000000000E+00  0.00000000000E+00  0.44888298161E+03  0.44888298161E+03  0.00000000000E+00 0.  1.
          1   -1    0    0  501    0  0.00000000000E+00 -0.00000000000E+00 -0.24425690333E+03  0.24425690333E+03  0.00000000000E+00 0. -1.
          5    1    1    2  502    0  0.24697941622E+02 -0.13367219634E+02  0.85644411029E+02  0.90228091089E+02  0.41800000000E+01 0. -1.
         -5    1    1    2    0  502 -0.81398256946E+02  0.91347095552E+02  0.33209867789E+03  0.35394487192E+03  0.41800000000E+01 0.  1.
        -11    1    1    2    0    0  0.62578783488E+02 -0.18152950751E+02 -0.82080805201E+02  0.10479929554E+03  0.00000000000E+00 0. -1.
         11    1    1    2    0    0 -0.58784681629E+01 -0.59826925167E+02 -0.13103620544E+03  0.14416762639E+03  0.00000000000E+00 0.  1.
</event>
<event>
 6    1  0.8989754E-006  0.1162030E+03  0.7561462E-02  0.1249496E+00
          2   -1    0    0  501    0  0.00000000000E+00  0.00000000000E+00  0.14695227327E+03  0.14695227327E+03  0.00000000000E+00 0. -1.
         -2   -1    0    0    0  501 -0.00000000000E+00 -0.00000000000E+00 -0.10662480180E+03  0.10662480180E+03  0.00000000000E+00 0.  1.
          5    1    1    2  502    0 -0.74252893092E+02  0.14289143403E+02  0.22712392611E+02  0.79063246391E+02  0.41800000000E+01 0. -1.
         -5    1    1    2    0  502  0.37287101131E+02 -0.44303255693E+02  0.14475163782E+02  0.59834013256E+02  0.41800000000E+01 0. -1.
        -11    1    1    2    0    0 -0.27561399644E+02  0.26191896531E+00 -0.25990796592E+02  0.37884308881E+02  0.00000000000E+00 0.  1.
         11    1    1    2    0    0  0.64527191605E+02  0.29752193325E+02  0.29130711669E+02  0.76795506550E+02  0.00000000000E+00 0. -1.
</event>
<event>
 6    1  0.8989754E-006  0.1577934E+03  0.7561462E-02  0.1191211E+00
         -1   -1    0    0    0  501 -0.00000000000E+00  0.00000000000E+00  0.12094904818E+04  0.12094904818E+04  0.00000000000E+00 0.  1.
          1   -1    0    0  501    0  0.00000000000E+00 -0.00000000000E+00 -0.36861002487E+02  0.36861002487E+02  0.00000000000E+00 0. -1.
          5    1    1    2  502    0  0.73528596400E+02  0.73125840252E+02  0.83636722373E+03  0.84278196963E+03  0.41800000000E+01 0. -1.
         -5    1    1    2    0  502  0.36165530950E+02  0.30990661965E+02  0.71188494900E+02  0.85753372902E+02  0.41800000000E+01 0. -1.
        -11    1    1    2    0    0 -0.16824259174E+02 -0.57827115130E+02  0.15622485733E+03  0.16743129035E+03  0.00000000000E+00 0.  1.
         11    1    1    2    0    0 -0.92869868176E+02 -0.46289387087E+02  0.10884890336E+03  0.15038485142E+03  0.00000000000E+00 0. -1.
</event>
<event>
 6    1  0.8989754E-006  0.2334384E+03  0.7561462E-02  0.1124243E+00
          1   -1    0    0  501    0  0.00000000000E+00  0.00000000000E+00  0.39385853953E+03  0.39385853953E+03  0.00000000000E+00 0.  1.
         -1   -1    0    0    0  501 -0.00000000000E+00 -0.00000000000E+00 -0.21101340089E+03  0.21101340089E+03  0.00000000000E+00 0. -1.
          5    1    1    2  502    0 -0.38128368673E+02 -0.20923051960E+03 -0.74456045244E+02  0.22537159960E+03  0.41800000000E+01 0.  1.
         -5    1    1    2    0  502 -0.32185848420E+02  0.68054151461E+01  0.16938576409E+01  0.33205181335E+02  0.41800000000E+01 0.  1.
        -11    1    1    2    0    0  0.68769834740E+02  0.11813751005E+03  0.20965739028E+03  0.25028380441E+03  0.00000000000E+00 0.  1.
         11    1    1    2    0    0  0.15443823526E+01  0.84287594409E+02  0.45949935966E+02  0.96011355076E+02  0.00000000000E+00 0. -1.
</event>
<event>
 6    1  0.8989754E-006  0.1276089E+03  0.7561462E-02  0.1231047E+00
          1   -1    0    0  501    0  0.00000000000E+00  0.00000000000E+00  0.40325453816E+03  0.40325453816E+03  0.00000000000E+00 0. -1.
         -1   -1    0    0    0  501 -0.00000000000E+00 -0.00000000000E+00 -0.45315407822E+02  0.45315407822E+02  0.00000000000E+00 0.  1.
          5    1    1    2  502    0  0.11306632702E+01  0.36606951376E+02  0.98299969511E+02  0.10498430213E+03  0.41800000000E+01 0.  1.
         -5    1    1    2    0  502 -0.76739216728E+02 -0.61570632534E+02  0.79711310487E+02  0.12669339207E+03  0.41800000000E+01 0.  1.
        -11    1    1    2    0    0  0.43062704305E+02 -0.32425285742E+02  0.65738797773E+02  0.85014029372E+02  0.00000000000E+00 0.  1.
         11    1    1    2    0    0  0.32545849153E+02  0.57388966899E+02  0.11418905257E+03  0.13187822241E+03  0.00000000000E+00 0. -1.
</event>
<event>
 6    1  0.8989754E-006  0.7493247E+02  0.7561462E-02  0.1344080E+00
         -2   -1    0    0    0  501 -0.00000000000E+00  0.00000000000E+00  0.19219697912E+02  0.19219697912E+02  0.00000000000E+00 0.  1.
          2   -1    0    0  501    0  0.00000000000E+00 -0.00000000000E+00 -0.74114292168E+03  0.74114292168E+03  0.00000000000E+00 0. -1.
          5    1    1    2  502    0 -0.13862543444E+02 -0.33187489225E+02 -0.38458998673E+03  0.38629070639E+03  0.41800000000E+01 0. -1.
         -5    1    1    2    0  502 -0.15468173245E+02  0.13326381019E+02 -0.12662718657E+01  0.20879000432E+02  0.41800000000E+01 0. -1.
        -11    1    1    2    0    0 -0.20873405571E+02 -0.19849916059E+02 -0.34675489584E+02  0.45078906437E+02  0.00000000000E+00 0.  1.
         11    1    1    2    0    0  0.50204122261E+02  0.39711024264E+02 -0.30139147559E+03  0.30811400633E+03  0.00000000000E+00 0. -1.
</event>
<event>
 6    1  0.8989754E-006  0.1024837E+03  0.7561462E-02  0.1275158E+00
         -4   -1    0    0    0  501 -0.00000000000E+00  0.00000000000E+00  0.13902198324E+04  0.13902198324E+04  0.00000000000E+00 0.  1.
          4   -1    0    0  501    0  0.00000000000E+00 -0.00000000000E+00 -0.16024721251E+02  0.16024721251E+02  0.00000000000E+00 0. -1.
          5    1    1    2  502    0 -0.53141664874E+01 -0.52554407390E+02  0.32144189202E+03  0.32577993869E+03  0.41800000000E+01 0. -1.
         -5    1    1    2    0  502  0.66656463503E+01  0.61248668227E+02  0.88834652087E+03  0.89049022664E+03  0.41800000000E+01 0. -1.
        -11    1    1    2    0    0 -0.45343661996E+02 -0.90319207663E+01  0.11429089121E+03  0.12328840614E+03  0.00000000000E+00 0.  1.
         11    1    1    2    0    0  0.43992182133E+02  0.33765992868E+00  0.50115807022E+02  0.66685982159E+02  0.00000000000E+00 0. -1.
</event>
<event>
 6    1  0.8989754E-006  0.9761934E+02  0.7561462E-02  0.1285383E+00
         -1   -1    0    0    0  501 -0.00000000000E+00  0.00000000000E+00  0.15438245368E+03  0.15438245368E+03  0.00000000000E+00 0. -1.
          1   -1    0    0  501    0  0.00000000000E+00 -0.00000000000E+00 -0.10672924169E+03  0.10672924169E+03  0.00000000000E+00 0.  1.
          5    1    1    2  502    0  0.67740091315E+01 -0.69202815903E+02  0.67637401145E+02  0.97093807023E+02  0.41800000000E+01 0.  1.
         -5    1    1    2    0  502 -0.21000140330E+02  0.49882032752E+02  0.21577671541E+02  0.58414821702E+02  0.41800000000E+01 0.  1.
        -11    1    1    2    0    0 -0.54613046983E+01 -0.23521296407E+02  0.17651820111E+02  0.29910934236E+02  0.00000000000E+00 0. -1.
         11    1    1    2    0    0  0.19687435897E+02  0.42842079558E+02 -0.59213680812E+02  0.75692132407E+02  0.00000000000E+00 0.  1.
</event>
<event>
 6    1  0.8989754E-006  0.1431886E+03  0.7561462E-02  0.1209102E+00
          2   -1    0    0  501    0  0.00000000000E+00  0.00000000000E+00  0.40378307668E+02  0.40378307668E+02  0.00000000000E+00 0. -1.
         -2   -1    0    0    0  501 -0.00000000000E+00 -0.00000000000E+00 -0.67048732834E+03  0.67048732834E+03  0.00000000000E+00 0.  1.
          5    1    1    2  502    0 -0.92208292675E+02  0.56477178894E+02 -0.34012738676E+03  0.35692597636E+03  0.41800000000E+01 0. -1.
         -5    1    1    2    0  502 -0.24842775632E+02 -0.26210730202E+02 -0.16664890388E+02  0.39991959823E+02  0.41800000000E+01 0. -1.
        -11    1    1    2    0    0  0.54809852434E+02  0.23431762873E+02 -0.17987016312E+03  0.18948995492E+03  0.00000000000E+00 0.  1.
         11    1    1    2    0    0  0.62241215873E+02 -0.53698211566E+02 -0.93446580406E+02  0.12445774491E+03  0.00000000000E+00 0. -1.
</event>
<event>
 6    1  0.8989754E-006  0.1013103E+03  0.7561462E-02  0.1277564E+00
          2   -1    0    0  501    0  0.00000000000E+00  0.00000000000E+00  0.14913096456E+03  0.14913096456E+03  0.00000000000E+00 0. -1.
         -2   -1    0    0    0  501 -0.00000000000E+00 -0.00000000000E+00 -0.14589777285E+03  0.14589777285E+03  0.00000000000E+00 0.  1.
          5    1    1    2  502    0 -0.83148450268E+02  0.36340918040E+02  0.53207970746E+02  0.10527529462E+03  0.41800000000E+01 0. -1.
         -5    1    1    2    0  502 -0.10617510654E+02 -0.11110318479E+01 -0.53771510052E+02  0.54980120203E+02  0.41800000000E+01 0. -1.
        -11    1    1    2    0    0  0.52926871530E+02 -0.16967598329E+02 -0.42820939454E+02  0.70162568216E+02  0.00000000000E+00 0.  1.
         11    1    1    2    0    0  0.40839089392E+02 -0.18262287863E+02  0.46617670471E+02  0.64610754372E+02  0.00000000000E+00 0. -1.
</event>
<event>
 6    1  0.8989754E-006  0.1234904E+03  0.7561462E-02  0.1237448E+00
         -2   -1    0    0    0  501 -0.00000000000E+00  0.00000000000E+00  0.29298357648E+02  0.29298357648E+02  0.00000000000E+00 0.  1.
          2   -1    0    0  501    0  0.00000000000E+00 -0.00000000000E+00 -0.62429798733E+03  0.62429798733E+03  0.00000000000E+00 0. -1.
          5    1    1    2  502    0 -0.72645300930E+02 -0.56337624517E+02 -0.13730755734E+03  0.16529399683E+03  0.41800000000E+01 0.  1.
         -5    1    1    2    0  502  0.49200725660E+02 -0.10824927090E+02 -0.10477340382E+03  0.11633068813E+03  0.41800000000E+01 0.  1.
        -11    1    1    2    0    0  0.51648830458E+02  0.45668460641E+02 -0.13927512532E+03  0.15540518176E+03  0.00000000000E+00 0.  1.
         11    1    1    2    0    0 -0.28204255189E+02  0.21494090966E+02 -0.21364354320E+03  0.21656647827E+03  0.00000000000E+00 0. -1.
</event>
<event>
 6    1  0.8989754E-006  0.9379845E+02  0.7561462E-02  0.1293905E+00
         -2   -1    0    0    0  501 -0.00000000000E+00  0.00000000000E+00  0.32925506611E+03  0.32925506611E+03  0.00000000000E+00 0.  1.
          2   -1    0    0  501    0  0.00000000000E+00 -0.00000000000E+00 -0.74196284648E+02  0.74196284648E+02  0.00000000000E+00 0. -1.
          5    1    1    2  502    0  0.36431007535E+02 -0.36562419682E+02  0.19208899332E+03  0.19894643148E+03  0.41800000000E+01 0. -1.
         -5    1    1    2    0  502 -0.65959561267E+02 -0.17457232300E+02  0.69545230946E+02  0.97516307505E+02  0.41800000000E+01 0. -1.
        -11    1    1    2    0    0  0.14223615687E+02  0.34719846274E+01  0.36184760616E+02  0.39034636175E+02  0.00000000000E+00 0.  1.
         11    1    1    2    0    0  0.15304938045E+02  0.50547667354E+02 -0.42760203420E+02  0.67953975601E+02  0.00000000000E+00 0. -1.
</event>
<event>
 6    1  0.8989754E-006  0.1485009E+03  0.7561462E-02  0.1202327E+00
          4   -1    0    0  501    0  0.00000000000E+00  0.00000000000E+00  0.19544972171E+03  0.19544972171E+03  0.00000000000E+00 0. -1.
         -4   -1    0    0    0  501 -0.00000000000E+00 -0.00000000000E+00 -0.22162459198E+03  0.22162459198E+03  0.00000000000E+00 0.  1.
          5    1    1    2  502    0  0.70465637915E+02 -0.81105925258E+02 -0.51567206571E+02  0.11924859090E+03  0.41800000000E+01 0. -1.
         -5    1    1    2    0  502  0.34602035734E+02  0.29548547265E+02 -0.98113375033E+02  0.10823180809E+03  0.41800000000E+01 0. -1.
        -11    1    1    2    0    0 -0.45282953598E+02 -0.20878925497E+02  0.45493262700E+02  0.67498980493E+02  0.00000000000E+00 0. -1.
         11    1    1    2    0    0 -0.59784720050E+02  0.72436303490E+02  0.78012448640E+02  0.12209493420E+03  0.00000000000E+00 0.  1.
</event>
<event>
 6    1  0.8989754E-006  0.1101452E+03  0.7561462E-02  0.1260301E+00
          3   -1    0    0  501    0  0.00000000000E+00  0.00000000000E+00  0.55526910688E+02  0.55526910688E+02  0.00000000000E+00 0. -1.
         -3   -1    0    0    0  501 -0.00000000000E+00 -0.00000000000E+00 -0.35654682935E+03  0.35654682935E+03  0.00000000000E+00 0.  1.
          5    1    1    2  502    0  0.33839980118E+02 -0.50988092705E+02 -0.12551500654E+03  0.13970117794E+03  0.41800000000E+01 0.  1.
         -5    1    1    2    0  502  0.96898470197E+01  0.71994490375E+02 -0.14880364739E+03  0.16564147324E+03  0.41800000000E+01 0.  1.
        -11    1    1    2    0    0  0.11959741483E+01  0.23242182280E+02  0.18109760133E+02  0.29488858970E+02  0.00000000000E+00 0. -1.
         11    1    1    2    0    0 -0.44725801286E+02 -0.44248579950E+02 -0.44811024863E+02  0.77242229885E+02  0.00000000000E+00 0.  1.
</event>
<event>
 6    1  0.8989754E-006  0.1079033E+03  0.7561462E-02  0.1264503E+00
         -1   -1    0    0    0  501 -0.00000000000E+00  0.00000000000E+00  0.80145348173E+02  0.80145348173E+02  0.00000000000E+00 0.  1.
          1   -1    0    0  501    0  0.00000000000E+00 -0.00000000000E+00 -0.32726355136E+03  0.32726355136E+03  0.00000000000E+00 0. -1.
          5    1    1    2  502    0  0.43570375013E+02 -0.22066350580E+02  0.13938506244E+02  0.50961316339E+02  0.41800000000E+01 0. -1.
         -5    1    1    2    0  502 -0.80559127493E+02  0.49481106948E+01 -0.44916836869E+01  0.80943835122E+02  0.41800000000E+01 0. -1.
        -11    1    1    2    0    0 -0.10628955047E+02  0.33864040746E+02 -0.41561082504E+02  0.54654107988E+02  0.00000000000E+00 0.  1.
         11    1    1    2    0    0  0.47617707528E+02 -0.16745800860E+02 -0.21500394324E+03  0.22084964008E+03  0.00000000000E+00 0. -1.
</event>
<event>
 6    1  0.8989754E-006  0.7499486E+02  0.7561462E-02  0.1343887E+00
          1   -1    0    0  501    0  0.00000000000E+00  0.00000000000E+00  0.17136773726E+03  0.17136773726E+03  0.00000000000E+00 0. -1.
         -1   -1    0    0    0  501 -0.00000000000E+00 -0.00000000000E+00 -0.71238567110E+02  0.71238567110E+02  0.00000000000E+00 0.  1.
          5    1    1    2  502    0  0.20426046939E+02 -0.13612558980E+02  0.86735560761E+02  0.90238877742E+02  0.41800000000E+01 0. -1.
         -5    1    1    2    0  502 -0.77680574377E+01  0.35556274981E+02 -0.31990284036E+02  0.48635810670E+02  0.41800000000E+01 0. -1.
        -11    1    1    2    0    0  0.29460601229E+02  0.14430107530E+02  0.14640666134E+01  0.32837456040E+02  0.00000000000E+00 0.  1.
         11    1    1    2    0    0 -0.42118590731E+02 -0.36373823531E+02  0.43919826814E+02  0.70894159920E+02  0.00000000000E+00 0. -1.
</event>
<event>
 6    1  0.8989754E-006  0.1590406E+03  0.7561462E-02  0.1189784E+00
          1   -1    0    0  501    0  0.00000000000E+00  0.00000000000E+00  0.64266145075E+02  0.64266145075E+02  0.00000000000E+00 0. -1.
         -1   -1    0    0    0  501 -0.00000000000E+00 -0.00000000000E+00 -0.46090510658E+03  0.46090510658E+03  0.00000000000E+00 0.  1.
          5    1    1    2  502    0 -0.10243149501E+03 -0.10499654402E+03 -0.12045504600E+03  0.18985093082E+03  0.41800000000E+01 0. -1.
         -5    1    1    2    0  502  0.23761319420E+02  0.43741806071E+02 -0.10761841156E+03  0.11864712725E+03  0.41800000000E+01 0.  1.
        -11    1    1    2    0    0 -0.92916813133E+01 -0.56437670207E+01  0.41432261215E+01  0.11634163937E+02  0.00000000000E+00 0. -1.
         11    1    1    2    0    0  0.87961856901E+02  0.66898504972E+02 -0.17270873007E+03  0.20503902965E+03  0.00000000000E+00 0.  1.
</event>
<event>
 6    1  0.8989754E-006  0.1163436E+03  0.7561462E-02  0.1249254E+00
         -2   -1    0    0    0  501 -0.00000000000E+00  0.00000000000E+00  0.27428007352E+02  0.27428007352E+02  0.00000000000E+00 0. -1.
          2   -1    0    0  501    0  0.00000000000E+00 -0.00000000000E+00 -0.68765279997E+03  0.68765279997E+03  0.00000000000E+00 0.  1.
          5    1    1    2  502    0 -0.72395987893E+02 -0.24632280717E+02 -0.32451769074E+03  0.33343235044E+03  0.41800000000E+01 0.  1.
         -5    1    1    2    0  502 -0.12291819773E+02  0.31796862103E+02 -0.13555238438E+02  0.36923517736E+02  0.41800000000E+01 0.  1.
        -11    1    1    2    0    0 -0.15113030336E+02 -0.15448894482E+02 -0.75094480525E+02  0.78142517441E+02  0.00000000000E+00 0.  1.
         11    1    1    2    0    0  0.99800838002E+02  0.82843130964E+01 -0.24705738291E+03  0.26658242170E+03  0.00000000000E+00 0. -1.
</event>
<event>
 6    1  0.8989754E-006  0.1676053E+03  0.7561462E-02  0.1180368E+00
          2   -1    0    0  501    0  0.00000000000E+00  0.00000000000E+00  0.61779962816E+03  0.61779962816E+03  0.00000000000E+00 0. -1.
         -2   -1    0    0    0  501 -0.00000000000E+00 -0.00000000000E+00 -0.54130579038E+02  0.54130579038E+02  0.00000000000E+00 0.  1.
          5    1    1    2  502    0 -0.13912151527E+03 -0.34707007307E+02  0.37984081871E+03  0.40602449720E+03  0.41800000000E+01 0. -1.
         -5    1    1    2    0  502  0.18743497600E+02 -0.22191316290E+02  0.26688579081E+02  0.39667693080E+02  0.41800000000E+01 0. -1.
        -11    1    1    2    0    0  0.66326031508E+02 -0.19224733105E+02  0.59608918987E+02  0.91224755639E+02  0.00000000000E+00 0. -1.
         11    1    1    2    0    0  0.54051986163E+02  0.76123056702E+02  0.97530732347E+02  0.13501326128E+03  0.00000000000E+00 0.  1.
</event>
<event>
 6    1  0.8989754E-006  0.1231199E+03  0.7561462E-02  0.1238037E+00
          1   -1    0    0  501    0  0.00000000000E+00  0.00000000000E+00  0.14973209003E+02  0.14973209003E+02  0.00000000000E+00 0. -1.
         -1   -1    0    0    0  501 -0.00000000000E+00 -0.00000000000E+00 -0.17706507237E+04  0.17706507237E+04  0.00000000000E+00 0.  1.
          5    1    1    2  502    0 -0.96110982450E+02 -0.20074331939E+02 -0.12804633862E+04  0.12842290511E+04  0.41800000000E+01 0. -1.
         -5    1    1    2    0  502 -0.57183950449E+01  0.76192265740E+01 -0.53067627140E+01  0.11678475328E+02  0.41800000000E+01 0. -1.
        -11    1    1    2    0    0  0.10461260871E+03  0.38423297235E+02 -0.39295331757E+03  0.40845129142E+03  0.00000000000E+00 0.  1.
         11    1    1    2    0    0 -0.27832312179E+01 -0.25968191870E+02 -0.76954048202E+02  0.81265114899E+02  0.00000000000E+00 0. -1.
</event>
<event>
 6    1  0.8989754E-006  0.2642624E+03  0.7561462E-02  0.1104609E+00
          1   -1    0    0  501    0  0.00000000000E+00  0.00000000000E+00  0.14298317093E+03  0.14298317093E+03  0.00000000000E+00 0. -1.
         -1   -1    0    0    0  501 -0.00000000000E+00 -0.00000000000E+00 -0.63912399735E+03  0.63912399735E+03  0.00000000000E+00 0.  1.
          5    1    1    2  502    0 -0.10152432145E+03  0.23787454125E+03 -0.40231472819E+03  0.47829499071E+03  0.41800000000E+01 0. -1.
         -5    1    1    2    0  502 -0.81702482464E+01 -0.28327901121E+01  0.61985610927E+01  0.11431194856E+02  0.41800000000E+01 0. -1.
        -11    1    1    2    0    0  0.46795435738E+02 -0.12544305354E+03 -0.98136479868E+02  0.16600163002E+03  0.00000000000E+00 0.  1.
         11    1    1    2    0    0  0.62899133954E+02 -0.10959869759E+03 -0.18881794474E+01  0.12637935270E+03  0.00000000000E+00 0. -1.
</event>
<event>
 6    1  0.8989754E-006  0.1099971E+03  0.7561462E-02  0.1260575E+00
          1   -1    0    0  501    0  0.00000000000E+00  0.00000000000E+00  0.15776539170E+03  0.15776539170E+03  0.00000000000E+00 0. -1.
         -1   -1    0    0    0  501 -0.00000000000E+00 -0.00000000000E+00 -0.12279350929E+03  0.12279350929E+03  0.00000000000E+00 0.  1.
          5    1    1    2  502    0  0.60759715787E+02  0.69099140793E+02 -0.63385745118E+02  0.11181081971E+03  0.41800000000E+01 0.  1.
         -5    1    1    2    0  502 -0.20088777585E+02 -0.13092365512E+02  0.26272430548E+02  0.35814550486E+02  0.41800000000E+01 0.  1.
        -11    1    1    2    0    0  0.96557767183E+00 -0.61536210048E+02  0.66422318129E+02  0.90551431976E+02  0.00000000000E+00 0.  1.
         11    1    1    2    0    0 -0.41636515873E+02  0.55294347672E+01  0.56628788451E+01  0.42382098812E+02  0.00000000000E+00 0. -1.
</event>
<event>
 6    1  0.8989754E-006  0.1675852E+03  0.7561462E-02  0.1180390E+00
         -1   -1    0    0    0  501 -0.00000000000E+00  0.00000000000E+00  0.27301011069E+03  0.27301011069E+03  0.00000000000E+00 0.  1.
          1   -1    0    0  501    0  0.00000000000E+00 -0.00000000000E+00 -0.13296759633E+03  0.13296759633E+03  0.00000000000E+00 0. -1.
          5    1    1    2  502    0 -0.94698863320E+02  0.52167417348E+02 -0.28329557831E+01  0.10823498596E+03  0.41800000000E+01 0. -1.
         -5    1    1    2    0  502 -0.57010278219E+01  0.54828495287E+02  0.10913860631E+03  0.12234121710E+03  0.41800000000E+01 0.  1.
        -11    1    1    2    0    0  0.11076921816E+03 -0.11417527566E+03  0.34463732341E+02  0.16276843094E+03  0.00000000000E+00 0. -1.
         11    1    1    2    0    0 -0.10369327019E+02  0.71793630245E+01 -0.72686851251E+00  0.12633073027E+02  0.00000000000E+00 0.  1.
</event>
<event>
 6    1  0.8989754E-006  0.1495152E+03  0.7561462E-02  0.1201070E+00
          2   -1    0    0  501    0  0.00000000000E+00  0.00000000000E+00  0.12824436769E+03  0.12824436769E+03  0.00000000000E+00 0. -1.
         -2   -1    0    0    0  501 -0.00000000000E+00 -0.00000000000E+00 -0.26759852863E+03  0.26759852863E+03  0.00000000000E+00 0.  1.
          5    1    1    2  502    0  0.10374591061E+03  0.75109638063E+02 -0.67876674923E+02  0.14501512713E+03  0.41800000000E+01 0. -1.
         -5    1    1    2    0  502  0.11508453491E+02 -0.21210868224E+02 -0.89870769362E+02  0.93148124073E+02  0.41800000000E+01 0. -1.
        -11    1    1    2    0    0 -0.78459576931E+02 -0.71000072380E+02 -0.12681081530E+02  0.10657262931E+03  0.00000000000E+00 0.  1.
         11    1    1    2    0    0 -0.36794787174E+02  0.17101302541E+02  0.31074364874E+02  0.51107015801E+02  0.00000000000E+00 0. -1.
</event>
<event>
 6    1  0.8989754E-006  0.1226849E+03  0.7561462E-02  0.1238732E+00
         -1   -1    0    0    0  501 -0.00000000000E+00  0.00000000000E+00  0.30657137585E+02  0.30657137585E+02  0.00000000000E+00 0.  1.
          1   -1    0    0  501    0  0.00000000000E+00 -0.00000000000E+00 -0.61158242906E+03  0.61158242906E+03  0.00000000000E+00 0. -1.
          5    1    1    2  502    0  0.32316606209E+02  0.87315031288E+02 -0.22536793589E+03  0.24387795442E+03  0.41800000000E+01 0. -1.
         -5    1    1    2    0  502 -0.32826286184E+02 -0.11044521564E+02 -0.15783033325E+02  0.38289986447E+02  0.41800000000E+01 0. -1.
        -11    1    1    2    0    0 -0.62351042727E+01 -0.96120296222E+02 -0.30038553325E+03  0.31545119505E+03  0.00000000000E+00 0. -1.
         11    1    1    2    0    0  0.67447842472E+01  0.19849786498E+02 -0.39388789012E+02  0.44620430728E+02  0.00000000000E+00 0.  1.
</event>
<event>
 6    1  0.1068607E-005  0.1526494E+03  0.7561462E-02  0.1197255E+00
         -1   -1    0    0    0  501 -0.00000000000E+00  0.00000000000E+00  0.27805162154E+02  0.27805162154E+02  0.00000000000E+00 0.  1.
          1   -1    0    0  501    0  0.00000000000E+00 -0.00000000000E+00 -0.12417579620E+04  0.12417579620E+04  0.00000000000E+00 0. -1.
          5    1    1    2  502    0  0.17947765709E+02 -0.78733155042E+02 -0.42383006951E+03  0.43147471793E+03  0.41800000000E+01 0.  1.
         -5    1    1    2    0  502  0.20485062271E+02 -0.58679043324E+02 -0.53226113891E+02  0.81935093224E+02  0.41800000000E+01 0.  1.
        -11    1    1    2    0    0  0.92803944217E+01  0.10275603709E+03 -0.56706627463E+03  0.57637582244E+03  0.00000000000E+00 0. -1.
         11    1    1    2    0    0 -0.47713222401E+02  0.34656161273E+02 -0.16983034181E+03  0.17977749054E+03  0.00000000000E+00 0.  1.
</event>
<event>
 6    1  0.8989754E-006  0.1295042E+03  0.7561462E-02  0.1228193E+00
         -1   -1    0    0    0  501 -0.00000000000E+00  0.00000000000E+00  0.18345590996E+02  0.18345590996E+02  0.00000000000E+00 0.  1.
          1   -1    0    0  501    0  0.00000000000E+00 -0.00000000000E+00 -0.10179000903E+04  0.10179000903E+04  0.00000000000E+00 0. -1.
          5    1    1    2  502    0  0.32999076475E+02 -0.48307410518E+02 -0.12681724962E+03  0.13972341307E+03  0.41800000000E+01 0. -1.
         -5    1    1    2    0  502  0.36272957859E+02  0.75953877937E+02 -0.27806865319E+03  0.29055871581E+03  0.41800000000E+01 0. -1.
        -11    1    1    2    0    0 -0.34362525655E+02  0.32010197907E+02 -0.26462702090E+03  0.26876178324E+03  0.00000000000E+00 0. -1.
         11    1    1    2    0    0 -0.34909508680E+02 -0.59656665326E+02 -0.33004157556E+03  0.33720176915E+03  0.00000000000E+00 0.  1.
</event>
<event>
 6    1  0.8989754E-006  0.1010602E+03  0.7561462E-02  0.1278082E+00
          1   -1    0    0  501    0  0.00000000000E+00  0.00000000000E+00  0.10150526442E+03  0.10150526442E+03  0.00000000000E+00 0. -1.
         -1   -1    0    0    0  501 -0.00000000000E+00 -0.00000000000E+00 -0.23827523895E+03  0.23827523895E+03  0.00000000000E+00 0.  1.
          5    1    1    2  502    0  0.35551449753E+02 -0.18006228305E+02 -0.16869449196E+03  0.17338810183E+03  0.41800000000E+01 0. -1.
         -5    1    1    2    0  502  0.40252504809E+02 -0.71701385361E+01  0.11625281145E+02  0.42711761750E+02  0.41800000000E+01 0. -1.
        -11    1    1    2    0    0  0.21072892432E+02  0.81263317094E+01  0.10251006074E+02  0.24802967323E+02  0.00000000000E+00 0.  1.
         11    1    1    2    0    0 -0.96876846995E+02  0.17050035132E+02  0.10048230213E+02  0.98877672465E+02  0.00000000000E+00 0. -1.
</event>
<event>
 6    1  0.8989754E-006  0.2321494E+03  0.7561462E-02  0.1125136E+00
          2   -1    0    0  501    0  0.00000000000E+00  0.00000000000E+00  0.40188620127E+03  0.40188620127E+03  0.00000000000E+00 0. -1.
         -2   -1    0    0    0  501 -0.00000000000E+00 -0.00000000000E+00 -0.16577826928E+03  0.16577826928E+03  0.00000000000E+00 0.  1.
          5    1    1    2  502    0  0.13060563865E+03 -0.13141733858E+03  0.47774248566E+02  0.19138495488E+03  0.41800000000E+01 0. -1.
         -5    1    1    2    0  502 -0.18141781687E+02 -0.55942542708E+02 -0.19253008538E+02  0.62022923707E+02  0.41800000000E+01 0. -1.
        -11    1    1    2    0    0 -0.10083400196E+03  0.14886812765E+03  0.11531545649E+03  0.21360447066E+03  0.00000000000E+00 0.  1.
         11    1    1    2    0    0 -0.11629855012E+02  0.38491753642E+02  0.92271235473E+02  0.10065212130E+03  0.00000000000E+00 0. -1.
</event>
<event>
 6    1  0.8989754E-006  0.1049318E+03  0.7561462E-02  0.1270254E+00
          2   -1    0    0  501    0  0.00000000000E+00  0.00000000000E+00  0.16606656655E+03  0.16606656655E+03  0.00000000000E+00 0. -1.
         -2   -1    0    0    0  501 -0.00000000000E+00 -0.00000000000E+00 -0.80815836187E+02  0.80815836187E+02  0.00000000000E+00 0.  1.
          5    1    1    2  502    0  0.11616679165E+01  0.58218464285E+02  0.23391108030E+02  0.62891616221E+02  0.41800000000E+01 0. -1.
         -5    1    1    2    0  502  0.32034630677E+02 -0.60661248495E+02  0.34765423358E+00  0.68728435855E+02  0.41800000000E+01 0. -1.
        -11    1    1    2    0    0  0.71547303821E+01 -0.30086893218E+02 -0.45884393922E+01  0.31264438047E+02  0.00000000000E+00 0.  1.
         11    1    1    2    0    0 -0.40351028975E+02  0.32529677428E+02  0.66100407493E+02  0.83997912615E+02  0.00000000000E+00 0. -1.
</event>
<event>
 6    1  0.8989754E-006  0.9711501E+02  0.7561462E-02  0.1286482E+00
         -2   -1    0    0    0  501 -0.00000000000E+00  0.00000000000E+00  0.40669012433E+02  0.40669012433E+02  0.00000000000E+00 0.  1.
          2   -1    0    0  501    0  0.00000000000E+00 -0.00000000000E+00 -0.35832222574E+03  0.35832222574E+03  0.00000000000E+00 0. -1.
          5    1    1    2  502    0 -0.33760776193E+02  0.21197882244E+02 -0.31581569849E+01  0.40206797638E+02  0.41800000000E+01 0. -1.
         -5    1    1    2    0  502 -0.11248321569E+02 -0.49818756867E+02 -0.18488510221E+03  0.19185517114E+03  0.41800000000E+01 0. -1.
        -11    1    1    2    0    0 -0.24340284188E+02  0.22732553999E+02 -0.59206223496E+02  0.67930812937E+02  0.00000000000E+00 0. -1.
         11    1    1    2    0    0  0.69349381949E+02  0.58883206245E+01 -0.70403730621E+02  0.98998456462E+02  0.00000000000E+00 0.  1.
</event>
<event>
 6    1  0.8989754E-006  0.1580903E+03  0.7561462E-02  0.1190870E+00
          2   -1    0    0  501    0  0.00000000000E+00  0.00000000000E+00  0.74363261418E+03  0.74363261418E+03  0.00000000000E+00 0. -1.
         -2   -1    0    0    0  501 -0.00000000000E+00 -0.00000000000E+00 -0.43731593627E+02  0.43731593627E+02  0.00000000000E+00 0.  1.
          5    1    1    2  502    0  0.74899435986E+02 -0.98906994533E+02  0.10962030688E+03  0.16560979186E+03  0.41800000000E+01 0.  1.
         -5    1    1    2    0  502  0.20595729075E+02  0.29119045224E+02  0.96395288638E+02  0.10286703516E+03  0.41800000000E+01 0.  1.
        -11    1    1    2    0    0 -0.97129390325E+02  0.11483884556E+02  0.35557928726E+03  0.36878534081E+03  0.00000000000E+00 0. -1.
         11    1    1    2    0    0  0.16342252640E+01  0.58304064754E+02  0.13830613777E+03  0.15010203997E+03  0.00000000000E+00 0.  1.
</event>
<event>
 6    1  0.8989754E-006  0.6303348E+02  0.7561462E-02  0.1385525E+00
          2   -1    0    0  501    0  0.00000000000E+00  0.00000000000E+00  0.67377436011E+02  0.67377436011E+02  0.00000000000E+00 0. -1.
         -2   -1    0    0    0  501 -0.00000000000E+00 -0.00000000000E+00 -0.22633483681E+03  0.22633483681E+03  0.00000000000E+00 0.  1.
          5    1    1    2  502    0  0.19581747012E+02  0.35851931692E+01  0.16161325146E+02  0.25979977994E+02  0.41800000000E+01 0. -1.
         -5    1    1    2    0  502 -0.46664218286E+02 -0.53349909005E+01 -0.15888167697E+03  0.16573132194E+03  0.41800000000E+01 0. -1.
        -11    1    1    2    0    0  0.32005448009E+02 -0.19017314630E+02  0.32103015995E+02  0.49159033696E+02  0.00000000000E+00 0. -1.
         11    1    1    2    0    0 -0.49229767343E+01  0.20767112361E+02 -0.48340064971E+02  0.52841939188E+02  0.00000000000E+00 0.  1.
</event>
<event>
 6    1  0.8989754E-006  0.2366331E+03  0.7561462E-02  0.1122056E+00
          1   -1    0    0  501    0  0.00000000000E+00  0.00000000000E+00  0.66543938103E+03  0.66543938103E+03  0.00000000000E+00 0. -1.
         -1   -1    0    0    0  501 -0.00000000000E+00 -0.00000000000E+00 -0.93951029156E+02  0.93951029156E+02  0.00000000000E+00 0.  1.
          5    1    1    2  502    0 -0.29382288788E+02 -0.13547207656E+03  0.12055001107E+03  0.18375467338E+03  0.41800000000E+01 0. -1.
         -5    1    1    2    0  502 -0.10632610153E+03 -0.34123618155E+02  0.84924252929E+02  0.14035406057E+03  0.41800000000E+01 0. -1.
        -11    1    1    2    0    0  0.98493962637E+02  0.15329020303E+03  0.34349463562E+03  0.38882838338E+03  0.00000000000E+00 0.  1.
         11    1    1    2    0    0  0.37214427686E+02  0.16305491680E+02  0.22519452258E+02  0.46453292853E+02  0.00000000000E+00 0. -1.
</event>
<event>
 6    1  0.8989754E-006  0.1209179E+03  0.7561462E-02  0.1241590E+00
         -1   -1    0    0    0  501 -0.00000000000E+00  0.00000000000E+00  0.13834945294E+03  0.13834945294E+03  0.00000000000E+00 0.  1.
          1   -1    0    0  501    0  0.00000000000E+00 -0.00000000000E+00 -0.12892637708E+03  0.12892637708E+03  0.00000000000E+00 0. -1.
          5    1    1    2  502    0 -0.59172650208E+02  0.63618626011E+02 -0.93850357460E+00  0.86988995265E+02  0.41800000000E+01 0. -1.
         -5    1    1    2    0  502  0.56763841363E+02 -0.63796277166E+02 -0.99407903096E+01  0.86072006939E+02  0.41800000000E+01 0.  1.
        -11    1    1    2    0    0  0.21725860683E+02  0.28027798708E+02 -0.20665211795E+02  0.41044140890E+02  0.00000000000E+00 0. -1.
         11    1    1    2    0    0 -0.19317051838E+02 -0.27850147553E+02  0.40967581538E+02  0.53170686920E+02  0.00000000000E+00 0.  1.
</event>
<event>
 6    1  0.8989754E-006  0.8721504E+02  0.7561462E-02  0.1309740E+00
          2   -1    0    0  501    0  0.00000000000E+00  0.00000000000E+00  0.49244993557E+03  0.49244993557E+03  0.00000000000E+00 0. -1.
         -2   -1    0    0    0  501 -0.00000000000E+00 -0.00000000000E+00 -0.45425342889E+02  0.45425342889E+02  0.00000000000E+00 0.  1.
          5    1    1    2  502    0 -0.27025273684E+02  0.38005676193E+02 -0.21221375306E+02  0.51406381029E+02  0.41800000000E+01 0.  1.
         -5    1    1    2    0  502 -0.16063626837E+02  0.58110950252E+01  0.11554321762E+03  0.11687393409E+03  0.41800000000E+01 0.  1.
        -11    1    1    2    0    0 -0.95991528304E+01  0.23004718273E+02  0.66898965952E+02  0.71392103508E+02  0.00000000000E+00 0.  1.
         11    1    1    2    0    0  0.52688053352E+02 -0.66821489491E+02  0.28580378442E+03  0.29820285983E+03  0.00000000000E+00 0. -1.
</event>
<event>
 6    1  0.8989754E-006  0.1477622E+03  0.7561462E-02  0.1203250E+00
          1   -1    0    0  501    0  0.00000000000E+00  0.00000000000E+00  0.11191614302E+03  0.11191614302E+03  0.00000000000E+00 0. -1.
         -1   -1    0    0    0  501 -0.00000000000E+00 -0.00000000000E+00 -0.21138185368E+03  0.21138185368E+03  0.00000000000E+00 0.  1.
          5    1    1    2  502    0 -0.45763403053E+02  0.40994381837E+02 -0.11280980528E+02  0.62606400015E+02  0.41800000000E+01 0. -1.
         -5    1    1    2    0  502 -0.56719065720E+02 -0.86388389148E+02 -0.62488613952E+02  0.12083999946E+03  0.41800000000E+01 0. -1.
        -11    1    1    2    0    0  0.50796978860E+02  0.58215812862E+02  0.66463291258E+01  0.77547325030E+02  0.00000000000E+00 0. -1.
         11    1    1    2    0    0  0.51685489913E+02 -0.12821805551E+02 -0.32342445301E+02  0.62304272190E+02  0.00000000000E+00 0.  1.
</event>
<event>
 6    1  0.8989754E-006  0.1697498E+03  0.7561462E-02  0.1178109E+00
          1   -1    0    0  501    0  0.00000000000E+00  0.00000000000E+00  0.67658043616E+03  0.67658043616E+03  0.00000000000E+00 0. -1.
         -1   -1    0    0    0  501 -0.00000000000E+00 -0.00000000000E+00 -0.65336282540E+02  0.65336282540E+02  0.00000000000E+00 0.  1.
          5    1    1    2  502    0  0.52667743441E+02  0.10332161409E+02  0.11670996176E+02  0.55084746621E+02  0.41800000000E+01 0.  1.
         -5    1    1    2    0  502  0.58262078980E+02 -0.11064789190E+03  0.17270874845E+03  0.21326793013E+03  0.41800000000E+01 0.  1.
        -11    1    1    2    0    0 -0.18606095235E+02 -0.61772460600E+01 -0.41947047942E+01  0.20048458721E+02  0.00000000000E+00 0.  1.
         11    1    1    2    0    0 -0.92323727186E+02  0.10649297655E+03  0.43105911379E+03  0.45351558324E+03  0.00000000000E+00 0. -1.
</event>
<event>
 6    1  0.8989754E-006  0.1184012E+03  0.7561462E-02  0.1245758E+00
         -1   -1    0    0    0  501 -0.00000000000E+00  0.00000000000E+00  0.35057170831E+02  0.35057170831E+02  0.00000000000E+00 0.  1.
          1   -1    0    0  501    0  0.00000000000E+00 -0.00000000000E+00 -0.63072885175E+03  0.63072885175E+03  0.00000000000E+00 0. -1.
          5    1    1    2  502    0  0.71270827510E+02 -0.48468557744E+02 -0.17535687761E+03  0.19543858081E+03  0.41800000000E+01 0. -1.
         -5    1    1    2    0  502 -0.28902135897E+02 -0.15522263553E+02  0.20019538380E+00  0.33072444775E+02  0.41800000000E+01 0. -1.
        -11    1    1    2    0    0 -0.37911131830E+01  0.76721680274E+02 -0.23038621839E+03  0.24285468574E+03  0.00000000000E+00 0. -1.
         11    1    1    2    0    0 -0.38577578431E+02 -0.12730858976E+02 -0.19012878031E+03  0.19442031126E+03  0.00000000000E+00 0.  1.
</event>
<event>
 6    1  0.1158204E-005  0.8348805E+02  0.7561462E-02  0.1319434E+00
          1   -1    0    0  501    0  0.00000000000E+00  0.00000000000E+00  0.37067599626E+02  0.37067599626E+02  0.00000000000E+00 0. -1.
         -1   -1    0    0    0  501 -0.00000000000E+00 -0.00000000000E+00 -0.43258452279E+03  0.43258452279E+03  0.00000000000E+00 0.  1.
          5    1    1    2  502    0  0.70772047555E+02 -0.69791646937E+01 -0.29184256613E+03  0.30041129682E+03  0.41800000000E+01 0. -1.
         -5    1    1    2    0  502 -0.19347019540E+02 -0.79341229467E+01  0.29405918395E+00  0.21326423583E+02  0.41800000000E+01 0. -1.
        -11    1    1    2    0    0 -0.19696739133E+02 -0.19423019614E+02  0.61014636061E+01  0.28327426313E+02  0.00000000000E+00 0. -1.
         11    1    1    2    0    0 -0.31728288881E+02  0.34336307254E+02 -0.11006987983E+03  0.11958697570E+03  0.00000000000E+00 0.  1.
</event>
<event>
 6    1  0.8989754E-006  0.1533909E+03  0.7561462E-02  0.1196367E+00
          2   -1    0    0  501    0  0.00000000000E+00  0.00000000000E+00  0.40997566957E+03  0.40997566957E+03  0.00000000000E+00 0. -1.
         -2   -1    0    0    0  501 -0.00000000000E+00 -0.00000000000E+00 -0.20280274058E+03  0.20280274058E+03  0.00000000000E+00 0.  1.
          5    1    1    2  502    0  0.66923998211E+02  0.37536238557E+01 -0.64115534181E+02  0.92850338458E+02  0.41800000000E+01 0. -1.
         -5    1    1    2    0  502 -0.11910557074E+03 -0.82435275608E+02 -0.64901938260E+02  0.15878112494E+03  0.41800000000E+01 0.  1.
        -11    1    1    2    0    0  0.17390127157E+02  0.20113726054E+02  0.10794406925E+02  0.28696649964E+02  0.00000000000E+00 0.  1.
         11    1    1    2    0    0  0.34791445377E+02  0.58567925698E+02  0.32539599451E+03  0.33245029679E+03  0.00000000000E+00 0. -1.
</event>
<event>
 6    1  0.8989754E-006  0.1272653E+03  0.7561462E-02  0.1231571E+00
          2   -1    0    0  501    0  0.00000000000E+00  0.00000000000E+00  0.16181359020E+03  0.16181359020E+03  0.00000000000E+00 0. -1.
         -2   -1    0    0    0  501 -0.00000000000E+00 -0.00000000000E+00 -0.11859213311E+03  0.11859213311E+03  0.00000000000E+00 0.  1.
          5    1    1    2  502    0 -0.95396042474E+02 -0.23588892071E+01 -0.35401751649E+02  0.10186621470E+03  0.41800000000E+01 0.  1.
         -5    1    1    2    0  502  0.20805939191E+02  0.31317915048E+02  0.27597578494E+02  0.46827317319E+02  0.41800000000E+01 0.  1.
        -11    1    1    2    0    0  0.94828795293E+02 -0.33260154957E+02  0.45389482536E+02  0.11026759927E+03  0.00000000000E+00 0.  1.
         11    1    1    2    0    0 -0.20238692011E+02  0.43011291160E+01  0.56361477032E+01  0.21444592020E+02  0.00000000000E+00 0. -1.
</event>
<event>
 6    1  0.8989754E-006  0.1004221E+03  0.7561462E-02  0.1279411E+00
          4   -1    0    0  501    0  0.00000000000E+00  0.00000000000E+00  0.58850639945E+03  0.58850639945E+03  0.00000000000E+00 0. -1.
         -4   -1    0    0    0  501 -0.00000000000E+00 -0.00000000000E+00 -0.33669842224E+02  0.33669842224E+02  0.00000000000E+00 0.  1.
          5    1    1    2  502    0  0.36910261746E+02  0.59580505813E+02  0.11492978702E+03  0.13467936902E+03  0.41800000000E+01 0. -1.
         -5    1    1    2    0  502 -0.16392518630E+02 -0.23548746342E+02 -0.40738584861E+01  0.29280144198E+02  0.41800000000E+01 0.  1.
        -11    1    1    2    0    0 -0.53845910093E+02 -0.41345016637E+02  0.37860966434E+03  0.38464798240E+03  0.00000000000E+00 0.  1.
         11    1    1    2    0    0  0.33328166977E+02  0.53132571656E+01  0.65370964347E+02  0.73568746050E+02  0.00000000000E+00 0. -1.
</event>
<event>
 6    1  0.8989754E-006  0.1673748E+03  0.7561462E-02  0.1180613E+00
         -2   -1    0    0    0  501 -0.00000000000E+00  0.00000000000E+00  0.83351318035E+02  0.83351318035E+02  0.00000000000E+00 0. -1.
          2   -1    0    0  501    0  0.00000000000E+00 -0.00000000000E+00 -0.49615797676E+03  0.49615797676E+03  0.00000000000E+00 0.  1.
          5    1    1    2  502    0  0.83769644250E+02 -0.45146723681E+02 -0.64030960948E+02  0.11477376145E+03  0.41800000000E+01 0. -1.
         -5    1    1    2    0  502  0.28009879820E+02 -0.70755470596E+02 -0.23584344184E+03  0.24785175296E+03  0.41800000000E+01 0. -1.
        -11    1    1    2    0    0 -0.18441036732E+02  0.35868103751E+02 -0.80008206219E+02  0.89598581266E+02  0.00000000000E+00 0.  1.
         11    1    1    2    0    0 -0.93338487337E+02  0.80034090526E+02 -0.32924049715E+02  0.12728519912E+03  0.00000000000E+00 0. -1.
</event>
<event>
 6    1  0.8989754E-006  0.9201340E+02  0.7561462E-02  0.1298048E+00
         -1   -1    0    0    0  501 -0.00000000000E+00  0.00000000000E+00  0.56933965565E+02  0.56933965565E+02  0.00000000000E+00 0.  1.
          1   -1    0    0  501    0  0.00000000000E+00 -0.00000000000E+00 -0.28631341113E+03  0.28631341113E+03  0.00000000000E+00 0. -1.
          5    1    1    2  502    0 -0.73805288829E+01  0.54391456426E+02 -0.71241035779E+02  0.90031440717E+02  0.41800000000E+01 0. -1.
         -5    1    1    2    0  502 -0.40939008485E+02 -0.43707819738E+02  0.43933635583E+01  0.60192607232E+02  0.41800000000E+01 0. -1.
        -11    1    1    2    0    0  0.58342543199E+01 -0.23782095263E+02  0.34596743894E-01  0.24487298248E+02  0.00000000000E+00 0.  1.
         11    1    1    2    0    0  0.42485283048E+02  0.13098458575E+02 -0.16256637009E+03  0.16853603050E+03  0.00000000000E+00 0. -1.
</event>
<event>
 6    1  0.8989754E-006  0.2040739E+03  0.7561462E-02  0.1146347E+00
          3   -1    0    0  501    0  0.00000000000E+00  0.00000000000E+00  0.22606016442E+03  0.22606016442E+03  0.00000000000E+00 0. -1.
         -3   -1    0    0    0  501 -0.00000000000E+00 -0.00000000000E+00 -0.22494530187E+03  0.22494530187E+03  0.00000000000E+00 0.  1.
          5    1    1    2  502    0 -0.68782284168E+01 -0.64440766803E+02 -0.37419152586E+02  0.74950569261E+02  0.41800000000E+01 0. -1.
         -5    1    1    2    0  502  0.14326992550E+03 -0.62498380055E+02 -0.28412660928E+02  0.15892473301E+03  0.41800000000E+01 0. -1.
        -11    1    1    2    0    0 -0.55719881979E+02  0.42653039533E+02 -0.18437614107E+02  0.72552964399E+02  0.00000000000E+00 0.  1.
         11    1    1    2    0    0 -0.80671815102E+02  0.84286107326E+02  0.85384290175E+02  0.14457719962E+03  0.00000000000E+00 0. -1.
</event>
<event>
 6    1  0.8989754E-006  0.1679337E+03  0.7561462E-02  0.1180020E+00
         -2   -1    0    0    0  501 -0.00000000000E+00  0.00000000000E+00  0.43925349309E+02  0.43925349309E+02  0.00000000000E+00 0.  1.
          2   -1    0    0  501    0  0.00000000000E+00 -0.00000000000E+00 -0.13325829895E+04  0.13325829895E+04  0.00000000000E+00 0. -1.
          5    1    1    2  502    0  0.10835335674E+03 -0.65800516846E+02 -0.73961846322E+03  0.75041528601E+03  0.41800000000E+01 0. -1.
         -5    1    1    2    0  502 -0.31828837574E+02 -0.40552021556E+02  0.26597959498E+01  0.51788881703E+02  0.41800000000E+01 0.  1.
        -11    1    1    2    0    0  0.16795632328E+02  0.13775344527E+01 -0.34861953555E+02  0.38721398117E+02  0.00000000000E+00 0.  1.
         11    1    1    2    0    0 -0.93320151497E+02  0.10497500395E+03 -0.51683701940E+03  0.53558277301E+03  0.00000000000E+00 0. -1.
</event>
<event>
 6    1  0.8989754E-006  0.1093853E+03  0.7561462E-02  0.1261712E+00
          1   -1    0    0  501    0  0.00000000000E+00  0.00000000000E+00  0.43135202035E+03  0.43135202035E+03  0.00000000000E+00 0. -1.
         -1   -1    0    0    0  501 -0.00000000000E+00 -0.00000000000E+00 -0.46029932616E+02  0.46029932616E+02  0.00000000000E+00 0.  1.
          5    1    1    2  502    0  0.23193936212E+02 -0.19061927262E+01 -0.12916695867E+02  0.26942636839E+02  0.41800000000E+01 0.  1.
         -5    1    1    2    0  502 -0.72990244713E+02  0.52887430064E+02  0.13199727150E+03  0.15989186397E+03  0.41800000000E+01 0.  1.
        -11    1    1    2    0    0  0.54502021625E+02 -0.81731846164E+00  0.74591852484E+02  0.92385512000E+02  0.00000000000E+00 0.  1.
         11    1    1    2    0    0 -0.47057131244E+01 -0.50163918876E+02  0.19164965962E+03  0.19816194015E+03  0.00000000000E+00 0. -1.
</event>
<event>
 6    1  0.8989754E-006  0.1198939E+03  0.7561462E-02  0.1243272E+00
          2   -1    0    0  501    0  0.00000000000E+00  0.00000000000E+00  0.22001663506E+03  0.22001663506E+03  0.00000000000E+00 0. -1.
         -2   -1    0    0    0  501 -0.00000000000E+00 -0.00000000000E+00 -0.11088751426E+03  0.11088751426E+03  0.00000000000E+00 0.  1.
          5    1    1    2  502    0 -0.38701591274E+02 -0.10216234587E+02 -0.57065891912E+02  0.69829599999E+02  0.41800000000E+01 0. -1.
         -5    1    1    2    0  502 -0.58355987858E+02 -0.19420411157E+02  0.67756967688E+02  0.91602689691E+02  0.41800000000E+01 0. -1.
        -11    1    1    2    0    0  0.10464248064E+03 -0.27066772056E+01  0.72687394779E+02  0.12743952376E+03  0.00000000000E+00 0. -1.
         11    1    1    2    0    0 -0.75849015117E+01  0.32343322950E+02  0.25750650249E+02  0.42032335869E+02  0.00000000000E+00 0.  1.
</event>
<event>
 6    1  0.8989754E-006  0.1112167E+03  0.7561462E-02  0.1258333E+00
          2   -1    0    0  501    0  0.00000000000E+00  0.00000000000E+00  0.26282809012E+03  0.26282809012E+03  0.00000000000E+00 0. -1.
         -2   -1    0    0    0  501 -0.00000000000E+00 -0.00000000000E+00 -0.11973228279E+03  0.11973228279E+03  0.00000000000E+00 0.  1.
          5    1    1    2  502    0  0.49596206116E+02  0.77055910426E+02 -0.74408581826E+00  0.91735614983E+02  0.41800000000E+01 0.  1.
         -5    1    1    2    0  502 -0.71191070406E+01 -0.24484234664E+02 -0.55402855701E+02  0.61131892265E+02  0.41800000000E+01 0.  1.
        -11    1    1    2    0    0  0.20437819952E+02 -0.33282468003E+02  0.33829657822E+02  0.51670812933E+02  0.00000000000E+00 0.  1.
         11    1    1    2    0    0 -0.62914919028E+02 -0.19289207759E+02  0.16541309103E+03  0.17802205273E+03  0.00000000000E+00 0. -1.
</event>
<event>
 6    1  0.8989754E-006  0.3373810E+03  0.7561462E-02  0.1067917E+00
         -2   -1    0    0    0  501 -0.00000000000E+00  0.00000000000E+00  0.88512027731E+02  0.88512027731E+02  0.00000000000E+00 0.  1.
          2   -1    0    0  501    0  0.00000000000E+00 -0.00000000000E+00 -0.13432405998E+04  0.13432405998E+04  0.00000000000E+00 0. -1.
          5    1    1    2  502    0 -0.51412245551E+02 -0.10366826032E+03 -0.16948782112E+03  0.20526548930E+03  0.41800000000E+01 0. -1.
         -5    1    1    2    0  502  0.35471639308E+02 -0.21977603260E+03 -0.55896025666E+03  0.60167581190E+03  0.41800000000E+01 0. -1.
        -11    1    1    2    0    0 -0.35840712788E+02  0.18630186862E+03 -0.28050651410E+03  0.33863970144E+03  0.00000000000E+00 0.  1.
         11    1    1    2    0    0  0.51781319032E+02  0.13714242430E+03 -0.24577398015E+03  0.28617162484E+03  0.00000000000E+00 0. -1.
</event>
<event>
 6    1  0.8989754E-006  0.2167691E+03  0.7561462E-02  0.1136315E+00
         -1   -1    0    0    0  501 -0.00000000000E+00  0.00000000000E+00  0.11401325528E+03  0.11401325528E+03  0.00000000000E+00 0.  1.
          1   -1    0    0  501    0  0.00000000000E+00 -0.00000000000E+00 -0.42431304803E+03  0.42431304803E+03  0.00000000000E+00 0. -1.
          5    1    1    2  502    0 -0.16464735841E+03  0.84604088064E+02 -0.12299503238E+03  0.22228777461E+03  0.41800000000E+01 0. -1.
         -5    1    1    2    0  502 -0.18111264082E+02 -0.34032611468E+02 -0.68722575831E+01  0.39381935634E+02  0.41800000000E+01 0. -1.
        -11    1    1    2    0    0  0.11106144251E+02 -0.35605291080E+02 -0.28588816489E+02  0.46993655117E+02  0.00000000000E+00 0.  1.
         11    1    1    2    0    0  0.17165247824E+03 -0.14966185516E+02 -0.15184368630E+03  0.22966293794E+03  0.00000000000E+00 0. -1.
</event>
<event>
 6    1  0.8989754E-006  0.8404258E+02  0.7561462E-02  0.1317955E+00
          1   -1    0    0  501    0  0.00000000000E+00  0.00000000000E+00  0.31056019430E+03  0.31056019430E+03  0.00000000000E+00 0. -1.
         -1   -1    0    0    0  501 -0.00000000000E+00 -0.00000000000E+00 -0.33555667707E+02  0.33555667707E+02  0.00000000000E+00 0.  1.
          5    1    1    2  502    0  0.46297098657E+02  0.20044936514E+02  0.61996580760E+02  0.80039173221E+02  0.41800000000E+01 0. -1.
         -5    1    1    2    0  502 -0.70420787385E+02 -0.13189405280E+02  0.57188634426E+02  0.91766333779E+02  0.41800000000E+01 0.  1.
        -11    1    1    2    0    0  0.33570635607E+02  0.73141618180E+00  0.15656945247E+03  0.16012968492E+03  0.00000000000E+00 0. -1.
         11    1    1    2    0    0 -0.94469468783E+01 -0.75869474163E+01  0.12498589332E+01  0.12180670087E+02  0.00000000000E+00 0.  1.
</event>
<event>
 6    1  0.8989754E-006  0.1162500E+03  0.7561462E-02  0.1249415E+00
         -1   -1    0    0    0  501 -0.00000000000E+00  0.00000000000E+00  0.36609382705E+02  0.36609382705E+02  0.00000000000E+00 0.  1.
          1   -1    0    0  501    0  0.00000000000E+00 -0.00000000000E+00 -0.44212470571E+03  0.44212470571E+03  0.00000000000E+00 0. -1.
          5    1    1    2  502    0  0.55069377643E+02 -0.29632325927E+02 -0.40398882820E+02  0.74567105529E+02  0.41800000000E+01 0. -1.
         -5    1    1    2    0  502 -0.47311532944E+02 -0.30144196223E+02 -0.15703969438E+03  0.16681124580E+03  0.41800000000E+01 0. -1.
        -11    1    1    2    0    0 -0.48347841989E+02  0.54149396420E+02 -0.12071778110E+03  0.14086324443E+03  0.00000000000E+00 0.  1.
         11    1    1    2    0    0  0.40589997290E+02  0.56271257308E+01 -0.87358964707E+02  0.96492492655E+02  0.00000000000E+00 0. -1.
</event>
<event>
 6    1  0.8989754E-006  0.1084687E+03  0.7561462E-02  0.1263432E+00
         -2   -1    0    0    0  501 -0.00000000000E+00  0.00000000000E+00  0.91624655732E+02  0.91624655732E+02  0.00000000000E+00 0. -1.
          2   -1    0    0  501    0  0.00000000000E+00 -0.00000000000E+00 -0.21139024580E+03  0.21139024580E+03  0.00000000000E+00 0.  1.
          5    1    1    2  502    0  0.81842369080E+02  0.12813480597E+02 -0.42360658417E+02  0.93135688344E+02  0.41800000000E+01 0.  1.
         -5    1    1    2    0  502 -0.17757627864E+02 -0.15128668275E+02  0.41093618268E+02  0.47438041839E+02  0.41800000000E+01 0.  1.
        -11    1    1    2    0    0 -0.17228285559E+02 -0.42250065248E+02 -0.39490506195E+02  0.60343863949E+02  0.00000000000E+00 0.  1.
         11    1    1    2    0    0 -0.46856455657E+02  0.44565252926E+02 -0.79008043721E+02  0.10209730740E+03  0.00000000000E+00 0. -1.
</event>
<event>
 6    1  0.8989754E-006  0.9832894E+02  0.7561462E-02  0.1283850E+00
         -2   -1    0    0    0  501 -0.00000000000E+00  0.00000000000E+00  0.57216064587E+02  0.57216064587E+02  0.00000000000E+00 0.  1.
          2   -1    0    0  501    0  0.00000000000E+00 -0.00000000000E+00 -0.45475157798E+03  0.45475157798E+03  0.00000000000E+00 0. -1.
          5    1    1    2  502    0  0.63603899798E+02  0.50249055404E+02 -0.88291408389E+02  0.11993026655E+03  0.41800000000E+01 0.  1.
         -5    1    1    2    0  502  0.18702454095E+01 -0.24232188433E+02  0.26656336656E+02  0.36314314782E+02  0.41800000000E+01 0.  1.
        -11    1    1    2    0    0 -0.11505530793E+02 -0.34347357914E+02 -0.36646476453E+02  0.51527492380E+02  0.00000000000E+00 0.  1.
         11    1    1    2    0    0 -0.53968614414E+02  0.83304909430E+01 -0.29925396521E+03  0.30419556886E+03  0.00000000000E+00 0. -1.
</event>
<event>
 6    1  0.8989754E-006  0.1034431E+03  0.7561462E-02  0.1273218E+00
          1   -1    0    0  501    0  0.00000000000E+00  0.00000000000E+00  0.21657080052E+03  0.21657080052E+03  0.00000000000E+00 0. -1.
         -1   -1    0    0    0  501 -0.00000000000E+00 -0.00000000000E+00 -0.70949665246E+02  0.70949665246E+02  0.00000000000E+00 0.  1.
          5    1    1    2  502    0 -0.31741856789E+02  0.78694279185E+02  0.48307182976E+02  0.97731220068E+02  0.41800000000E+01 0.  1.
         -5    1    1    2    0  502  0.44786634010E+02 -0.24112619986E+02  0.14389419922E+02  0.53026303230E+02  0.41800000000E+01 0.  1.
        -11    1    1    2    0    0  0.15392884280E+02 -0.11264936712E+02 -0.16125661816E+02  0.24977522987E+02  0.00000000000E+00 0.  1.
         11    1    1    2    0    0 -0.28437661502E+02 -0.43316722487E+02  0.99050194195E+02  0.11178541948E+03  0.00000000000E+00 0. -1.
</event>
<event>
 6    1  0.8989754E-006  0.1154335E+03  0.7561462E-02  0.1250826E+00
          2   -1    0    0  501    0  0.00000000000E+00  0.00000000000E+00  0.30226027504E+03  0.30226027504E+03  0.00000000000E+00 0. -1.
         -2   -1    0    0    0  501 -0.00000000000E+00 -0.00000000000E+00 -0.61385591884E+02  0.61385591884E+02  0.00000000000E+00 0.  1.
          5    1    1    2  502    0  0.86872580361E+02 -0.53844017018E+02  0.43469462212E+02  0.11114445525E+03  0.41800000000E+01 0.  1.
         -5    1    1    2    0  502 -0.39180260675E+02  0.37579685942E+01  0.29318413679E+02  0.49257049599E+02  0.41800000000E+01 0.  1.
        -11    1    1    2    0    0 -0.59220881993E+02  0.49936708113E+02  0.17386985071E+03  0.19034577134E+03  0.00000000000E+00 0. -1.
         11    1    1    2    0    0  0.11528562307E+02  0.14934031008E+00 -0.57830434483E+01  0.12898590734E+02  0.00000000000E+00 0.  1.
</event>
<event>
 6    1  0.8989754E-006  0.1101287E+03  0.7561462E-02  0.1260332E+00
          2   -1    0    0  501    0  0.00000000000E+00  0.00000000000E+00  0.14946512378E+03  0.14946512378E+03  0.00000000000E+00 0. -1.
         -2   -1    0    0    0  501 -0.00000000000E+00 -0.00000000000E+00 -0.93300909445E+02  0.93300909445E+02  0.00000000000E+00 0.  1.
          5    1    1    2  502    0  0.87891343836E+02 -0.43287654641E+01  0.64824821573E+01  0.88335278947E+02  0.41800000000E+01 0.  1.
         -5    1    1    2    0  502 -0.43717939043E+02  0.76154917521E+01  0.52293321564E+01  0.44878416011E+02  0.41800000000E+01 0.  1.
        -11    1    1    2    0    0  0.15521974794E+02  0.18402153404E+02 -0.98289882845E+01  0.26003460579E+02  0.00000000000E+00 0.  1.
         11    1    1    2    0    0 -0.59695379587E+02 -0.21688879692E+02  0.54281388301E+02  0.83548877684E+02  0.00000000000E+00 0. -1.
</event>
<event>
 6    1  0.8989754E-006  0.1057000E+03  0.7561462E-02  0.1268747E+00
         -1   -1    0    0    0  501 -0.00000000000E+00  0.00000000000E+00  0.29199608112E+03  0.29199608112E+03  0.00000000000E+00 0.  1.
          1   -1    0    0  501    0  0.00000000000E+00 -0.00000000000E+00 -0.63852470739E+02  0.63852470739E+02  0.00000000000E+00 0. -1.
          5    1    1    2  502    0 -0.89901152255E+02  0.36862732585E+02  0.55326773903E+02  0.11189102976E+03  0.41800000000E+01 0. -1.
         -5    1    1    2    0  502  0.20386392852E+02  0.70559594542E+00  0.10189929872E+03  0.10400501121E+03  0.41800000000E+01 0. -1.
        -11    1    1    2    0    0  0.70402230453E+02 -0.16596732741E+02  0.87266638979E+02  0.11334633593E+03  0.00000000000E+00 0.  1.
         11    1    1    2    0    0 -0.88747105026E+00 -0.20971595790E+02 -0.16349101219E+02  0.26606174950E+02  0.00000000000E+00 0. -1.
</event>
<event>
 6    1  0.8989754E-006  0.1150064E+03  0.7561462E-02  0.1251570E+00
          2   -1    0    0  501    0  0.00000000000E+00  0.00000000000E+00  0.58294779516E+03  0.58294779516E+03  0.00000000000E+00 0. -1.
         -2   -1    0    0    0  501 -0.00000000000E+00 -0.00000000000E+00 -0.29298042071E+02  0.29298042071E+02  0.00000000000E+00 0.  1.
          5    1    1    2  502    0 -0.36325762776E+02  0.74568292922E+01  0.18813265555E+03  0.19179815909E+03  0.41800000000E+01 0. -1.
         -5    1    1    2    0  502  0.18914415795E+02 -0.84453441644E+02  0.10175988411E+03  0.13365135744E+03  0.41800000000E+01 0. -1.
        -11    1    1    2    0    0  0.40169482353E+02  0.20411060340E+02  0.16210827987E+03  0.16825365701E+03  0.00000000000E+00 0. -1.
         11    1    1    2    0    0 -0.22758135372E+02  0.56585552012E+02  0.10164893356E+03  0.11854266370E+03  0.00000000000E+00 0.  1.
</event>
<event>
 6    1  0.8989754E-006  0.1147125E+03  0.7561462E-02  0.1252084E+00
          1   -1    0    0  501    0  0.00000000000E+00  0.00000000000E+00  0.23884200645E+03  0.23884200645E+03  0.00000000000E+00 0. -1.
         -1   -1    0    0    0  501 -0.00000000000E+00 -0.00000000000E+00 -0.10234064563E+03  0.10234064563E+03  0.00000000000E+00 0.  1.
          5    1    1    2  502    0  0.51032019578E+02  0.86052378676E+02 -0.31049445476E+02  0.10483710871E+03  0.41800000000E+01 0.  1.
         -5    1    1    2    0  502 -0.11152783176E+02 -0.18406735291E+01  0.51008362464E+02  0.52412766507E+02  0.41800000000E+01 0.  1.
        -11    1    1    2    0    0  0.18165698227E+02 -0.46443430112E+01 -0.11800908495E+02  0.22154547060E+02  0.00000000000E+00 0.  1.
         11    1    1    2    0    0 -0.58044934630E+02 -0.79567362136E+02  0.12834335233E+03  0.16177822981E+03  0.00000000000E+00 0. -1.
</event>
<event>
 6    1  0.8989754E-006  0.2036609E+03  0.7561462E-02  0.1146687E+00
         -1   -1    0    0    0  501 -0.00000000000E+00  0.00000000000E+00  0.75769505033E+02  0.75769505033E+02  0.00000000000E+00 0.  1.
          1   -1    0    0  501    0  0.00000000000E+00 -0.00000000000E+00 -0.66920452101E+03  0.66920452101E+03  0.00000000000E+00 0. -1.
          5    1    1    2  502    0  0.10249679933E+01  0.21796173969E+02 -0.13229297863E+03  0.13414554913E+03  0.41800000000E+01 0. -1.
         -5    1    1    2    0  502  0.14716493071E+03 -0.11879117504E+03 -0.15319399612E+03  0.24342295074E+03  0.41800000000E+01 0.  1.
        -11    1    1    2    0    0  0.64040405644E+01  0.24243565462E+02 -0.70876192105E+02  0.75181093429E+02  0.00000000000E+00 0.  1.
         11    1    1    2    0    0 -0.15459393927E+03  0.72751435605E+02 -0.23707184912E+03  0.29222443274E+03  0.00000000000E+00 0. -1.
</event>
<event>
 6    1  0.8989754E-006  0.1036788E+03  0.7561462E-02  0.1272745E+00
         -2   -1    0    0    0  501 -0.00000000000E+00  0.00000000000E+00  0.18444027343E+03  0.18444027343E+03  0.00000000000E+00 0.  1.
          2   -1    0    0  501    0  0.00000000000E+00 -0.00000000000E+00 -0.90920463310E+02  0.90920463310E+02  0.00000000000E+00 0. -1.
          5    1    1    2  502    0  0.45795989697E+02 -0.28121933070E+02  0.75836924465E+02  0.93042072764E+02  0.41800000000E+01 0.  1.
         -5    1    1    2    0  502 -0.57067574744E+02  0.38286259570E+02  0.50391496157E+02  0.85318937195E+02  0.41800000000E+01 0.  1.
        -11    1    1    2    0    0 -0.34365915108E+02  0.83346391965E+01 -0.32089475464E+02  0.47751615337E+02  0.00000000000E+00 0. -1.
         11    1    1    2    0    0  0.45637500155E+02 -0.18498965696E+02 -0.61913504264E+00  0.49248111440E+02  0.00000000000E+00 0.  1.
</event>
<event>
 6    1  0.8989754E-006  0.1133379E+03  0.7561462E-02  0.1254511E+00
          3   -1    0    0  501    0  0.00000000000E+00  0.00000000000E+00  0.16021460329E+03  0.16021460329E+03  0.00000000000E+00 0. -1.
         -3   -1    0    0    0  501 -0.00000000000E+00 -0.00000000000E+00 -0.12347840993E+03  0.12347840993E+03  0.00000000000E+00 0.  1.
          5    1    1    2  502    0 -0.92768895951E+01  0.37388588196E+02 -0.51431115843E+02  0.64394093555E+02  0.41800000000E+01 0. -1.
         -5    1    1    2    0  502  0.79258457390E+02 -0.35260863062E+01  0.27984127216E+02  0.84231348846E+02  0.41800000000E+01 0. -1.
        -11    1    1    2    0    0 -0.43612197985E+02 -0.58111454562E+02  0.66730163777E+02  0.98650290025E+02  0.00000000000E+00 0. -1.
         11    1    1    2    0    0 -0.26369369810E+02  0.24248952672E+02 -0.65469817823E+01  0.36417280793E+02  0.00000000000E+00 0.  1.
</event>
<event>
 6    1  0.8989754E-006  0.1043227E+03  0.7561462E-02  0.1271460E+00
         -1   -1    0    0    0  501 -0.00000000000E+00  0.00000000000E+00  0.13538500023E+03  0.13538500023E+03  0.00000000000E+00 0.  1.
          1   -1    0    0  501    0  0.00000000000E+00 -0.00000000000E+00 -0.13174052279E+03  0.13174052279E+03  0.00000000000E+00 0. -1.
          5    1    1    2  502    0 -0.28557453512E+00 -0.23203993162E+02 -0.26630903875E+02  0.35569429187E+02  0.41800000000E+01 0. -1.
         -5    1    1    2    0  502 -0.49222034389E+02  0.70631756749E+02  0.77400449223E+02  0.11584453233E+03  0.41800000000E+01 0. -1.
        -11    1    1    2    0    0  0.14467810009E+02  0.18934331350E+02  0.49898222978E+01  0.24345939224E+02  0.00000000000E+00 0. -1.
         11    1    1    2    0    0  0.35039798914E+02 -0.66362094937E+02 -0.52114890206E+02  0.91365622274E+02  0.00000000000E+00 0.  1.
</event>
<event>
 6    1  0.8989754E-006  0.9283602E+02  0.7561462E-02  0.1296126E+00
          2   -1    0    0  501    0  0.00000000000E+00  0.00000000000E+00  0.19309624444E+03  0.19309624444E+03  0.00000000000E+00 0. -1.
         -2   -1    0    0    0  501 -0.00000000000E+00 -0.00000000000E+00 -0.10360051302E+03  0.10360051302E+03  0.00000000000E+00 0.  1.
          5    1    1    2  502    0 -0.46695734508E+02 -0.65342262843E-01  0.16325685638E+02  0.49643693481E+02  0.41800000000E+01 0. -1.
         -5    1    1    2    0  502  0.55595755645E+02  0.24322590440E+02 -0.59760302767E+02  0.85271581657E+02  0.41800000000E+01 0. -1.
        -11    1    1    2    0    0 -0.31531961684E+02  0.13212376948E+02  0.10358510993E+03  0.10908119229E+03  0.00000000000E+00 0. -1.
         11    1    1    2    0    0  0.22631940547E+02 -0.37469625125E+02  0.29345238617E+02  0.52700290031E+02  0.00000000000E+00 0.  1.
</event>
<event>
 6    1  0.1134023E-005  0.8797303E+02  0.7561462E-02  0.1307836E+00
          1   -1    0    0  501    0  0.00000000000E+00  0.00000000000E+00  0.48218372852E+03  0.48218372852E+03  0.00000000000E+00 0. -1.
         -1   -1    0    0    0  501 -0.00000000000E+00 -0.00000000000E+00 -0.33463972874E+02  0.33463972874E+02  0.00000000000E+00 0.  1.
          5    1    1    2  502    0  0.48459363172E+02  0.29133516862E+02  0.14855554098E+02  0.58610848580E+02  0.41800000000E+01 0. -1.
         -5    1    1    2    0  502 -0.70203086580E+01  0.15277586204E+02  0.17969728198E+03  0.18053053737E+03  0.41800000000E+01 0. -1.
        -11    1    1    2    0    0 -0.56476076709E+02 -0.58503517303E+02  0.23377797909E+03  0.24751636771E+03  0.00000000000E+00 0. -1.
         11    1    1    2    0    0  0.15037022195E+02  0.14092414238E+02  0.20388940481E+02  0.28989947732E+02  0.00000000000E+00 0.  1.
</event>
<event>
 6    1  0.8989754E-006  0.8675748E+02  0.7561462E-02  0.1310899E+00
         -4   -1    0    0    0  501 -0.00000000000E+00  0.00000000000E+00  0.77659535397E+02  0.77659535397E+02  0.00000000000E+00 0.  1.
          4   -1    0    0  501    0  0.00000000000E+00 -0.00000000000E+00 -0.19175896950E+03  0.19175896950E+03  0.00000000000E+00 0. -1.
          5    1    1    2  502    0  0.35807342447E+02 -0.95768387708E+01 -0.91492593756E+02  0.98804092659E+02  0.41800000000E+01 0.  1.
         -5    1    1    2    0  502  0.24099210778E+01 -0.30990975370E+02  0.37094426121E+02  0.48576919656E+02  0.41800000000E+01 0.  1.
        -11    1    1    2    0    0 -0.21846693920E+02 -0.27340072329E+02 -0.10300224076E+02  0.36480847114E+02  0.00000000000E+00 0. -1.
         11    1    1    2    0    0 -0.16370569605E+02  0.67907886470E+02 -0.49401042387E+02  0.85556645463E+02  0.00000000000E+00 0.  1.
</event>
<event>
 6    1  0.8989754E-006  0.1157810E+03  0.7561462E-02  0.1250224E+00
         -2   -1    0    0    0  501 -0.00000000000E+00  0.00000000000E+00  0.42711949413E+02  0.42711949413E+02  0.00000000000E+00 0.  1.
          2   -1    0    0  501    0  0.00000000000E+00 -0.00000000000E+00 -0.72726460344E+03  0.72726460344E+03  0.00000000000E+00 0. -1.
          5    1    1    2  502    0  0.19119575910E+02  0.74393520642E+02 -0.21051148696E+03  0.22412610878E+03  0.41800000000E+01 0. -1.
         -5    1    1    2    0  502  0.13739793590E+02  0.20984344733E+02  0.20311665812E+02  0.32544751033E+02  0.41800000000E+01 0.  1.
        -11    1    1    2    0    0  0.27020275676E+02 -0.34442767542E+02 -0.26432285282E+03  0.26792344067E+03  0.00000000000E+00 0. -1.
         11    1    1    2    0    0 -0.59879645176E+02 -0.60935097832E+02 -0.23002998006E+03  0.24538225237E+03  0.00000000000E+00 0.  1.
</event>
<event>
 6    1  0.8989754E-006  0.1302180E+03  0.7561462E-02  0.1227133E+00
          1   -1    0    0  501    0  0.00000000000E+00  0.00000000000E+00  0.79183423077E+02  0.79183423077E+02  0.00000000000E+00 0. -1.
         -1   -1    0    0    0  501 -0.00000000000E+00 -0.00000000000E+00 -0.28763203562E+03  0.28763203562E+03  0.00000000000E+00 0.  1.
          5    1    1    2  502    0  0.53973738501E+02  0.81165031352E+02 -0.16053350812E+03  0.18785474812E+03  0.41800000000E+01 0. -1.
         -5    1    1    2    0  502  0.28265925231E+02 -0.28357721114E+02 -0.34920546847E+01  0.40407792836E+02  0.41800000000E+01 0. -1.
        -11    1    1    2    0    0 -0.42679596784E+02 -0.67963350417E+02 -0.51845997298E+02  0.95543562930E+02  0.00000000000E+00 0.  1.
         11    1    1    2    0    0 -0.39560066948E+02  0.15156040179E+02  0.74229475575E+01  0.43009354812E+02  0.00000000000E+00 0. -1.
</event>
<event>
 6    1  0.8989754E-006  0.1114165E+03  0.7561462E-02  0.1257969E+00
         -1   -1    0    0    0  501 -0.00000000000E+00  0.00000000000E+00  0.30448980274E+03  0.30448980274E+03  0.00000000000E+00 0.  1.
          1   -1    0    0  501    0  0.00000000000E+00 -0.00000000000E+00 -0.90366943797E+02  0.90366943797E+02  0.00000000000E+00 0. -1.
          5    1    1    2  502    0  0.12784568027E+02 -0.80097505422E+02  0.23524537292E+03  0.24887127885E+03  0.41800000000E+01 0.  1.
         -5    1    1    2    0  502  0.19743321892E+02  0.11968786456E+02 -0.48403922211E+01  0.23957303802E+02  0.41800000000E+01 0.  1.
        -11    1    1    2    0    0  0.31699349018E+02  0.16447198399E+02  0.69422779827E+01  0.36380685630E+02  0.00000000000E+00 0.  1.
         11    1    1    2    0    0 -0.64227238938E+02  0.51681520567E+02 -0.23224399735E+02  0.85647478263E+02  0.00000000000E+00 0. -1.
</event>
<event>
 6    1  0.8989754E-006  0.1136053E+03  0.7561462E-02  0.1254035E+00
          2   -1    0    0  501    0  0.00000000000E+00  0.00000000000E+00  0.55915057338E+03  0.55915057338E+03  0.00000000000E+00 0.  1.
         -2   -1    0    0    0  501 -0.00000000000E+00 -0.00000000000E+00 -0.26998896626E+02  0.26998896626E+02  0.00000000000E+00 0. -1.
          5    1    1    2  502    0  0.33139523459E+02 -0.75968957097E+02  0.11495203659E+03  0.14177783175E+03  0.41800000000E+01 0. -1.
         -5    1    1    2    0  502  0.68185768698E+01  0.41082703232E+02  0.15346175093E+03  0.15906685040E+03  0.41800000000E+01 0. -1.
        -11    1    1    2    0    0 -0.43121182166E+01  0.59112439998E+02  0.10246388385E+03  0.11837112156E+03  0.00000000000E+00 0.  1.
         11    1    1    2    0    0 -0.35645982112E+02 -0.24226186132E+02  0.16127400537E+03  0.16693366630E+03  0.00000000000E+00 0. -1.
</event>
<event>
 6    1  0.8989754E-006  0.2048830E+03  0.7561462E-02  0.1145683E+00
          2   -1    0    0  501    0  0.00000000000E+00  0.00000000000E+00  0.13009788139E+04  0.13009788139E+04  0.00000000000E+00 0. -1.
         -2   -1    0    0    0  501 -0.00000000000E+00 -0.00000000000E+00 -0.49190633189E+02  0.49190633189E+02  0.00000000000E+00 0.  1.
          5    1    1    2  502    0 -0.86303003397E+02  0.23244603535E+02  0.19025675099E+03  0.21024657830E+03  0.41800000000E+01 0. -1.
         -5    1    1    2    0  502  0.48155778570E+02  0.46557315964E+02  0.21799610429E+03  0.22809282445E+03  0.41800000000E+01 0.  1.
        -11    1    1    2    0    0  0.14043603575E+03 -0.31293344765E+02  0.76201503382E+03  0.77547950671E+03  0.00000000000E+00 0. -1.
         11    1    1    2    0    0 -0.10228881093E+03 -0.38508574734E+02  0.81520291620E+02  0.13635053764E+03  0.00000000000E+00 0.  1.
</event>
<event>
 6    1  0.8989754E-006  0.8496682E+02  0.7561462E-02  0.1315519E+00
          2   -1    0    0  501    0  0.00000000000E+00  0.00000000000E+00  0.40568438919E+03  0.40568438919E+03  0.00000000000E+00 0. -1.
         -2   -1    0    0    0  501 -0.00000000000E+00 -0.00000000000E+00 -0.38877967376E+02  0.38877967376E+02  0.00000000000E+00 0.  1.
          5    1    1    2  502    0 -0.28499860224E+02 -0.16346020554E+01 -0.10881791736E+02  0.30835040912E+02  0.41800000000E+01 0. -1.
         -5    1    1    2    0  502  0.38907490415E+02 -0.48882462505E+02  0.15338819879E+03  0.16567649163E+03  0.41800000000E+01 0. -1.
        -11    1    1    2    0    0  0.22043366365E+02  0.50630475425E+01  0.69810952386E+01  0.23670237470E+02  0.00000000000E+00 0.  1.
         11    1    1    2    0    0 -0.32450996556E+02  0.45454017018E+02  0.21731891951E+03  0.22438058655E+03  0.00000000000E+00 0. -1.
</event>
<event>
 6    1  0.8989754E-006  0.1498982E+03  0.7561462E-02  0.1200598E+00
          1   -1    0    0  501    0  0.00000000000E+00  0.00000000000E+00  0.47944039281E+03  0.47944039281E+03  0.00000000000E+00 0. -1.
         -1   -1    0    0    0  501 -0.00000000000E+00 -0.00000000000E+00 -0.11415967543E+03  0.11415967543E+03  0.00000000000E+00 0.  1.
          5    1    1    2  502    0  0.78080316877E+01  0.18657256392E+01  0.43473570381E+02  0.44405743014E+02  0.41800000000E+01 0. -1.
         -5    1    1    2    0  502  0.98482091364E+02 -0.10195065369E+03 -0.41186597516E+02  0.14767012671E+03  0.41800000000E+01 0. -1.
        -11    1    1    2    0    0 -0.21700600484E+02  0.38877431907E+02  0.22004438217E+03  0.22450367680E+03  0.00000000000E+00 0. -1.
         11    1    1    2    0    0 -0.84589522568E+02  0.61207496141E+02  0.14294936234E+03  0.17702052171E+03  0.00000000000E+00 0.  1.
</event>
<event>
 6    1  0.8989754E-006  0.1476429E+03  0.7561462E-02  0.1203400E+00
         -1   -1    0    0    0  501 -0.00000000000E+00  0.00000000000E+00  0.65326082027E+03  0.65326082027E+03  0.00000000000E+00 0.  1.
          1   -1    0    0  501    0  0.00000000000E+00 -0.00000000000E+00 -0.41239903373E+02  0.41239903373E+02  0.00000000000E+00 0. -1.
          5    1    1    2  502    0  0.99450256879E+02  0.14474234509E+02  0.26069225890E+03  0.27942402063E+03  0.41800000000E+01 0. -1.
         -5    1    1    2    0  502  0.48840223516E+01  0.46204722235E+02  0.20054615163E+02  0.50777849704E+02  0.41800000000E+01 0. -1.
        -11    1    1    2    0    0  0.56897391523E+01 -0.34486063187E+02  0.11561163982E+03  0.12077960485E+03  0.00000000000E+00 0.  1.
         11    1    1    2    0    0 -0.11002401838E+03 -0.26192893558E+02  0.21566240301E+03  0.24351924846E+03  0.00000000000E+00 0. -1.
</event>
<event>
 6    1  0.8989754E-006  0.2422472E+03  0.7561462E-02  0.1118305E+00
         -1   -1    0    0    0  501 -0.00000000000E+00  0.00000000000E+00  0.48691469609E+03  0.48691469609E+03  0.00000000000E+00 0.  1.
          1   -1    0    0  501    0  0.00000000000E+00 -0.00000000000E+00 -0.15399948448E+03  0.15399948448E+03  0.00000000000E+00 0. -1.
          5    1    1    2  502    0  0.50762362942E+02  0.35476066162E+02  0.10370637865E+03  0.12086295600E+03  0.41800000000E+01 0. -1.
         -5    1    1    2    0  502 -0.31133577108E+02  0.19084536290E+03  0.19366003220E+03  0.27370227006E+03  0.41800000000E+01 0. -1.
        -11    1    1    2    0    0 -0.21617567742E+02 -0.86033283710E+02  0.55494616578E+02  0.10463602444E+03  0.00000000000E+00 0.  1.
         11    1    1    2    0    0  0.19887819080E+01 -0.14028814535E+03 -0.19945815812E+02  0.14171293007E+03  0.00000000000E+00 0. -1.
</event>
<event>
 6    1  0.8989754E-006  0.1007172E+03  0.7561462E-02  0.1278795E+00
         -2   -1    0    0    0  501 -0.00000000000E+00  0.00000000000E+00  0.51396825282E+03  0.51396825282E+03  0.00000000000E+00 0.  1.
          2   -1    0    0  501    0  0.00000000000E+00 -0.00000000000E+00 -0.38899828298E+02  0.38899828298E+02  0.00000000000E+00 0. -1.
          5    1    1    2  502    0  0.12302652381E+01 -0.43637112108E+02  0.88644232764E+02  0.98898854938E+02  0.41800000000E+01 0.  1.
         -5    1    1    2    0  502  0.41597552947E+02  0.78691159832E+02  0.31050366145E+03  0.32303660972E+03  0.41800000000E+01 0.  1.
        -11    1    1    2    0    0 -0.28372703731E+02 -0.43347549799E+02  0.93384653104E+02  0.10679285475E+03  0.00000000000E+00 0.  1.
         11    1    1    2    0    0 -0.14455114454E+02  0.82935020745E+01 -0.17464122792E+02  0.24139761711E+02  0.00000000000E+00 0. -1.
</event>
<event>
 6    1  0.8989754E-006  0.1204655E+03  0.7561462E-02  0.1242331E+00
          2   -1    0    0  501    0  0.00000000000E+00  0.00000000000E+00  0.89642027844E+02  0.89642027844E+02  0.00000000000E+00 0. -1.
         -2   -1    0    0    0  501 -0.00000000000E+00 -0.00000000000E+00 -0.17397807508E+03  0.17397807508E+03  0.00000000000E+00 0.  1.
          5    1    1    2  502    0  0.26069806739E+02  0.43312380202E+02 -0.43415271200E+02  0.66767921006E+02  0.41800000000E+01 0.  1.
         -5    1    1    2    0  502  0.23043352709E+02 -0.77805770672E+02 -0.98512821700E+01  0.81848971980E+02  0.41800000000E+01 0.  1.
        -11    1    1    2    0    0 -0.73130657526E+02  0.41301739226E+02 -0.32359841684E+02  0.90006033615E+02  0.00000000000E+00 0.  1.
         11    1    1    2    0    0  0.24017498078E+02 -0.68083487564E+01  0.12903478159E+01  0.24997176324E+02  0.00000000000E+00 0. -1.
</event>
<event>
 6    1  0.8989754E-006  0.1617370E+03  0.7561462E-02  0.1186750E+00
          1   -1    0    0  501    0  0.00000000000E+00  0.00000000000E+00  0.56840169957E+03  0.56840169957E+03  0.00000000000E+00 0. -1.
         -1   -1    0    0    0  501 -0.00000000000E+00 -0.00000000000E+00 -0.62006171844E+02  0.62006171844E+02  0.00000000000E+00 0.  1.
          5    1    1    2  502    0 -0.71535955253E+02  0.17269570197E+02  0.16755713728E+03  0.18305326438E+03  0.41800000000E+01 0.  1.
         -5    1    1    2    0  502 -0.28581791464E+02  0.94815799002E+02  0.55597413304E+02  0.11364637834E+03  0.41800000000E+01 0.  1.
        -11    1    1    2    0    0  0.10141123235E+02 -0.16554442872E+02 -0.22069409757E+01  0.19538744784E+02  0.00000000000E+00 0.  1.
         11    1    1    2    0    0  0.89976623482E+02 -0.95530926327E+02  0.28544791812E+03  0.31416948390E+03  0.00000000000E+00 0. -1.
</event>
<event>
 6    1  0.8989754E-006  0.1466795E+03  0.7561462E-02  0.1204614E+00
          2   -1    0    0  501    0  0.00000000000E+00  0.00000000000E+00  0.58581605871E+03  0.58581605871E+03  0.00000000000E+00 0. -1.
         -2   -1    0    0    0  501 -0.00000000000E+00 -0.00000000000E+00 -0.50673513837E+02  0.50673513837E+02  0.00000000000E+00 0.  1.
          5    1    1    2  502    0  0.75401968596E+02  0.30880118753E+02  0.52085683109E+02  0.96795812861E+02  0.41800000000E+01 0.  1.
         -5    1    1    2    0  502  0.52386843814E+02 -0.60290582220E+02  0.18556223050E+03  0.20206471611E+03  0.41800000000E+01 0.  1.
        -11    1    1    2    0    0 -0.75627077151E+02  0.24030098232E+02  0.75522578090E+02  0.10954706852E+03  0.00000000000E+00 0.  1.
         11    1    1    2    0    0 -0.52161735260E+02  0.53803652349E+01  0.22197205318E+03  0.22808197506E+03  0.00000000000E+00 0. -1.
</event>
<event>
 6    1  0.8989754E-006  0.7980419E+02  0.7561462E-02  0.1329608E+00
         -2   -1    0    0    0  501 -0.00000000000E+00  0.00000000000E+00  0.37549066310E+02  0.37549066310E+02  0.00000000000E+00 0.  1.
          2   -1    0    0  501    0  0.00000000000E+00 -0.00000000000E+00 -0.41719647124E+03  0.41719647124E+03  0.00000000000E+00 0. -1.
          5    1    1    2  502    0  0.16135216012E+02  0.22889909425E+02 -0.11912727834E+03  0.12244620857E+03  0.41800000000E+01 0. -1.
         -5    1    1    2    0  502 -0.69408592419E+01 -0.37690497290E+02  0.14870642786E+02  0.41320183081E+02  0.41800000000E+01 0. -1.
        -11    1    1    2    0    0  0.37346210390E+02  0.25200027895E+02 -0.11052176297E+03  0.11935175292E+03  0.00000000000E+00 0.  1.
         11    1    1    2    0    0 -0.46540567160E+02 -0.10399440030E+02 -0.16486900641E+03  0.17162739297E+03  0.00000000000E+00 0. -1.
</event>
<event>
 6    1  0.8989754E-006  0.1000975E+03  0.7561462E-02  0.1280091E+00
         -1   -1    0    0    0  501 -0.00000000000E+00  0.00000000000E+00  0.10623292297E+03  0.10623292297E+03  0.00000000000E+00 0.  1.
          1   -1    0    0  501    0  0.00000000000E+00 -0.00000000000E+00 -0.23324286329E+03  0.23324286329E+03  0.00000000000E+00 0. -1.
          5    1    1    2  502    0 -0.54531966154E+02  0.31528861212E+02  0.63657957303E+02  0.89652731971E+02  0.41800000000E+01 0.  1.
         -5    1    1    2    0  502  0.21236550100E+02 -0.41188706449E+02 -0.15117915721E+02  0.48923658641E+02  0.41800000000E+01 0.  1.
        -11    1    1    2    0    0  0.30627467617E+02  0.45362871601E+02 -0.14054887278E+03  0.15083042641E+03  0.00000000000E+00 0. -1.
         11    1    1    2    0    0  0.26679484375E+01 -0.35703026365E+02 -0.35001109126E+02  0.50068969238E+02  0.00000000000E+00 0.  1.
</event>
<event>
 6    1  0.8989754E-006  0.1804080E+03  0.7561462E-02  0.1167409E+00
         -1   -1    0    0    0  501 -0.00000000000E+00  0.00000000000E+00  0.79493248288E+03  0.79493248288E+03  0.00000000000E+00 0.  1.
          1   -1    0    0  501    0  0.00000000000E+00 -0.00000000000E+00 -0.59750946390E+02  0.59750946390E+02  0.00000000000E+00 0. -1.
          5    1    1    2  502    0 -0.32640016926E+02  0.15436440475E+02  0.31600472627E+03  0.31808821705E+03  0.41800000000E+01 0. -1.
         -5    1    1    2    0  502 -0.77224198750E+02  0.11091014110E+03  0.23354333394E+03  0.26986032961E+03  0.41800000000E+01 0. -1.
        -11    1    1    2    0    0  0.83046900908E+02 -0.28498024359E+02  0.10675551535E+03  0.13822324407E+03  0.00000000000E+00 0.  1.
         11    1    1    2    0    0  0.26817314768E+02 -0.97848557215E+02  0.78877960931E+02  0.12851163854E+03  0.00000000000E+00 0. -1.
</event>
<event>
 6    1  0.8989754E-006  0.6639808E+02  0.7561462E-02  0.1372788E+00
          3   -1    0    0  501    0  0.00000000000E+00  0.00000000000E+00  0.39601467626E+02  0.39601467626E+02  0.00000000000E+00 0. -1.
         -3   -1    0    0    0  501 -0.00000000000E+00 -0.00000000000E+00 -0.17382319221E+04  0.17382319221E+04  0.00000000000E+00 0.  1.
          5    1    1    2  502    0 -0.64795081702E+01 -0.22322759361E+01 -0.73742979884E+01  0.10900447367E+02  0.41800000000E+01 0. -1.
         -5    1    1    2    0  502  0.17036297542E+02  0.26801973370E+02 -0.16673831510E+04  0.16676908064E+04  0.41800000000E+01 0.  1.
        -11    1    1    2    0    0 -0.12328368399E+02  0.32954576827E+02  0.37877468122E+01  0.35388413741E+02  0.00000000000E+00 0.  1.
         11    1    1    2    0    0  0.17715790269E+01 -0.57524274261E+02 -0.27660752324E+02  0.63853722215E+02  0.00000000000E+00 0. -1.
</event>
<event>
 6    1  0.8989754E-006  0.3588311E+03  0.7561462E-02  0.1059048E+00
          2   -1    0    0  501    0  0.00000000000E+00  0.00000000000E+00  0.11190822959E+04  0.11190822959E+04  0.00000000000E+00 0. -1.
         -2   -1    0    0    0  501 -0.00000000000E+00 -0.00000000000E+00 -0.14449817556E+03  0.14449817556E+03  0.00000000000E+00 0.  1.
          5    1    1    2  502    0  0.71174980035E+02  0.87971871797E+02  0.94246585669E+02  0.14732555556E+03  0.41800000000E+01 0.  1.
         -5    1    1    2    0  502  0.24889622508E+03  0.47325014626E+02  0.13077292975E+03  0.28514561092E+03  0.41800000000E+01 0.  1.
        -11    1    1    2    0    0 -0.10604844397E+03 -0.70784579044E+02  0.36073803529E+03  0.38260770928E+03  0.00000000000E+00 0. -1.
         11    1    1    2    0    0 -0.21402276115E+03 -0.64512307379E+02  0.38882656965E+03  0.44850159571E+03  0.00000000000E+00 0.  1.
</event>
<event>
 6    1  0.8989754E-006  0.2457037E+03  0.7561462E-02  0.1116050E+00
         -1   -1    0    0    0  501 -0.00000000000E+00  0.00000000000E+00  0.11736933817E+04  0.11736933817E+04  0.00000000000E+00 0.  1.
          1   -1    0    0  501    0  0.00000000000E+00 -0.00000000000E+00 -0.62397639400E+02  0.62397639400E+02  0.00000000000E+00 0. -1.
          5    1    1    2  502    0  0.57548836041E+02 -0.21919309647E+03  0.46457334274E+03  0.51691715512E+03  0.41800000000E+01 0.  1.
         -5    1    1    2    0  502  0.12619752460E+02 -0.13256986665E+02  0.21026209882E+03  0.21109862256E+03  0.41800000000E+01 0.  1.
        -11    1    1    2    0    0 -0.12598328057E+02  0.10937756001E+03  0.27990940846E+03  0.30078471612E+03  0.00000000000E+00 0.  1.
         11    1    1    2    0    0 -0.57570260445E+02  0.12307252312E+03  0.15655089227E+03  0.20729052729E+03  0.00000000000E+00 0. -1.
</event>
<event>
 6    1  0.8989754E-006  0.2335443E+03  0.7561462E-02  0.1124170E+00
          2   -1    0    0  501    0  0.00000000000E+00  0.00000000000E+00  0.71730393396E+03  0.71730393396E+03  0.00000000000E+00 0. -1.
         -2   -1    0    0    0  501 -0.00000000000E+00 -0.00000000000E+00 -0.95470308405E+02  0.95470308405E+02  0.00000000000E+00 0.  1.
          5    1    1    2  502    0  0.19791081874E+03  0.72001471920E+02  0.10573447873E+03  0.23569080705E+03  0.41800000000E+01 0.  1.
         -5    1    1    2    0  502 -0.37603638787E+01  0.23661035121E+02  0.58672530307E+02  0.63513172903E+02  0.41800000000E+01 0.  1.
        -11    1    1    2    0    0 -0.12664818950E+03 -0.15913504339E+02  0.27880086066E+03  0.30663157604E+03  0.00000000000E+00 0.  1.
         11    1    1    2    0    0 -0.67502265361E+02 -0.79749002702E+02  0.17862575586E+03  0.20693868637E+03  0.00000000000E+00 0. -1.
</event>
<event>
 6    1  0.8989754E-006  0.1491336E+03  0.7561462E-02  0.1201542E+00
         -1   -1    0    0    0  501 -0.00000000000E+00  0.00000000000E+00  0.44875571088E+03  0.44875571088E+03  0.00000000000E+00 0.  1.
          1   -1    0    0  501    0  0.00000000000E+00 -0.00000000000E+00 -0.11374735676E+03  0.11374735676E+03  0.00000000000E+00 0. -1.
          5    1    1    2  502    0 -0.45169131024E+02 -0.15908963967E+01  0.65457066060E+02  0.79654762858E+02  0.41800000000E+01 0. -1.
         -5    1    1    2    0  502  0.36536386893E+02 -0.12276211022E+03  0.30040609547E+03  0.32659874137E+03  0.41800000000E+01 0. -1.
        -11    1    1    2    0    0  0.79151865981E+01  0.85476284240E+02  0.23887093598E+02  0.89103527354E+02  0.00000000000E+00 0.  1.
         11    1    1    2    0    0  0.71755753302E+00  0.38876722382E+02 -0.54741901010E+02  0.67146036057E+02  0.00000000000E+00 0. -1.
</event>
<event>
 6    1  0.8989754E-006  0.1322216E+03  0.7561462E-02  0.1224196E+00
         -1   -1    0    0    0  501 -0.00000000000E+00  0.00000000000E+00  0.12419580364E+03  0.12419580364E+03  0.00000000000E+00 0.  1.
          1   -1    0    0  501    0  0.00000000000E+00 -0.00000000000E+00 -0.25109280248E+03  0.25109280248E+03  0.00000000000E+00 0. -1.
          5    1    1    2  502    0  0.32649875895E+02 -0.14204688225E+02 -0.10253998957E+02  0.37288127577E+02  0.41800000000E+01 0. -1.
         -5    1    1    2    0  502 -0.98176720850E+02 -0.39061759598E+02  0.60269401247E+02  0.12171426665E+03  0.41800000000E+01 0. -1.
        -11    1    1    2    0    0 -0.17032194033E+02  0.34064567179E+02 -0.39780489208E+02  0.55072476722E+02  0.00000000000E+00 0. -1.
         11    1    1    2    0    0  0.82559038988E+02  0.19201880644E+02 -0.13713191192E+03  0.16121373517E+03  0.00000000000E+00 0.  1.
</event>
<event>
 6    1  0.8989754E-006  0.1155035E+03  0.7561462E-02  0.1250705E+00
          1   -1    0    0  501    0  0.00000000000E+00  0.00000000000E+00  0.13830633116E+03  0.13830633116E+03  0.00000000000E+00 0. -1.
         -1   -1    0    0    0  501 -0.00000000000E+00 -0.00000000000E+00 -0.14553572274E+03  0.14553572274E+03  0.00000000000E+00 0.  1.
          5    1    1    2  502    0  0.93834529260E+02  0.13372952774E+02  0.31773985926E+02  0.10005405204E+03  0.41800000000E+01 0. -1.
         -5    1    1    2    0  502 -0.30722273292E+01 -0.91225018223E+01 -0.55354465719E+02  0.56340464102E+02  0.41800000000E+01 0. -1.
        -11    1    1    2    0    0 -0.86403729403E+02 -0.35990671717E+02  0.18213115933E+02  0.95355390499E+02  0.00000000000E+00 0.  1.
         11    1    1    2    0    0 -0.43585725288E+01  0.31740220765E+02 -0.18620277207E+01  0.32092147263E+02  0.00000000000E+00 0. -1.
</event>
<event>
 6    1  0.8989754E-006  0.9738320E+02  0.7561462E-02  0.1285897E+00
         -1   -1    0    0    0  501 -0.00000000000E+00  0.00000000000E+00  0.17645794805E+03  0.17645794805E+03  0.00000000000E+00 0.  1.
          1   -1    0    0  501    0  0.00000000000E+00 -0.00000000000E+00 -0.66971319684E+02  0.66971319684E+02  0.00000000000E+00 0. -1.
          5    1    1    2  502    0  0.48391279323E+02  0.59210358094E+01  0.75733284333E+02  0.90165277881E+02  0.41800000000E+01 0.  1.
         -5    1    1    2    0  502 -0.55703100298E+02  0.41823126621E+01 -0.11056082549E+01  0.56026974679E+02  0.41800000000E+01 0.  1.
        -11    1    1    2    0    0  0.33429470001E+02 -0.38667572712E+02  0.12821088308E+02  0.52698111440E+02  0.00000000000E+00 0.  1.
         11    1    1    2    0    0 -0.26117649026E+02  0.28564224241E+02  0.22037863985E+02  0.44538903738E+02  0.00000000000E+00 0. -1.
</event>
<event>
 6    1  0.8989754E-006  0.1067386E+03  0.7561462E-02  0.1266732E+00
         -1   -1    0    0    0  501 -0.00000000000E+00  0.00000000000E+00  0.35814166156E+02  0.35814166156E+02  0.00000000000E+00 0.  1.
          1   -1    0    0  501    0  0.00000000000E+00 -0.00000000000E+00 -0.47981701057E+03  0.47981701057E+03  0.00000000000E+00 0. -1.
          5    1    1    2  502    0 -0.39051212809E+02 -0.31270988940E+02 -0.72007943457E+02  0.87780910750E+02  0.41800000000E+01 0.  1.
         -5    1    1    2    0  502  0.40874681176E+02  0.58169743314E+02 -0.36648597126E+02  0.80094011447E+02  0.41800000000E+01 0.  1.
        -11    1    1    2    0    0 -0.43947431980E+02 -0.23396519080E+02 -0.18454133758E+03  0.19113942335E+03  0.00000000000E+00 0. -1.
         11    1    1    2    0    0  0.42123963613E+02 -0.35022352940E+01 -0.15080496625E+03  0.15661683118E+03  0.00000000000E+00 0.  1.
</event>
<event>
 6    1  0.8989754E-006  0.1195725E+03  0.7561462E-02  0.1243804E+00
         -1   -1    0    0    0  501 -0.00000000000E+00  0.00000000000E+00  0.51595952131E+02  0.51595952131E+02  0.00000000000E+00 0.  1.
          1   -1    0    0  501    0  0.00000000000E+00 -0.00000000000E+00 -0.34540796145E+03  0.34540796145E+03  0.00000000000E+00 0. -1.
          5    1    1    2  502    0  0.36688984122E+02 -0.33878320181E+01 -0.96520537078E+00  0.37093975024E+02  0.41800000000E+01 0.  1.
         -5    1    1    2    0  502 -0.87580395998E+02 -0.24323378076E+02 -0.90590583689E+02  0.12839812591E+03  0.41800000000E+01 0.  1.
        -11    1    1    2    0    0  0.79119020717E+02  0.23477487893E+02 -0.13196526051E+03  0.15564652858E+03  0.00000000000E+00 0.  1.
         11    1    1    2    0    0 -0.28227608840E+02  0.42337222003E+01 -0.70290959753E+02  0.75865284073E+02  0.00000000000E+00 0. -1.
</event>
<event>
 6    1  0.8989754E-006  0.1046018E+03  0.7561462E-02  0.1270906E+00
          1   -1    0    0  501    0  0.00000000000E+00  0.00000000000E+00  0.76644908225E+02  0.76644908225E+02  0.00000000000E+00 0. -1.
         -1   -1    0    0    0  501 -0.00000000000E+00 -0.00000000000E+00 -0.21868874581E+03  0.21868874581E+03  0.00000000000E+00 0.  1.
          5    1    1    2  502    0  0.21837462539E+02 -0.81099293108E+02 -0.10003942565E+03  0.13068790762E+03  0.41800000000E+01 0.  1.
         -5    1    1    2    0  502 -0.29118401340E+02  0.11386706729E+02  0.16152049905E+02  0.35438672420E+02  0.41800000000E+01 0.  1.
        -11    1    1    2    0    0  0.97620632813E+01  0.81215704743E+02 -0.13351765312E+02  0.82882798055E+02  0.00000000000E+00 0. -1.
         11    1    1    2    0    0 -0.24811244794E+01 -0.11503118364E+02 -0.44804696529E+02  0.46324275945E+02  0.00000000000E+00 0.  1.
</event>
<event>
 6    1  0.8989754E-006  0.2063311E+03  0.7561462E-02  0.1144505E+00
          2   -1    0    0  501    0  0.00000000000E+00  0.00000000000E+00  0.28055971836E+03  0.28055971836E+03  0.00000000000E+00 0. -1.
         -2   -1    0    0    0  501 -0.00000000000E+00 -0.00000000000E+00 -0.21380866013E+03  0.21380866013E+03  0.00000000000E+00 0.  1.
          5    1    1    2  502    0 -0.29311981789E+02 -0.34281064784E+02 -0.50618564323E+02  0.67927131054E+02  0.41800000000E+01 0. -1.
         -5    1    1    2    0  502 -0.10426456401E+03  0.13693941891E+03 -0.37722439888E+02  0.17624970534E+03  0.41800000000E+01 0.  1.
        -11    1    1    2    0    0 -0.57261869383E+01  0.12958581842E+02  0.49741703782E+01  0.15015206664E+02  0.00000000000E+00 0.  1.
         11    1    1    2    0    0  0.13930273274E+03 -0.11561693597E+03  0.15011789206E+03  0.23517633544E+03  0.00000000000E+00 0. -1.
</event>
<event>
 6    1  0.8989754E-006  0.1563823E+03  0.7561462E-02  0.1192843E+00
          2   -1    0    0  501    0  0.00000000000E+00  0.00000000000E+00  0.64068071042E+03  0.64068071042E+03  0.00000000000E+00 0. -1.
         -2   -1    0    0    0  501 -0.00000000000E+00 -0.00000000000E+00 -0.46860817980E+02  0.46860817980E+02  0.00000000000E+00 0.  1.
          5    1    1    2  502    0 -0.30041120468E+02  0.97481140933E+01  0.43550396971E+02  0.53959282090E+02  0.41800000000E+01 0. -1.
         -5    1    1    2    0  502  0.11737593243E+03  0.66478420074E+02  0.12637287379E+03  0.18488933306E+03  0.41800000000E+01 0.  1.
        -11    1    1    2    0    0  0.18331249410E+02 -0.15941515412E+02  0.93729076553E+02  0.96826165937E+02  0.00000000000E+00 0.  1.
         11    1    1    2    0    0 -0.10566606137E+03 -0.60285018756E+02  0.33016754513E+03  0.35186674732E+03  0.00000000000E+00 0. -1.
</event>
<event>
 6    1  0.8989754E-006  0.1575019E+03  0.7561462E-02  0.1191546E+00
          2   -1    0    0  501    0  0.00000000000E+00  0.00000000000E+00  0.28793418698E+03  0.28793418698E+03  0.00000000000E+00 0. -1.
         -2   -1    0    0    0  501 -0.00000000000E+00 -0.00000000000E+00 -0.10121832806E+03  0.10121832806E+03  0.00000000000E+00 0.  1.
          5    1    1    2  502    0 -0.16784576005E+02  0.12503864566E+03  0.38366896114E+02  0.13193133069E+03  0.41800000000E+01 0.  1.
         -5    1    1    2    0  502  0.38724429753E+02  0.52956259873E+01  0.68856339316E+02  0.79286146194E+02  0.41800000000E+01 0.  1.
        -11    1    1    2    0    0  0.23201970586E+02 -0.72367765640E+02  0.97237657208E+01  0.76615772284E+02  0.00000000000E+00 0. -1.
         11    1    1    2    0    0 -0.45141824335E+02 -0.57966506010E+02  0.69768857771E+02  0.10131926588E+03  0.00000000000E+00 0.  1.
</event>
<event>
 6    1  0.8989754E-006  0.1986204E+03  0.7561462E-02  0.1150908E+00
         -1   -1    0    0    0  501 -0.00000000000E+00  0.00000000000E+00  0.65074743185E+02  0.65074743185E+02  0.00000000000E+00 0.  1.
          1   -1    0    0  501    0  0.00000000000E+00 -0.00000000000E+00 -0.66884977439E+03  0.66884977439E+03  0.00000000000E+00 0. -1.
          5    1    1    2  502    0  0.28775428838E+02  0.16210584208E+03 -0.16374164990E+03  0.23223938006E+03  0.41800000000E+01 0. -1.
         -5    1    1    2    0  502 -0.44877635797E+02  0.83608392854E+01 -0.66442569695E+02  0.80721702757E+02  0.41800000000E+01 0. -1.
        -11    1    1    2    0    0 -0.29964277034E+02 -0.72587805566E+02 -0.10278750650E+03  0.12935269192E+03  0.00000000000E+00 0.  1.
         11    1    1    2    0    0  0.46066483994E+02 -0.97878875800E+02 -0.27080330511E+03  0.29161074283E+03  0.00000000000E+00 0. -1.
</event>
<event>
 6    1  0.8989754E-006  0.1302735E+03  0.7561462E-02  0.1227050E+00
          2   -1    0    0  501    0  0.00000000000E+00  0.00000000000E+00  0.25209749327E+03  0.25209749327E+03  0.00000000000E+00 0. -1.
         -2   -1    0    0    0  501 -0.00000000000E+00 -0.00000000000E+00 -0.12103663062E+03  0.12103663062E+03  0.00000000000E+00 0.  1.
          5    1    1    2  502    0  0.73847302835E+02 -0.45396377153E+02  0.51654608494E+02  0.10099468389E+03  0.41800000000E+01 0. -1.
         -5    1    1    2    0  502  0.29570530235E+02 -0.41627801126E+01 -0.62092590174E+02  0.69026858187E+02  0.41800000000E+01 0. -1.
        -11    1    1    2    0    0  0.12322147829E+02  0.21077946895E+02  0.38466106837E+02  0.45560471328E+02  0.00000000000E+00 0. -1.
         11    1    1    2    0    0 -0.11573998090E+03  0.28481210371E+02  0.10303273749E+03  0.15755211048E+03  0.00000000000E+00 0.  1.
</event>
<event>
 6    1  0.8989754E-006  0.1205723E+03  0.7561462E-02  0.1242156E+00
         -2   -1    0    0    0  501 -0.00000000000E+00  0.00000000000E+00  0.17644966760E+03  0.17644966760E+03  0.00000000000E+00 0. -1.
          2   -1    0    0  501    0  0.00000000000E+00 -0.00000000000E+00 -0.98274742911E+02  0.98274742911E+02  0.00000000000E+00 0.  1.
          5    1    1    2  502    0  0.87009644793E+02 -0.58629570061E+02  0.70554487377E+02  0.12650499145E+03  0.41800000000E+01 0. -1.
         -5    1    1    2    0  502 -0.23335472829E+02  0.20655579773E+02 -0.69520147271E+01  0.32202487120E+02  0.41800000000E+01 0. -1.
        -11    1    1    2    0    0 -0.77747646960E+02  0.17234199918E+02  0.31643717736E+02  0.85691534744E+02  0.00000000000E+00 0. -1.
         11    1    1    2    0    0  0.14073474996E+02  0.20739790369E+02 -0.17071265694E+02  0.30325397201E+02  0.00000000000E+00 0.  1.
</event>
<event>
 6    1  0.8989754E-006  0.1432599E+03  0.7561462E-02  0.1209009E+00
         -2   -1    0    0    0  501 -0.00000000000E+00  0.00000000000E+00  0.38714775836E+02  0.38714775836E+02  0.00000000000E+00 0.  1.
          2   -1    0    0  501    0  0.00000000000E+00 -0.00000000000E+00 -0.63750596946E+03  0.63750596946E+03  0.00000000000E+00 0. -1.
          5    1    1    2  502    0 -0.11869149199E+03 -0.38716951458E+01 -0.17028387405E+03  0.20764568490E+03  0.41800000000E+01 0.  1.
         -5    1    1    2    0  502  0.25546976459E+02  0.24044021550E+02 -0.26002595542E+02  0.43867645861E+02  0.41800000000E+01 0.  1.
        -11    1    1    2    0    0  0.74247549738E+02  0.28979017929E+02 -0.19579471472E+03  0.21139548820E+03  0.00000000000E+00 0.  1.
         11    1    1    2    0    0  0.18896965792E+02 -0.49151344333E+02 -0.20671000932E+03  0.21331192634E+03  0.00000000000E+00 0. -1.
</event>
<event>
 6    1  0.8989754E-006  0.1322319E+03  0.7561462E-02  0.1224181E+00
          2   -1    0    0  501    0  0.00000000000E+00  0.00000000000E+00  0.43801723094E+03  0.43801723094E+03  0.00000000000E+00 0. -1.
         -2   -1    0    0    0  501 -0.00000000000E+00 -0.00000000000E+00 -0.58827275412E+02  0.58827275412E+02  0.00000000000E+00 0.  1.
          5    1    1    2  502    0 -0.37676286234E+02 -0.24665925669E+02  0.12469592013E+03  0.13264409271E+03  0.41800000000E+01 0.  1.
         -5    1    1    2    0  502  0.41890992172E+02 -0.92538007830E+02  0.54405068327E+02  0.11530620962E+03  0.41800000000E+01 0.  1.
        -11    1    1    2    0    0  0.21916831740E+01  0.54328698902E+02  0.17078276413E+03  0.17922936011E+03  0.00000000000E+00 0. -1.
         11    1    1    2    0    0 -0.64063891116E+01  0.62875234597E+02  0.29306202943E+02  0.69664843917E+02  0.00000000000E+00 0.  1.
</event>
<event>
 6    1  0.8989754E-006  0.1043018E+03  0.7561462E-02  0.1271501E+00
         -1   -1    0    0    0  501 -0.00000000000E+00  0.00000000000E+00  0.15166775827E+03  0.15166775827E+03  0.00000000000E+00 0.  1.
          1   -1    0    0  501    0  0.00000000000E+00 -0.00000000000E+00 -0.10758551718E+03  0.10758551718E+03  0.00000000000E+00 0. -1.
          5    1    1    2  502    0  0.55956149684E+01 -0.36086438242E+02 -0.19014801252E+02  0.41383293712E+02  0.41800000000E+01 0. -1.
         -5    1    1    2    0  502 -0.67336126874E+02  0.54000210807E+02  0.59669918279E+02  0.10501499082E+03  0.41800000000E+01 0. -1.
        -11    1    1    2    0    0 -0.29883170693E+01 -0.20436648311E+02  0.35117329530E+02  0.40740808367E+02  0.00000000000E+00 0.  1.
         11    1    1    2    0    0  0.64728828975E+02  0.25228757455E+01 -0.31690205467E+02  0.72114182551E+02  0.00000000000E+00 0. -1.
</event>
<event>
 6    1  0.8989754E-006  0.1515477E+03  0.7561462E-02  0.1198584E+00
         -2   -1    0    0    0  501 -0.00000000000E+00  0.00000000000E+00  0.71815598694E+02  0.71815598694E+02  0.00000000000E+00 0.  1.
          2   -1    0    0  501    0  0.00000000000E+00 -0.00000000000E+00 -0.40395289671E+03  0.40395289671E+03  0.00000000000E+00 0. -1.
          5    1    1    2  502    0  0.38162834777E+02 -0.66253132914E+02 -0.29860947756E+02  0.82188978458E+02  0.41800000000E+01 0.  1.
         -5    1    1    2    0  502 -0.83265086076E+02 -0.40727584686E+02 -0.62473758017E+02  0.11185818501E+03  0.41800000000E+01 0.  1.
        -11    1    1    2    0    0  0.21907824056E+02 -0.22938826969E+01 -0.63601496622E+01  0.22927410591E+02  0.00000000000E+00 0.  1.
         11    1    1    2    0    0  0.23194427243E+02  0.10927460030E+03 -0.23344244258E+03  0.25879392134E+03  0.00000000000E+00 0. -1.
</event>
<event>
 6    1  0.8989754E-006  0.1040547E+03  0.7561462E-02  0.1271993E+00
         -1   -1    0    0    0  501 -0.00000000000E+00  0.00000000000E+00  0.84827461178E+02  0.84827461178E+02  0.00000000000E+00 0.  1.
          1   -1    0    0  501    0  0.00000000000E+00 -0.00000000000E+00 -0.20992941952E+03  0.20992941952E+03  0.00000000000E+00 0. -1.
          5    1    1    2  502    0  0.27252574824E+02  0.58036724649E+02 -0.49549052018E+01  0.64443678728E+02  0.41800000000E+01 0.  1.
         -5    1    1    2    0  502 -0.58903919487E+02 -0.31291914057E+02  0.85969643053E+01  0.67381271965E+02  0.41800000000E+01 0.  1.
        -11    1    1    2    0    0  0.51855749597E+02 -0.21616224745E+02 -0.33450473974E+02  0.65385121760E+02  0.00000000000E+00 0.  1.
         11    1    1    2    0    0 -0.20204404934E+02 -0.51285858466E+01 -0.95293543467E+02  0.97546808241E+02  0.00000000000E+00 0. -1.
</event>
<event>
 6    1  0.8989754E-006  0.1222135E+03  0.7561462E-02  0.1239489E+00
         -1   -1    0    0    0  501 -0.00000000000E+00  0.00000000000E+00  0.10138384659E+04  0.10138384659E+04  0.00000000000E+00 0.  1.
          1   -1    0    0  501    0  0.00000000000E+00 -0.00000000000E+00 -0.22876898023E+02  0.22876898023E+02  0.00000000000E+00 0. -1.
          5    1    1    2  502    0 -0.27797376833E+02  0.16628081734E+02  0.24753887296E+02  0.40980661258E+02  0.41800000000E+01 0. -1.
         -5    1    1    2    0  502 -0.32977561937E+02  0.67101285680E+02  0.59442942357E+03  0.59912762759E+03  0.41800000000E+01 0. -1.
        -11    1    1    2    0    0 -0.15542845813E+02  0.80625128210E+01  0.32123889361E+02  0.36585904890E+02  0.00000000000E+00 0. -1.
         11    1    1    2    0    0  0.76317784583E+02 -0.91791880234E+02  0.33965436767E+03  0.36002117021E+03  0.00000000000E+00 0.  1.
</event>
<event>
 6    1  0.8989754E-006  0.2118876E+03  0.7561462E-02  0.1140080E+00
         -1   -1    0    0    0  501 -0.00000000000E+00  0.00000000000E+00  0.31895308615E+03  0.31895308615E+03  0.00000000000E+00 0.  1.
          1   -1    0    0  501    0  0.00000000000E+00 -0.00000000000E+00 -0.15599194405E+03  0.15599194405E+03  0.00000000000E+00 0. -1.
          5    1    1    2  502    0  0.38894487785E+02 -0.60466807729E+02 -0.11685803211E+02  0.72959210616E+02  0.41800000000E+01 0. -1.
         -5    1    1    2    0  502  0.14516263156E+03 -0.20332617579E+01  0.91160852169E+02  0.17147622903E+03  0.41800000000E+01 0. -1.
        -11    1    1    2    0    0 -0.31665844517E+02 -0.15580103265E+02 -0.82666509337E+01  0.36246418366E+02  0.00000000000E+00 0.  1.
         11    1    1    2    0    0 -0.15239127483E+03  0.78080172752E+02  0.91752744081E+02  0.19426317219E+03  0.00000000000E+00 0. -1.
</event>
<event>
 6    1  0.8989754E-006  0.9614606E+02  0.7561462E-02  0.1288616E+00
         -1   -1    0    0    0  501 -0.00000000000E+00  0.00000000000E+00  0.11052063243E+03  0.11052063243E+03  0.00000000000E+00 0.  1.
          1   -1    0    0  501    0  0.00000000000E+00 -0.00000000000E+00 -0.12573697362E+03  0.12573697362E+03  0.00000000000E+00 0. -1.
          5    1    1    2  502    0  0.69538928361E+02  0.35750518861E+02 -0.26439849457E+02  0.82645630228E+02  0.41800000000E+01 0. -1.
         -5    1    1    2    0  502 -0.12385840170E+02 -0.24222967195E+02  0.33415145713E+02  0.43292095577E+02  0.41800000000E+01 0.  1.
        -11    1    1    2    0    0 -0.52021732329E+02  0.19094812102E+02  0.19137534326E+02  0.58626936674E+02  0.00000000000E+00 0.  1.
         11    1    1    2    0    0 -0.51313558618E+01 -0.30622363768E+02 -0.41329171770E+02  0.51692943570E+02  0.00000000000E+00 0. -1.
</event>
<event>
 6    1  0.8989754E-006  0.1303117E+03  0.7561462E-02  0.1226994E+00
         -1   -1    0    0    0  501 -0.00000000000E+00  0.00000000000E+00  0.74904208914E+02  0.74904208914E+02  0.00000000000E+00 0.  1.
          1   -1    0    0  501    0  0.00000000000E+00 -0.00000000000E+00 -0.23765659586E+03  0.23765659586E+03  0.00000000000E+00 0. -1.
          5    1    1    2  502    0 -0.91396142001E+02  0.49897365350E+02 -0.42320091132E+02  0.11247872846E+03  0.41800000000E+01 0. -1.
         -5    1    1    2    0  502  0.40086242285E+02  0.35387185265E+01 -0.26532485908E+02  0.48382585274E+02  0.41800000000E+01 0. -1.
        -11    1    1    2    0    0 -0.18363417705E+02  0.10699431300E+02 -0.50481670423E+01  0.21844379836E+02  0.00000000000E+00 0. -1.
         11    1    1    2    0    0  0.69673317421E+02 -0.64135515176E+02 -0.88851642864E+02  0.12985511121E+03  0.00000000000E+00 0.  1.
</event>
<event>
 6    1  0.8989754E-006  0.7435976E+02  0.7561462E-02  0.1345865E+00
          1   -1    0    0  501    0  0.00000000000E+00  0.00000000000E+00  0.15572273746E+03  0.15572273746E+03  0.00000000000E+00 0. -1.
         -1   -1    0    0    0  501 -0.00000000000E+00 -0.00000000000E+00 -0.84714761090E+02  0.84714761090E+02  0.00000000000E+00 0.  1.
          5    1    1    2  502    0 -0.35688563958E+02 -0.20780993653E+02  0.68352652836E+02  0.79969249367E+02  0.41800000000E+01 0.  1.
         -5    1    1    2    0  502  0.10097849263E+02 -0.49166454287E-01 -0.49604542466E+02  0.50794212370E+02  0.41800000000E+01 0.  1.
        -11    1    1    2    0    0 -0.81345063255E+01  0.50628558335E+02  0.30784948512E+02  0.59809147855E+02  0.00000000000E+00 0.  1.
         11    1    1    2    0    0  0.33725221020E+02 -0.29798398228E+02  0.21474917490E+02  0.49864888960E+02  0.00000000000E+00 0. -1.
</event>
<event>
 6    1  0.8989754E-006  0.1087810E+03  0.7561462E-02  0.1262844E+00
          1   -1    0    0  501    0  0.00000000000E+00  0.00000000000E+00  0.10338526583E+03  0.10338526583E+03  0.00000000000E+00 0. -1.
         -1   -1    0    0    0  501 -0.00000000000E+00 -0.00000000000E+00 -0.17438358875E+03  0.17438358875E+03  0.00000000000E+00 0.  1.
          5    1    1    2  502    0  0.12576495031E+02  0.28429917211E+02  0.15090685819E+02  0.34808470497E+02  0.41800000000E+01 0. -1.
         -5    1    1    2    0  502  0.56695344928E+02 -0.57120234055E+02 -0.10346312902E+03  0.13114562418E+03  0.41800000000E+01 0.  1.
        -11    1    1    2    0    0 -0.80871824937E+02  0.72087178927E+01  0.27011723475E+02  0.85567814553E+02  0.00000000000E+00 0. -1.
         11    1    1    2    0    0  0.11599984978E+02  0.21481598952E+02 -0.96376031940E+01  0.26246945353E+02  0.00000000000E+00 0.  1.
</event>
<event>
 6    1  0.8989754E-006  0.8284901E+02  0.7561462E-02  0.1321155E+00
          1   -1    0    0  501    0  0.00000000000E+00  0.00000000000E+00  0.72571570357E+03  0.72571570357E+03  0.00000000000E+00 0. -1.
         -1   -1    0    0    0  501 -0.00000000000E+00 -0.00000000000E+00 -0.22562231814E+02  0.22562231814E+02  0.00000000000E+00 0.  1.
          5    1    1    2  502    0  0.26689442224E+02 -0.23155056056E+02  0.18556559526E+03  0.18894587980E+03  0.41800000000E+01 0. -1.
         -5    1    1    2    0  502  0.18146533315E+02  0.22380952081E+02 -0.26751582538E+01  0.29237519715E+02  0.41800000000E+01 0.  1.
        -11    1    1    2    0    0 -0.65722068984E+02  0.23815589853E+02  0.38581578227E+03  0.39209742478E+03  0.00000000000E+00 0. -1.
         11    1    1    2    0    0  0.20886093444E+02 -0.23041485878E+02  0.13444725248E+03  0.13799711109E+03  0.00000000000E+00 0.  1.
</event>
<event>
 6    1  0.8989754E-006  0.1451323E+03  0.7561462E-02  0.1206585E+00
          3   -1    0    0  501    0  0.00000000000E+00  0.00000000000E+00  0.69502182824E+02  0.69502182824E+02  0.00000000000E+00 0. -1.
         -3   -1    0    0    0  501 -0.00000000000E+00 -0.00000000000E+00 -0.43575712075E+03  0.43575712075E+03  0.00000000000E+00 0.  1.
          5    1    1    2  502    0 -0.78277352042E+02  0.96094095048E+02 -0.14012182188E+03  0.18711765367E+03  0.41800000000E+01 0.  1.
         -5    1    1    2    0  502  0.33762093956E+02  0.21197809253E+02 -0.12898694554E+03  0.13507157593E+03  0.41800000000E+01 0.  1.
        -11    1    1    2    0    0  0.98429561134E+01 -0.44033967697E+02 -0.91263498365E+02  0.10180815404E+03  0.00000000000E+00 0.  1.
         11    1    1    2    0    0  0.34672301973E+02 -0.73257936603E+02 -0.58826721404E+01  0.81261919932E+02  0.00000000000E+00 0. -1.
</event>
<event>
 6    1  0.8989754E-006  0.9202191E+02  0.7561462E-02  0.1298028E+00
         -1   -1    0    0    0  501 -0.00000000000E+00  0.00000000000E+00  0.27220887755E+02  0.27220887755E+02  0.00000000000E+00 0.  1.
          1   -1    0    0  501    0  0.00000000000E+00 -0.00000000000E+00 -0.61280995352E+03  0.61280995352E+03  0.00000000000E+00 0. -1.
          5    1    1    2  502    0  0.61696074510E-01  0.42827195207E+02 -0.18427368430E+02  0.46810391613E+02  0.41800000000E+01 0. -1.
         -5    1    1    2    0  502  0.34091400067E+02  0.17727427103E+02 -0.29774375262E+03  0.30024206877E+03  0.41800000000E+01 0. -1.
        -11    1    1    2    0    0  0.24140226742E+02 -0.19998250505E+02 -0.30526742400E+02  0.43755714735E+02  0.00000000000E+00 0.  1.
         11    1    1    2    0    0 -0.58293322883E+02 -0.40556371805E+02 -0.23889120231E+03  0.24922266616E+03  0.00000000000E+00 0. -1.
</event>
<event>
 6    1  0.8989754E-006  0.1182724E+03  0.7561462E-02  0.1245975E+00
         -2   -1    0    0    0  501 -0.00000000000E+00  0.00000000000E+00  0.62615474230E+02  0.62615474230E+02  0.00000000000E+00 0.  1.
          2   -1    0    0  501    0  0.00000000000E+00 -0.00000000000E+00 -0.29890446771E+03  0.29890446771E+03  0.00000000000E+00 0. -1.
          5    1    1    2  502    0  0.87350673538E+01  0.43985566378E+02 -0.44794112283E+02  0.63521778521E+02  0.41800000000E+01 0.  1.
         -5    1    1    2    0  502  0.62824093285E+02 -0.77621488093E+02 -0.45227752019E+02  0.10970407496E+03  0.41800000000E+01 0.  1.
        -11    1    1    2    0    0 -0.40409911490E+02 -0.63140554888E+01 -0.88637279727E+01  0.41849658504E+02  0.00000000000E+00 0.  1.
         11    1    1    2    0    0 -0.31149249148E+02  0.39949977204E+02 -0.13740340121E+03  0.14644442996E+03  0.00000000000E+00 0. -1.
</event>
<event>
 6    1  0.8989754E-006  0.9406047E+02  0.7561462E-02  0.1293306E+00
         -2   -1    0    0    0  501 -0.00000000000E+00  0.00000000000E+00  0.40126720959E+02  0.40126720959E+02  0.00000000000E+00 0.  1.
          2   -1    0    0  501    0  0.00000000000E+00 -0.00000000000E+00 -0.31545421981E+03  0.31545421981E+03  0.00000000000E+00 0. -1.
          5    1    1    2  502    0  0.74535392367E+01  0.63703711005E+02 -0.13971506493E+03  0.15379040871E+03  0.41800000000E+01 0. -1.
         -5    1    1    2    0  502  0.56460355647E+01 -0.43003521896E+02 -0.13750458325E+02  0.45691663542E+02  0.41800000000E+01 0. -1.
        -11    1    1    2    0    0  0.64293615679E+01 -0.47043355034E+02 -0.11232465346E+03  0.12194770075E+03  0.00000000000E+00 0. -1.
         11    1    1    2    0    0 -0.19528936369E+02  0.26343165925E+02 -0.95373221434E+01  0.34151167774E+02  0.00000000000E+00 0.  1.
</event>
<event>
 6    1  0.9149928E-006  0.7748865E+02  0.7561462E-02  0.1336333E+00
         -1   -1    0    0    0  501 -0.00000000000E+00  0.00000000000E+00  0.27635759076E+03  0.27635759076E+03  0.00000000000E+00 0.  1.
          1   -1    0    0  501    0  0.00000000000E+00 -0.00000000000E+00 -0.59091111633E+02  0.59091111633E+02  0.00000000000E+00 0. -1.
          5    1    1    2  502    0 -0.41001247848E+02  0.11781321730E+02  0.14990520325E+03  0.15591325867E+03  0.41800000000E+01 0. -1.
         -5    1    1    2    0  502 -0.17772206052E+02 -0.41366876720E+02 -0.62143274723E+01  0.45641648343E+02  0.41800000000E+01 0. -1.
        -11    1    1    2    0    0  0.25181334422E+02  0.19418687277E+02  0.89773746840E+02  0.95239228475E+02  0.00000000000E+00 0.  1.
         11    1    1    2    0    0  0.33592119478E+02  0.10166867713E+02 -0.16198143492E+02  0.38654566906E+02  0.00000000000E+00 0. -1.
</event>
<event>
 6    1  0.8989754E-006  0.8302196E+02  0.7561462E-02  0.1320688E+00
         -2   -1    0    0    0  501 -0.00000000000E+00  0.00000000000E+00  0.23142343015E+03  0.23142343015E+03  0.00000000000E+00 0.  1.
          2   -1    0    0  501    0  0.00000000000E+00 -0.00000000000E+00 -0.59733310448E+02  0.59733310448E+02  0.00000000000E+00 0. -1.
          5    1    1    2  502    0 -0.26015550092E+02  0.30904011167E+01 -0.12130701341E+02  0.29171659889E+02  0.41800000000E+01 0.  1.
         -5    1    1    2    0  502  0.44992817874E+02 -0.23786421123E+02  0.15301805191E+03  0.16131380629E+03  0.41800000000E+01 0.  1.
        -11    1    1    2    0    0 -0.19861525086E+02  0.52759190527E+02  0.37758093329E+02  0.67850467763E+02  0.00000000000E+00 0.  1.
         11    1    1    2    0    0  0.88425730338E+00 -0.32063170520E+02 -0.69553241962E+01  0.32820806655E+02  0.00000000000E+00 0. -1.
</event>
<event>
 6    1  0.8989754E-006  0.1010614E+03  0.7561462E-02  0.1278080E+00
         -2   -1    0    0    0  501 -0.00000000000E+00  0.00000000000E+00  0.42633466084E+02  0.42633466084E+02  0.00000000000E+00 0.  1.
          2   -1    0    0  501    0  0.00000000000E+00 -0.00000000000E+00 -0.31521902299E+03  0.31521902299E+03  0.00000000000E+00 0. -1.
          5    1    1    2  502    0  0.46900919572E+02  0.69958620680E+01 -0.47522929802E+02  0.67264698020E+02  0.41800000000E+01 0.  1.
         -5    1    1    2    0  502 -0.79886415553E+02 -0.17828670089E+02 -0.67384802104E+02  0.10610318007E+03  0.41800000000E+01 0.  1.
        -11    1    1    2    0    0 -0.17698933935E+02  0.12793082465E+02 -0.34236790942E+01  0.22105130625E+02  0.00000000000E+00 0.  1.
         11    1    1    2    0    0  0.50684429916E+02 -0.19602744441E+01 -0.15425414591E+03  0.16237948036E+03  0.00000000000E+00 0. -1.
</event>
<event>
 6    1  0.8989754E-006  0.2964846E+03  0.7561462E-02  0.1087011E+00
          2   -1    0    0  501    0  0.00000000000E+00  0.00000000000E+00  0.22426792979E+03  0.22426792979E+03  0.00000000000E+00 0.  1.
         -2   -1    0    0    0  501 -0.00000000000E+00 -0.00000000000E+00 -0.50108236701E+03  0.50108236701E+03  0.00000000000E+00 0. -1.
          5    1    1    2  502    0  0.79702180028E+02  0.83365181729E+02 -0.16220656331E+03  0.19907443986E+03  0.41800000000E+01 0.  1.
         -5    1    1    2    0  502  0.24432331159E+01  0.18408625926E+03 -0.13992029881E+03  0.23127663664E+03  0.41800000000E+01 0.  1.
        -11    1    1    2    0    0 -0.31537613564E+02 -0.22543974240E+03  0.12415179075E+02  0.22797332123E+03  0.00000000000E+00 0.  1.
         11    1    1    2    0    0 -0.50607799580E+02 -0.42011698588E+02  0.12897245825E+02  0.67025899072E+02  0.00000000000E+00 0. -1.
</event>
<event>
 6    1  0.8989754E-006  0.5554005E+02  0.7561462E-02  0.1417562E+00
         -1   -1    0    0    0  501 -0.00000000000E+00  0.00000000000E+00  0.12227591525E+03  0.12227591525E+03  0.00000000000E+00 0.  1.
          1   -1    0    0  501    0  0.00000000000E+00 -0.00000000000E+00 -0.13495375569E+03  0.13495375569E+03  0.00000000000E+00 0. -1.
          5    1    1    2  502    0  0.13069029795E+02  0.52149432310E+02  0.83209291888E+02  0.99154533364E+02  0.41800000000E+01 0. -1.
         -5    1    1    2    0  502  0.43550448590E+00 -0.75600747606E+01 -0.40174339976E+02  0.41094943571E+02  0.41800000000E+01 0. -1.
        -11    1    1    2    0    0 -0.18072819275E+01 -0.28796135280E+02 -0.80402860571E+02  0.85423086242E+02  0.00000000000E+00 0. -1.
         11    1    1    2    0    0 -0.11697252353E+02 -0.15793222270E+02  0.24690068218E+02  0.31557107771E+02  0.00000000000E+00 0.  1.
</event>
<event>
 6    1  0.8989754E-006  0.1819084E+03  0.7561462E-02  0.1165969E+00
          1   -1    0    0  501    0  0.00000000000E+00  0.00000000000E+00  0.51599701274E+02  0.51599701274E+02  0.00000000000E+00 0. -1.
         -1   -1    0    0    0  501 -0.00000000000E+00 -0.00000000000E+00 -0.76069317533E+03  0.76069317533E+03  0.00000000000E+00 0.  1.
          5    1    1    2  502    0 -0.19685010432E+02 -0.44859975520E+02 -0.86530190013E+02  0.99523179325E+02  0.41800000000E+01 0.  1.
         -5    1    1    2    0  502 -0.13065111338E+03  0.56149303113E+02 -0.42883003264E+03  0.45181315492E+03  0.41800000000E+01 0.  1.
        -11    1    1    2    0    0  0.11984301378E+03  0.27584184063E+02 -0.15679539321E+03  0.19926873938E+03  0.00000000000E+00 0.  1.
         11    1    1    2    0    0  0.30493110038E+02 -0.38873511656E+02 -0.36937858201E+02  0.61687802982E+02  0.00000000000E+00 0. -1.
</event>
<event>
 6    1  0.9734992E-006  0.1943784E+03  0.7561462E-02  0.1154571E+00
         -2   -1    0    0    0  501 -0.00000000000E+00  0.00000000000E+00  0.25158584631E+02  0.25158584631E+02  0.00000000000E+00 0.  1.
          2   -1    0    0  501    0  0.00000000000E+00 -0.00000000000E+00 -0.18333899546E+04  0.18333899546E+04  0.00000000000E+00 0. -1.
          5    1    1    2  502    0  0.50756982945E+02  0.18656952826E+03 -0.10309418608E+04  0.10489247127E+04  0.41800000000E+01 0. -1.
         -5    1    1    2    0  502  0.19407824987E+01 -0.10331504797E+02 -0.87593273693E+01  0.14307510057E+02  0.41800000000E+01 0. -1.
        -11    1    1    2    0    0 -0.15899890621E+02 -0.43948866721E+02 -0.75354153992E+02  0.88671065922E+02  0.00000000000E+00 0.  1.
         11    1    1    2    0    0 -0.36797874823E+02 -0.13228915674E+03 -0.69317602779E+03  0.70664525052E+03  0.00000000000E+00 0. -1.
</event>
<event>
 6    1  0.8989754E-006  0.1237209E+03  0.7561462E-02  0.1237082E+00
          1   -1    0    0  501    0  0.00000000000E+00  0.00000000000E+00  0.82058361346E+03  0.82058361346E+03  0.00000000000E+00 0. -1.
         -1   -1    0    0    0  501 -0.00000000000E+00 -0.00000000000E+00 -0.27889462643E+02  0.27889462643E+02  0.00000000000E+00 0.  1.
          5    1    1    2  502    0 -0.97123978306E+02  0.10505003754E+01  0.18910994330E+03  0.21263634160E+03  0.41800000000E+01 0.  1.
         -5    1    1    2    0  502  0.30174655839E+02  0.17031334169E+02  0.18579165407E+02  0.39537753930E+02  0.41800000000E+01 0.  1.
        -11    1    1    2    0    0  0.29705880984E+02 -0.55234356588E+02  0.30130642717E+03  0.30776425486E+03  0.00000000000E+00 0.  1.
         11    1    1    2    0    0  0.37243441482E+02  0.37152522043E+02  0.28369861494E+03  0.28853472572E+03  0.00000000000E+00 0. -1.
</event>
<event>
 6    1  0.8989754E-006  0.1081569E+03  0.7561462E-02  0.1264022E+00
         -1   -1    0    0    0  501 -0.00000000000E+00  0.00000000000E+00  0.36618625910E+02  0.36618625910E+02  0.00000000000E+00 0.  1.
          1   -1    0    0  501    0  0.00000000000E+00 -0.00000000000E+00 -0.40746347253E+03  0.40746347253E+03  0.00000000000E+00 0. -1.
          5    1    1    2  502    0  0.72706282127E+01 -0.85515032717E+02 -0.11423683932E+03  0.14294478204E+03  0.41800000000E+01 0.  1.
         -5    1    1    2    0  502  0.68085554582E+01  0.43197605262E+02 -0.30473083859E+02  0.53464668405E+02  0.41800000000E+01 0.  1.
        -11    1    1    2    0    0 -0.61628457513E+01  0.63524084646E+02 -0.94039200579E+02  0.11365149028E+03  0.00000000000E+00 0.  1.
         11    1    1    2    0    0 -0.79163379195E+01 -0.21206657191E+02 -0.13209572286E+03  0.13402115771E+03  0.00000000000E+00 0. -1.
</event>
<event>
 6    1  0.8989754E-006  0.8715196E+02  0.7561462E-02  0.1309899E+00
          2   -1    0    0  501    0  0.00000000000E+00  0.00000000000E+00  0.15585794670E+03  0.15585794670E+03  0.00000000000E+00 0. -1.
         -2   -1    0    0    0  501 -0.00000000000E+00 -0.00000000000E+00 -0.10068089062E+03  0.10068089062E+03  0.00000000000E+00 0.  1.
          5    1    1    2  502    0  0.46870447820E+01 -0.60449578675E+02  0.85563870174E+02  0.10495126598E+03  0.41800000000E+01 0. -1.
         -5    1    1    2    0  502 -0.15441417362E+00 -0.40430023282E+01 -0.42031231269E+02  0.42431904430E+02  0.41800000000E+01 0. -1.
        -11    1    1    2    0    0 -0.40424867151E+02  0.86673233008E+01  0.11010570478E+02  0.42784635556E+02  0.00000000000E+00 0. -1.
         11    1    1    2    0    0  0.35892236543E+02  0.55825257703E+02  0.63384669048E+00  0.66371031356E+02  0.00000000000E+00 0.  1.
</event>
<event>
 6    1  0.8989754E-006  0.9102800E+02  0.7561462E-02  0.1300381E+00
          2   -1    0    0  501    0  0.00000000000E+00  0.00000000000E+00  0.21704634096E+03  0.21704634096E+03  0.00000000000E+00 0. -1.
         -2   -1    0    0    0  501 -0.00000000000E+00 -0.00000000000E+00 -0.54775420696E+02  0.54775420696E+02  0.00000000000E+00 0.  1.
          5    1    1    2  502    0 -0.26438488267E+02 -0.46814038621E+02  0.10339166241E+03  0.11660984577E+03  0.41800000000E+01 0. -1.
         -5    1    1    2    0  502  0.34081551760E+02  0.64452047083E+01 -0.10014404734E+02  0.36343548758E+02  0.41800000000E+01 0.  1.
        -11    1    1    2    0    0 -0.45740161850E+02  0.19164564956E+02  0.52679987794E+02  0.72350701932E+02  0.00000000000E+00 0. -1.
         11    1    1    2    0    0  0.38097098357E+02  0.21204268957E+02  0.16213674794E+02  0.46517665199E+02  0.00000000000E+00 0.  1.
</event>
<event>
 6    1  0.8989754E-006  0.8452335E+02  0.7561462E-02  0.1316684E+00
         -2   -1    0    0    0  501 -0.00000000000E+00  0.00000000000E+00  0.86622777609E+02  0.86622777609E+02  0.00000000000E+00 0.  1.
          2   -1    0    0  501    0  0.00000000000E+00 -0.00000000000E+00 -0.13984627684E+03  0.13984627684E+03  0.00000000000E+00 0. -1.
          5    1    1    2  502    0 -0.38222162671E+02  0.42614923954E+02 -0.42283336658E+02  0.71290380990E+02  0.41800000000E+01 0. -1.
         -5    1    1    2    0  502  0.46312829025E+02 -0.20981036358E+02  0.25474395593E+02  0.57021919030E+02  0.41800000000E+01 0. -1.
        -11    1    1    2    0    0  0.23314122872E+02 -0.15689973676E+01 -0.52576896797E+02  0.57535555571E+02  0.00000000000E+00 0. -1.
         11    1    1    2    0    0 -0.31404789226E+02 -0.20064890228E+02  0.16162338634E+02  0.40621198854E+02  0.00000000000E+00 0.  1.
</event>
<event>
 6    1  0.8989754E-006  0.1206834E+03  0.7561462E-02  0.1241974E+00
         -1   -1    0    0    0  501 -0.00000000000E+00  0.00000000000E+00  0.79293019879E+03  0.79293019879E+03  0.00000000000E+00 0.  1.
          1   -1    0    0  501    0  0.00000000000E+00 -0.00000000000E+00 -0.22963226438E+02  0.22963226438E+02  0.00000000000E+00 0. -1.
          5    1    1    2  502    0  0.33240981736E+02  0.77997561130E+02  0.21271496785E+03  0.22902775455E+03  0.41800000000E+01 0. -1.
         -5    1    1    2    0  502  0.30825727566E+02 -0.39016458456E+02  0.29621719672E+03  0.30039076142E+03  0.41800000000E+01 0. -1.
        -11    1    1    2    0    0  0.17553851934E+02 -0.77158235125E+01  0.11257874092E+03  0.11420001995E+03  0.00000000000E+00 0.  1.
         11    1    1    2    0    0 -0.81620561236E+02 -0.31265279161E+02  0.14845606686E+03  0.17227488931E+03  0.00000000000E+00 0. -1.
</event>
<event>
 6    1  0.8989754E-006  0.2442604E+03  0.7561462E-02  0.1116987E+00
          2   -1    0    0  501    0  0.00000000000E+00  0.00000000000E+00  0.13618302941E+04  0.13618302941E+04  0.00000000000E+00 0. -1.
         -2   -1    0    0    0  501 -0.00000000000E+00 -0.00000000000E+00 -0.51841199507E+02  0.51841199507E+02  0.00000000000E+00 0.  1.
          5    1    1    2  502    0 -0.15116747029E+03  0.13719203385E+03  0.55904447359E+03  0.59516506456E+03  0.41800000000E+01 0.  1.
         -5    1    1    2    0  502 -0.10822747683E+02  0.39640656100E+02  0.24517672035E+02  0.48032302937E+02  0.41800000000E+01 0.  1.
        -11    1    1    2    0    0  0.73810156684E+02 -0.10964649724E+03  0.26784184525E+03  0.29867967399E+03  0.00000000000E+00 0.  1.
         11    1    1    2    0    0  0.88180061286E+02 -0.67186192709E+02  0.45858510372E+03  0.47179445213E+03  0.00000000000E+00 0. -1.
</event>
<event>
 6    1  0.8989754E-006  0.1210287E+03  0.7561462E-02  0.1241410E+00
          2   -1    0    0  501    0  0.00000000000E+00  0.00000000000E+00  0.51801968848E+03  0.51801968848E+03  0.00000000000E+00 0. -1.
         -2   -1    0    0    0  501 -0.00000000000E+00 -0.00000000000E+00 -0.38628305497E+02  0.38628305497E+02  0.00000000000E+00 0.  1.
          5    1    1    2  502    0  0.90236485457E+02  0.33566966082E+02  0.91232559605E+02  0.13270349224E+03  0.41800000000E+01 0.  1.
         -5    1    1    2    0  502 -0.27253333567E+01 -0.20334113549E+02  0.16150263170E+03  0.16285415580E+03  0.41800000000E+01 0.  1.
        -11    1    1    2    0    0 -0.62023547934E+02  0.34256520554E+02  0.92548308173E+02  0.11655736375E+03  0.00000000000E+00 0.  1.
         11    1    1    2    0    0 -0.25487604165E+02 -0.47489373087E+02  0.13410788350E+03  0.14453298219E+03  0.00000000000E+00 0. -1.
</event>
<event>
 6    1  0.8989754E-006  0.8013406E+02  0.7561462E-02  0.1328671E+00
         -3   -1    0    0    0  501 -0.00000000000E+00  0.00000000000E+00  0.31703169941E+03  0.31703169941E+03  0.00000000000E+00 0.  1.
          3   -1    0    0  501    0  0.00000000000E+00 -0.00000000000E+00 -0.45188995326E+02  0.45188995326E+02  0.00000000000E+00 0. -1.
          5    1    1    2  502    0  0.71499418142E+01  0.33542603246E+02  0.22423408635E+03  0.22688020139E+03  0.41800000000E+01 0. -1.
         -5    1    1    2    0  502 -0.48146392920E+01 -0.35921933613E+02  0.86141224631E+01  0.37486551879E+02  0.41800000000E+01 0. -1.
        -11    1    1    2    0    0 -0.18016705565E+02  0.42498502087E+02  0.14938220004E+02  0.48516747376E+02  0.00000000000E+00 0. -1.
         11    1    1    2    0    0  0.15681403043E+02 -0.40119171720E+02  0.24056275259E+02  0.49337194086E+02  0.00000000000E+00 0.  1.
</event>
<event>
 6    1  0.8989754E-006  0.1521371E+03  0.7561462E-02  0.1197871E+00
          2   -1    0    0  501    0  0.00000000000E+00  0.00000000000E+00  0.83379863519E+03  0.83379863519E+03  0.00000000000E+00 0. -1.
         -2   -1    0    0    0  501 -0.00000000000E+00 -0.00000000000E+00 -0.37333861099E+02  0.37333861099E+02  0.00000000000E+00 0.  1.
          5    1    1    2  502    0  0.17421748317E+02 -0.52442612695E+02  0.30992982836E+02  0.63496317419E+02  0.41800000000E+01 0. -1.
         -5    1    1    2    0  502  0.99423692685E+02  0.80274730284E+01  0.24184414032E+03  0.26164015669E+03  0.41800000000E+01 0. -1.
        -11    1    1    2    0    0 -0.27371349874E+02 -0.23987795517E+02  0.20116675534E+03  0.20443255265E+03  0.00000000000E+00 0. -1.
         11    1    1    2    0    0 -0.89474091128E+02  0.68402935184E+02  0.32246089560E+03  0.34156346953E+03  0.00000000000E+00 0.  1.
</event>
<event>
 6    1  0.8989754E-006  0.2471887E+03  0.7561462E-02  0.1115095E+00
         -2   -1    0    0    0  501 -0.00000000000E+00  0.00000000000E+00  0.98570911102E+02  0.98570911102E+02  0.00000000000E+00 0.  1.
          2   -1    0    0  501    0  0.00000000000E+00 -0.00000000000E+00 -0.86346155976E+03  0.86346155976E+03  0.00000000000E+00 0. -1.
          5    1    1    2  502    0  0.22919326985E+03 -0.24481739204E+02 -0.11093658656E+03  0.25583844343E+03  0.41800000000E+01 0. -1.
         -5    1    1    2    0  502 -0.12097954781E+01  0.16975260683E+02 -0.42899171097E+02  0.46340418224E+02  0.41800000000E+01 0. -1.
        -11    1    1    2    0    0 -0.15503284024E+03 -0.38924916315E+02 -0.44100819278E+03  0.46908267583E+03  0.00000000000E+00 0. -1.
         11    1    1    2    0    0 -0.72950634137E+02  0.46431394836E+02 -0.17004669822E+03  0.19077093338E+03  0.00000000000E+00 0.  1.
</event>
<event>
 6    1  0.8989754E-006  0.9615148E+02  0.7561462E-02  0.1288604E+00
          1   -1    0    0  501    0  0.00000000000E+00  0.00000000000E+00  0.19011290899E+03  0.19011290899E+03  0.00000000000E+00 0. -1.
         -1   -1    0    0    0  501 -0.00000000000E+00 -0.00000000000E+00 -0.90580429002E+02  0.90580429002E+02  0.00000000000E+00 0.  1.
          5    1    1    2  502    0 -0.60095728690E+01  0.21488292304E+01  0.72858951726E+02  0.73257297792E+02  0.41800000000E+01 0. -1.
         -5    1    1    2    0  502 -0.52547265457E+02 -0.42831405695E+02 -0.33889985005E+02  0.75906178302E+02  0.41800000000E+01 0. -1.
        -11    1    1    2    0    0 -0.12428840346E+02  0.43968491199E+02  0.24217968486E+02  0.51712805844E+02  0.00000000000E+00 0. -1.
         11    1    1    2    0    0  0.70985678672E+02 -0.32859147347E+01  0.36345544785E+02  0.79817056059E+02  0.00000000000E+00 0.  1.
</event>
<event>
 6    1  0.8989754E-006  0.1146029E+03  0.7561462E-02  0.1252276E+00
         -1   -1    0    0    0  501 -0.00000000000E+00  0.00000000000E+00  0.36797803906E+03  0.36797803906E+03  0.00000000000E+00 0.  1.
          1   -1    0    0  501    0  0.00000000000E+00 -0.00000000000E+00 -0.10289004688E+03  0.10289004688E+03  0.00000000000E+00 0. -1.
          5    1    1    2  502    0 -0.25101229968E+02  0.93046272112E+02  0.15837387812E+03  0.18543850240E+03  0.41800000000E+01 0. -1.
         -5    1    1    2    0  502 -0.34105370174E+02 -0.34561782638E+02  0.14750681170E+03  0.15534936431E+03  0.41800000000E+01 0. -1.
        -11    1    1    2    0    0  0.29840910178E+02 -0.37449188235E+02  0.25747246479E+02  0.54367658777E+02  0.00000000000E+00 0.  1.
         11    1    1    2    0    0  0.29365689964E+02 -0.21035301240E+02 -0.66539944129E+02  0.75712560450E+02  0.00000000000E+00 0. -1.
</event>
<event>
 6    1  0.8989754E-006  0.1014586E+03  0.7561462E-02  0.1277258E+00
         -1   -1    0    0    0  501 -0.00000000000E+00  0.00000000000E+00  0.81729751186E+02  0.81729751186E+02  0.00000000000E+00 0.  1.
          1   -1    0    0  501    0  0.00000000000E+00 -0.00000000000E+00 -0.23833955757E+03  0.23833955757E+03  0.00000000000E+00 0. -1.
          5    1    1    2  502    0 -0.62437417421E+02  0.13082954898E+01 -0.78191296898E+01  0.63077364564E+02  0.41800000000E+01 0. -1.
         -5    1    1    2    0  502  0.46308721341E+02 -0.61628900376E+02 -0.70746230910E+01  0.77525103842E+02  0.41800000000E+01 0. -1.
        -11    1    1    2    0    0  0.59065670319E+01  0.87904019546E+01  0.12596523747E+02  0.16456947199E+02  0.00000000000E+00 0.  1.
         11    1    1    2    0    0  0.10222129047E+02  0.51530202932E+02 -0.15431257735E+03  0.16300989315E+03  0.00000000000E+00 0. -1.
</event>
<event>
 6    1  0.8989754E-006  0.8020048E+02  0.7561462E-02  0.1328483E+00
          1   -1    0    0  501    0  0.00000000000E+00  0.00000000000E+00  0.40786746257E+03  0.40786746257E+03  0.00000000000E+00 0. -1.
         -1   -1    0    0    0  501 -0.00000000000E+00 -0.00000000000E+00 -0.33076081494E+02  0.33076081494E+02  0.00000000000E+00 0.  1.
          5    1    1    2  502    0  0.17500585151E+02  0.32703506887E+02  0.18372504070E+03  0.18747840629E+03  0.41800000000E+01 0. -1.
         -5    1    1    2    0  502  0.12604521078E+02 -0.30457564375E+02 -0.41060207118E+01  0.33479381496E+02  0.41800000000E+01 0. -1.
        -11    1    1    2    0    0 -0.58371163982E+02 -0.12653084972E+02  0.73846757674E+02  0.94977033871E+02  0.00000000000E+00 0.  1.
         11    1    1    2    0    0  0.28266057753E+02  0.10407142460E+02  0.12132560341E+03  0.12500872241E+03  0.00000000000E+00 0. -1.
</event>
<event>
 6    1  0.8989754E-006  0.8506503E+02  0.7561462E-02  0.1315263E+00
         -2   -1    0    0    0  501 -0.00000000000E+00  0.00000000000E+00  0.18379799591E+03  0.18379799591E+03  0.00000000000E+00 0.  1.
          2   -1    0    0  501    0  0.00000000000E+00 -0.00000000000E+00 -0.73646684419E+02  0.73646684419E+02  0.00000000000E+00 0. -1.
          5    1    1    2  502    0 -0.35043667506E+02 -0.44191402641E+01  0.70035734132E+02  0.78549754222E+02  0.41800000000E+01 0. -1.
         -5    1    1    2    0  502  0.73535719321E+02 -0.63166962985E+01  0.83747934202E+01  0.74397662820E+02  0.41800000000E+01 0. -1.
        -11    1    1    2    0    0 -0.48752119656E+02  0.53358705820E+01  0.57902721066E+02  0.75881261143E+02  0.00000000000E+00 0.  1.
         11    1    1    2    0    0  0.10260067841E+02  0.53999659806E+01 -0.26161937126E+02  0.28616002147E+02  0.00000000000E+00 0. -1.
</event>
<event>
 6    1  0.8989754E-006  0.1657686E+03  0.7561462E-02  0.1182334E+00
         -1   -1    0    0    0  501 -0.00000000000E+00  0.00000000000E+00  0.17862708038E+03  0.17862708038E+03  0.00000000000E+00 0.  1.
          1   -1    0    0  501    0  0.00000000000E+00 -0.00000000000E+00 -0.22008439910E+03  0.22008439910E+03  0.00000000000E+00 0. -1.
          5    1    1    2  502    0 -0.59091131471E+02  0.50300234306E+02  0.68227543172E+02  0.10341346835E+03  0.41800000000E+01 0. -1.
         -5    1    1    2    0  502 -0.85777660072E+02  0.17347632767E+02 -0.49194083047E+02  0.10048023456E+03  0.41800000000E+01 0. -1.
        -11    1    1    2    0    0  0.39794357823E+02 -0.42390425148E+02  0.18437872382E+02  0.60995853931E+02  0.00000000000E+00 0.  1.
         11    1    1    2    0    0  0.10507443372E+03 -0.25257441925E+02 -0.78928651221E+02  0.13382192264E+03  0.00000000000E+00 0. -1.
</event>
<event>
 6    1  0.8989754E-006  0.1515868E+03  0.7561462E-02  0.1198537E+00
          2   -1    0    0  501    0  0.00000000000E+00  0.00000000000E+00  0.48917419376E+02  0.48917419376E+02  0.00000000000E+00 0. -1.
         -2   -1    0    0    0  501 -0.00000000000E+00 -0.00000000000E+00 -0.49679287199E+03  0.49679287199E+03  0.00000000000E+00 0.  1.
          5    1    1    2  502    0  0.56862461442E+02 -0.12133757412E+03 -0.25672334250E+03  0.28962129307E+03  0.41800000000E+01 0.  1.
         -5    1    1    2    0  502 -0.21697557297E+02  0.19324166508E+02 -0.35500512657E+02  0.46064804382E+02  0.41800000000E+01 0.  1.
        -11    1    1    2    0    0 -0.46254012136E+02  0.10319007935E+02 -0.39988459634E+02  0.62008003252E+02  0.00000000000E+00 0. -1.
         11    1    1    2    0    0  0.11089107991E+02  0.91694399674E+02 -0.11566313782E+03  0.14801619066E+03  0.00000000000E+00 0.  1.
</event>
<event>
 6    1  0.8989754E-006  0.1641160E+03  0.7561462E-02  0.1184127E+00
         -2   -1    0    0    0  501 -0.00000000000E+00  0.00000000000E+00  0.25695933522E+03  0.25695933522E+03  0.00000000000E+00 0.  1.
          2   -1    0    0  501    0  0.00000000000E+00 -0.00000000000E+00 -0.14162364010E+03  0.14162364010E+03  0.00000000000E+00 0. -1.
          5    1    1    2  502    0 -0.19592245535E+02 -0.62263981484E+02 -0.31548852379E+02  0.72618606168E+02  0.41800000000E+01 0.  1.
         -5    1    1    2    0  502 -0.97829354587E+02 -0.41109902222E+02  0.81372612750E+02  0.13378931641E+03  0.41800000000E+01 0.  1.
        -11    1    1    2    0    0  0.71215385717E+02  0.57705802954E+02  0.84316090270E+02  0.12454233793E+03  0.00000000000E+00 0.  1.
         11    1    1    2    0    0  0.46206214404E+02  0.45668080752E+02 -0.18804155521E+02  0.67632714821E+02  0.00000000000E+00 0. -1.
</event>
<event>
 6    1  0.8989754E-006  0.1022130E+03  0.7561462E-02  0.1275710E+00
          2   -1    0    0  501    0  0.00000000000E+00  0.00000000000E+00  0.22615857981E+02  0.22615857981E+02  0.00000000000E+00 0. -1.
         -2   -1    0    0    0  501 -0.00000000000E+00 -0.00000000000E+00 -0.69102127203E+03  0.69102127203E+03  0.00000000000E+00 0.  1.
          5    1    1    2  502    0 -0.57049852154E+02  0.14519764196E+02 -0.69749461785E+02  0.91367220612E+02  0.41800000000E+01 0.  1.
         -5    1    1    2    0  502  0.22625770737E+02  0.37055003530E+02 -0.31348797176E+03  0.31650778763E+03  0.41800000000E+01 0.  1.
        -11    1    1    2    0    0  0.37834028640E+02 -0.71865695335E+02 -0.16567875327E+03  0.18451433867E+03  0.00000000000E+00 0.  1.
         11    1    1    2    0    0 -0.34099472238E+01  0.20290927609E+02 -0.11948922722E+03  0.12124778310E+03  0.00000000000E+00 0. -1.
</event>
<event>
 6    1  0.8989754E-006  0.9200942E+02  0.7561462E-02  0.1298057E+00
          3   -1    0    0  501    0  0.00000000000E+00  0.00000000000E+00  0.79247758756E+02  0.79247758756E+02  0.00000000000E+00 0. -1.
         -3   -1    0    0    0  501 -0.00000000000E+00 -0.00000000000E+00 -0.17131183274E+03  0.17131183274E+03  0.00000000000E+00 0.  1.
          5    1    1    2  502    0 -0.17991761047E+02 -0.62177923904E+02  0.18213219800E+02  0.67372037687E+02  0.41800000000E+01 0. -1.
         -5    1    1    2    0  502 -0.31308148011E+01  0.23062971360E+02 -0.72139451873E+02  0.75916240462E+02  0.41800000000E+01 0. -1.
        -11    1    1    2    0    0 -0.97945011219E+01 -0.23619294078E+02  0.36049986994E+01  0.25822457679E+02  0.00000000000E+00 0. -1.
         11    1    1    2    0    0  0.30917076970E+02  0.62734246622E+02 -0.41742840610E+02  0.81448855669E+02  0.00000000000E+00 0.  1.
</event>
<event>
 6    1  0.8989754E-006  0.1309587E+03  0.7561462E-02  0.1226040E+00
         -1   -1    0    0    0  501 -0.00000000000E+00  0.00000000000E+00  0.63044950229E+03  0.63044950229E+03  0.00000000000E+00 0.  1.
          1   -1    0    0  501    0  0.00000000000E+00 -0.00000000000E+00 -0.30089041763E+02  0.30089041763E+02  0.00000000000E+00 0. -1.
          5    1    1    2  502    0 -0.10776597891E+03 -0.21192890352E+01  0.25454277868E+03  0.27645523359E+03  0.41800000000E+01 0.  1.
         -5    1    1    2    0  502  0.28696472634E+02  0.30606040051E+02  0.78799473027E+02  0.89370277937E+02  0.41800000000E+01 0.  1.
        -11    1    1    2    0    0 -0.71138269089E+01 -0.24608826057E+02  0.18365775521E+02  0.31519875692E+02  0.00000000000E+00 0. -1.
         11    1    1    2    0    0  0.86183333189E+02 -0.38779249591E+01  0.24865243329E+03  0.26319315683E+03  0.00000000000E+00 0.  1.
</event>
<event>
 6    1  0.8989754E-006  0.1077914E+03  0.7561462E-02  0.1264715E+00
         -3   -1    0    0    0  501 -0.00000000000E+00  0.00000000000E+00  0.62872826007E+02  0.62872826007E+02  0.00000000000E+00 0.  1.
          3   -1    0    0  501    0  0.00000000000E+00 -0.00000000000E+00 -0.21403886812E+03  0.21403886812E+03  0.00000000000E+00 0. -1.
          5    1    1    2  502    0  0.20487353686E+02  0.45513359491E+02 -0.23723860978E+02  0.55421038721E+02  0.41800000000E+01 0. -1.
         -5    1    1    2    0  502 -0.22705909816E+01 -0.81044592395E+02 -0.42850337953E+02  0.91798722227E+02  0.41800000000E+01 0. -1.
        -11    1    1    2    0    0 -0.23236626259E+02 -0.18713773383E+02 -0.92114874851E+00  0.29849533148E+02  0.00000000000E+00 0.  1.
         11    1    1    2    0    0  0.50198635548E+01  0.54245006286E+02 -0.83670694435E+02  0.99842400033E+02  0.00000000000E+00 0. -1.
</event>
<event>
 6    1  0.8989754E-006  0.9421280E+02  0.7561462E-02  0.1292959E+00
          2   -1    0    0  501    0  0.00000000000E+00  0.00000000000E+00  0.54979032661E+02  0.54979032661E+02  0.00000000000E+00 0.  1.
         -2   -1    0    0    0  501 -0.00000000000E+00 -0.00000000000E+00 -0.35446275080E+03  0.35446275080E+03  0.00000000000E+00 0. -1.
          5    1    1    2  502    0  0.23456129395E+02 -0.48351896299E+02 -0.21507471099E+03  0.22172663257E+03  0.41800000000E+01 0. -1.
         -5    1    1    2    0  502  0.22568986836E+02 -0.20620725096E+02  0.99644366256E+01  0.32424309824E+02  0.41800000000E+01 0. -1.
        -11    1    1    2    0    0 -0.48182523801E+02  0.16174572042E+02 -0.44869676145E+01  0.51022595572E+02  0.00000000000E+00 0.  1.
         11    1    1    2    0    0  0.21574075703E+01  0.52798049353E+02 -0.89886476159E+02  0.10426824550E+03  0.00000000000E+00 0. -1.
</event>
<event>
 6    1  0.8989754E-006  0.1736709E+03  0.7561462E-02  0.1174073E+00
         -1   -1    0    0    0  501 -0.00000000000E+00  0.00000000000E+00  0.32493253271E+02  0.32493253271E+02  0.00000000000E+00 0.  1.
          1   -1    0    0  501    0  0.00000000000E+00 -0.00000000000E+00 -0.11314532484E+04  0.11314532484E+04  0.00000000000E+00 0. -1.
          5    1    1    2  502    0  0.10478410746E+03 -0.24394406202E+02 -0.23350999830E+03  0.25713651615E+03  0.41800000000E+01 0. -1.
         -5    1    1    2    0  502  0.13119328725E+02 -0.78768733858E+02 -0.37913739812E+03  0.38747808877E+03  0.41800000000E+01 0. -1.
        -11    1    1    2    0    0 -0.59679825214E+02  0.72509783823E+02 -0.15250483555E+03  0.17910074024E+03  0.00000000000E+00 0.  1.
         11    1    1    2    0    0 -0.58223610971E+02  0.30653356237E+02 -0.33380776315E+03  0.34023115652E+03  0.00000000000E+00 0. -1.
</event>
<event>
 6    1  0.8989754E-006  0.9865507E+02  0.7561462E-02  0.1283150E+00
          1   -1    0    0  501    0  0.00000000000E+00  0.00000000000E+00  0.11167176120E+04  0.11167176120E+04  0.00000000000E+00 0. -1.
         -1   -1    0    0    0  501 -0.00000000000E+00 -0.00000000000E+00 -0.15202371695E+02  0.15202371695E+02  0.00000000000E+00 0.  1.
          5    1    1    2  502    0  0.48492927325E+01  0.53591039952E+01 -0.38932924721E+01  0.92122614982E+01  0.41800000000E+01 0.  1.
         -5    1    1    2    0  502 -0.70045611681E+02  0.28946623078E+02  0.57809097332E+03  0.58305311982E+03  0.41800000000E+01 0.  1.
        -11    1    1    2    0    0 -0.15823256933E+02  0.11888037492E+02  0.61983403458E+02  0.65066452183E+02  0.00000000000E+00 0.  1.
         11    1    1    2    0    0  0.81019575882E+02 -0.46193764565E+02  0.46533415596E+03  0.47458815015E+03  0.00000000000E+00 0. -1.
</event>
<event>
 6    1  0.8989754E-006  0.2160383E+03  0.7561462E-02  0.1136872E+00
          2   -1    0    0  501    0  0.00000000000E+00  0.00000000000E+00  0.49185278868E+03  0.49185278868E+03  0.00000000000E+00 0. -1.
         -2   -1    0    0    0  501 -0.00000000000E+00 -0.00000000000E+00 -0.11515389128E+03  0.11515389128E+03  0.00000000000E+00 0.  1.
          5    1    1    2  502    0 -0.15969315042E+03  0.11069987197E+03  0.12385188330E+03  0.23046285025E+03  0.41800000000E+01 0. -1.
         -5    1    1    2    0  502  0.90823361309E+02 -0.78673938313E+02  0.30386700000E+02  0.12401328746E+03  0.41800000000E+01 0.  1.
        -11    1    1    2    0    0 -0.17717657078E+02  0.10944379477E+02  0.59721413579E+02  0.63248257322E+02  0.00000000000E+00 0. -1.
         11    1    1    2    0    0  0.86587446191E+02 -0.42970313132E+02  0.16273890052E+03  0.18928228494E+03  0.00000000000E+00 0.  1.
</event>
<event>
 6    1  0.8989754E-006  0.9490706E+02  0.7561462E-02  0.1291386E+00
          1   -1    0    0  501    0  0.00000000000E+00  0.00000000000E+00  0.10923559327E+03  0.10923559327E+03  0.00000000000E+00 0. -1.
         -1   -1    0    0    0  501 -0.00000000000E+00 -0.00000000000E+00 -0.19284707001E+03  0.19284707001E+03  0.00000000000E+00 0.  1.
          5    1    1    2  502    0  0.30496805447E+01  0.74486566204E+02 -0.10585313664E+03  0.12953728434E+03  0.41800000000E+01 0. -1.
         -5    1    1    2    0  502 -0.44127886758E+02 -0.29585897448E+02 -0.16646291971E+02  0.55831596376E+02  0.41800000000E+01 0. -1.
        -11    1    1    2    0    0  0.54211438722E+01 -0.12708993024E+02  0.61917255580E+02  0.63440159545E+02  0.00000000000E+00 0. -1.
         11    1    1    2    0    0  0.35657062341E+02 -0.32191675732E+02 -0.23029303700E+02  0.53273623024E+02  0.00000000000E+00 0.  1.
</event>
<event>
 6    1  0.8989754E-006  0.1768090E+03  0.7561462E-02  0.1170928E+00
          4   -1    0    0  501    0  0.00000000000E+00  0.00000000000E+00  0.11092079188E+03  0.11092079188E+03  0.00000000000E+00 0. -1.
         -4   -1    0    0    0  501 -0.00000000000E+00 -0.00000000000E+00 -0.33167382575E+03  0.33167382575E+03  0.00000000000E+00 0.  1.
          5    1    1    2  502    0  0.46271477777E+02 -0.13585775547E+03 -0.10939901016E+03  0.18051037422E+03  0.41800000000E+01 0.  1.
         -5    1    1    2    0  502  0.47995040857E+02  0.16341326980E+02 -0.65564994908E+02  0.82986769256E+02  0.41800000000E+01 0.  1.
        -11    1    1    2    0    0 -0.56858977823E+02  0.35075942018E+02  0.15078778151E+02  0.68488207876E+02  0.00000000000E+00 0. -1.
         11    1    1    2    0    0 -0.37407540810E+02  0.84440486470E+02 -0.60867806945E+02  0.11060926628E+03  0.00000000000E+00 0.  1.
</event>
<event>
 6    1  0.8989754E-006  0.1054669E+03  0.7561462E-02  0.1269202E+00
          1   -1    0    0  501    0  0.00000000000E+00  0.00000000000E+00  0.58733990003E+03  0.58733990003E+03  0.00000000000E+00 0. -1.
         -1   -1    0    0    0  501 -0.00000000000E+00 -0.00000000000E+00 -0.20660686784E+02  0.20660686784E+02  0.00000000000E+00 0.  1.
          5    1    1    2  502    0  0.27745818866E+02  0.46973770009E+02  0.14244459662E+03  0.15259194291E+03  0.41800000000E+01 0.  1.
         -5    1    1    2    0  502 -0.13436401950E+02 -0.72299341644E+02  0.17903810081E+03  0.19359712198E+03  0.41800000000E+01 0.  1.
        -11    1    1    2    0    0 -0.10187358882E+02  0.53310373281E+02  0.20866881414E+03  0.21561180899E+03  0.00000000000E+00 0. -1.
         11    1    1    2    0    0 -0.41220580339E+01 -0.27984801645E+02  0.36527701676E+02  0.46199712935E+02  0.00000000000E+00 0.  1.
</event>
<event>
 6    1  0.8989754E-006  0.1566929E+03  0.7561462E-02  0.1192482E+00
         -3   -1    0    0    0  501 -0.00000000000E+00  0.00000000000E+00  0.15159477302E+03  0.15159477302E+03  0.00000000000E+00 0.  1.
          3   -1    0    0  501    0  0.00000000000E+00 -0.00000000000E+00 -0.22390063750E+03  0.22390063750E+03  0.00000000000E+00 0. -1.
          5    1    1    2  502    0 -0.47887941504E+02 -0.25822151932E+02  0.62494812589E+02  0.82964525385E+02  0.41800000000E+01 0.  1.
         -5    1    1    2    0  502 -0.88542983749E+02 -0.17778406689E+02 -0.57715336400E+02  0.10725886523E+03  0.41800000000E+01 0.  1.
        -11    1    1    2    0    0  0.12461257054E+03  0.67522253912E+02 -0.66686847110E+02  0.15663551030E+03  0.00000000000E+00 0.  1.
         11    1    1    2    0    0  0.11818354716E+02 -0.23921695292E+02 -0.10398493561E+02  0.28636509602E+02  0.00000000000E+00 0. -1.
</event>
<event>
 6    1  0.8989754E-006  0.9788073E+02  0.7561462E-02  0.1284817E+00
         -2   -1    0    0    0  501 -0.00000000000E+00  0.00000000000E+00  0.25108507868E+03  0.25108507868E+03  0.00000000000E+00 0. -1.
          2   -1    0    0  501    0  0.00000000000E+00 -0.00000000000E+00 -0.52255853155E+02  0.52255853155E+02  0.00000000000E+00 0.  1.
          5    1    1    2  502    0  0.67402595304E+02  0.80731343098E+01  0.20852507330E+02  0.71137787520E+02  0.41800000000E+01 0.  1.
         -5    1    1    2    0  502 -0.29493254943E+02 -0.12088773208E+02  0.10710754203E+03  0.11182794143E+03  0.41800000000E+01 0.  1.
        -11    1    1    2    0    0 -0.62547779876E+02  0.20655271455E+02  0.58769620879E+02  0.88276459742E+02  0.00000000000E+00 0. -1.
         11    1    1    2    0    0  0.24638439515E+02 -0.16639632557E+02  0.12099555290E+02  0.32098743146E+02  0.00000000000E+00 0.  1.
</event>
<event>
 6    1  0.8989754E-006  0.2796964E+03  0.7561462E-02  0.1095855E+00
         -2   -1    0    0    0  501 -0.00000000000E+00  0.00000000000E+00  0.14197225934E+03  0.14197225934E+03  0.00000000000E+00 0.  1.
          2   -1    0    0  501    0  0.00000000000E+00 -0.00000000000E+00 -0.57052369528E+03  0.57052369528E+03  0.00000000000E+00 0. -1.
          5    1    1    2  502    0  0.20184079605E+03 -0.11028464216E+03 -0.21374834280E+03  0.31401948299E+03  0.41800000000E+01 0.  1.
         -5    1    1    2    0  502  0.50029214018E+02  0.34025054814E+02 -0.42997418515E+02  0.74342968795E+02  0.41800000000E+01 0.  1.
        -11    1    1    2    0    0 -0.75992112310E+02 -0.24132408833E+01 -0.81140768204E+02  0.11119554456E+03  0.00000000000E+00 0.  1.
         11    1    1    2    0    0 -0.17587789776E+03  0.78672828226E+02 -0.90664906425E+02  0.21293795828E+03  0.00000000000E+00 0. -1.
</event>
<event>
 6    1  0.8989754E-006  0.1363943E+03  0.7561462E-02  0.1218265E+00
          2   -1    0    0  501    0  0.00000000000E+00  0.00000000000E+00  0.55502853309E+03  0.55502853309E+03  0.00000000000E+00 0.  1.
         -2   -1    0    0    0  501 -0.00000000000E+00 -0.00000000000E+00 -0.50326913064E+02  0.50326913064E+02  0.00000000000E+00 0. -1.
          5    1    1    2  502    0 -0.12510397857E+03 -0.37720763338E+02  0.90714524345E+02  0.15912403580E+03  0.41800000000E+01 0.  1.
         -5    1    1    2    0  502  0.16067935843E+02  0.57728696998E+01  0.76938736355E+02  0.78921138732E+02  0.41800000000E+01 0.  1.
        -11    1    1    2    0    0  0.78259916819E+02 -0.24793218811E+01  0.29375680252E+03  0.30401286263E+03  0.00000000000E+00 0.  1.
         11    1    1    2    0    0  0.30776125912E+02  0.34427215519E+02  0.43291556805E+02  0.63297408993E+02  0.00000000000E+00 0. -1.
</event>
<event>
 6    1  0.8989754E-006  0.1225680E+03  0.7561462E-02  0.1238920E+00
         -1   -1    0    0    0  501 -0.00000000000E+00  0.00000000000E+00  0.14964512444E+03  0.14964512444E+03  0.00000000000E+00 0.  1.
          1   -1    0    0  501    0  0.00000000000E+00 -0.00000000000E+00 -0.15159089588E+03  0.15159089588E+03  0.00000000000E+00 0. -1.
          5    1    1    2  502    0  0.44024904080E+02 -0.73482974565E+02 -0.21606501763E+02  0.88443502015E+02  0.41800000000E+01 0.  1.
         -5    1    1    2    0  502  0.47492314120E+02  0.31108997253E+02  0.47852866249E+02  0.74368399330E+02  0.41800000000E+01 0.  1.
        -11    1    1    2    0    0 -0.22938358209E+02  0.19634319451E+02  0.32284186663E+02  0.44203432968E+02  0.00000000000E+00 0.  1.
         11    1    1    2    0    0 -0.68578859992E+02  0.22739657861E+02 -0.60476322590E+02  0.94220686006E+02  0.00000000000E+00 0. -1.
</event>
<event>
 6    1  0.8989754E-006  0.1193360E+03  0.7561462E-02  0.1244197E+00
          1   -1    0    0  501    0  0.00000000000E+00  0.00000000000E+00  0.87247248300E+02  0.87247248300E+02  0.00000000000E+00 0. -1.
         -1   -1    0    0    0  501 -0.00000000000E+00 -0.00000000000E+00 -0.18261505237E+03  0.18261505237E+03  0.00000000000E+00 0.  1.
          5    1    1    2  502    0  0.81121604576E+01  0.37371712060E+02  0.93560340065E+01  0.39591157876E+02  0.41800000000E+01 0. -1.
         -5    1    1    2    0  502 -0.43599139711E+02 -0.80410313860E+02 -0.44333290012E+02  0.10173306523E+03  0.41800000000E+01 0. -1.
        -11    1    1    2    0    0  0.50908436557E+02  0.64524687732E+02 -0.60557923949E+02  0.10208999164E+03  0.00000000000E+00 0.  1.
         11    1    1    2    0    0 -0.15421457304E+02 -0.21486085932E+02  0.16737588799E+00  0.26448085918E+02  0.00000000000E+00 0. -1.
</event>
<event>
 6    1  0.8989754E-006  0.1611806E+03  0.7561462E-02  0.1187370E+00
          2   -1    0    0  501    0  0.00000000000E+00  0.00000000000E+00  0.36296737491E+03  0.36296737491E+03  0.00000000000E+00 0. -1.
         -2   -1    0    0    0  501 -0.00000000000E+00 -0.00000000000E+00 -0.10397614874E+03  0.10397614874E+03  0.00000000000E+00 0.  1.
          5    1    1    2  502    0  0.11891445949E+03 -0.25854568282E+02  0.18885002396E+03  0.22470182759E+03  0.41800000000E+01 0. -1.
         -5    1    1    2    0  502  0.33700280167E+02 -0.17793082726E+02 -0.15698073394E+02  0.41427099639E+02  0.41800000000E+01 0. -1.
        -11    1    1    2    0    0 -0.83692294424E+02  0.41223652404E+02  0.92688503255E+02  0.13151025929E+03  0.00000000000E+00 0. -1.
         11    1    1    2    0    0 -0.68922445228E+02  0.24239986036E+01 -0.68492276441E+01  0.69304337128E+02  0.00000000000E+00 0.  1.
</event>
<event>
 6    1  0.8989754E-006  0.1360401E+03  0.7561462E-02  0.1218759E+00
          1   -1    0    0  501    0  0.00000000000E+00  0.00000000000E+00  0.10540793171E+03  0.10540793171E+03  0.00000000000E+00 0. -1.
         -1   -1    0    0    0  501 -0.00000000000E+00 -0.00000000000E+00 -0.21957646924E+03  0.21957646924E+03  0.00000000000E+00 0.  1.
          5    1    1    2  502    0  0.51899047415E+02 -0.62594532107E+02 -0.10117793619E+03  0.12986929485E+03  0.41800000000E+01 0.  1.
         -5    1    1    2    0  502 -0.57664805314E+02 -0.25453306345E+02 -0.22990903580E+02  0.67224657851E+02  0.41800000000E+01 0.  1.
        -11    1    1    2    0    0 -0.16398850882E+02  0.10066099943E+03  0.85951412696E+01  0.10234957533E+03  0.00000000000E+00 0.  1.
         11    1    1    2    0    0  0.22164608782E+02 -0.12613160976E+02  0.14051609767E+01  0.25540872922E+02  0.00000000000E+00 0. -1.
</event>
<event>
 6    1  0.8989754E-006  0.1002487E+03  0.7561462E-02  0.1279774E+00
          2   -1    0    0  501    0  0.00000000000E+00  0.00000000000E+00  0.93619610284E+02  0.93619610284E+02  0.00000000000E+00 0.  1.
         -2   -1    0    0    0  501 -0.00000000000E+00 -0.00000000000E+00 -0.15693757151E+03  0.15693757151E+03  0.00000000000E+00 0. -1.
          5    1    1    2  502    0 -0.28729422423E+02 -0.51964570506E+02 -0.43411558639E+02  0.73673143846E+02  0.41800000000E+01 0.  1.
         -5    1    1    2    0  502  0.62472531458E+02  0.32553462986E+02 -0.31971430995E+02  0.77473801630E+02  0.41800000000E+01 0.  1.
        -11    1    1    2    0    0 -0.47438563896E+02  0.98953875054E+00 -0.26635840082E+02  0.54413826444E+02  0.00000000000E+00 0. -1.
         11    1    1    2    0    0  0.13695454861E+02  0.18421568770E+02  0.38700868489E+02  0.44996409875E+02  0.00000000000E+00 0.  1.
</event>
<event>
 6    1  0.8989754E-006  0.1020289E+03  0.7561462E-02  0.1276086E+00
         -2   -1    0    0    0  501 -0.00000000000E+00  0.00000000000E+00  0.16038221504E+02  0.16038221504E+02  0.00000000000E+00 0. -1.
          2   -1    0    0  501    0  0.00000000000E+00 -0.00000000000E+00 -0.79266201549E+03  0.79266201549E+03  0.00000000000E+00 0.  1.
          5    1    1    2  502    0  0.48710898021E+02 -0.62710684099E+01 -0.76407057633E+02  0.90926281906E+02  0.41800000000E+01 0.  1.
         -5    1    1    2    0  502 -0.49938915872E+02 -0.40570335552E+02 -0.35084566105E+03  0.35672117644E+03  0.41800000000E+01 0.  1.
        -11    1    1    2    0    0  0.16570010710E+02 -0.17526361489E+02 -0.73477287539E+02  0.77334664841E+02  0.00000000000E+00 0.  1.
         11    1    1    2    0    0 -0.15341992859E+02  0.64367765451E+02 -0.27589378776E+03  0.28371811380E+03  0.00000000000E+00 0. -1.
</event>
<event>
 6    1  0.8989754E-006  0.1641920E+03  0.7561462E-02  0.1184044E+00
          1   -1    0    0  501    0  0.00000000000E+00  0.00000000000E+00  0.11893739215E+03  0.11893739215E+03  0.00000000000E+00 0. -1.
         -1   -1    0    0    0  501 -0.00000000000E+00 -0.00000000000E+00 -0.28099713930E+03  0.28099713930E+03  0.00000000000E+00 0.  1.
          5    1    1    2  502    0  0.52268599447E+02 -0.62325996228E+02 -0.11537228276E+03  0.14122596193E+03  0.41800000000E+01 0. -1.
         -5    1    1    2    0  502  0.90445740144E+02  0.40956208597E+02 -0.49172624891E+02  0.11087498533E+03  0.41800000000E+01 0. -1.
        -11    1    1    2    0    0 -0.73619690357E+02 -0.45580900466E+01 -0.30790397626E+01  0.73824897419E+02  0.00000000000E+00 0.  1.
         11    1    1    2    0    0 -0.69094649234E+02  0.25927877678E+02  0.55642002550E+01  0.74008686775E+02  0.00000000000E+00 0. -1.
</event>
<event>
 6    1  0.8989754E-006  0.1642980E+03  0.7561462E-02  0.1183928E+00
          3   -1    0    0  501    0  0.00000000000E+00  0.00000000000E+00  0.54311722509E+02  0.54311722509E+02  0.00000000000E+00 0. -1.
         -3   -1    0    0    0  501 -0.00000000000E+00 -0.00000000000E+00 -0.67498805674E+03  0.67498805674E+03  0.00000000000E+00 0.  1.
          5    1    1    2  502    0  0.25575551075E+02  0.12587710916E+02 -0.63733920813E+02  0.69943150780E+02  0.41800000000E+01 0. -1.
         -5    1    1    2    0  502 -0.46340647992E+02 -0.14083170501E+03 -0.43296465910E+03  0.45766460779E+03  0.41800000000E+01 0.  1.
        -11    1    1    2    0    0  0.49478088124E+02  0.62407595543E+02 -0.95691486991E+02  0.12449758981E+03  0.00000000000E+00 0.  1.
         11    1    1    2    0    0 -0.28712991206E+02  0.65836398554E+02 -0.28286267331E+02  0.77194430875E+02  0.00000000000E+00 0. -1.
</event>
<event>
 6    1  0.8989754E-006  0.9462677E+02  0.7561462E-02  0.1292019E+00
          2   -1    0    0  501    0  0.00000000000E+00  0.00000000000E+00  0.65626642901E+02  0.65626642901E+02  0.00000000000E+00 0. -1.
         -2   -1    0    0    0  501 -0.00000000000E+00 -0.00000000000E+00 -0.22696378963E+03  0.22696378963E+03  0.00000000000E+00 0.  1.
          5    1    1    2  502    0 -0.20669616105E+02  0.15429152578E+02  0.23441419603E+02  0.35103622779E+02  0.41800000000E+01 0. -1.
         -5    1    1    2    0  502 -0.76421395932E+01 -0.58634968052E+02 -0.11173493323E+03  0.12648568884E+03  0.41800000000E+01 0. -1.
        -11    1    1    2    0    0  0.59565201630E+02  0.41400583627E+02 -0.67737405880E+02  0.99249069140E+02  0.00000000000E+00 0.  1.
         11    1    1    2    0    0 -0.31253445931E+02  0.18052318470E+01 -0.53062272185E+01  0.31752051774E+02  0.00000000000E+00 0. -1.
</event>
<event>
 6    1  0.8989754E-006  0.1085424E+03  0.7561462E-02  0.1263293E+00
          2   -1    0    0  501    0  0.00000000000E+00  0.00000000000E+00  0.36470914796E+02  0.36470914796E+02  0.00000000000E+00 0. -1.
         -2   -1    0    0    0  501 -0.00000000000E+00 -0.00000000000E+00 -0.41028933777E+03  0.41028933777E+03  0.00000000000E+00 0.  1.
          5    1    1    2  502    0  0.41976195889E+02  0.69557766684E+02 -0.12205154826E+03  0.14667766278E+03  0.41800000000E+01 0. -1.
         -5    1    1    2    0  502 -0.34140877071E+02 -0.20595106645E+02 -0.14908681561E+03  0.15438299418E+03  0.41800000000E+01 0.  1.
        -11    1    1    2    0    0  0.37161885643E+02 -0.22546405782E+02 -0.19803103895E+02  0.47765145055E+02  0.00000000000E+00 0. -1.
         11    1    1    2    0    0 -0.44997204461E+02 -0.26416254256E+02 -0.82876955210E+02  0.97934450543E+02  0.00000000000E+00 0.  1.
</event>
<event>
 6    1  0.8989754E-006  0.1591146E+03  0.7561462E-02  0.1189700E+00
          2   -1    0    0  501    0  0.00000000000E+00  0.00000000000E+00  0.15011783401E+03  0.15011783401E+03  0.00000000000E+00 0.  1.
         -2   -1    0    0    0  501 -0.00000000000E+00 -0.00000000000E+00 -0.20908908142E+03  0.20908908142E+03  0.00000000000E+00 0. -1.
          5    1    1    2  502    0 -0.28409567551E+02  0.37893034773E+02 -0.59290196798E+02  0.75998588468E+02  0.41800000000E+01 0. -1.
         -5    1    1    2    0  502 -0.92449848881E+02 -0.75340849479E+02 -0.29847666418E+02  0.12301046195E+03  0.41800000000E+01 0. -1.
        -11    1    1    2    0    0  0.57724888035E+02 -0.24674923031E+02  0.34283999705E+02  0.71529065148E+02  0.00000000000E+00 0.  1.
         11    1    1    2    0    0  0.63134528397E+02  0.62122737737E+02 -0.41173839043E+01  0.88668799868E+02  0.00000000000E+00 0. -1.
</event>
<event>
 6    1  0.8989754E-006  0.1123273E+03  0.7561462E-02  0.1256320E+00
         -1   -1    0    0    0  501 -0.00000000000E+00  0.00000000000E+00  0.34115289051E+02  0.34115289051E+02  0.00000000000E+00 0.  1.
          1   -1    0    0  501    0  0.00000000000E+00 -0.00000000000E+00 -0.48877616916E+03  0.48877616916E+03  0.00000000000E+00 0. -1.
          5    1    1    2  502    0  0.77562421304E+01  0.71286861728E+02 -0.19263765463E+03  0.20559356587E+03  0.41800000000E+01 0.  1.
         -5    1    1    2    0  502  0.58660403059E+02 -0.33248492223E+02 -0.86849670635E+02  0.11003109929E+03  0.41800000000E+01 0.  1.
        -11    1    1    2    0    0 -0.50368954171E+02 -0.77099713329E+01 -0.32299289583E+02  0.60330086274E+02  0.00000000000E+00 0.  1.
         11    1    1    2    0    0 -0.16047691019E+02 -0.30328398172E+02 -0.14287426526E+03  0.14693670677E+03  0.00000000000E+00 0. -1.
</event>
<event>
 6    1  0.8989754E-006  0.1491310E+03  0.7561462E-02  0.1201545E+00
          2   -1    0    0  501    0  0.00000000000E+00  0.00000000000E+00  0.23318240383E+03  0.23318240383E+03  0.00000000000E+00 0. -1.
         -2   -1    0    0    0  501 -0.00000000000E+00 -0.00000000000E+00 -0.14140161061E+03  0.14140161061E+03  0.00000000000E+00 0.  1.
          5    1    1    2  502    0 -0.11978588499E+03 -0.28567995810E+02 -0.37485586602E+02  0.12879219786E+03  0.41800000000E+01 0.  1.
         -5    1    1    2    0  502 -0.11229510122E+02 -0.24975433678E+02  0.54157331460E+02  0.60830610188E+02  0.41800000000E+01 0.  1.
        -11    1    1    2    0    0  0.91603522940E+02  0.16149797843E+02  0.89158159310E+02  0.12884563926E+03  0.00000000000E+00 0. -1.
         11    1    1    2    0    0  0.39411872173E+02  0.37393631645E+02 -0.14049110940E+02  0.56115567127E+02  0.00000000000E+00 0.  1.
</event>
<event>
 6    1  0.8989754E-006  0.1060388E+03  0.7561462E-02  0.1268086E+00
          1   -1    0    0  501    0  0.00000000000E+00  0.00000000000E+00  0.16325158403E+03  0.16325158403E+03  0.00000000000E+00 0. -1.
         -1   -1    0    0    0  501 -0.00000000000E+00 -0.00000000000E+00 -0.12221280395E+03  0.12221280395E+03  0.00000000000E+00 0.  1.
          5    1    1    2  502    0  0.54530786741E+02 -0.37245156506E+02 -0.49541931764E+02  0.82660049532E+02  0.41800000000E+01 0. -1.
         -5    1    1    2    0  502  0.17893622858E+02 -0.17454159240E+02  0.68510536320E+02  0.73047897989E+02  0.41800000000E+01 0. -1.
        -11    1    1    2    0    0 -0.16852108552E+01  0.49615058919E+02 -0.12003398765E+02  0.51074216480E+02  0.00000000000E+00 0.  1.
         11    1    1    2    0    0 -0.70739198744E+02  0.50842568271E+01  0.34073574291E+02  0.78682223986E+02  0.00000000000E+00 0. -1.
</event>
<event>
 6    1  0.8989754E-006  0.4347651E+02  0.7561462E-02  0.1484083E+00
          2   -1    0    0  501    0  0.00000000000E+00  0.00000000000E+00  0.28193166600E+02  0.28193166600E+02  0.00000000000E+00 0. -1.
         -2   -1    0    0    0  501 -0.00000000000E+00 -0.00000000000E+00 -0.42730676807E+03  0.42730676807E+03  0.00000000000E+00 0.  1.
          5    1    1    2  502    0 -0.49217959294E+01 -0.51725368767E+01  0.12278918573E+02  0.14806196481E+02  0.41800000000E+01 0.  1.
         -5    1    1    2    0  502  0.43124840849E+01  0.37402409762E+02 -0.27888864685E+03  0.28144961808E+03  0.41800000000E+01 0.  1.
        -11    1    1    2    0    0 -0.93084429445E+01 -0.28858850861E+02 -0.14194172141E+03  0.14514452336E+03  0.00000000000E+00 0.  1.
         11    1    1    2    0    0  0.99177547890E+01 -0.33710220241E+01  0.94378482205E+01  0.14099596752E+02  0.00000000000E+00 0. -1.
</event>
<event>
 6    1  0.8989754E-006  0.1059995E+03  0.7561462E-02  0.1268163E+00
          2   -1    0    0  501    0  0.00000000000E+00  0.00000000000E+00  0.14471903670E+03  0.14471903670E+03  0.00000000000E+00 0.  1.
         -2   -1    0    0    0  501 -0.00000000000E+00 -0.00000000000E+00 -0.15314753498E+03  0.15314753498E+03  0.00000000000E+00 0. -1.
          5    1    1    2  502    0  0.56154956321E+02 -0.54021877700E+02  0.22184520353E+02  0.81125629322E+02  0.41800000000E+01 0.  1.
         -5    1    1    2    0  502 -0.10793177803E+02 -0.22777019610E+02 -0.78418611714E+02  0.82475671398E+02  0.41800000000E+01 0.  1.
        -11    1    1    2    0    0 -0.32784467743E+02  0.23019010745E+01 -0.14896974343E+02  0.36083790244E+02  0.00000000000E+00 0. -1.
         11    1    1    2    0    0 -0.12577310774E+02  0.74496996236E+02  0.62702567420E+02  0.98181480716E+02  0.00000000000E+00 0.  1.
</event>
<event>
 6    1  0.8989754E-006  0.1562857E+03  0.7561462E-02  0.1192955E+00
          2   -1    0    0  501    0  0.00000000000E+00  0.00000000000E+00  0.37205303610E+03  0.37205303610E+03  0.00000000000E+00 0. -1.
         -2   -1    0    0    0  501 -0.00000000000E+00 -0.00000000000E+00 -0.80537728232E+02  0.80537728232E+02  0.00000000000E+00 0.  1.
          5    1    1    2  502    0 -0.14145001380E+03  0.43436240326E+02  0.61132982099E+02  0.16015469795E+03  0.41800000000E+01 0.  1.
         -5    1    1    2    0  502  0.19796899497E+02 -0.27895891092E+01  0.41672138744E+02  0.46408389162E+02  0.41800000000E+01 0.  1.
        -11    1    1    2    0    0  0.68817083975E+02 -0.56408772919E+02  0.16184686611E+03  0.18469474486E+03  0.00000000000E+00 0. -1.
         11    1    1    2    0    0  0.52836030324E+02  0.15762121702E+02  0.26863320915E+02  0.61332932357E+02  0.00000000000E+00 0.  1.
</event>
<event>
 6    1  0.8989754E-006  0.1468568E+03  0.7561462E-02  0.1204389E+00
          2   -1    0    0  501    0  0.00000000000E+00  0.00000000000E+00  0.27041526221E+03  0.27041526221E+03  0.00000000000E+00 0. -1.
         -2   -1    0    0    0  501 -0.00000000000E+00 -0.00000000000E+00 -0.10428705446E+03  0.10428705446E+03  0.00000000000E+00 0.  1.
          5    1    1    2  502    0 -0.68645000773E+02 -0.80824120808E+01  0.29216370860E+02  0.75156704574E+02  0.41800000000E+01 0.  1.
         -5    1    1    2    0  502  0.16075903358E+02 -0.85835205629E+02 -0.21539136542E+02  0.90041790282E+02  0.41800000000E+01 0.  1.
        -11    1    1    2    0    0  0.65687123508E+02  0.30755862787E+02  0.85577367335E+02  0.11217935234E+03  0.00000000000E+00 0.  1.
         11    1    1    2    0    0 -0.13118026093E+02  0.63161754923E+02  0.72873606102E+02  0.97324469482E+02  0.00000000000E+00 0. -1.
</event>
<event>
 6    1  0.8989754E-006  0.6206448E+02  0.7561462E-02  0.1389367E+00
         -2   -1    0    0    0  501 -0.00000000000E+00  0.00000000000E+00  0.13000941192E+04  0.13000941192E+04  0.00000000000E+00 0.  1.
          2   -1    0    0  501    0  0.00000000000E+00 -0.00000000000E+00 -0.12471467140E+02  0.12471467140E+02  0.00000000000E+00 0. -1.
          5    1    1    2  502    0  0.15201761771E+02  0.10921001656E+02  0.29475645437E+02  0.35166005062E+02  0.41800000000E+01 0. -1.
         -5    1    1    2    0  502 -0.32253988685E+02  0.32652150541E+02  0.11712000624E+04  0.11721064547E+04  0.41800000000E+01 0.  1.
        -11    1    1    2    0    0  0.28278195504E+02 -0.29551462381E+02  0.53681929671E+02  0.67488479336E+02  0.00000000000E+00 0. -1.
         11    1    1    2    0    0 -0.11225968590E+02 -0.14021689816E+02  0.33265014614E+02  0.37804647245E+02  0.00000000000E+00 0.  1.
</event>
<event>
 6    1  0.8989754E-006  0.1069111E+03  0.7561462E-02  0.1266399E+00
          1   -1    0    0  501    0  0.00000000000E+00  0.00000000000E+00  0.22669452038E+03  0.22669452038E+03  0.00000000000E+00 0. -1.
         -1   -1    0    0    0  501 -0.00000000000E+00 -0.00000000000E+00 -0.99057442219E+02  0.99057442219E+02  0.00000000000E+00 0.  1.
          5    1    1    2  502    0  0.10248165475E+02  0.81450983023E+02  0.49571651184E+02  0.95990148099E+02  0.41800000000E+01 0.  1.
         -5    1    1    2    0  502 -0.36737056808E+02  0.11184396798E+01 -0.42541674405E+02  0.56374894337E+02  0.41800000000E+01 0.  1.
        -11    1    1    2    0    0 -0.56331234745E+01 -0.44350038941E+02  0.11471063055E+03  0.12311452715E+03  0.00000000000E+00 0. -1.
         11    1    1    2    0    0  0.32122014808E+02 -0.38219383762E+02  0.58964708242E+01  0.50272393007E+02  0.00000000000E+00 0.  1.
</event>
<event>
 6    1  0.8989754E-006  0.9546177E+02  0.7561462E-02  0.1290139E+00
          3   -1    0    0  501    0  0.00000000000E+00  0.00000000000E+00  0.24034897391E+03  0.24034897391E+03  0.00000000000E+00 0. -1.
         -3   -1    0    0    0  501 -0.00000000000E+00 -0.00000000000E+00 -0.54756018909E+02  0.54756018909E+02  0.00000000000E+00 0.  1.
          5    1    1    2  502    0  0.58408824255E+02  0.54148912040E+02  0.77243338120E+02  0.11103018108E+03  0.41800000000E+01 0.  1.
         -5    1    1    2    0  502 -0.36932378840E+02 -0.25577337615E+02  0.11850449411E+02  0.46648755155E+02  0.41800000000E+01 0.  1.
        -11    1    1    2    0    0  0.12669207471E+02 -0.29271233992E+02 -0.31846565822E+01  0.32053954435E+02  0.00000000000E+00 0.  1.
         11    1    1    2    0    0 -0.34145652886E+02  0.69965956668E+00  0.99683824049E+02  0.10537210215E+03  0.00000000000E+00 0. -1.
</event>
<event>
 6    1  0.8989754E-006  0.1035459E+03  0.7561462E-02  0.1273011E+00
          2   -1    0    0  501    0  0.00000000000E+00  0.00000000000E+00  0.19440948754E+03  0.19440948754E+03  0.00000000000E+00 0.  1.
         -2   -1    0    0    0  501 -0.00000000000E+00 -0.00000000000E+00 -0.97345063180E+02  0.97345063180E+02  0.00000000000E+00 0. -1.
          5    1    1    2  502    0 -0.92460094846E+02  0.39763025165E+01 -0.20390493158E+02  0.94857391551E+02  0.41800000000E+01 0.  1.
         -5    1    1    2    0  502  0.40139609971E+02 -0.10513192281E+02  0.38478608726E+01  0.41880710761E+02  0.41800000000E+01 0.  1.
        -11    1    1    2    0    0  0.24942055819E+02  0.28337281150E+02  0.17268177519E+01  0.37790072122E+02  0.00000000000E+00 0. -1.
         11    1    1    2    0    0  0.27378429057E+02 -0.21800391386E+02  0.11188023889E+03  0.11722637628E+03  0.00000000000E+00 0.  1.
</event>
<event>
 6    1  0.8989754E-006  0.9812224E+02  0.7561462E-02  0.1284295E+00
         -2   -1    0    0    0  501 -0.00000000000E+00  0.00000000000E+00  0.10607119496E+03  0.10607119496E+03  0.00000000000E+00 0.  1.
          2   -1    0    0  501    0  0.00000000000E+00 -0.00000000000E+00 -0.16319271371E+03  0.16319271371E+03  0.00000000000E+00 0. -1.
          5    1    1    2  502    0  0.27030107594E+02  0.56583992520E+02  0.22018633999E+02  0.66593299732E+02  0.41800000000E+01 0. -1.
         -5    1    1    2    0  502 -0.49348156859E+02 -0.41907549236E+02  0.15760734258E+02  0.66763436196E+02  0.41800000000E+01 0. -1.
        -11    1    1    2    0    0  0.35114448569E+01  0.24665547123E+02  0.63111745871E+01  0.25701174769E+02  0.00000000000E+00 0.  1.
         11    1    1    2    0    0  0.18806604409E+02 -0.39341990407E+02 -0.10121206159E+03  0.11020599798E+03  0.00000000000E+00 0. -1.
</event>
<event>
 6    1  0.8989754E-006  0.1835531E+03  0.7561462E-02  0.1164408E+00
          1   -1    0    0  501    0  0.00000000000E+00  0.00000000000E+00  0.24290144799E+03  0.24290144799E+03  0.00000000000E+00 0. -1.
         -1   -1    0    0    0  501 -0.00000000000E+00 -0.00000000000E+00 -0.17137903610E+03  0.17137903610E+03  0.00000000000E+00 0.  1.
          5    1    1    2  502    0 -0.87300956563E+01 -0.19156949566E+02 -0.15759882022E+02  0.26627984681E+02  0.41800000000E+01 0.  1.
         -5    1    1    2    0  502  0.12831561778E+03  0.12011006147E+03 -0.20900556481E+02  0.17704697200E+03  0.41800000000E+01 0.  1.
        -11    1    1    2    0    0 -0.12351146999E+03 -0.76970373299E+02  0.61534178072E+02  0.15800625511E+03  0.00000000000E+00 0.  1.
         11    1    1    2    0    0  0.39259478573E+01 -0.23982738601E+02  0.46648672324E+02  0.52599272304E+02  0.00000000000E+00 0. -1.
</event>
<event>
 6    1  0.8989754E-006  0.2158603E+03  0.7561462E-02  0.1137008E+00
          1   -1    0    0  501    0  0.00000000000E+00  0.00000000000E+00  0.31032947976E+03  0.31032947976E+03  0.00000000000E+00 0. -1.
         -1   -1    0    0    0  501 -0.00000000000E+00 -0.00000000000E+00 -0.21037326903E+03  0.21037326903E+03  0.00000000000E+00 0.  1.
          5    1    1    2  502    0 -0.16426419388E+02  0.17298912207E+03  0.42149758869E+02  0.17885507591E+03  0.41800000000E+01 0. -1.
         -5    1    1    2    0  502  0.83079435909E+02 -0.10665843208E+03 -0.76170565656E+02  0.15523414984E+03  0.41800000000E+01 0.  1.
        -11    1    1    2    0    0  0.10322652497E+02 -0.39963521724E+02  0.18212375040E+02  0.45114640947E+02  0.00000000000E+00 0.  1.
         11    1    1    2    0    0 -0.76975669018E+02 -0.26367168261E+02  0.11576464248E+03  0.14149888208E+03  0.00000000000E+00 0. -1.
</event>
<event>
 6    1  0.8989754E-006  0.1777265E+03  0.7561462E-02  0.1170022E+00
          3   -1    0    0  501    0  0.00000000000E+00  0.00000000000E+00  0.26567927324E+03  0.26567927324E+03  0.00000000000E+00 0.  1.
         -3   -1    0    0    0  501 -0.00000000000E+00 -0.00000000000E+00 -0.14682855978E+03  0.14682855978E+03  0.00000000000E+00 0. -1.
          5    1    1    2  502    0  0.24704278629E+00 -0.14668719018E+03 -0.88771628571E+01  0.14701520062E+03  0.41800000000E+01 0. -1.
         -5    1    1    2    0  502 -0.28109855027E+02 -0.14783135648E+02  0.55898982218E+02  0.64427274211E+02  0.41800000000E+01 0. -1.
        -11    1    1    2    0    0  0.45975349094E+02  0.14526951504E+03  0.34023715616E+02  0.15612359831E+03  0.00000000000E+00 0. -1.
         11    1    1    2    0    0 -0.18112536854E+02  0.16200810787E+02  0.37805178478E+02  0.44941759881E+02  0.00000000000E+00 0.  1.
</event>
<event>
 6    1  0.8989754E-006  0.9151850E+02  0.7561462E-02  0.1299216E+00
         -2   -1    0    0    0  501 -0.00000000000E+00  0.00000000000E+00  0.43247803196E+02  0.43247803196E+02  0.00000000000E+00 0.  1.
          2   -1    0    0  501    0  0.00000000000E+00 -0.00000000000E+00 -0.31037780862E+03  0.31037780862E+03  0.00000000000E+00 0. -1.
          5    1    1    2  502    0  0.15609836474E+02 -0.27027061954E+02  0.17784876077E+01  0.31539887299E+02  0.41800000000E+01 0. -1.
         -5    1    1    2    0  502 -0.43214962132E+02  0.59149714696E+02 -0.15001688276E+03  0.16699927908E+03  0.41800000000E+01 0. -1.
        -11    1    1    2    0    0 -0.21135154524E+02 -0.28707881808E+01 -0.87679964330E+02  0.90236978708E+02  0.00000000000E+00 0. -1.
         11    1    1    2    0    0  0.48740280182E+02 -0.29251864561E+02 -0.31211645941E+02  0.64849466727E+02  0.00000000000E+00 0.  1.
</event>
<event>
 6    1  0.8989754E-006  0.6320580E+02  0.7561462E-02  0.1384850E+00
          1   -1    0    0  501    0  0.00000000000E+00  0.00000000000E+00  0.18028675742E+03  0.18028675742E+03  0.00000000000E+00 0. -1.
         -1   -1    0    0    0  501 -0.00000000000E+00 -0.00000000000E+00 -0.72243391890E+02  0.72243391890E+02  0.00000000000E+00 0.  1.
          5    1    1    2  502    0 -0.37935089921E+01  0.63819570281E+01  0.77778491967E+02  0.78243762043E+02  0.41800000000E+01 0. -1.
         -5    1    1    2    0  502  0.27572303587E+02 -0.24659326692E+02 -0.41164617699E+02  0.55500562775E+02  0.41800000000E+01 0. -1.
        -11    1    1    2    0    0 -0.49563346225E+02  0.22682695741E+02  0.74648137114E+02  0.92430375688E+02  0.00000000000E+00 0. -1.
         11    1    1    2    0    0  0.25784551631E+02 -0.44053260773E+01 -0.32186458505E+01  0.26355448806E+02  0.00000000000E+00 0.  1.
</event>
<event>
 6    1  0.8989754E-006  0.2014911E+03  0.7561462E-02  0.1148487E+00
         -1   -1    0    0    0  501 -0.00000000000E+00  0.00000000000E+00  0.11357094007E+03  0.11357094007E+03  0.00000000000E+00 0.  1.
          1   -1    0    0  501    0  0.00000000000E+00 -0.00000000000E+00 -0.44247491710E+03  0.44247491710E+03  0.00000000000E+00 0. -1.
          5    1    1    2  502    0  0.60622482318E+01 -0.75230232277E+02  0.50724883081E+01  0.75759760029E+02  0.41800000000E+01 0.  1.
         -5    1    1    2    0  502  0.47513115813E+02 -0.11359170232E+03 -0.16774464339E+03  0.20812570432E+03  0.41800000000E+01 0.  1.
        -11    1    1    2    0    0  0.42928438750E+00  0.10163342460E+03 -0.12626867275E+03  0.16209045314E+03  0.00000000000E+00 0. -1.
         11    1    1    2    0    0 -0.54004648432E+02  0.87188510002E+02 -0.39963149202E+02  0.11006993969E+03  0.00000000000E+00 0.  1.
</event>
<event>
 6    1  0.8989754E-006  0.1175758E+03  0.7561462E-02  0.1247151E+00
         -1   -1    0    0    0  501 -0.00000000000E+00  0.00000000000E+00  0.16365501017E+02  0.16365501017E+02  0.00000000000E+00 0.  1.
          1   -1    0    0  501    0  0.00000000000E+00 -0.00000000000E+00 -0.99675605139E+03  0.99675605139E+03  0.00000000000E+00 0. -1.
          5    1    1    2  502    0 -0.24472278533E+02 -0.44752136422E+02 -0.99768752918E+02  0.11212904436E+03  0.41800000000E+01 0.  1.
         -5    1    1    2    0  502  0.73736342538E+02 -0.42602784707E+01 -0.44587857347E+03  0.45197386303E+03  0.41800000000E+01 0.  1.
        -11    1    1    2    0    0 -0.26774435750E+01 -0.23585438018E+02 -0.61128904369E+02  0.65575792332E+02  0.00000000000E+00 0.  1.
         11    1    1    2    0    0 -0.46586620430E+02  0.72597852911E+02 -0.37361431962E+03  0.38344285268E+03  0.00000000000E+00 0. -1.
</event>
<event>
 6    1  0.8989754E-006  0.1600940E+03  0.7561462E-02  0.1188591E+00
         -1   -1    0    0    0  501 -0.00000000000E+00  0.00000000000E+00  0.34672818230E+02  0.34672818230E+02  0.00000000000E+00 0.  1.
          1   -1    0    0  501    0  0.00000000000E+00 -0.00000000000E+00 -0.10104927858E+04  0.10104927858E+04  0.00000000000E+00 0. -1.
          5    1    1    2  502    0 -0.51346303484E+01 -0.32148985881E+02 -0.37577170323E+03  0.37720255443E+03  0.41800000000E+01 0. -1.
         -5    1    1    2    0  502  0.13133485354E+02 -0.11705363291E+03 -0.21933941814E+03  0.24900059069E+03  0.41800000000E+01 0. -1.
        -11    1    1    2    0    0 -0.43820845629E+02  0.93741398525E+02 -0.17941171117E+03  0.20711416759E+03  0.00000000000E+00 0.  1.
         11    1    1    2    0    0  0.35821990624E+02  0.55461220264E+02 -0.20129713506E+03  0.21184829135E+03  0.00000000000E+00 0. -1.
</event>
<event>
 6    1  0.8989754E-006  0.1604176E+03  0.7561462E-02  0.1188226E+00
          1   -1    0    0  501    0  0.00000000000E+00  0.00000000000E+00  0.51627711237E+02  0.51627711237E+02  0.00000000000E+00 0. -1.
         -1   -1    0    0    0  501 -0.00000000000E+00 -0.00000000000E+00 -0.87757749224E+03  0.87757749224E+03  0.00000000000E+00 0.  1.
          5    1    1    2  502    0 -0.38799156165E+02  0.15193179838E+02 -0.22501448217E+02  0.47539402653E+02  0.41800000000E+01 0. -1.
         -5    1    1    2    0  502  0.12902361098E+03  0.52579871620E+02 -0.66918244838E+03  0.68354543134E+03  0.41800000000E+01 0.  1.
        -11    1    1    2    0    0  0.11721602061E+02 -0.27613804395E+02 -0.55796020845E+02  0.63349144352E+02  0.00000000000E+00 0.  1.
         11    1    1    2    0    0 -0.10194605687E+03 -0.40159247063E+02 -0.78469863568E+02  0.13477122514E+03  0.00000000000E+00 0. -1.
</event>
<event>
 6    1  0.8989754E-006  0.9288375E+02  0.7561462E-02  0.1296015E+00
         -1   -1    0    0    0  501 -0.00000000000E+00  0.00000000000E+00  0.55665760627E+02  0.55665760627E+02  0.00000000000E+00 0.  1.
          1   -1    0    0  501    0  0.00000000000E+00 -0.00000000000E+00 -0.26027793848E+03  0.26027793848E+03  0.00000000000E+00 0. -1.
          5    1    1    2  502    0  0.42619321206E+02  0.38993690579E+02 -0.11217696348E+03  0.12624602164E+03  0.41800000000E+01 0.  1.
         -5    1    1    2    0  502 -0.46313298114E+02  0.12755106660E+02  0.18120094326E+01  0.48253187524E+02  0.41800000000E+01 0.  1.
        -11    1    1    2    0    0 -0.91372700564E+01  0.11729884176E+02 -0.71149146000E+02  0.72686180691E+02  0.00000000000E+00 0. -1.
         11    1    1    2    0    0  0.12831246964E+02 -0.63478681415E+02 -0.23098077808E+02  0.68758309252E+02  0.00000000000E+00 0.  1.
</event>
<event>
 6    1  0.8989754E-006  0.8129447E+02  0.7561462E-02  0.1325418E+00
         -1   -1    0    0    0  501 -0.00000000000E+00  0.00000000000E+00  0.12926031440E+03  0.12926031440E+03  0.00000000000E+00 0.  1.
          1   -1    0    0  501    0  0.00000000000E+00 -0.00000000000E+00 -0.10521185851E+03  0.10521185851E+03  0.00000000000E+00 0. -1.
          5    1    1    2  502    0 -0.69362328350E+01  0.61510782716E+02  0.75822334875E+02  0.97970335216E+02  0.41800000000E+01 0. -1.
         -5    1    1    2    0  502 -0.22705728952E+02  0.60735228303E+01 -0.44599503195E+02  0.50586815398E+02  0.41800000000E+01 0. -1.
        -11    1    1    2    0    0  0.16968284985E+02 -0.58939132993E+02  0.10807524088E+02  0.62277979015E+02  0.00000000000E+00 0.  1.
         11    1    1    2    0    0  0.12673676802E+02 -0.86451725541E+01 -0.17981899873E+02  0.23637043284E+02  0.00000000000E+00 0. -1.
</event>
<event>
 6    1  0.8989754E-006  0.1840373E+03  0.7561462E-02  0.1163952E+00
         -2   -1    0    0    0  501 -0.00000000000E+00  0.00000000000E+00  0.24620050633E+03  0.24620050633E+03  0.00000000000E+00 0.  1.
          2   -1    0    0  501    0  0.00000000000E+00 -0.00000000000E+00 -0.14700020208E+03  0.14700020208E+03  0.00000000000E+00 0. -1.
          5    1    1    2  502    0  0.11850048734E+03 -0.55433589973E+02  0.34539191441E+02  0.13537236255E+03  0.41800000000E+01 0. -1.
         -5    1    1    2    0  502  0.33974183741E+02  0.49778399289E+02  0.53440209906E+02  0.80656448171E+02  0.41800000000E+01 0. -1.
        -11    1    1    2    0    0 -0.85551417673E+02 -0.41319059200E+02  0.80371447437E+01  0.95346239646E+02  0.00000000000E+00 0.  1.
         11    1    1    2    0    0 -0.66923253408E+02  0.46974249884E+02  0.31837581555E+01  0.81825658047E+02  0.00000000000E+00 0. -1.
</event>
<event>
 6    1  0.8989754E-006  0.9535571E+02  0.7561462E-02  0.1290377E+00
          1   -1    0    0  501    0  0.00000000000E+00  0.00000000000E+00  0.86972549181E+02  0.86972549181E+02  0.00000000000E+00 0. -1.
         -1   -1    0    0    0  501 -0.00000000000E+00 -0.00000000000E+00 -0.30876189072E+03  0.30876189072E+03  0.00000000000E+00 0.  1.
          5    1    1    2  502    0  0.10909350305E+01 -0.55062251853E+02 -0.23302626163E+03  0.23948225973E+03  0.41800000000E+01 0. -1.
         -5    1    1    2    0  502  0.40031194248E+02  0.14602895830E+02 -0.17176869002E+02  0.46133050064E+02  0.41800000000E+01 0. -1.
        -11    1    1    2    0    0 -0.61188827115E+02  0.20948072282E+02 -0.69185973258E+01  0.65044302480E+02  0.00000000000E+00 0.  1.
         11    1    1    2    0    0  0.20066697837E+02  0.19511283740E+02  0.35332386418E+02  0.45074827623E+02  0.00000000000E+00 0. -1.
</event>
<event>
 6    1  0.8989754E-006  0.2015232E+03  0.7561462E-02  0.1148460E+00
         -4   -1    0    0    0  501 -0.00000000000E+00  0.00000000000E+00  0.21097669123E+03  0.21097669123E+03  0.00000000000E+00 0.  1.
          4   -1    0    0  501    0  0.00000000000E+00 -0.00000000000E+00 -0.36907199584E+03  0.36907199584E+03  0.00000000000E+00 0. -1.
          5    1    1    2  502    0  0.83631276730E+02 -0.16990463520E+03  0.12015341615E+03  0.22431248588E+03  0.41800000000E+01 0.  1.
         -5    1    1    2    0  502 -0.14912755665E+02  0.10270373113E+02 -0.44129314191E+01  0.19100188719E+02  0.41800000000E+01 0.  1.
        -11    1    1    2    0    0 -0.99865952073E+01  0.12789693698E+03 -0.19380099132E+03  0.23241381802E+03  0.00000000000E+00 0.  1.
         11    1    1    2    0    0 -0.58731925857E+02  0.31737325106E+02 -0.80034798021E+02  0.10422219444E+03  0.00000000000E+00 0. -1.
</event>
<event>
 6    1  0.8989754E-006  0.9901221E+02  0.7561462E-02  0.1282387E+00
          2   -1    0    0  501    0  0.00000000000E+00  0.00000000000E+00  0.62522431095E+03  0.62522431095E+03  0.00000000000E+00 0. -1.
         -2   -1    0    0    0  501 -0.00000000000E+00 -0.00000000000E+00 -0.20072864143E+02  0.20072864143E+02  0.00000000000E+00 0.  1.
          5    1    1    2  502    0 -0.12249526854E+02  0.45774669538E+02  0.16370460918E+03  0.17047593011E+03  0.41800000000E+01 0. -1.
         -5    1    1    2    0  502  0.42846282540E+02 -0.34364585405E+02  0.61642152254E+02  0.82667744568E+02  0.41800000000E+01 0.  1.
        -11    1    1    2    0    0  0.31222407399E+02 -0.12268635041E+02  0.17635988576E+03  0.17952205278E+03  0.00000000000E+00 0.  1.
         11    1    1    2    0    0 -0.61819163085E+02  0.85855090810E+00  0.20344479962E+03  0.21263144764E+03  0.00000000000E+00 0. -1.
</event>
<event>
 6    1  0.8989754E-006  0.1193707E+03  0.7561462E-02  0.1244139E+00
          1   -1    0    0  501    0  0.00000000000E+00  0.00000000000E+00  0.18367276778E+02  0.18367276778E+02  0.00000000000E+00 0. -1.
         -1   -1    0    0    0  501 -0.00000000000E+00 -0.00000000000E+00 -0.12147617673E+04  0.12147617673E+04  0.00000000000E+00 0.  1.
          5    1    1    2  502    0 -0.46804480466E+02 -0.58693215274E+02 -0.34464520490E+03  0.35275110570E+03  0.41800000000E+01 0.  1.
         -5    1    1    2    0  502  0.51617541349E+02 -0.36208918390E+01 -0.59220822082E+03  0.59447920960E+03  0.41800000000E+01 0.  1.
        -11    1    1    2    0    0 -0.48233581215E+02  0.40840922982E+02 -0.92903181878E+02  0.11236307467E+03  0.00000000000E+00 0. -1.
         11    1    1    2    0    0  0.43420520332E+02  0.21473184131E+02 -0.16663788291E+03  0.17353565410E+03  0.00000000000E+00 0.  1.
</event>
<event>
 6    1  0.8989754E-006  0.9795671E+02  0.7561462E-02  0.1284652E+00
          2   -1    0    0  501    0  0.00000000000E+00  0.00000000000E+00  0.14311904127E+03  0.14311904127E+03  0.00000000000E+00 0. -1.
         -2   -1    0    0    0  501 -0.00000000000E+00 -0.00000000000E+00 -0.92180982110E+02  0.92180982110E+02  0.00000000000E+00 0.  1.
          5    1    1    2  502    0  0.28036731267E+02  0.87184739890E+01 -0.34045083182E+02  0.45150970950E+02  0.41800000000E+01 0. -1.
         -5    1    1    2    0  502 -0.65800951170E+02 -0.17252778177E+02  0.54751105217E+02  0.87421847682E+02  0.41800000000E+01 0. -1.
        -11    1    1    2    0    0  0.47370942172E+02 -0.31528805937E+02  0.19514285068E+02  0.60157120009E+02  0.00000000000E+00 0. -1.
         11    1    1    2    0    0 -0.96067222691E+01  0.40063110126E+02  0.10717752062E+02  0.42570084742E+02  0.00000000000E+00 0.  1.
</event>
<event>
 6    1  0.8989754E-006  0.1701189E+03  0.7561462E-02  0.1177724E+00
         -2   -1    0    0    0  501 -0.00000000000E+00  0.00000000000E+00  0.43718325072E+03  0.43718325072E+03  0.00000000000E+00 0.  1.
          2   -1    0    0  501    0  0.00000000000E+00 -0.00000000000E+00 -0.78926715337E+02  0.78926715337E+02  0.00000000000E+00 0. -1.
          5    1    1    2  502    0  0.12586066798E+03  0.51336913772E+02  0.84818198941E+02  0.16027471956E+03  0.41800000000E+01 0.  1.
         -5    1    1    2    0  502 -0.27065714730E+01  0.34853015008E+02  0.11107963597E+03  0.11652560282E+03  0.41800000000E+01 0.  1.
        -11    1    1    2    0    0  0.63136599243E+01 -0.25099962414E+02  0.46134511649E+01  0.26289814501E+02  0.00000000000E+00 0. -1.
         11    1    1    2    0    0 -0.12946775643E+03 -0.61089966365E+02  0.15774524930E+03  0.21301982918E+03  0.00000000000E+00 0.  1.
</event>
<event>
 6    1  0.8989754E-006  0.1148972E+03  0.7561462E-02  0.1251761E+00
          2   -1    0    0  501    0  0.00000000000E+00  0.00000000000E+00  0.27553541796E+03  0.27553541796E+03  0.00000000000E+00 0. -1.
         -2   -1    0    0    0  501 -0.00000000000E+00 -0.00000000000E+00 -0.65500388662E+02  0.65500388662E+02  0.00000000000E+00 0.  1.
          5    1    1    2  502    0 -0.63488796210E+02  0.46443895347E+02  0.10299325322E+03  0.12966474181E+03  0.41800000000E+01 0. -1.
         -5    1    1    2    0  502 -0.16409997846E+02 -0.51129317552E+02  0.52793567530E+01  0.54118750451E+02  0.41800000000E+01 0. -1.
        -11    1    1    2    0    0 -0.61000393665E+01  0.92046020395E+01 -0.10853207737E+02  0.15483129437E+02  0.00000000000E+00 0.  1.
         11    1    1    2    0    0  0.85998833422E+02 -0.45191798346E+01  0.11261562706E+03  0.14176918492E+03  0.00000000000E+00 0. -1.
</event>
<event>
 6    1  0.8989754E-006  0.1646516E+03  0.7561462E-02  0.1183543E+00
          1   -1    0    0  501    0  0.00000000000E+00  0.00000000000E+00  0.62110728621E+03  0.62110728621E+03  0.00000000000E+00 0. -1.
         -1   -1    0    0    0  501 -0.00000000000E+00 -0.00000000000E+00 -0.56956301947E+02  0.56956301947E+02  0.00000000000E+00 0.  1.
          5    1    1    2  502    0  0.99722792801E+02 -0.56107211140E+01  0.25456955549E+03  0.27349450923E+03  0.41800000000E+01 0. -1.
         -5    1    1    2    0  502  0.38117123363E+02 -0.63939521985E+02  0.48618538030E+02  0.89007933384E+02  0.41800000000E+01 0. -1.
        -11    1    1    2    0    0 -0.38114390169E+02  0.24803861164E+02  0.17569227757E+02  0.48750549029E+02  0.00000000000E+00 0.  1.
         11    1    1    2    0    0 -0.99725525995E+02  0.44746381935E+02  0.24339366298E+03  0.26681059651E+03  0.00000000000E+00 0. -1.
</event>
<event>
 6    1  0.8989754E-006  0.9918263E+02  0.7561462E-02  0.1282024E+00
         -1   -1    0    0    0  501 -0.00000000000E+00  0.00000000000E+00  0.14322785425E+03  0.14322785425E+03  0.00000000000E+00 0.  1.
          1   -1    0    0  501    0  0.00000000000E+00 -0.00000000000E+00 -0.82933397239E+02  0.82933397239E+02  0.00000000000E+00 0. -1.
          5    1    1    2  502    0  0.11980027734E+02  0.63079532572E+02  0.12138894288E+01  0.64354443681E+02  0.41800000000E+01 0.  1.
         -5    1    1    2    0  502 -0.89224291561E+00 -0.54574845055E+02  0.41038550927E+02  0.68416700244E+02  0.41800000000E+01 0.  1.
        -11    1    1    2    0    0 -0.69859325321E+01  0.34945502028E+02 -0.14984383700E+02  0.38659062588E+02  0.00000000000E+00 0.  1.
         11    1    1    2    0    0 -0.41018522866E+01 -0.43450189545E+02  0.33026400358E+02  0.54731044977E+02  0.00000000000E+00 0. -1.
</event>
<event>
 6    1  0.8989754E-006  0.9493631E+02  0.7561462E-02  0.1291320E+00
         -3   -1    0    0    0  501 -0.00000000000E+00  0.00000000000E+00  0.75344732406E+02  0.75344732406E+02  0.00000000000E+00 0.  1.
          3   -1    0    0  501    0  0.00000000000E+00 -0.00000000000E+00 -0.16991103721E+03  0.16991103721E+03  0.00000000000E+00 0. -1.
          5    1    1    2  502    0 -0.19669469157E+01  0.56068530058E+02  0.51449571294E+01  0.56493290990E+02  0.41800000000E+01 0. -1.
         -5    1    1    2    0  502  0.22455451174E+02 -0.60916422929E+02 -0.34785928819E+02  0.73773918926E+02  0.41800000000E+01 0. -1.
        -11    1    1    2    0    0  0.47274282903E+01  0.31507656981E+02 -0.70974394962E+02  0.77797466327E+02  0.00000000000E+00 0. -1.
         11    1    1    2    0    0 -0.25215932549E+02 -0.26659764110E+02  0.60490618511E+01  0.37191093369E+02  0.00000000000E+00 0.  1.
</event>
<event>
 6    1  0.8989754E-006  0.2726494E+03  0.7561462E-02  0.1099773E+00
         -2   -1    0    0    0  501 -0.00000000000E+00  0.00000000000E+00  0.94324521623E+02  0.94324521623E+02  0.00000000000E+00 0.  1.
          2   -1    0    0  501    0  0.00000000000E+00 -0.00000000000E+00 -0.98740541923E+03  0.98740541923E+03  0.00000000000E+00 0. -1.
          5    1    1    2  502    0 -0.70964447720E+02  0.26741347189E+02 -0.14581070866E+03  0.16440586258E+03  0.41800000000E+01 0. -1.
         -5    1    1    2    0  502 -0.19393569444E+03 -0.48075373511E+02 -0.12924248573E+03  0.23799871351E+03  0.41800000000E+01 0. -1.
        -11    1    1    2    0    0  0.95209764471E+02 -0.13813133026E+02 -0.13208246533E+03  0.16340587364E+03  0.00000000000E+00 0.  1.
         11    1    1    2    0    0  0.16969037769E+03  0.35147159348E+02 -0.48594523789E+03  0.51591949112E+03  0.00000000000E+00 0. -1.
</event>
<event>
 6    1  0.8989754E-006  0.1139460E+03  0.7561462E-02  0.1253432E+00
          2   -1    0    0  501    0  0.00000000000E+00  0.00000000000E+00  0.56242534716E+03  0.56242534716E+03  0.00000000000E+00 0. -1.
         -2   -1    0    0    0  501 -0.00000000000E+00 -0.00000000000E+00 -0.29181504877E+02  0.29181504877E+02  0.00000000000E+00 0.  1.
          5    1    1    2  502    0  0.36561600809E+02  0.24860958260E+01  0.87981805029E+02  0.95400218775E+02  0.41800000000E+01 0.  1.
         -5    1    1    2    0  502 -0.10303002563E+03 -0.26367954390E+01  0.16665680019E+03  0.19599515382E+03  0.41800000000E+01 0.  1.
        -11    1    1    2    0    0  0.29122594116E+02  0.28672363861E+02  0.22603661831E+03  0.22970150795E+03  0.00000000000E+00 0. -1.
         11    1    1    2    0    0  0.37345830703E+02 -0.28521664247E+02  0.52568618758E+02  0.70509971497E+02  0.00000000000E+00 0.  1.
</event>
<event>
 6    1  0.8989754E-006  0.8493311E+02  0.7561462E-02  0.1315608E+00
          1   -1    0    0  501    0  0.00000000000E+00  0.00000000000E+00  0.58978097798E+03  0.58978097798E+03  0.00000000000E+00 0. -1.
         -1   -1    0    0    0  501 -0.00000000000E+00 -0.00000000000E+00 -0.21212022114E+02  0.21212022114E+02  0.00000000000E+00 0.  1.
          5    1    1    2  502    0  0.40539421869E+02  0.50565247311E+01  0.23441608849E+03  0.23798610907E+03  0.41800000000E+01 0. -1.
         -5    1    1    2    0  502 -0.39498783812E+02 -0.25824049779E+02  0.32268136910E+02  0.57321379338E+02  0.41800000000E+01 0. -1.
        -11    1    1    2    0    0  0.37011343000E+02  0.22531646951E+02  0.84221910414E+02  0.94714543861E+02  0.00000000000E+00 0.  1.
         11    1    1    2    0    0 -0.38051981057E+02 -0.17641219027E+01  0.21766282005E+03  0.22097096782E+03  0.00000000000E+00 0. -1.
</event>
<event>
 6    1  0.8989754E-006  0.1165558E+03  0.7561462E-02  0.1248890E+00
          1   -1    0    0  501    0  0.00000000000E+00  0.00000000000E+00  0.30411186180E+03  0.30411186180E+03  0.00000000000E+00 0. -1.
         -1   -1    0    0    0  501 -0.00000000000E+00 -0.00000000000E+00 -0.46387439317E+02  0.46387439317E+02  0.00000000000E+00 0.  1.
          5    1    1    2  502    0  0.52059549590E+02 -0.74092450229E+02  0.10017805936E+03  0.13510367819E+03  0.41800000000E+01 0.  1.
         -5    1    1    2    0  502 -0.20490057755E+02  0.37835911295E+02  0.41933816084E+02  0.60227203004E+02  0.41800000000E+01 0.  1.
        -11    1    1    2    0    0 -0.91084894395E+01 -0.28905654436E+02  0.16679914356E+02  0.34593655215E+02  0.00000000000E+00 0. -1.
         11    1    1    2    0    0 -0.22461002396E+02  0.65162193370E+02  0.98932632688E+02  0.12057476471E+03  0.00000000000E+00 0.  1.
</event>
<event>
 6    1  0.8989754E-006  0.9614730E+02  0.7561462E-02  0.1288613E+00
          1   -1    0    0  501    0  0.00000000000E+00  0.00000000000E+00  0.28342652866E+03  0.28342652866E+03  0.00000000000E+00 0. -1.
         -1   -1    0    0    0  501 -0.00000000000E+00 -0.00000000000E+00 -0.51738922657E+02  0.51738922657E+02  0.00000000000E+00 0.  1.
          5    1    1    2  502    0  0.66817692585E+02 -0.73445315383E+01 -0.49339842682E+01  0.67530458215E+02  0.41800000000E+01 0.  1.
         -5    1    1    2    0  502 -0.32314569596E+02  0.19292084766E+02  0.66639619771E+02  0.76646769443E+02  0.41800000000E+01 0.  1.
        -11    1    1    2    0    0 -0.47765596218E+02  0.20534619309E+02  0.10121334985E+03  0.11378648848E+03  0.00000000000E+00 0.  1.
         11    1    1    2    0    0  0.13262473229E+02 -0.32482172537E+02  0.68768620646E+02  0.77201735178E+02  0.00000000000E+00 0. -1.
</event>
<event>
 6    1  0.8989754E-006  0.2382102E+03  0.7561462E-02  0.1120991E+00
          2   -1    0    0  501    0  0.00000000000E+00  0.00000000000E+00  0.80832297266E+02  0.80832297266E+02  0.00000000000E+00 0. -1.
         -2   -1    0    0    0  501 -0.00000000000E+00 -0.00000000000E+00 -0.77728399245E+03  0.77728399245E+03  0.00000000000E+00 0.  1.
          5    1    1    2  502    0 -0.96309530478E+02 -0.57213623018E+02 -0.26940250799E+03  0.29179463332E+03  0.41800000000E+01 0. -1.
         -5    1    1    2    0  502 -0.31287028313E+02 -0.12627658137E+03 -0.14034297762E+03  0.19141127686E+03  0.41800000000E+01 0. -1.
        -11    1    1    2    0    0  0.19141685915E+02 -0.20441370995E+01 -0.57840184298E+02  0.60959573126E+02  0.00000000000E+00 0.  1.
         11    1    1    2    0    0  0.10845487288E+03  0.18553434149E+03 -0.22886602528E+03  0.31395080641E+03  0.00000000000E+00 0. -1.
</event>
<event>
 6    1  0.8989754E-006  0.8050207E+02  0.7561462E-02  0.1327633E+00
         -2   -1    0    0    0  501 -0.00000000000E+00  0.00000000000E+00  0.48283777330E+02  0.48283777330E+02  0.00000000000E+00 0.  1.
          2   -1    0    0  501    0  0.00000000000E+00 -0.00000000000E+00 -0.28188419269E+03  0.28188419269E+03  0.00000000000E+00 0. -1.
          5    1    1    2  502    0 -0.27000958137E+02  0.27658883737E+02 -0.77599960187E+02  0.86794537909E+02  0.41800000000E+01 0. -1.
         -5    1    1    2    0  502  0.29007294470E+02 -0.83559177804E+01  0.25600061004E+02  0.39800502734E+02  0.41800000000E+01 0.  1.
        -11    1    1    2    0    0 -0.33953620722E+02 -0.40848394747E+02 -0.11383379411E+03  0.12561676797E+03  0.00000000000E+00 0.  1.
         11    1    1    2    0    0  0.31947284389E+02  0.21545428791E+02 -0.67766722074E+02  0.77956161413E+02  0.00000000000E+00 0. -1.
</event>
<event>
 6    1  0.8989754E-006  0.1729692E+03  0.7561462E-02  0.1174786E+00
         -1   -1    0    0    0  501 -0.00000000000E+00  0.00000000000E+00  0.49660640934E+03  0.49660640934E+03  0.00000000000E+00 0.  1.
          1   -1    0    0  501    0  0.00000000000E+00 -0.00000000000E+00 -0.94561121354E+02  0.94561121354E+02  0.00000000000E+00 0. -1.
          5    1    1    2  502    0  0.35557416704E+02 -0.14147929657E+03  0.31451241746E+03  0.34672215732E+03  0.41800000000E+01 0.  1.
         -5    1    1    2    0  502  0.38567575230E+02 -0.99263563932E+00  0.17140339585E+02  0.42422951638E+02  0.41800000000E+01 0.  1.
        -11    1    1    2    0    0 -0.52219300088E+02  0.85883178419E+02 -0.10323263407E+02  0.10104130544E+03  0.00000000000E+00 0. -1.
         11    1    1    2    0    0 -0.21905691846E+02  0.56588753794E+02  0.80715794351E+02  0.10098111630E+03  0.00000000000E+00 0.  1.
</event>
<event>
 6    1  0.8989754E-006  0.1161241E+03  0.7561462E-02  0.1249632E+00
          1   -1    0    0  501    0  0.00000000000E+00  0.00000000000E+00  0.44017140943E+03  0.44017140943E+03  0.00000000000E+00 0. -1.
         -1   -1    0    0    0  501 -0.00000000000E+00 -0.00000000000E+00 -0.33639477727E+02  0.33639477727E+02  0.00000000000E+00 0.  1.
          5    1    1    2  502    0  0.49743608882E+02  0.51531349704E+02  0.11240610429E+03  0.13335108289E+03  0.41800000000E+01 0. -1.
         -5    1    1    2    0  502  0.23998856848E+01 -0.64079956630E+02  0.10990907928E+03  0.12731644984E+03  0.41800000000E+01 0. -1.
        -11    1    1    2    0    0 -0.45103499664E+02  0.44597353179E+02  0.70716203889E+02  0.94994900311E+02  0.00000000000E+00 0.  1.
         11    1    1    2    0    0 -0.70399949024E+01 -0.32048746254E+02  0.11350054424E+03  0.11814845411E+03  0.00000000000E+00 0. -1.
</event>
<event>
 6    1  0.8989754E-006  0.1313528E+03  0.7561462E-02  0.1225462E+00
         -1   -1    0    0    0  501 -0.00000000000E+00  0.00000000000E+00  0.74490591314E+03  0.74490591314E+03  0.00000000000E+00 0.  1.
          1   -1    0    0  501    0  0.00000000000E+00 -0.00000000000E+00 -0.29153172399E+02  0.29153172399E+02  0.00000000000E+00 0. -1.
          5    1    1    2  502    0 -0.61282868371E+02  0.83921790788E+02  0.23669628657E+03  0.25853638313E+03  0.41800000000E+01 0.  1.
         -5    1    1    2    0  502  0.30999103899E+02  0.28464535134E+00  0.24826919407E+03  0.25023207346E+03  0.41800000000E+01 0.  1.
        -11    1    1    2    0    0 -0.21062401418E+02  0.74709063800E+01  0.67613814956E+02  0.71211425829E+02  0.00000000000E+00 0.  1.
         11    1    1    2    0    0  0.51346165889E+02 -0.91677342519E+02  0.16317344514E+03  0.19407920311E+03  0.00000000000E+00 0. -1.
</event>
<event>
 6    1  0.8989754E-006  0.8892150E+02  0.7561462E-02  0.1305485E+00
         -2   -1    0    0    0  501 -0.00000000000E+00  0.00000000000E+00  0.35968012997E+02  0.35968012997E+02  0.00000000000E+00 0.  1.
          2   -1    0    0  501    0  0.00000000000E+00 -0.00000000000E+00 -0.77345106232E+03  0.77345106232E+03  0.00000000000E+00 0. -1.
          5    1    1    2  502    0 -0.52526825060E+02 -0.69711157809E-01 -0.29457935958E+03  0.29925498108E+03  0.41800000000E+01 0. -1.
         -5    1    1    2    0  502  0.37503984773E+01 -0.26206960483E+02  0.21825020613E+02  0.34564059242E+02  0.41800000000E+01 0.  1.
        -11    1    1    2    0    0  0.71664110744E+02  0.17006304834E+02 -0.39008649279E+03  0.39697913173E+03  0.00000000000E+00 0.  1.
         11    1    1    2    0    0 -0.22887684161E+02  0.92703668070E+01 -0.74642217564E+02  0.78620903263E+02  0.00000000000E+00 0. -1.
</event>
<event>
 6    1  0.8989754E-006  0.1142108E+03  0.7561462E-02  0.1252965E+00
         -1   -1    0    0    0  501 -0.00000000000E+00  0.00000000000E+00  0.26195358158E+02  0.26195358158E+02  0.00000000000E+00 0.  1.
          1   -1    0    0  501    0  0.00000000000E+00 -0.00000000000E+00 -0.58503857475E+03  0.58503857475E+03  0.00000000000E+00 0. -1.
          5    1    1    2  502    0 -0.55694084070E+02  0.22307451043E+02 -0.11815013384E+03  0.13257594012E+03  0.41800000000E+01 0.  1.
         -5    1    1    2    0  502  0.27326690348E+02 -0.72497271008E+02 -0.15490218712E+03  0.17324769056E+03  0.41800000000E+01 0.  1.
        -11    1    1    2    0    0  0.30501189290E+02 -0.87355803075E+01 -0.32781029394E+02  0.45620486621E+02  0.00000000000E+00 0.  1.
         11    1    1    2    0    0 -0.21337955669E+01  0.58925400273E+02 -0.25300986624E+03  0.25978981561E+03  0.00000000000E+00 0. -1.
</event>
<event>
 6    1  0.8989754E-006  0.1288214E+03  0.7561462E-02  0.1229215E+00
          2   -1    0    0  501    0  0.00000000000E+00  0.00000000000E+00  0.55024760915E+02  0.55024760915E+02  0.00000000000E+00 0.  1.
         -2   -1    0    0    0  501 -0.00000000000E+00 -0.00000000000E+00 -0.36984936844E+03  0.36984936844E+03  0.00000000000E+00 0. -1.
          5    1    1    2  502    0  0.27016414837E+02  0.14486247072E+02 -0.10260949461E+02  0.32595973811E+02  0.41800000000E+01 0. -1.
         -5    1    1    2    0  502 -0.28461246258E+02 -0.99402210694E+02 -0.21635912044E+03  0.23983240696E+03  0.41800000000E+01 0. -1.
        -11    1    1    2    0    0 -0.33270720164E+02  0.19975723141E+01 -0.15153682376E+02  0.36613729733E+02  0.00000000000E+00 0.  1.
         11    1    1    2    0    0  0.34715551586E+02  0.82918391308E+02 -0.73050855244E+02  0.11583201885E+03  0.00000000000E+00 0. -1.
</event>
<event>
 6    1  0.8989754E-006  0.1093267E+03  0.7561462E-02  0.1261822E+00
          2   -1    0    0  501    0  0.00000000000E+00  0.00000000000E+00  0.11217066082E+03  0.11217066082E+03  0.00000000000E+00 0. -1.
         -2   -1    0    0    0  501 -0.00000000000E+00 -0.00000000000E+00 -0.13672733013E+03  0.13672733013E+03  0.00000000000E+00 0.  1.
          5    1    1    2  502    0 -0.61763262249E+02 -0.66888779587E+02 -0.39721969472E+02  0.99418894869E+02  0.41800000000E+01 0.  1.
         -5    1    1    2    0  502  0.27207731010E+02  0.20016065412E+02  0.20753712077E+02  0.39863422661E+02  0.41800000000E+01 0.  1.
        -11    1    1    2    0    0  0.42399624147E+02 -0.34589390780E+01 -0.31050620712E+02  0.52667195046E+02  0.00000000000E+00 0.  1.
         11    1    1    2    0    0 -0.78440929080E+01  0.50331653253E+02  0.25462208790E+02  0.56948478374E+02  0.00000000000E+00 0. -1.
</event>
<event>
 6    1  0.8989754E-006  0.9344900E+02  0.7561462E-02  0.1294708E+00
         -1   -1    0    0    0  501 -0.00000000000E+00  0.00000000000E+00  0.55835901553E+02  0.55835901553E+02  0.00000000000E+00 0.  1.
          1   -1    0    0  501    0  0.00000000000E+00 -0.00000000000E+00 -0.35441522109E+03  0.35441522109E+03  0.00000000000E+00 0. -1.
          5    1    1    2  502    0  0.53928123218E+02 -0.42685315989E+02 -0.16365212220E+03  0.17756623602E+03  0.41800000000E+01 0. -1.
         -5    1    1    2    0  502 -0.30743031865E+01 -0.29355281042E+02  0.17466213611E+02  0.34550323921E+02  0.41800000000E+01 0. -1.
        -11    1    1    2    0    0 -0.19905494140E+02  0.28744373401E+02 -0.13889689519E+03  0.14322993818E+03  0.00000000000E+00 0. -1.
         11    1    1    2    0    0 -0.30948325891E+02  0.43296223630E+02 -0.13496515767E+02  0.54904624522E+02  0.00000000000E+00 0.  1.
</event>
<event>
 6    1  0.8989754E-006  0.1416004E+03  0.7561462E-02  0.1211192E+00
         -1   -1    0    0    0  501 -0.00000000000E+00  0.00000000000E+00  0.24017447319E+02  0.24017447319E+02  0.00000000000E+00 0.  1.
          1   -1    0    0  501    0  0.00000000000E+00 -0.00000000000E+00 -0.89383968794E+03  0.89383968794E+03  0.00000000000E+00 0. -1.
          5    1    1    2  502    0  0.50475927869E+01  0.43956100652E+02 -0.69147807553E+02  0.82197984567E+02  0.41800000000E+01 0. -1.
         -5    1    1    2    0  502  0.90921728340E+02 -0.55506282016E+02 -0.34496131967E+03  0.36105884907E+03  0.41800000000E+01 0. -1.
        -11    1    1    2    0    0  0.13133568436E+02  0.18658205491E+02 -0.65558942196E+02  0.69416094344E+02  0.00000000000E+00 0.  1.
         11    1    1    2    0    0 -0.10910288956E+03 -0.71080241266E+01 -0.39015417121E+03  0.40518420728E+03  0.00000000000E+00 0. -1.
</event>
<event>
 6    1  0.8989754E-006  0.1539081E+03  0.7561462E-02  0.1195751E+00
         -1   -1    0    0    0  501 -0.00000000000E+00  0.00000000000E+00  0.21603599965E+02  0.21603599965E+02  0.00000000000E+00 0. -1.
          1   -1    0    0  501    0  0.00000000000E+00 -0.00000000000E+00 -0.14754817818E+04  0.14754817818E+04  0.00000000000E+00 0.  1.
          5    1    1    2  502    0 -0.48216969223E+02  0.36462355155E+02 -0.52758680602E+03  0.53105526054E+03  0.41800000000E+01 0. -1.
         -5    1    1    2    0  502 -0.43425746265E+02  0.68304390899E+02 -0.13506530264E+03  0.15751632815E+03  0.41800000000E+01 0. -1.
        -11    1    1    2    0    0  0.72893549090E+02 -0.12107402969E+03 -0.68380449738E+03  0.69825567008E+03  0.00000000000E+00 0.  1.
         11    1    1    2    0    0  0.18749166397E+02  0.16307283637E+02 -0.10742157579E+03  0.11025812299E+03  0.00000000000E+00 0. -1.
</event>
<event>
 6    1  0.8989754E-006  0.9592139E+02  0.7561462E-02  0.1289114E+00
          1   -1    0    0  501    0  0.00000000000E+00  0.00000000000E+00  0.28794665943E+02  0.28794665943E+02  0.00000000000E+00 0. -1.
         -1   -1    0    0    0  501 -0.00000000000E+00 -0.00000000000E+00 -0.66532998786E+03  0.66532998786E+03  0.00000000000E+00 0.  1.
          5    1    1    2  502    0 -0.10479382378E+02 -0.32386558947E+02 -0.39044976898E+03  0.39195305989E+03  0.41800000000E+01 0. -1.
         -5    1    1    2    0  502 -0.83576749717E+01 -0.46050478200E+02 -0.34454559505E+02  0.58267369463E+02  0.41800000000E+01 0. -1.
        -11    1    1    2    0    0 -0.15623399764E+02  0.74213238841E+02 -0.18564271053E+03  0.20053655879E+03  0.00000000000E+00 0.  1.
         11    1    1    2    0    0  0.34460457113E+02  0.42237983063E+01 -0.25988282893E+02  0.43367665654E+02  0.00000000000E+00 0. -1.
</event>
<event>
 6    1  0.8989754E-006  0.1232712E+03  0.7561462E-02  0.1237796E+00
          1   -1    0    0  501    0  0.00000000000E+00  0.00000000000E+00  0.12632399644E+03  0.12632399644E+03  0.00000000000E+00 0. -1.
         -1   -1    0    0    0  501 -0.00000000000E+00 -0.00000000000E+00 -0.46515717189E+03  0.46515717189E+03  0.00000000000E+00 0.  1.
          5    1    1    2  502    0 -0.21684665492E+02 -0.21895133941E+02 -0.83012130929E+01  0.32187018293E+02  0.41800000000E+01 0.  1.
         -5    1    1    2    0  502 -0.92056059045E+01 -0.78979644572E+02 -0.39690995580E+03  0.40481787615E+03  0.41800000000E+01 0.  1.
        -11    1    1    2    0    0 -0.23664245654E+02  0.68293122287E+02  0.17651434426E+02  0.74401076682E+02  0.00000000000E+00 0.  1.
         11    1    1    2    0    0  0.54554517050E+02  0.32581656226E+02  0.48726559015E+02  0.80075197199E+02  0.00000000000E+00 0. -1.
</event>
<event>
 6    1  0.8989754E-006  0.9201248E+02  0.7561462E-02  0.1298050E+00
         -1   -1    0    0    0  501 -0.00000000000E+00  0.00000000000E+00  0.24661314559E+02  0.24661314559E+02  0.00000000000E+00 0.  1.
          1   -1    0    0  501    0  0.00000000000E+00 -0.00000000000E+00 -0.61653840227E+03  0.61653840227E+03  0.00000000000E+00 0. -1.
          5    1    1    2  502    0 -0.57828561255E+02 -0.23378554929E+02 -0.61467539793E+02  0.87672288527E+02  0.41800000000E+01 0. -1.
         -5    1    1    2    0  502  0.11013487754E+01  0.20426259077E+02 -0.27456682547E+03  0.27535950878E+03  0.41800000000E+01 0. -1.
        -11    1    1    2    0    0  0.75762813596E+02 -0.11632112136E+02 -0.13751496081E+03  0.15743466709E+03  0.00000000000E+00 0. -1.
         11    1    1    2    0    0 -0.19035601116E+02  0.14584407988E+02 -0.11832776164E+03  0.12073325243E+03  0.00000000000E+00 0.  1.
</event>
<event>
 6    1  0.8989754E-006  0.8690649E+02  0.7561462E-02  0.1310521E+00
         -1   -1    0    0    0  501 -0.00000000000E+00  0.00000000000E+00  0.62081808230E+02  0.62081808230E+02  0.00000000000E+00 0.  1.
          1   -1    0    0  501    0  0.00000000000E+00 -0.00000000000E+00 -0.20185726648E+03  0.20185726648E+03  0.00000000000E+00 0. -1.
          5    1    1    2  502    0  0.10899058315E+02 -0.47521514529E+02 -0.10142083024E+03  0.11260879638E+03  0.41800000000E+01 0.  1.
         -5    1    1    2    0  502  0.15183886061E+02  0.26841066500E+02  0.23021456175E+02  0.38709857804E+02  0.41800000000E+01 0.  1.
        -11    1    1    2    0    0 -0.47211569011E+02  0.42400912707E+02 -0.47646281247E+02  0.79353246711E+02  0.00000000000E+00 0. -1.
         11    1    1    2    0    0  0.21128624636E+02 -0.21720464677E+02 -0.13729802930E+02  0.33267173810E+02  0.00000000000E+00 0.  1.
</event>
<event>
 6    1  0.8989754E-006  0.1143349E+03  0.7561462E-02  0.1252747E+00
         -3   -1    0    0    0  501 -0.00000000000E+00  0.00000000000E+00  0.39075669190E+03  0.39075669190E+03  0.00000000000E+00 0.  1.
          3   -1    0    0  501    0  0.00000000000E+00 -0.00000000000E+00 -0.51708442572E+02  0.51708442572E+02  0.00000000000E+00 0. -1.
          5    1    1    2  502    0  0.13007066211E+02 -0.40367896815E+02  0.12730151899E+03  0.13424567032E+03  0.41800000000E+01 0. -1.
         -5    1    1    2    0  502 -0.88633478739E+02 -0.96855378377E+01  0.55489732695E+02  0.10510131317E+03  0.41800000000E+01 0. -1.
        -11    1    1    2    0    0  0.20135797488E+02 -0.25936899154E+01 -0.80804790404E+01  0.21851126044E+02  0.00000000000E+00 0. -1.
         11    1    1    2    0    0  0.55490615039E+02  0.52647124568E+02  0.16433747668E+03  0.18126702493E+03  0.00000000000E+00 0.  1.
</event>
<event>
 6    1  0.8989754E-006  0.1468371E+03  0.7561462E-02  0.1204414E+00
          1   -1    0    0  501    0  0.00000000000E+00  0.00000000000E+00  0.10299095575E+04  0.10299095575E+04  0.00000000000E+00 0. -1.
         -1   -1    0    0    0  501 -0.00000000000E+00 -0.00000000000E+00 -0.24798230731E+02  0.24798230731E+02  0.00000000000E+00 0.  1.
          5    1    1    2  502    0  0.20581044875E+02  0.20483321024E+02  0.78765659570E+02  0.84051456714E+02  0.41800000000E+01 0.  1.
         -5    1    1    2    0  502 -0.98852025651E+02 -0.86759014305E+02  0.26588485136E+03  0.29666660769E+03  0.41800000000E+01 0.  1.
        -11    1    1    2    0    0 -0.12997226817E+02  0.33227590831E+02  0.13479828788E+03  0.13944023491E+03  0.00000000000E+00 0. -1.
         11    1    1    2    0    0  0.91268207593E+02  0.33048102451E+02  0.52566252800E+03  0.53454948895E+03  0.00000000000E+00 0.  1.
</event>
<event>
 6    1  0.8989754E-006  0.1257274E+03  0.7561462E-02  0.1233937E+00
          1   -1    0    0  501    0  0.00000000000E+00  0.00000000000E+00  0.80854313904E+03  0.80854313904E+03  0.00000000000E+00 0. -1.
         -1   -1    0    0    0  501 -0.00000000000E+00 -0.00000000000E+00 -0.21302197499E+02  0.21302197499E+02  0.00000000000E+00 0.  1.
          5    1    1    2  502    0 -0.47573309779E+02  0.76882622509E+01  0.10497485305E+03  0.11558339566E+03  0.41800000000E+01 0. -1.
         -5    1    1    2    0  502  0.52496115833E+02 -0.79209491338E+02  0.25832115986E+03  0.27527673299E+03  0.41800000000E+01 0. -1.
        -11    1    1    2    0    0  0.34794774181E+02  0.12802456947E+02  0.85445926234E+02  0.93142823256E+02  0.00000000000E+00 0. -1.
         11    1    1    2    0    0 -0.39717580235E+02  0.58718772140E+02  0.33849900240E+03  0.34584238463E+03  0.00000000000E+00 0.  1.
</event>
<event>
 6    1  0.8989754E-006  0.5228905E+02  0.7561462E-02  0.1433372E+00
          2   -1    0    0  501    0  0.00000000000E+00  0.00000000000E+00  0.66327173359E+02  0.66327173359E+02  0.00000000000E+00 0. -1.
         -2   -1    0    0    0  501 -0.00000000000E+00 -0.00000000000E+00 -0.42127337503E+03  0.42127337503E+03  0.00000000000E+00 0.  1.
          5    1    1    2  502    0  0.31453349424E+02  0.29076172442E+02  0.66696279880E+01  0.43551042827E+02  0.41800000000E+01 0. -1.
         -5    1    1    2    0  502 -0.39612245304E+02 -0.11039843117E+02 -0.39912989111E+03  0.40126443961E+03  0.41800000000E+01 0.  1.
        -11    1    1    2    0    0  0.22699425114E+01 -0.99377544257E+01  0.22936626074E+02  0.25099809117E+02  0.00000000000E+00 0.  1.
         11    1    1    2    0    0  0.58889533682E+01 -0.80985748992E+01  0.14577435380E+02  0.17685256838E+02  0.00000000000E+00 0. -1.
</event>
<event>
 6    1  0.8989754E-006  0.1748201E+03  0.7561462E-02  0.1172912E+00
          2   -1    0    0  501    0  0.00000000000E+00  0.00000000000E+00  0.79783474945E+02  0.79783474945E+02  0.00000000000E+00 0.  1.
         -2   -1    0    0    0  501 -0.00000000000E+00 -0.00000000000E+00 -0.49282848704E+03  0.49282848704E+03  0.00000000000E+00 0. -1.
          5    1    1    2  502    0  0.16928229733E+02 -0.38554566223E+02 -0.16133844323E+03  0.16679503950E+03  0.41800000000E+01 0.  1.
         -5    1    1    2    0  502  0.13396757515E+03  0.12212698958E+02 -0.14501713255E+03  0.19784818003E+03  0.41800000000E+01 0.  1.
        -11    1    1    2    0    0 -0.94641375711E+02 -0.23571045701E+02 -0.85838635120E+02  0.12992634633E+03  0.00000000000E+00 0.  1.
         11    1    1    2    0    0 -0.56254429175E+02  0.49912912966E+02 -0.20850801203E+02  0.78042396128E+02  0.00000000000E+00 0. -1.
</event>
<event>
 6    1  0.8989754E-006  0.1130893E+03  0.7561462E-02  0.1254954E+00
         -1   -1    0    0    0  501 -0.00000000000E+00  0.00000000000E+00  0.15364002010E+03  0.15364002010E+03  0.00000000000E+00 0.  1.
          1   -1    0    0  501    0  0.00000000000E+00 -0.00000000000E+00 -0.11838692065E+03  0.11838692065E+03  0.00000000000E+00 0. -1.
          5    1    1    2  502    0 -0.28777886903E+02 -0.21604555957E+02  0.48315108255E+02  0.60388291070E+02  0.41800000000E+01 0. -1.
         -5    1    1    2    0  502 -0.15900451791E+02  0.86681653286E+02 -0.19377906377E+02  0.90330000770E+02  0.41800000000E+01 0. -1.
        -11    1    1    2    0    0  0.98942109853E+01  0.12948893829E+02  0.28693369292E+02  0.32998162126E+02  0.00000000000E+00 0.  1.
         11    1    1    2    0    0  0.34784127709E+02 -0.78025991157E+02 -0.22377471721E+02  0.88310486790E+02  0.00000000000E+00 0. -1.
</event>
<event>
 6    1  0.8989754E-006  0.1573227E+03  0.7561462E-02  0.1191753E+00
          2   -1    0    0  501    0  0.00000000000E+00  0.00000000000E+00  0.54473100803E+03  0.54473100803E+03  0.00000000000E+00 0. -1.
         -2   -1    0    0    0  501 -0.00000000000E+00 -0.00000000000E+00 -0.78272021890E+02  0.78272021890E+02  0.00000000000E+00 0.  1.
          5    1    1    2  502    0  0.29060631732E+02 -0.11006919925E+03  0.30721850523E+03  0.32765901681E+03  0.41800000000E+01 0. -1.
         -5    1    1    2    0  502 -0.63876980207E+02  0.73235160294E+02 -0.82796469275E+01  0.97620091461E+02  0.41800000000E+01 0.  1.
        -11    1    1    2    0    0 -0.23507817102E+02  0.38502267179E+02  0.56454086282E+02  0.72264139798E+02  0.00000000000E+00 0.  1.
         11    1    1    2    0    0  0.58324165577E+02 -0.16682282269E+01  0.11106604155E+03  0.12545978185E+03  0.00000000000E+00 0. -1.
</event>
<event>
 6    1  0.8989754E-006  0.1069766E+03  0.7561462E-02  0.1266273E+00
          2   -1    0    0  501    0  0.00000000000E+00  0.00000000000E+00  0.68252225884E+03  0.68252225884E+03  0.00000000000E+00 0. -1.
         -2   -1    0    0    0  501 -0.00000000000E+00 -0.00000000000E+00 -0.23739959090E+02  0.23739959090E+02  0.00000000000E+00 0.  1.
          5    1    1    2  502    0 -0.21647585655E+02 -0.39726687012E+02  0.32860859297E+02  0.56072596688E+02  0.41800000000E+01 0. -1.
         -5    1    1    2    0  502 -0.12444676361E+02  0.69218185258E+02  0.20039161121E+03  0.21241538876E+03  0.41800000000E+01 0. -1.
        -11    1    1    2    0    0  0.47379409452E+02  0.16518454216E+02  0.15155023392E+03  0.15964066265E+03  0.00000000000E+00 0. -1.
         11    1    1    2    0    0 -0.13287147436E+02 -0.46009952462E+02  0.27397959533E+03  0.27813356983E+03  0.00000000000E+00 0.  1.
</event>
<event>
 6    1  0.8989754E-006  0.1466098E+03  0.7561462E-02  0.1204702E+00
         -2   -1    0    0    0  501 -0.00000000000E+00  0.00000000000E+00  0.31844346502E+02  0.31844346502E+02  0.00000000000E+00 0.  1.
          2   -1    0    0  501    0  0.00000000000E+00 -0.00000000000E+00 -0.88515015679E+03  0.88515015679E+03  0.00000000000E+00 0. -1.
          5    1    1    2  502    0 -0.16414237212E+02  0.11404062551E+03 -0.16875979070E+03  0.20438207066E+03  0.41800000000E+01 0.  1.
         -5    1    1    2    0  502  0.42860939398E+02  0.61363338553E+01 -0.19099239951E+03  0.19588334230E+03  0.41800000000E+01 0.  1.
        -11    1    1    2    0    0  0.16737615703E+02 -0.27671897024E+02 -0.38103049023E+02  0.49977234909E+02  0.00000000000E+00 0.  1.
         11    1    1    2    0    0 -0.43184317889E+02 -0.92505062341E+02 -0.45545057105E+03  0.46675185542E+03  0.00000000000E+00 0. -1.
</event>
<event>
 6    1  0.8989754E-006  0.1162016E+03  0.7561462E-02  0.1249498E+00
         -1   -1    0    0    0  501 -0.00000000000E+00  0.00000000000E+00  0.79975978007E+02  0.79975978007E+02  0.00000000000E+00 0.  1.
          1   -1    0    0  501    0  0.00000000000E+00 -0.00000000000E+00 -0.21207262594E+03  0.21207262594E+03  0.00000000000E+00 0. -1.
          5    1    1    2  502    0  0.94859508860E+00  0.36308536323E+02  0.18124657176E+01  0.36605560705E+02  0.41800000000E+01 0.  1.
         -5    1    1    2    0  502 -0.44165075252E+02 -0.92235881537E+02 -0.58197528249E+02  0.11773884834E+03  0.41800000000E+01 0.  1.
        -11    1    1    2    0    0  0.14764162778E+02 -0.12525957538E+02  0.12064365249E+02  0.22812913528E+02  0.00000000000E+00 0.  1.
         11    1    1    2    0    0  0.28452317385E+02  0.68453302753E+02 -0.87775950652E+02  0.11489128137E+03  0.00000000000E+00 0. -1.
</event>
<event>
 6    1  0.8989754E-006  0.1385607E+03  0.7561462E-02  0.1215279E+00
          1   -1    0    0  501    0  0.00000000000E+00  0.00000000000E+00  0.46734562255E+02  0.46734562255E+02  0.00000000000E+00 0. -1.
         -1   -1    0    0    0  501 -0.00000000000E+00 -0.00000000000E+00 -0.44789783234E+03  0.44789783234E+03  0.00000000000E+00 0.  1.
          5    1    1    2  502    0  0.79655399980E+02  0.31340402884E+02 -0.17426808420E+03  0.19420103287E+03  0.41800000000E+01 0.  1.
         -5    1    1    2    0  502 -0.31164995935E+02  0.49979846198E+02 -0.39845379209E+02  0.71234602841E+02  0.41800000000E+01 0.  1.
        -11    1    1    2    0    0  0.24009773926E+02 -0.80206983881E+00 -0.30946322954E+02  0.39176363593E+02  0.00000000000E+00 0.  1.
         11    1    1    2    0    0 -0.72500177971E+02 -0.80518179243E+02 -0.15610348372E+03  0.19002039529E+03  0.00000000000E+00 0. -1.
</event>
<event>
 6    1  0.8989754E-006  0.9083857E+02  0.7561462E-02  0.1300834E+00
         -1   -1    0    0    0  501 -0.00000000000E+00  0.00000000000E+00  0.11814083420E+03  0.11814083420E+03  0.00000000000E+00 0.  1.
          1   -1    0    0  501    0  0.00000000000E+00 -0.00000000000E+00 -0.17890045164E+03  0.17890045164E+03  0.00000000000E+00 0. -1.
          5    1    1    2  502    0 -0.40180579536E+01  0.35644977307E+02 -0.11906405564E+02  0.38025571533E+02  0.41800000000E+01 0. -1.
         -5    1    1    2    0  502 -0.17308145059E+02 -0.62543201589E+02  0.76891475999E+02  0.10070250956E+03  0.41800000000E+01 0.  1.
        -11    1    1    2    0    0  0.41778378396E+02 -0.55846585773E+01 -0.21688226646E+02  0.47402536724E+02  0.00000000000E+00 0.  1.
         11    1    1    2    0    0 -0.20452175383E+02  0.32482882859E+02 -0.10405646123E+03  0.11091066802E+03  0.00000000000E+00 0. -1.
</event>
<event>
 6    1  0.8989754E-006  0.1072138E+03  0.7561462E-02  0.1265818E+00
          1   -1    0    0  501    0  0.00000000000E+00  0.00000000000E+00  0.27991717763E+03  0.27991717763E+03  0.00000000000E+00 0. -1.
         -1   -1    0    0    0  501 -0.00000000000E+00 -0.00000000000E+00 -0.78163785806E+02  0.78163785806E+02  0.00000000000E+00 0.  1.
          5    1    1    2  502    0  0.43512544202E+02 -0.62124048698E+01 -0.36058176909E+02  0.57005262908E+02  0.41800000000E+01 0. -1.
         -5    1    1    2    0  502  0.20319406290E+01 -0.57945977012E+02  0.76725703232E+02  0.96260952473E+02  0.41800000000E+01 0. -1.
        -11    1    1    2    0    0 -0.67721147912E+02  0.37304197389E+02  0.14915055995E+03  0.16799894807E+03  0.00000000000E+00 0. -1.
         11    1    1    2    0    0  0.22176663081E+02  0.26854184493E+02  0.11935305545E+02  0.36815799986E+02  0.00000000000E+00 0.  1.
</event>
<event>
 6    1  0.8989754E-006  0.1202929E+03  0.7561462E-02  0.1242615E+00
          2   -1    0    0  501    0  0.00000000000E+00  0.00000000000E+00  0.56734143511E+03  0.56734143511E+03  0.00000000000E+00 0. -1.
         -2   -1    0    0    0  501 -0.00000000000E+00 -0.00000000000E+00 -0.62403653326E+02  0.62403653326E+02  0.00000000000E+00 0.  1.
          5    1    1    2  502    0 -0.12930649303E+02 -0.49880832306E+02  0.12605647975E+03  0.13624612879E+03  0.41800000000E+01 0. -1.
         -5    1    1    2    0  502  0.84150536015E+01 -0.67801793345E+02 -0.17401692860E+02  0.70627102604E+02  0.41800000000E+01 0.  1.
        -11    1    1    2    0    0 -0.10445311503E+02  0.56022114746E+02  0.68978629307E+02  0.89474203959E+02  0.00000000000E+00 0. -1.
         11    1    1    2    0    0  0.14960907205E+02  0.61660510904E+02  0.32730436559E+03  0.33339765308E+03  0.00000000000E+00 0.  1.
</event>
<event>
 6    1  0.8989754E-006  0.9766950E+02  0.7561462E-02  0.1285274E+00
          1   -1    0    0  501    0  0.00000000000E+00  0.00000000000E+00  0.11681458460E+03  0.11681458460E+03  0.00000000000E+00 0. -1.
         -1   -1    0    0    0  501 -0.00000000000E+00 -0.00000000000E+00 -0.11519342208E+03  0.11519342208E+03  0.00000000000E+00 0.  1.
          5    1    1    2  502    0 -0.35001237878E+02 -0.27360230220E+02  0.38158532976E+02  0.58712987401E+02  0.41800000000E+01 0. -1.
         -5    1    1    2    0  502  0.51183500918E+02 -0.86469725247E+01 -0.51329752320E+02  0.73121383830E+02  0.41800000000E+01 0. -1.
        -11    1    1    2    0    0  0.33292293033E+02 -0.58891653024E+01  0.95454469825E+01  0.35130821246E+02  0.00000000000E+00 0.  1.
         11    1    1    2    0    0 -0.49474556072E+02  0.41896368047E+02  0.52469348836E+01  0.65042814205E+02  0.00000000000E+00 0. -1.
</event>
<event>
 6    1  0.8989754E-006  0.1898377E+03  0.7561462E-02  0.1158608E+00
         -2   -1    0    0    0  501 -0.00000000000E+00  0.00000000000E+00  0.45733619861E+02  0.45733619861E+02  0.00000000000E+00 0.  1.
          2   -1    0    0  501    0  0.00000000000E+00 -0.00000000000E+00 -0.92384272663E+03  0.92384272663E+03  0.00000000000E+00 0. -1.
          5    1    1    2  502    0  0.15024261982E+02 -0.59417695443E+02 -0.46552713134E+02  0.77076705171E+02  0.41800000000E+01 0. -1.
         -5    1    1    2    0  502  0.13097371479E+03 -0.13652916769E+02 -0.26993246601E+03  0.30036898093E+03  0.41800000000E+01 0. -1.
        -11    1    1    2    0    0 -0.42043104184E+02  0.71006778398E+02 -0.28089087926E+03  0.29276145791E+03  0.00000000000E+00 0. -1.
         11    1    1    2    0    0 -0.10395487259E+03  0.20638338149E+01 -0.28073304837E+03  0.29936920248E+03  0.00000000000E+00 0.  1.
</event>
<event>
 6    1  0.8989754E-006  0.1097578E+03  0.7561462E-02  0.1261019E+00
          1   -1    0    0  501    0  0.00000000000E+00  0.00000000000E+00  0.45247986861E+03  0.45247986861E+03  0.00000000000E+00 0. -1.
         -1   -1    0    0    0  501 -0.00000000000E+00 -0.00000000000E+00 -0.33950176636E+02  0.33950176636E+02  0.00000000000E+00 0.  1.
          5    1    1    2  502    0 -0.34161410496E+02 -0.47953413012E+02  0.89693329521E+02  0.10737270392E+03  0.41800000000E+01 0. -1.
         -5    1    1    2    0  502  0.53755155620E+02  0.41429529713E+02  0.50622148012E+02  0.84770849691E+02  0.41800000000E+01 0.  1.
        -11    1    1    2    0    0  0.13904214508E+02  0.41677516887E+02  0.93692071877E+02  0.10348210921E+03  0.00000000000E+00 0.  1.
         11    1    1    2    0    0 -0.33497959632E+02 -0.35153633589E+02  0.18452214256E+03  0.19080438242E+03  0.00000000000E+00 0. -1.
</event>
<event>
 6    1  0.1160144E-005  0.9391505E+02  0.7561462E-02  0.1293639E+00
          3   -1    0    0  501    0  0.00000000000E+00  0.00000000000E+00  0.84574863013E+02  0.84574863013E+02  0.00000000000E+00 0. -1.
         -3   -1    0    0    0  501 -0.00000000000E+00 -0.00000000000E+00 -0.14715495329E+03  0.14715495329E+03  0.00000000000E+00 0.  1.
          5    1    1    2  502    0 -0.47175409024E+02  0.14756555243E+02 -0.55256788694E+02  0.74256718457E+02  0.41800000000E+01 0. -1.
         -5    1    1    2    0  502  0.63983282620E+02 -0.11780449394E+02 -0.42967091870E+01  0.65334321398E+02  0.41800000000E+01 0. -1.
        -11    1    1    2    0    0 -0.34774395384E+02 -0.26292805402E+02 -0.29427520024E+02  0.52597995447E+02  0.00000000000E+00 0.  1.
         11    1    1    2    0    0  0.17966521789E+02  0.23316699553E+02  0.26400927623E+02  0.39540781006E+02  0.00000000000E+00 0. -1.
</event>
<event>
 6    1  0.1982188E-005  0.1460907E+03  0.7561462E-02  0.1205361E+00
          1   -1    0    0  501    0  0.00000000000E+00  0.00000000000E+00  0.30550133570E+03  0.30550133570E+03  0.00000000000E+00 0. -1.
         -1   -1    0    0    0  501 -0.00000000000E+00 -0.00000000000E+00 -0.74243471459E+02  0.74243471459E+02  0.00000000000E+00 0.  1.
          5    1    1    2  502    0 -0.11564458111E+03  0.56993362105E+02  0.63329169675E+02  0.14370096936E+03  0.41800000000E+01 0.  1.
         -5    1    1    2    0  502  0.27534648677E+02 -0.14248880096E+01  0.41214069263E+02  0.49762024565E+02  0.41800000000E+01 0.  1.
        -11    1    1    2    0    0  0.40633938209E+02  0.20592817966E+02  0.31173657360E+02  0.55199438397E+02  0.00000000000E+00 0.  1.
         11    1    1    2    0    0  0.47475994226E+02 -0.76161292061E+02  0.95540967943E+02  0.13108237483E+03  0.00000000000E+00 0. -1.
</event>
<event>
 6    1  0.8989754E-006  0.1662862E+03  0.7561462E-02  0.1181777E+00
          1   -1    0    0  501    0  0.00000000000E+00  0.00000000000E+00  0.15743965835E+03  0.15743965835E+03  0.00000000000E+00 0. -1.
         -1   -1    0    0    0  501 -0.00000000000E+00 -0.00000000000E+00 -0.26751817354E+03  0.26751817354E+03  0.00000000000E+00 0.  1.
          5    1    1    2  502    0  0.63644217584E+02  0.20308473005E+02 -0.12469808480E+03  0.14152775438E+03  0.41800000000E+01 0. -1.
         -5    1    1    2    0  502  0.26437719239E+02  0.98883120091E+02 -0.28472446611E+02  0.10632486564E+03  0.41800000000E+01 0. -1.
        -11    1    1    2    0    0 -0.28213492959E+02 -0.90874411987E+02  0.52079638765E+02  0.10847326266E+03  0.00000000000E+00 0. -1.
         11    1    1    2    0    0 -0.61868443864E+02 -0.28317181109E+02 -0.89876225487E+01  0.68631949201E+02  0.00000000000E+00 0.  1.
</event>
<event>
 6    1  0.8989754E-006  0.1128137E+03  0.7561462E-02  0.1255446E+00
         -1   -1    0    0    0  501 -0.00000000000E+00  0.00000000000E+00  0.34386962622E+03  0.34386962622E+03  0.00000000000E+00 0.  1.
          1   -1    0    0  501    0  0.00000000000E+00 -0.00000000000E+00 -0.37767675996E+02  0.37767675996E+02  0.00000000000E+00 0. -1.
          5    1    1    2  502    0 -0.76719286639E+02 -0.40266931119E+01  0.10325025991E+03  0.12876393817E+03  0.41800000000E+01 0. -1.
         -5    1    1    2    0  502  0.40480992776E+02 -0.35877854274E+02  0.53674126884E+02  0.76317203173E+02  0.41800000000E+01 0.  1.
        -11    1    1    2    0    0 -0.19020118729E+02  0.33874953358E+02  0.61286883047E+02  0.72562796357E+02  0.00000000000E+00 0. -1.
         11    1    1    2    0    0  0.55258412592E+02  0.60295940277E+01  0.87890680379E+02  0.10399336452E+03  0.00000000000E+00 0.  1.
</event>
<event>
 6    1  0.8989754E-006  0.5178329E+02  0.7561462E-02  0.1435954E+00
          2   -1    0    0  501    0  0.00000000000E+00  0.00000000000E+00  0.17011842220E+03  0.17011842220E+03  0.00000000000E+00 0. -1.
         -2   -1    0    0    0  501 -0.00000000000E+00 -0.00000000000E+00 -0.71054309586E+02  0.71054309586E+02  0.00000000000E+00 0.  1.
          5    1    1    2  502    0  0.34136162415E+01  0.11828234707E+02 -0.41001021307E+02  0.43012975488E+02  0.41800000000E+01 0. -1.
         -5    1    1    2    0  502 -0.34652390230E+02 -0.73827198244E+01  0.86855585198E+02  0.93897059490E+02  0.41800000000E+01 0. -1.
        -11    1    1    2    0    0  0.42938636780E+02 -0.23454039780E+01  0.70916434697E+02  0.82935928032E+02  0.00000000000E+00 0. -1.
         11    1    1    2    0    0 -0.11699862791E+02 -0.21001109051E+01 -0.17706885979E+02  0.21326768771E+02  0.00000000000E+00 0.  1.
</event>
<event>
 6    1  0.8989754E-006  0.1004831E+03  0.7561462E-02  0.1279283E+00
          1   -1    0    0  501    0  0.00000000000E+00  0.00000000000E+00  0.12624537129E+03  0.12624537129E+03  0.00000000000E+00 0. -1.
         -1   -1    0    0    0  501 -0.00000000000E+00 -0.00000000000E+00 -0.10558160006E+03  0.10558160006E+03  0.00000000000E+00 0.  1.
          5    1    1    2  502    0 -0.12554478458E+02 -0.49829298563E+02 -0.51217949943E+01  0.51810029035E+02  0.41800000000E+01 0.  1.
         -5    1    1    2    0  502 -0.11753149307E+02  0.77936887641E+02 -0.71716171213E+01  0.79254018611E+02  0.41800000000E+01 0.  1.
        -11    1    1    2    0    0 -0.17709177131E+02 -0.21650899836E+02  0.48095652859E+02  0.55637831035E+02  0.00000000000E+00 0. -1.
         11    1    1    2    0    0  0.42016804896E+02 -0.64566892426E+01 -0.15138469516E+02  0.45125092675E+02  0.00000000000E+00 0.  1.
</event>
<event>
 6    1  0.8989754E-006  0.2589382E+03  0.7561462E-02  0.1107783E+00
         -4   -1    0    0    0  501 -0.00000000000E+00  0.00000000000E+00  0.11564490940E+03  0.11564490940E+03  0.00000000000E+00 0.  1.
          4   -1    0    0  501    0  0.00000000000E+00 -0.00000000000E+00 -0.66784998977E+03  0.66784998977E+03  0.00000000000E+00 0. -1.
          5    1    1    2  502    0  0.16073184719E+03  0.11321320863E+03 -0.16810672473E+03  0.25870697828E+03  0.41800000000E+01 0.  1.
         -5    1    1    2    0  502  0.49549686454E+02  0.24123852068E+02 -0.18060553268E+03  0.18887287392E+03  0.41800000000E+01 0.  1.
        -11    1    1    2    0    0 -0.17281380181E+03 -0.65254066871E+02 -0.15621039114E+03  0.24191814657E+03  0.00000000000E+00 0. -1.
         11    1    1    2    0    0 -0.37467731839E+02 -0.72082993827E+02 -0.47282431830E+02  0.93996900417E+02  0.00000000000E+00 0.  1.
</event>
<event>
 6    1  0.8989754E-006  0.1474295E+03  0.7561462E-02  0.1203668E+00
          2   -1    0    0  501    0  0.00000000000E+00  0.00000000000E+00  0.12890989567E+03  0.12890989567E+03  0.00000000000E+00 0. -1.
         -2   -1    0    0    0  501 -0.00000000000E+00 -0.00000000000E+00 -0.24069796192E+03  0.24069796192E+03  0.00000000000E+00 0.  1.
          5    1    1    2  502    0 -0.53932910273E+02 -0.11690496025E+02  0.36148156858E+02  0.66102860393E+02  0.41800000000E+01 0. -1.
         -5    1    1    2    0  502 -0.82327830951E+02 -0.12526570771E+02 -0.10196890993E+03  0.13171908638E+03  0.41800000000E+01 0. -1.
        -11    1    1    2    0    0  0.39318204800E+01  0.23477365983E+02  0.12760342466E+02  0.27008744244E+02  0.00000000000E+00 0. -1.
         11    1    1    2    0    0  0.13232892074E+03  0.73970081370E+00 -0.58727655654E+02  0.14477716657E+03  0.00000000000E+00 0.  1.
</event>
<event>
 6    1  0.8989754E-006  0.1413534E+03  0.7561462E-02  0.1211519E+00
         -2   -1    0    0    0  501 -0.00000000000E+00  0.00000000000E+00  0.29067844200E+03  0.29067844200E+03  0.00000000000E+00 0.  1.
          2   -1    0    0  501    0  0.00000000000E+00 -0.00000000000E+00 -0.93895499977E+02  0.93895499977E+02  0.00000000000E+00 0. -1.
          5    1    1    2  502    0  0.23899305384E+02 -0.77839479614E+01  0.77685164565E+02  0.81757102671E+02  0.41800000000E+01 0.  1.
         -5    1    1    2    0  502  0.98063757468E+00 -0.11248614246E+03  0.66115679143E+01  0.11276204648E+03  0.41800000000E+01 0.  1.
        -11    1    1    2    0    0  0.23466738089E+02  0.74404155129E+02  0.91373305724E+02  0.12014885391E+03  0.00000000000E+00 0.  1.
         11    1    1    2    0    0 -0.48346681047E+02  0.45865935290E+02  0.21112903817E+02  0.69905938917E+02  0.00000000000E+00 0. -1.
</event>
<event>
 6    1  0.8989754E-006  0.2503809E+03  0.7561462E-02  0.1113064E+00
          2   -1    0    0  501    0  0.00000000000E+00  0.00000000000E+00  0.42115602011E+03  0.42115602011E+03  0.00000000000E+00 0.  1.
         -2   -1    0    0    0  501 -0.00000000000E+00 -0.00000000000E+00 -0.17310306999E+03  0.17310306999E+03  0.00000000000E+00 0. -1.
          5    1    1    2  502    0 -0.55565206303E+02 -0.66361701400E+02 -0.27440047259E+02  0.90894423139E+02  0.41800000000E+01 0.  1.
         -5    1    1    2    0  502 -0.10347195079E+03 -0.12160542775E+03  0.12212420501E+03  0.20106247414E+03  0.41800000000E+01 0.  1.
        -11    1    1    2    0    0 -0.32377685253E+01  0.22110235693E+02  0.35742589714E+02  0.42153035322E+02  0.00000000000E+00 0.  1.
         11    1    1    2    0    0  0.16227492562E+03  0.16585689346E+03  0.11762620266E+03  0.26014915749E+03  0.00000000000E+00 0. -1.
</event>
<event>
 6    1  0.8989754E-006  0.1046995E+03  0.7561462E-02  0.1270713E+00
          1   -1    0    0  501    0  0.00000000000E+00  0.00000000000E+00  0.39522583814E+03  0.39522583814E+03  0.00000000000E+00 0. -1.
         -1   -1    0    0    0  501 -0.00000000000E+00 -0.00000000000E+00 -0.50994721149E+02  0.50994721149E+02  0.00000000000E+00 0.  1.
          5    1    1    2  502    0 -0.51940779145E+02  0.10993874748E+02  0.77195165086E+01  0.53812388492E+02  0.41800000000E+01 0. -1.
         -5    1    1    2    0  502  0.29485154247E+02 -0.73191292085E+02  0.81204340058E+02  0.11330470777E+03  0.41800000000E+01 0. -1.
        -11    1    1    2    0    0  0.26738075068E+02  0.16911160803E+02  0.15890429068E+02  0.35403640406E+02  0.00000000000E+00 0.  1.
         11    1    1    2    0    0 -0.42824501704E+01  0.45286256533E+02  0.23941683135E+03  0.24369982262E+03  0.00000000000E+00 0. -1.
</event>
<event>
 6    1  0.1479217E-005  0.8671553E+02  0.7561462E-02  0.1311006E+00
          1   -1    0    0  501    0  0.00000000000E+00  0.00000000000E+00  0.86781290630E+02  0.86781290630E+02  0.00000000000E+00 0. -1.
         -1   -1    0    0    0  501 -0.00000000000E+00 -0.00000000000E+00 -0.20361048107E+03  0.20361048107E+03  0.00000000000E+00 0.  1.
          5    1    1    2  502    0 -0.38375981774E+02  0.62704956659E+01 -0.12746841531E+03  0.13333305815E+03  0.41800000000E+01 0.  1.
         -5    1    1    2    0  502  0.47744184568E+01  0.45594450016E+02  0.12226538777E+02  0.47629923308E+02  0.41800000000E+01 0.  1.
        -11    1    1    2    0    0 -0.15953852008E+02 -0.30300951880E+02  0.31108204164E+02  0.46264386357E+02  0.00000000000E+00 0. -1.
         11    1    1    2    0    0  0.49555415326E+02 -0.21563993802E+02 -0.32695518072E+02  0.63164403890E+02  0.00000000000E+00 0.  1.
</event>
<event>
 6    1  0.8989754E-006  0.1511061E+03  0.7561462E-02  0.1199120E+00
         -3   -1    0    0    0  501 -0.00000000000E+00  0.00000000000E+00  0.11228350066E+03  0.11228350066E+03  0.00000000000E+00 0.  1.
          3   -1    0    0  501    0  0.00000000000E+00 -0.00000000000E+00 -0.24680428678E+03  0.24680428678E+03  0.00000000000E+00 0. -1.
          5    1    1    2  502    0  0.22396124967E+02  0.50985422839E+02 -0.13420890458E+02  0.57434244631E+02  0.41800000000E+01 0.  1.
         -5    1    1    2    0  502  0.10244391937E+03 -0.63979446244E+02 -0.50033198772E+02  0.13080106857E+03  0.41800000000E+01 0.  1.
        -11    1    1    2    0    0 -0.81105441216E+02  0.84770424722E+01 -0.91331936419E+02  0.12243968088E+03  0.00000000000E+00 0. -1.
         11    1    1    2    0    0 -0.43734603125E+02  0.45169809327E+01  0.20265239529E+02  0.48412793355E+02  0.00000000000E+00 0.  1.
</event>
<event>
 6    1  0.8989754E-006  0.1224329E+03  0.7561462E-02  0.1239137E+00
          1   -1    0    0  501    0  0.00000000000E+00  0.00000000000E+00  0.67675217940E+03  0.67675217940E+03  0.00000000000E+00 0. -1.
         -1   -1    0    0    0  501 -0.00000000000E+00 -0.00000000000E+00 -0.25067941676E+02  0.25067941676E+02  0.00000000000E+00 0.  1.
          5    1    1    2  502    0  0.76651438697E+02 -0.25371190384E+02  0.15030663364E+03  0.17067131238E+03  0.41800000000E+01 0. -1.
         -5    1    1    2    0  502 -0.28012968141E+02  0.47049885638E+02  0.90451527237E+02  0.10581762283E+03  0.41800000000E+01 0. -1.
        -11    1    1    2    0    0 -0.67686158801E+02  0.13570219740E+02  0.23695909203E+03  0.24681000436E+03  0.00000000000E+00 0.  1.
         11    1    1    2    0    0  0.19047688246E+02 -0.35248914994E+02  0.17396698482E+03  0.17852118150E+03  0.00000000000E+00 0. -1.
</event>
<event>
 6    1  0.8989754E-006  0.1493392E+03  0.7561462E-02  0.1201287E+00
         -1   -1    0    0    0  501 -0.00000000000E+00  0.00000000000E+00  0.40510713979E+02  0.40510713979E+02  0.00000000000E+00 0.  1.
          1   -1    0    0  501    0  0.00000000000E+00 -0.00000000000E+00 -0.62227582603E+03  0.62227582603E+03  0.00000000000E+00 0. -1.
          5    1    1    2  502    0 -0.13234499791E+03 -0.27008363565E+02 -0.18705610632E+03  0.23076418588E+03  0.41800000000E+01 0.  1.
         -5    1    1    2    0  502  0.29069997110E+02 -0.11713535152E+01 -0.36002546095E+02  0.46476795569E+02  0.41800000000E+01 0.  1.
        -11    1    1    2    0    0  0.96750757983E+02  0.51729562758E+02 -0.23367620755E+03  0.25814962098E+03  0.00000000000E+00 0. -1.
         11    1    1    2    0    0  0.65242428219E+01 -0.23549845678E+02 -0.12503025209E+03  0.12739593758E+03  0.00000000000E+00 0.  1.
</event>
<event>
 6    1  0.8989754E-006  0.1504003E+03  0.7561462E-02  0.1199982E+00
         -1   -1    0    0    0  501 -0.00000000000E+00  0.00000000000E+00  0.30512633229E+03  0.30512633229E+03  0.00000000000E+00 0.  1.
          1   -1    0    0  501    0  0.00000000000E+00 -0.00000000000E+00 -0.13132367714E+03  0.13132367714E+03  0.00000000000E+00 0. -1.
          5    1    1    2  502    0  0.29389964279E+02 -0.94981906170E+01  0.52868485937E+02  0.61372101403E+02  0.41800000000E+01 0. -1.
         -5    1    1    2    0  502 -0.93347126910E+02  0.93220799471E+02  0.18149227449E+03  0.22441194633E+03  0.41800000000E+01 0. -1.
        -11    1    1    2    0    0  0.86135272833E+02 -0.58858011169E+02 -0.41449461319E+02  0.11225688642E+03  0.00000000000E+00 0. -1.
         11    1    1    2    0    0 -0.22178110202E+02 -0.24864597685E+02 -0.19108643957E+02  0.38409075282E+02  0.00000000000E+00 0.  1.
</event>
<event>
 6    1  0.8989754E-006  0.1673535E+03  0.7561462E-02  0.1180636E+00
          2   -1    0    0  501    0  0.00000000000E+00  0.00000000000E+00  0.63709481653E+03  0.63709481653E+03  0.00000000000E+00 0. -1.
         -2   -1    0    0    0  501 -0.00000000000E+00 -0.00000000000E+00 -0.46204525501E+02  0.46204525501E+02  0.00000000000E+00 0.  1.
          5    1    1    2  502    0 -0.43521345593E+01 -0.94650337189E+02  0.14965946498E+03  0.17718085467E+03  0.41800000000E+01 0. -1.
         -5    1    1    2    0  502  0.96680553894E+02  0.56907944078E+02  0.17474500821E+03  0.20769914274E+03  0.41800000000E+01 0.  1.
        -11    1    1    2    0    0  0.11075830804E+01  0.34075036710E+02  0.35478077654E+02  0.49203951682E+02  0.00000000000E+00 0.  1.
         11    1    1    2    0    0 -0.93436002415E+02  0.36673564013E+01  0.23100774018E+03  0.24921539293E+03  0.00000000000E+00 0. -1.
</event>
<event>
 6    1  0.8989754E-006  0.1295724E+03  0.7561462E-02  0.1228092E+00
          2   -1    0    0  501    0  0.00000000000E+00  0.00000000000E+00  0.14065006873E+03  0.14065006873E+03  0.00000000000E+00 0. -1.
         -2   -1    0    0    0  501 -0.00000000000E+00 -0.00000000000E+00 -0.16239240235E+03  0.16239240235E+03  0.00000000000E+00 0.  1.
          5    1    1    2  502    0  0.32987938743E+02  0.11147694690E+03 -0.58343624745E+02  0.13014132603E+03  0.41800000000E+01 0. -1.
         -5    1    1    2    0  502 -0.31946379405E+02 -0.11964382583E+02  0.11809509968E+02  0.36340810852E+02  0.41800000000E+01 0. -1.
        -11    1    1    2    0    0  0.18441678176E+02 -0.74456341258E+02  0.53695138795E+02  0.93632313748E+02  0.00000000000E+00 0. -1.
         11    1    1    2    0    0 -0.19483237514E+02 -0.25056223056E+02 -0.28903357634E+02  0.42928020457E+02  0.00000000000E+00 0.  1.
</event>
<event>
 6    1  0.8989754E-006  0.7698831E+02  0.7561462E-02  0.1337822E+00
         -1   -1    0    0    0  501 -0.00000000000E+00  0.00000000000E+00  0.82852830836E+02  0.82852830836E+02  0.00000000000E+00 0.  1.
          1   -1    0    0  501    0  0.00000000000E+00 -0.00000000000E+00 -0.22339956861E+03  0.22339956861E+03  0.00000000000E+00 0. -1.
          5    1    1    2  502    0  0.28491786772E+01 -0.66134391592E+02 -0.58732449047E+02  0.88593727438E+02  0.41800000000E+01 0.  1.
         -5    1    1    2    0  502  0.76596870676E+01  0.96955771676E+01  0.47731001575E+02  0.49481268516E+02  0.41800000000E+01 0.  1.
        -11    1    1    2    0    0 -0.29045422524E+02  0.42205865336E+02 -0.13481317469E+03  0.14422053844E+03  0.00000000000E+00 0. -1.
         11    1    1    2    0    0  0.18536556779E+02  0.14232949088E+02  0.52678843920E+01  0.23956865048E+02  0.00000000000E+00 0.  1.
</event>
<event>
 6    1  0.8989754E-006  0.1237836E+03  0.7561462E-02  0.1236983E+00
          1   -1    0    0  501    0  0.00000000000E+00  0.00000000000E+00  0.51388216091E+03  0.51388216091E+03  0.00000000000E+00 0. -1.
         -1   -1    0    0    0  501 -0.00000000000E+00 -0.00000000000E+00 -0.50523643969E+02  0.50523643969E+02  0.00000000000E+00 0.  1.
          5    1    1    2  502    0  0.42364075797E+02 -0.51307879480E+02  0.88862874303E+01  0.67258099283E+02  0.41800000000E+01 0. -1.
         -5    1    1    2    0  502  0.29859778504E+02  0.56435695431E+02  0.69144768237E+02  0.94207565862E+02  0.41800000000E+01 0.  1.
        -11    1    1    2    0    0  0.19183023529E+02  0.13719345355E+02  0.99698196422E+02  0.10244969106E+03  0.00000000000E+00 0.  1.
         11    1    1    2    0    0 -0.91406877830E+02 -0.18847161305E+02  0.28562926485E+03  0.30049044868E+03  0.00000000000E+00 0. -1.
</event>
<event>
 6    1  0.8989754E-006  0.9739213E+02  0.7561462E-02  0.1285878E+00
         -1   -1    0    0    0  501 -0.00000000000E+00  0.00000000000E+00  0.15325965882E+03  0.15325965882E+03  0.00000000000E+00 0.  1.
          1   -1    0    0  501    0  0.00000000000E+00 -0.00000000000E+00 -0.13730048457E+03  0.13730048457E+03  0.00000000000E+00 0. -1.
          5    1    1    2  502    0 -0.56715446069E+02 -0.45138575772E+02  0.90434175104E+02  0.11597389910E+03  0.41800000000E+01 0.  1.
         -5    1    1    2    0  502  0.40951626136E+02 -0.16608517595E+02 -0.31638848496E+02  0.54510252926E+02  0.41800000000E+01 0. -1.
        -11    1    1    2    0    0 -0.14937594173E+02  0.30620671422E+02  0.22956017429E+02  0.41082063900E+02  0.00000000000E+00 0. -1.
         11    1    1    2    0    0  0.30701414106E+02  0.31126421944E+02 -0.65792169788E+02  0.78993927466E+02  0.00000000000E+00 0.  1.
</event>
<event>
 6    1  0.8989754E-006  0.1530130E+03  0.7561462E-02  0.1196819E+00
         -1   -1    0    0    0  501 -0.00000000000E+00  0.00000000000E+00  0.69322122692E+03  0.69322122692E+03  0.00000000000E+00 0.  1.
          1   -1    0    0  501    0  0.00000000000E+00 -0.00000000000E+00 -0.44226011468E+02  0.44226011468E+02  0.00000000000E+00 0. -1.
          5    1    1    2  502    0  0.13665610559E+03 -0.21835947462E+02  0.22226184462E+03  0.26185778539E+03  0.41800000000E+01 0. -1.
         -5    1    1    2    0  502 -0.40794665751E+01 -0.20357733180E+01  0.18342483536E+03  0.18352909592E+03  0.41800000000E+01 0. -1.
        -11    1    1    2    0    0 -0.98206875173E+02 -0.25282815801E+02  0.14638972925E+03  0.17808358694E+03  0.00000000000E+00 0. -1.
         11    1    1    2    0    0 -0.34369763842E+02  0.49154536582E+02  0.96918806219E+02  0.11397677014E+03  0.00000000000E+00 0.  1.
</event>
<event>
 6    1  0.1462238E-005  0.8119224E+02  0.7561462E-02  0.1325702E+00
         -1   -1    0    0    0  501 -0.00000000000E+00  0.00000000000E+00  0.15624308467E+02  0.15624308467E+02  0.00000000000E+00 0.  1.
          1   -1    0    0  501    0  0.00000000000E+00 -0.00000000000E+00 -0.81666112745E+03  0.81666112745E+03  0.00000000000E+00 0. -1.
          5    1    1    2  502    0 -0.38875476067E+02  0.28928514734E+02 -0.52114279538E+02  0.71284866107E+02  0.41800000000E+01 0. -1.
         -5    1    1    2    0  502  0.10032949666E+02 -0.22777536090E+02 -0.34909412907E+03  0.35000522793E+03  0.41800000000E+01 0. -1.
        -11    1    1    2    0    0 -0.29680054436E+02 -0.39831415570E+01 -0.72033778360E+02  0.78010488224E+02  0.00000000000E+00 0.  1.
         11    1    1    2    0    0  0.58522580838E+02 -0.21678370866E+01 -0.32779463202E+03  0.33298485366E+03  0.00000000000E+00 0. -1.
</event>
<event>
 6    1  0.8989754E-006  0.1046908E+03  0.7561462E-02  0.1270730E+00
          3   -1    0    0  501    0  0.00000000000E+00  0.00000000000E+00  0.34974373972E+02  0.34974373972E+02  0.00000000000E+00 0. -1.
         -3   -1    0    0    0  501 -0.00000000000E+00 -0.00000000000E+00 -0.42488940051E+03  0.42488940051E+03  0.00000000000E+00 0.  1.
          5    1    1    2  502    0  0.34349530216E+02  0.53850321628E+02 -0.76965589819E+02  0.10010455425E+03  0.41800000000E+01 0. -1.
         -5    1    1    2    0  502 -0.51196062248E+02 -0.11957306363E+02 -0.20461649754E+03  0.21130404026E+03  0.41800000000E+01 0. -1.
        -11    1    1    2    0    0  0.33449917388E+02  0.12540066958E+02 -0.14169667089E+02  0.38430843316E+02  0.00000000000E+00 0. -1.
         11    1    1    2    0    0 -0.16603385356E+02 -0.54433082223E+02 -0.94163272090E+02  0.11002433665E+03  0.00000000000E+00 0.  1.
</event>
<event>
 6    1  0.8989754E-006  0.1150256E+03  0.7561462E-02  0.1251536E+00
          1   -1    0    0  501    0  0.00000000000E+00  0.00000000000E+00  0.66511514191E+03  0.66511514191E+03  0.00000000000E+00 0. -1.
         -1   -1    0    0    0  501 -0.00000000000E+00 -0.00000000000E+00 -0.32035117711E+02  0.32035117711E+02  0.00000000000E+00 0.  1.
          5    1    1    2  502    0  0.42275014220E+02  0.40256853170E+02  0.14027729842E+03  0.15199665755E+03  0.41800000000E+01 0.  1.
         -5    1    1    2    0  502 -0.64930168060E+02  0.29957006362E+02  0.49934236079E+02  0.87316947308E+02  0.41800000000E+01 0.  1.
        -11    1    1    2    0    0  0.35555154123E+02 -0.77366544340E+02  0.42972800100E+03  0.43808207680E+03  0.00000000000E+00 0. -1.
         11    1    1    2    0    0 -0.12900000283E+02  0.71526848077E+01  0.13140488697E+02  0.19754577962E+02  0.00000000000E+00 0.  1.
</event>
<event>
 6    1  0.8989754E-006  0.1148903E+03  0.7561462E-02  0.1251773E+00
          4   -1    0    0  501    0  0.00000000000E+00  0.00000000000E+00  0.28516693548E+03  0.28516693548E+03  0.00000000000E+00 0. -1.
         -4   -1    0    0    0  501 -0.00000000000E+00 -0.00000000000E+00 -0.48351725982E+02  0.48351725982E+02  0.00000000000E+00 0.  1.
          5    1    1    2  502    0 -0.39398982903E+02 -0.35729279023E+02  0.49855268034E+02  0.73019732840E+02  0.41800000000E+01 0. -1.
         -5    1    1    2    0  502  0.77972673373E+02  0.13665798405E+02  0.84181965995E+02  0.11563117070E+03  0.41800000000E+01 0. -1.
        -11    1    1    2    0    0 -0.60918897360E+02  0.36059780349E+02  0.52634167581E+02  0.88214371909E+02  0.00000000000E+00 0.  1.
         11    1    1    2    0    0  0.22345206889E+02 -0.13996299731E+02  0.50143807891E+02  0.56653386015E+02  0.00000000000E+00 0. -1.
</event>
<event>
 6    1  0.8989754E-006  0.1160480E+03  0.7561462E-02  0.1249763E+00
          1   -1    0    0  501    0  0.00000000000E+00  0.00000000000E+00  0.77525491188E+03  0.77525491188E+03  0.00000000000E+00 0. -1.
         -1   -1    0    0    0  501 -0.00000000000E+00 -0.00000000000E+00 -0.19140897031E+02  0.19140897031E+02  0.00000000000E+00 0.  1.
          5    1    1    2  502    0 -0.44509765262E+02 -0.49900494240E+02  0.14196181744E+03  0.15697709559E+03  0.41800000000E+01 0. -1.
         -5    1    1    2    0  502  0.62446360931E+02  0.59792606884E+01  0.22464998933E+03  0.23328178166E+03  0.41800000000E+01 0. -1.
        -11    1    1    2    0    0  0.36828959316E+02  0.23963045164E+02  0.10674713719E+03  0.11543635076E+03  0.00000000000E+00 0.  1.
         11    1    1    2    0    0 -0.54765554985E+02  0.19958188388E+02  0.28275507088E+03  0.28870058089E+03  0.00000000000E+00 0. -1.
</event>
<event>
 6    1  0.8989754E-006  0.9719846E+02  0.7561462E-02  0.1286300E+00
          2   -1    0    0  501    0  0.00000000000E+00  0.00000000000E+00  0.40518575089E+03  0.40518575089E+03  0.00000000000E+00 0.  1.
         -2   -1    0    0    0  501 -0.00000000000E+00 -0.00000000000E+00 -0.40505723440E+02  0.40505723440E+02  0.00000000000E+00 0. -1.
          5    1    1    2  502    0  0.83685259470E+01  0.28467963755E+02  0.13453505933E+02  0.32847015218E+02  0.41800000000E+01 0.  1.
         -5    1    1    2    0  502 -0.27198581036E+02 -0.88813589767E+02  0.22974404021E+03  0.24784554253E+03  0.41800000000E+01 0.  1.
        -11    1    1    2    0    0  0.27953179762E+02  0.36885511391E+02  0.58391536703E+01  0.46647796572E+02  0.00000000000E+00 0. -1.
         11    1    1    2    0    0 -0.91231246735E+01  0.23460114621E+02  0.11564332764E+03  0.11835112002E+03  0.00000000000E+00 0.  1.
</event>
<event>
 6    1  0.8989754E-006  0.2583408E+03  0.7561462E-02  0.1108144E+00
         -2   -1    0    0    0  501 -0.00000000000E+00  0.00000000000E+00  0.49064214657E+02  0.49064214657E+02  0.00000000000E+00 0.  1.
          2   -1    0    0  501    0  0.00000000000E+00 -0.00000000000E+00 -0.15858276029E+04  0.15858276029E+04  0.00000000000E+00 0. -1.
          5    1    1    2  502    0 -0.59554405184E+02  0.19810659047E+03 -0.81276526131E+03  0.83868813677E+03  0.41800000000E+01 0. -1.
         -5    1    1    2    0  502  0.12787012654E+03 -0.47942639941E+02 -0.23168155323E+03  0.26896669030E+03  0.41800000000E+01 0.  1.
        -11    1    1    2    0    0 -0.26431086215E+02 -0.11636098666E+03 -0.22632468856E+03  0.25585415023E+03  0.00000000000E+00 0.  1.
         11    1    1    2    0    0 -0.41884635137E+02 -0.33802963871E+02 -0.26599188516E+03  0.27138284028E+03  0.00000000000E+00 0. -1.
</event>
<event>
 6    1  0.8989754E-006  0.1431004E+03  0.7561462E-02  0.1209217E+00
         -2   -1    0    0    0  501 -0.00000000000E+00  0.00000000000E+00  0.17856191956E+03  0.17856191956E+03  0.00000000000E+00 0.  1.
          2   -1    0    0  501    0  0.00000000000E+00 -0.00000000000E+00 -0.38050692774E+03  0.38050692774E+03  0.00000000000E+00 0. -1.
          5    1    1    2  502    0 -0.42873170643E+02  0.14880916044E+02  0.97013796385E+01  0.46595488947E+02  0.41800000000E+01 0.  1.
         -5    1    1    2    0  502  0.66265461906E+02  0.97252389961E+02  0.10870804066E+03  0.16026243883E+03  0.41800000000E+01 0.  1.
        -11    1    1    2    0    0  0.12527272405E+02 -0.45244090491E+02 -0.22737576281E+03  0.23217169894E+03  0.00000000000E+00 0. -1.
         11    1    1    2    0    0 -0.35919563668E+02 -0.66889215514E+02 -0.92978665671E+02  0.12003922057E+03  0.00000000000E+00 0.  1.
</event>
<event>
 6    1  0.8989754E-006  0.1085594E+03  0.7561462E-02  0.1263261E+00
         -4   -1    0    0    0  501 -0.00000000000E+00  0.00000000000E+00  0.54464555269E+02  0.54464555269E+02  0.00000000000E+00 0.  1.
          4   -1    0    0  501    0  0.00000000000E+00 -0.00000000000E+00 -0.30142795897E+03  0.30142795897E+03  0.00000000000E+00 0. -1.
          5    1    1    2  502    0 -0.14191277685E+02  0.37851726349E+02  0.55111733650E+01  0.41012083363E+02  0.41800000000E+01 0.  1.
         -5    1    1    2    0  502  0.27017018287E+02 -0.73949764502E+02 -0.67350118410E+02  0.10369184055E+03  0.41800000000E+01 0.  1.
        -11    1    1    2    0    0  0.38753103010E+02  0.11046898368E+02 -0.10655698117E+03  0.11392202242E+03  0.00000000000E+00 0. -1.
         11    1    1    2    0    0 -0.51578843612E+02  0.25051139785E+02 -0.78567477482E+02  0.97266567899E+02  0.00000000000E+00 0.  1.
</event>
<event>
 6    1  0.8989754E-006  0.5674932E+02  0.7561462E-02  0.1412003E+00
          4   -1    0    0  501    0  0.00000000000E+00  0.00000000000E+00  0.15011068522E+03  0.15011068522E+03  0.00000000000E+00 0. -1.
         -4   -1    0    0    0  501 -0.00000000000E+00 -0.00000000000E+00 -0.94502403527E+02  0.94502403527E+02  0.00000000000E+00 0.  1.
          5    1    1    2  502    0  0.90623634778E+01 -0.47446794546E+00 -0.71414910012E+02  0.72110424515E+02  0.41800000000E+01 0. -1.
         -5    1    1    2    0  502 -0.97244714402E+01  0.70222135821E+01  0.52997376546E+02  0.54498359142E+02  0.41800000000E+01 0. -1.
        -11    1    1    2    0    0  0.22532542430E+00  0.42127403234E+02  0.43454816157E+02  0.60523465880E+02  0.00000000000E+00 0. -1.
         11    1    1    2    0    0  0.43678253810E+00 -0.48675148871E+02  0.30570999006E+02  0.57480839215E+02  0.00000000000E+00 0.  1.
</event>
<event>
 6    1  0.8989754E-006  0.1134769E+03  0.7561462E-02  0.1254263E+00
         -4   -1    0    0    0  501 -0.00000000000E+00  0.00000000000E+00  0.24073051295E+03  0.24073051295E+03  0.00000000000E+00 0.  1.
          4   -1    0    0  501    0  0.00000000000E+00 -0.00000000000E+00 -0.68091771575E+02  0.68091771575E+02  0.00000000000E+00 0. -1.
          5    1    1    2  502    0 -0.84034018012E+02 -0.29392163030E+02  0.52887002283E+02  0.10363456393E+03  0.41800000000E+01 0.  1.
         -5    1    1    2    0  502  0.43602289860E+02 -0.24717837653E+02  0.57232469478E+02  0.76191594955E+02  0.41800000000E+01 0.  1.
        -11    1    1    2    0    0  0.52214732804E+02  0.54849119427E+02  0.11461228829E+02  0.76590887121E+02  0.00000000000E+00 0. -1.
         11    1    1    2    0    0 -0.11783004652E+02 -0.73911874421E+00  0.51058040790E+02  0.52405238521E+02  0.00000000000E+00 0.  1.
</event>
<event>
 6    1  0.8989754E-006  0.9057620E+02  0.7561462E-02  0.1301462E+00
          1   -1    0    0  501    0  0.00000000000E+00  0.00000000000E+00  0.76888547275E+03  0.76888547275E+03  0.00000000000E+00 0. -1.
         -1   -1    0    0    0  501 -0.00000000000E+00 -0.00000000000E+00 -0.18192977634E+02  0.18192977634E+02  0.00000000000E+00 0.  1.
          5    1    1    2  502    0  0.34989353884E+02 -0.49630277239E+02  0.30535956005E+03  0.31136690996E+03  0.41800000000E+01 0. -1.
         -5    1    1    2    0  502 -0.18883316422E+02  0.16503339646E+02  0.58956196834E+01  0.26099245009E+02  0.41800000000E+01 0. -1.
        -11    1    1    2    0    0 -0.34120705376E+02  0.56102708263E+02  0.31881092374E+03  0.32550290552E+03  0.00000000000E+00 0. -1.
         11    1    1    2    0    0  0.18014667914E+02 -0.22975770670E+02  0.12062639165E+03  0.12410938989E+03  0.00000000000E+00 0.  1.
</event>
<event>
 6    1  0.8989754E-006  0.1147553E+03  0.7561462E-02  0.1252009E+00
         -2   -1    0    0    0  501 -0.00000000000E+00  0.00000000000E+00  0.36024300634E+02  0.36024300634E+02  0.00000000000E+00 0.  1.
          2   -1    0    0  501    0  0.00000000000E+00 -0.00000000000E+00 -0.59003551873E+03  0.59003551873E+03  0.00000000000E+00 0. -1.
          5    1    1    2  502    0  0.24977362628E+02 -0.43168989111E+02 -0.18718631360E+03  0.19376175748E+03  0.41800000000E+01 0. -1.
         -5    1    1    2    0  502  0.56013336396E+02  0.13134753662E+02 -0.15745735684E+02  0.59794784055E+02  0.41800000000E+01 0. -1.
        -11    1    1    2    0    0 -0.90606414317E+02  0.47153800152E+02 -0.31836334333E+03  0.33434745634E+03  0.00000000000E+00 0. -1.
         11    1    1    2    0    0  0.96157152927E+01 -0.17119564703E+02 -0.32715825485E+02  0.38155821488E+02  0.00000000000E+00 0.  1.
</event>
<event>
 6    1  0.8989754E-006  0.1064029E+03  0.7561462E-02  0.1267380E+00
          2   -1    0    0  501    0  0.00000000000E+00  0.00000000000E+00  0.42186615288E+03  0.42186615288E+03  0.00000000000E+00 0. -1.
         -2   -1    0    0    0  501 -0.00000000000E+00 -0.00000000000E+00 -0.28989774178E+02  0.28989774178E+02  0.00000000000E+00 0.  1.
          5    1    1    2  502    0  0.44641974695E+02  0.32776711399E+02  0.81807939961E+02  0.98879877404E+02  0.41800000000E+01 0.  1.
         -5    1    1    2    0  502 -0.53865156609E+02 -0.44711748622E+02  0.12263846250E+03  0.14127370756E+03  0.41800000000E+01 0.  1.
        -11    1    1    2    0    0 -0.35896040431E+02 -0.95770074257E+01  0.12222663071E+03  0.12774816650E+03  0.00000000000E+00 0. -1.
         11    1    1    2    0    0  0.45119222345E+02  0.21512044649E+02  0.66203345529E+02  0.82954175598E+02  0.00000000000E+00 0.  1.
</event>
<event>
 6    1  0.8989754E-006  0.1196684E+03  0.7561462E-02  0.1243645E+00
          1   -1    0    0  501    0  0.00000000000E+00  0.00000000000E+00  0.66579658060E+02  0.66579658060E+02  0.00000000000E+00 0. -1.
         -1   -1    0    0    0  501 -0.00000000000E+00 -0.00000000000E+00 -0.28933378324E+03  0.28933378324E+03  0.00000000000E+00 0.  1.
          5    1    1    2  502    0  0.34854270943E+02 -0.94247767150E+02 -0.13580720577E+03  0.16899269615E+03  0.41800000000E+01 0.  1.
         -5    1    1    2    0  502 -0.48147645791E+01  0.13094388178E+02  0.18176141548E+02  0.23291403592E+02  0.41800000000E+01 0.  1.
        -11    1    1    2    0    0  0.29314900024E+02  0.47917213288E+02 -0.58856510059E+02  0.81360380217E+02  0.00000000000E+00 0.  1.
         11    1    1    2    0    0 -0.59354406388E+02  0.33236165684E+02 -0.46266550907E+02  0.82268961340E+02  0.00000000000E+00 0. -1.
</event>
<event>
 6    1  0.8989754E-006  0.1027107E+03  0.7561462E-02  0.1274697E+00
         -1   -1    0    0    0  501 -0.00000000000E+00  0.00000000000E+00  0.81447950481E+02  0.81447950481E+02  0.00000000000E+00 0.  1.
          1   -1    0    0  501    0  0.00000000000E+00 -0.00000000000E+00 -0.25563870642E+03  0.25563870642E+03  0.00000000000E+00 0. -1.
          5    1    1    2  502    0 -0.53593955822E+01  0.69268002001E+02  0.25068576071E+02  0.73977598828E+02  0.41800000000E+01 0. -1.
         -5    1    1    2    0  502 -0.52170278348E+02 -0.18278318472E+02 -0.50581844882E+02  0.75045521524E+02  0.41800000000E+01 0. -1.
        -11    1    1    2    0    0  0.53824282619E+02 -0.35548656346E+02 -0.15728732713E+03  0.17000018719E+03  0.00000000000E+00 0. -1.
         11    1    1    2    0    0  0.37053913110E+01 -0.15441027183E+02  0.86098400049E+01  0.18063349361E+02  0.00000000000E+00 0.  1.
</event>
<event>
 6    1  0.8989754E-006  0.9995864E+02  0.7561462E-02  0.1280383E+00
         -4   -1    0    0    0  501 -0.00000000000E+00  0.00000000000E+00  0.12290155618E+03  0.12290155618E+03  0.00000000000E+00 0.  1.
          4   -1    0    0  501    0  0.00000000000E+00 -0.00000000000E+00 -0.13445188133E+03  0.13445188133E+03  0.00000000000E+00 0. -1.
          5    1    1    2  502    0  0.38954158620E+01 -0.42290377318E+02 -0.19170593081E+02  0.46782842127E+02  0.41800000000E+01 0. -1.
         -5    1    1    2    0  502  0.89675394965E+01  0.71988129280E+02  0.64869233056E+02  0.97407378156E+02  0.41800000000E+01 0.  1.
        -11    1    1    2    0    0  0.18734694805E+02 -0.45531302854E+02 -0.60115556009E+02  0.77704365407E+02  0.00000000000E+00 0. -1.
         11    1    1    2    0    0 -0.31597650163E+02  0.15833550891E+02  0.28665908839E+01  0.35458851828E+02  0.00000000000E+00 0.  1.
</event>
<event>
 6    1  0.8989754E-006  0.1162132E+03  0.7561462E-02  0.1249478E+00
          1   -1    0    0  501    0  0.00000000000E+00  0.00000000000E+00  0.36753968969E+03  0.36753968969E+03  0.00000000000E+00 0. -1.
         -1   -1    0    0    0  501 -0.00000000000E+00 -0.00000000000E+00 -0.13327466319E+03  0.13327466319E+03  0.00000000000E+00 0.  1.
          5    1    1    2  502    0  0.46579705779E+02 -0.41573200338E+01 -0.90810932945E+02  0.10223037828E+03  0.41800000000E+01 0.  1.
         -5    1    1    2    0  502  0.60816199858E+02 -0.17669281406E+02  0.35885971254E+02  0.72911514889E+02  0.41800000000E+01 0.  1.
        -11    1    1    2    0    0 -0.22833788548E+02  0.29263432133E+02  0.19653847785E+03  0.20001275868E+03  0.00000000000E+00 0. -1.
         11    1    1    2    0    0 -0.84562117089E+02 -0.74368306937E+01  0.92651510337E+02  0.12565970104E+03  0.00000000000E+00 0.  1.
</event>
<event>
 6    1  0.8989754E-006  0.1021426E+03  0.7561462E-02  0.1275854E+00
          2   -1    0    0  501    0  0.00000000000E+00  0.00000000000E+00  0.39469603441E+03  0.39469603441E+03  0.00000000000E+00 0. -1.
         -2   -1    0    0    0  501 -0.00000000000E+00 -0.00000000000E+00 -0.35711587127E+02  0.35711587127E+02  0.00000000000E+00 0.  1.
          5    1    1    2  502    0  0.22324925964E+02 -0.17179822444E+02  0.14614784656E+03  0.14889665568E+03  0.41800000000E+01 0.  1.
         -5    1    1    2    0  502 -0.71290010147E+02  0.21547547189E+02  0.53571623096E+02  0.91836558830E+02  0.41800000000E+01 0.  1.
        -11    1    1    2    0    0  0.46940942912E+02 -0.42323878353E+02  0.11586472746E+03  0.13198256654E+03  0.00000000000E+00 0.  1.
         11    1    1    2    0    0  0.20241412709E+01  0.37956153608E+02  0.43400250171E+02  0.57691840493E+02  0.00000000000E+00 0. -1.
</event>
<event>
 6    1  0.8989754E-006  0.9549183E+02  0.7561462E-02  0.1290072E+00
         -1   -1    0    0    0  501 -0.00000000000E+00  0.00000000000E+00  0.17817986770E+03  0.17817986770E+03  0.00000000000E+00 0.  1.
          1   -1    0    0  501    0  0.00000000000E+00 -0.00000000000E+00 -0.83007154086E+02  0.83007154086E+02  0.00000000000E+00 0. -1.
          5    1    1    2  502    0 -0.42101541825E+02  0.40217128002E+02 -0.55257941521E+01  0.58634153953E+02  0.41800000000E+01 0.  1.
         -5    1    1    2    0  502 -0.10736124261E+02 -0.35511236954E+02  0.10030955769E+03  0.10703173397E+03  0.41800000000E+01 0.  1.
        -11    1    1    2    0    0  0.36018438147E+02  0.36189003203E+02  0.36062508949E+01  0.51185709772E+02  0.00000000000E+00 0.  1.
         11    1    1    2    0    0  0.16819227939E+02 -0.40894894251E+02 -0.32173008181E+01  0.44335424085E+02  0.00000000000E+00 0. -1.
</event>
<event>
 6    1  0.8989754E-006  0.1158269E+03  0.7561462E-02  0.1250145E+00
         -2   -1    0    0    0  501 -0.00000000000E+00  0.00000000000E+00  0.29822966616E+03  0.29822966616E+03  0.00000000000E+00 0.  1.
          2   -1    0    0  501    0  0.00000000000E+00 -0.00000000000E+00 -0.10631889557E+03  0.10631889557E+03  0.00000000000E+00 0. -1.
          5    1    1    2  502    0  0.17162428469E+02  0.34403184100E+02  0.12458170556E+03  0.13044616432E+03  0.41800000000E+01 0. -1.
         -5    1    1    2    0  502 -0.34074096730E+01 -0.90895904284E+02  0.12397299007E+03  0.15381953882E+03  0.41800000000E+01 0. -1.
        -11    1    1    2    0    0  0.22773616090E+02  0.61006570387E+02 -0.19462634438E+02  0.67964942136E+02  0.00000000000E+00 0.  1.
         11    1    1    2    0    0 -0.36528634886E+02 -0.45138502038E+01 -0.37181290606E+02  0.52317916448E+02  0.00000000000E+00 0. -1.
</event>
<event>
 6    1  0.8989754E-006  0.5596485E+02  0.7561462E-02  0.1415590E+00
          1   -1    0    0  501    0  0.00000000000E+00  0.00000000000E+00  0.91757535965E+02  0.91757535965E+02  0.00000000000E+00 0. -1.
         -1   -1    0    0    0  501 -0.00000000000E+00 -0.00000000000E+00 -0.16898519102E+03  0.16898519102E+03  0.00000000000E+00 0.  1.
          5    1    1    2  502    0  0.65019083531E+01  0.46530978922E+02 -0.11563074346E+03  0.12488133586E+03  0.41800000000E+01 0.  1.
         -5    1    1    2    0  502  0.10376867735E+02 -0.15824985192E+02  0.26375814990E+02  0.32730193350E+02  0.41800000000E+01 0.  1.
        -11    1    1    2    0    0 -0.18577409505E+02 -0.44927899421E+01  0.51942817685E+02  0.55347643260E+02  0.00000000000E+00 0. -1.
         11    1    1    2    0    0  0.16986334171E+01 -0.26213203788E+02 -0.39915544265E+02  0.47783554517E+02  0.00000000000E+00 0.  1.
</event>
<event>
 6    1  0.8989754E-006  0.1863905E+03  0.7561462E-02  0.1161758E+00
         -2   -1    0    0    0  501 -0.00000000000E+00  0.00000000000E+00  0.59609731259E+02  0.59609731259E+02  0.00000000000E+00 0.  1.
          2   -1    0    0  501    0  0.00000000000E+00 -0.00000000000E+00 -0.68004099777E+03  0.68004099777E+03  0.00000000000E+00 0. -1.
          5    1    1    2  502    0 -0.98632553683E+02  0.11066616669E+03 -0.16314136499E+03  0.22047212628E+03  0.41800000000E+01 0. -1.
         -5    1    1    2    0  502 -0.34832173177E+02 -0.33357829184E+02 -0.32549190106E+02  0.58334785786E+02  0.41800000000E+01 0. -1.
        -11    1    1    2    0    0  0.31198062294E+02  0.18219391028E+02 -0.58258862521E+02  0.68551880810E+02  0.00000000000E+00 0.  1.
         11    1    1    2    0    0  0.10226666457E+03 -0.95527728536E+02 -0.36648184889E+03  0.39229193615E+03  0.00000000000E+00 0. -1.
</event>
<event>
 6    1  0.8989754E-006  0.2126018E+03  0.7561462E-02  0.1139522E+00
         -1   -1    0    0    0  501 -0.00000000000E+00  0.00000000000E+00  0.10356868444E+03  0.10356868444E+03  0.00000000000E+00 0.  1.
          1   -1    0    0  501    0  0.00000000000E+00 -0.00000000000E+00 -0.82218573025E+03  0.82218573025E+03  0.00000000000E+00 0. -1.
          5    1    1    2  502    0 -0.22748519481E+02  0.15955857670E+03 -0.37354394692E+03  0.40685253743E+03  0.41800000000E+01 0. -1.
         -5    1    1    2    0  502  0.55622142919E+02 -0.15735610923E+03 -0.69240673003E+01  0.16709333620E+03  0.41800000000E+01 0.  1.
        -11    1    1    2    0    0  0.31305401670E+02 -0.87771593922E+01 -0.10791873015E+03  0.11270988874E+03  0.00000000000E+00 0.  1.
         11    1    1    2    0    0 -0.64179025109E+02  0.65746919176E+01 -0.23023030144E+03  0.23909865232E+03  0.00000000000E+00 0. -1.
</event>
<event>
 6    1  0.8989754E-006  0.2775713E+03  0.7561462E-02  0.1097023E+00
          2   -1    0    0  501    0  0.00000000000E+00  0.00000000000E+00  0.39067404967E+03  0.39067404967E+03  0.00000000000E+00 0. -1.
         -2   -1    0    0    0  501 -0.00000000000E+00 -0.00000000000E+00 -0.21241117161E+03  0.21241117161E+03  0.00000000000E+00 0.  1.
          5    1    1    2  502    0  0.17462367273E+01  0.73538349307E+01 -0.15678420290E+02  0.17900097589E+02  0.41800000000E+01 0.  1.
         -5    1    1    2    0  502 -0.63068983919E+02 -0.26194309629E+03  0.54220507017E+02  0.27486218039E+03  0.41800000000E+01 0.  1.
        -11    1    1    2    0    0  0.79028090107E+02  0.13724513347E+03  0.82633799569E+02  0.17863373287E+03  0.00000000000E+00 0.  1.
         11    1    1    2    0    0 -0.17705342915E+02  0.11734412789E+03  0.57086991766E+02  0.13168921044E+03  0.00000000000E+00 0. -1.
</event>
<event>
 6    1  0.8989754E-006  0.1105384E+03  0.7561462E-02  0.1259576E+00
          2   -1    0    0  501    0  0.00000000000E+00  0.00000000000E+00  0.44780824672E+03  0.44780824672E+03  0.00000000000E+00 0. -1.
         -2   -1    0    0    0  501 -0.00000000000E+00 -0.00000000000E+00 -0.30074999029E+03  0.30074999029E+03  0.00000000000E+00 0.  1.
          5    1    1    2  502    0  0.15283675584E+02  0.71207255219E+02 -0.40836652280E+02  0.83601247028E+02  0.41800000000E+01 0. -1.
         -5    1    1    2    0  502  0.34691300734E+02 -0.86603352098E+01 -0.22965170877E+03  0.23245616252E+03  0.41800000000E+01 0.  1.
        -11    1    1    2    0    0 -0.70567930489E+02 -0.57236771649E+02  0.31914603635E+03  0.33182837937E+03  0.00000000000E+00 0. -1.
         11    1    1    2    0    0  0.20592954171E+02 -0.53101483601E+01  0.98400581129E+02  0.10067244809E+03  0.00000000000E+00 0.  1.
</event>
<event>
 6    1  0.8989754E-006  0.1136698E+03  0.7561462E-02  0.1253921E+00
         -3   -1    0    0    0  501 -0.00000000000E+00  0.00000000000E+00  0.15697589787E+03  0.15697589787E+03  0.00000000000E+00 0.  1.
          3   -1    0    0  501    0  0.00000000000E+00 -0.00000000000E+00 -0.97828610722E+02  0.97828610722E+02  0.00000000000E+00 0. -1.
          5    1    1    2  502    0  0.20937266507E+00  0.78459095158E+02  0.33330704640E+02  0.85348003619E+02  0.41800000000E+01 0.  1.
         -5    1    1    2    0  502 -0.40496188036E+02 -0.41291087285E+02  0.26598908206E+02  0.63795528467E+02  0.41800000000E+01 0.  1.
        -11    1    1    2    0    0  0.58889008575E+02 -0.13037947219E+02  0.25441843431E+02  0.65461368728E+02  0.00000000000E+00 0.  1.
         11    1    1    2    0    0 -0.18602193203E+02 -0.24130060653E+02 -0.26224169128E+02  0.40199607779E+02  0.00000000000E+00 0. -1.
</event>
<event>
 6    1  0.8989754E-006  0.1797879E+03  0.7561462E-02  0.1168008E+00
          1   -1    0    0  501    0  0.00000000000E+00  0.00000000000E+00  0.29808226229E+03  0.29808226229E+03  0.00000000000E+00 0. -1.
         -1   -1    0    0    0  501 -0.00000000000E+00 -0.00000000000E+00 -0.14286749575E+03  0.14286749575E+03  0.00000000000E+00 0.  1.
          5    1    1    2  502    0  0.12658459675E+03 -0.11726787742E+02  0.53916722578E+02  0.13815087064E+03  0.41800000000E+01 0. -1.
         -5    1    1    2    0  502  0.30044193468E+02  0.57398668104E+02  0.97674914614E+02  0.11728223227E+03  0.41800000000E+01 0. -1.
        -11    1    1    2    0    0 -0.88017313708E+02 -0.60398654794E+01 -0.37946557342E+02  0.96038891609E+02  0.00000000000E+00 0.  1.
         11    1    1    2    0    0 -0.68611476509E+02 -0.39632014883E+02  0.41569686687E+02  0.89477763515E+02  0.00000000000E+00 0. -1.
</event>
<event>
 6    1  0.8989754E-006  0.1382570E+03  0.7561462E-02  0.1215694E+00
         -2   -1    0    0    0  501 -0.00000000000E+00  0.00000000000E+00  0.34234394964E+03  0.34234394964E+03  0.00000000000E+00 0.  1.
          2   -1    0    0  501    0  0.00000000000E+00 -0.00000000000E+00 -0.15407768375E+03  0.15407768375E+03  0.00000000000E+00 0. -1.
          5    1    1    2  502    0  0.36576963071E+02 -0.92516288038E+02  0.17147472300E+03  0.19828815096E+03  0.41800000000E+01 0. -1.
         -5    1    1    2    0  502  0.36623108100E+02  0.39286796457E+02  0.12060601315E+03  0.13209082947E+03  0.41800000000E+01 0. -1.
        -11    1    1    2    0    0 -0.32501545136E+02 -0.20802430694E+02 -0.10137732336E+02  0.39898185121E+02  0.00000000000E+00 0.  1.
         11    1    1    2    0    0 -0.40698526034E+02  0.74031922274E+02 -0.93676737936E+02  0.12614446784E+03  0.00000000000E+00 0. -1.
</event>
<event>
 6    1  0.8989754E-006  0.1316835E+03  0.7561462E-02  0.1224979E+00
          1   -1    0    0  501    0  0.00000000000E+00  0.00000000000E+00  0.61570873048E+03  0.61570873048E+03  0.00000000000E+00 0. -1.
         -1   -1    0    0    0  501 -0.00000000000E+00 -0.00000000000E+00 -0.40750840193E+02  0.40750840193E+02  0.00000000000E+00 0.  1.
          5    1    1    2  502    0  0.69665796668E+02  0.58268004027E+01  0.26157611069E+03  0.27078923338E+03  0.41800000000E+01 0. -1.
         -5    1    1    2    0  502  0.20693425685E+00  0.81150513103E+02  0.10922366706E+03  0.13613497142E+03  0.41800000000E+01 0. -1.
        -11    1    1    2    0    0 -0.18103374350E+02 -0.15584257903E+02 -0.32975461762E+01  0.24113794144E+02  0.00000000000E+00 0.  1.
         11    1    1    2    0    0 -0.51769356576E+02 -0.71393055602E+02  0.20745565871E+03  0.22542157173E+03  0.00000000000E+00 0. -1.
</event>
<event>
 6    1  0.8989754E-006  0.1122384E+03  0.7561462E-02  0.1256480E+00
          2   -1    0    0  501    0  0.00000000000E+00  0.00000000000E+00  0.13814740571E+03  0.13814740571E+03  0.00000000000E+00 0. -1.
         -2   -1    0    0    0  501 -0.00000000000E+00 -0.00000000000E+00 -0.10353028987E+03  0.10353028987E+03  0.00000000000E+00 0.  1.
          5    1    1    2  502    0 -0.17586445753E+02  0.82658709552E+02 -0.94835806223E+01  0.85141975785E+02  0.41800000000E+01 0. -1.
         -5    1    1    2    0  502  0.25639763862E+02 -0.39511069522E+02  0.46450608993E+01  0.47513904243E+02  0.41800000000E+01 0. -1.
        -11    1    1    2    0    0 -0.13232758122E+02  0.22835383100E+02  0.33386096185E+02  0.42558101782E+02  0.00000000000E+00 0. -1.
         11    1    1    2    0    0  0.51794400130E+01 -0.65983023130E+02  0.60695393814E+01  0.66463713773E+02  0.00000000000E+00 0.  1.
</event>
<event>
 6    1  0.8989754E-006  0.2089645E+03  0.7561462E-02  0.1142389E+00
          3   -1    0    0  501    0  0.00000000000E+00  0.00000000000E+00  0.38113446304E+03  0.38113446304E+03  0.00000000000E+00 0. -1.
         -3   -1    0    0    0  501 -0.00000000000E+00 -0.00000000000E+00 -0.13443264592E+03  0.13443264592E+03  0.00000000000E+00 0.  1.
          5    1    1    2  502    0 -0.30151715065E+01  0.25633426942E+02  0.62084132437E+02  0.67365241308E+02  0.41800000000E+01 0.  1.
         -5    1    1    2    0  502  0.15369862124E+03  0.10193386049E+03  0.45921515469E+02  0.19010532888E+03  0.41800000000E+01 0.  1.
        -11    1    1    2    0    0 -0.66420832488E+02 -0.97226090388E+02  0.38901478507E+02  0.12400792181E+03  0.00000000000E+00 0.  1.
         11    1    1    2    0    0 -0.84262617249E+02 -0.30341197044E+02  0.99794690712E+02  0.13408861696E+03  0.00000000000E+00 0. -1.
</event>
<event>
 6    1  0.8989754E-006  0.1517319E+03  0.7561462E-02  0.1198361E+00
          2   -1    0    0  501    0  0.00000000000E+00  0.00000000000E+00  0.58818473241E+02  0.58818473241E+02  0.00000000000E+00 0. -1.
         -2   -1    0    0    0  501 -0.00000000000E+00 -0.00000000000E+00 -0.55904659184E+03  0.55904659184E+03  0.00000000000E+00 0.  1.
          5    1    1    2  502    0  0.15920521020E+02 -0.85329413710E+02 -0.22353762972E+03  0.23983560230E+03  0.41800000000E+01 0. -1.
         -5    1    1    2    0  502  0.84566871847E+02  0.17489282032E+02 -0.17817904075E+03  0.19804715036E+03  0.41800000000E+01 0. -1.
        -11    1    1    2    0    0 -0.66483950282E+02  0.69345300170E+02 -0.25449121091E+02  0.99380803303E+02  0.00000000000E+00 0. -1.
         11    1    1    2    0    0 -0.34003442585E+02 -0.15051684927E+01 -0.73062327037E+02  0.80601509116E+02  0.00000000000E+00 0.  1.
</event>
<event>
 6    1  0.8989754E-006  0.1143768E+03  0.7561462E-02  0.1252673E+00
         -1   -1    0    0    0  501 -0.00000000000E+00  0.00000000000E+00  0.36922932464E+02  0.36922932464E+02  0.00000000000E+00 0.  1.
          1   -1    0    0  501    0  0.00000000000E+00 -0.00000000000E+00 -0.44171597007E+03  0.44171597007E+03  0.00000000000E+00 0. -1.
          5    1    1    2  502    0  0.36807427981E+02  0.34089469466E+02 -0.53705813718E+02  0.73611585435E+02  0.41800000000E+01 0.  1.
         -5    1    1    2    0  502 -0.35415868422E+02 -0.71320935950E+02 -0.66536387912E+02  0.10385337239E+03  0.41800000000E+01 0.  1.
        -11    1    1    2    0    0  0.65788106370E+01 -0.30130102354E+02 -0.87925221520E+02  0.93176973532E+02  0.00000000000E+00 0.  1.
         11    1    1    2    0    0 -0.79703701958E+01  0.67361568838E+02 -0.19662561445E+03  0.20799697117E+03  0.00000000000E+00 0. -1.
</event>
<event>
 6    1  0.8989754E-006  0.1525968E+03  0.7561462E-02  0.1197318E+00
          1   -1    0    0  501    0  0.00000000000E+00  0.00000000000E+00  0.25996336623E+03  0.25996336623E+03  0.00000000000E+00 0. -1.
         -1   -1    0    0    0  501 -0.00000000000E+00 -0.00000000000E+00 -0.11889607846E+03  0.11889607846E+03  0.00000000000E+00 0.  1.
          5    1    1    2  502    0  0.59608100766E+02 -0.12751838970E+03  0.13632265114E+02  0.14148277789E+03  0.41800000000E+01 0. -1.
         -5    1    1    2    0  502  0.16518068338E+01  0.40625998730E+01  0.57376179522E+02  0.57695160630E+02  0.41800000000E+01 0. -1.
        -11    1    1    2    0    0  0.11975634950E+02  0.60685209026E+02  0.24740006233E+01  0.61905016809E+02  0.00000000000E+00 0.  1.
         11    1    1    2    0    0 -0.73235542549E+02  0.62770580800E+02  0.67584842517E+02  0.11777648935E+03  0.00000000000E+00 0. -1.
</event>
<event>
 6    1  0.8989754E-006  0.1193330E+03  0.7561462E-02  0.1244201E+00
         -3   -1    0    0    0  501 -0.00000000000E+00  0.00000000000E+00  0.13029679715E+03  0.13029679715E+03  0.00000000000E+00 0.  1.
          3   -1    0    0  501    0  0.00000000000E+00 -0.00000000000E+00 -0.11198048307E+03  0.11198048307E+03  0.00000000000E+00 0. -1.
          5    1    1    2  502    0 -0.40342480205E+02  0.20180780225E+02  0.16398673200E+02  0.48178506435E+02  0.41800000000E+01 0.  1.
         -5    1    1    2    0  502  0.54829964719E+02 -0.69127338746E+02  0.36342000363E+01  0.88405847109E+02  0.41800000000E+01 0.  1.
        -11    1    1    2    0    0  0.37013877039E+02  0.36639893957E+02  0.49823648225E+01  0.52319526775E+02  0.00000000000E+00 0. -1.
         11    1    1    2    0    0 -0.51501361553E+02  0.12306664564E+02 -0.66989239872E+01  0.53373399902E+02  0.00000000000E+00 0.  1.
</event>
<event>
 6    1  0.8989754E-006  0.1072060E+03  0.7561462E-02  0.1265833E+00
         -1   -1    0    0    0  501 -0.00000000000E+00  0.00000000000E+00  0.53362103489E+02  0.53362103489E+02  0.00000000000E+00 0.  1.
          1   -1    0    0  501    0  0.00000000000E+00 -0.00000000000E+00 -0.21602244172E+03  0.21602244172E+03  0.00000000000E+00 0. -1.
          5    1    1    2  502    0  0.64666684614E+02  0.20238869283E+02 -0.53937699595E+02  0.86707207119E+02  0.41800000000E+01 0. -1.
         -5    1    1    2    0  502 -0.91335013172E+02  0.11153833733E+02 -0.63409512685E+02  0.11182455606E+03  0.41800000000E+01 0.  1.
        -11    1    1    2    0    0  0.35461663799E+02 -0.23055521954E+02 -0.36506884441E+02  0.55873422157E+02  0.00000000000E+00 0. -1.
         11    1    1    2    0    0 -0.87933352414E+01 -0.83371810617E+01 -0.88062415074E+01  0.14979359873E+02  0.00000000000E+00 0.  1.
</event>
<event>
 6    1  0.8989754E-006  0.1087282E+03  0.7561462E-02  0.1262943E+00
          1   -1    0    0  501    0  0.00000000000E+00  0.00000000000E+00  0.19497529645E+03  0.19497529645E+03  0.00000000000E+00 0. -1.
         -1   -1    0    0    0  501 -0.00000000000E+00 -0.00000000000E+00 -0.78964695148E+02  0.78964695148E+02  0.00000000000E+00 0.  1.
          5    1    1    2  502    0 -0.54658857610E+02  0.24706783704E+02 -0.86760094000E+01  0.60751637141E+02  0.41800000000E+01 0.  1.
         -5    1    1    2    0  502  0.43450140487E+01 -0.55930413135E+02  0.72201308823E+02  0.91529184724E+02  0.41800000000E+01 0.  1.
        -11    1    1    2    0    0  0.33768594859E+02 -0.25288903534E+02 -0.87004578238E+00  0.42197199201E+02  0.00000000000E+00 0. -1.
         11    1    1    2    0    0  0.16545248703E+02  0.56512532966E+02  0.53355347663E+02  0.79461970534E+02  0.00000000000E+00 0.  1.
</event>
<event>
 6    1  0.8989754E-006  0.1132698E+03  0.7561462E-02  0.1254632E+00
         -1   -1    0    0    0  501 -0.00000000000E+00  0.00000000000E+00  0.75658490529E+03  0.75658490529E+03  0.00000000000E+00 0.  1.
          1   -1    0    0  501    0  0.00000000000E+00 -0.00000000000E+00 -0.28790442831E+02  0.28790442831E+02  0.00000000000E+00 0. -1.
          5    1    1    2  502    0  0.12860057206E+02  0.39886097837E+02  0.11144463600E+03  0.11913715275E+03  0.41800000000E+01 0. -1.
         -5    1    1    2    0  502 -0.91957674007E+02 -0.41395635918E+02  0.48559775164E+03  0.49597627089E+03  0.41800000000E+01 0. -1.
        -11    1    1    2    0    0  0.55457964030E+02 -0.11310180355E+02  0.13170642486E+03  0.14335301986E+03  0.00000000000E+00 0.  1.
         11    1    1    2    0    0  0.23639652771E+02  0.12819718435E+02 -0.95435004712E+00  0.26908904621E+02  0.00000000000E+00 0. -1.
</event>
<event>
 6    1  0.8989754E-006  0.1587365E+03  0.7561462E-02  0.1190131E+00
          1   -1    0    0  501    0  0.00000000000E+00  0.00000000000E+00  0.48247965183E+03  0.48247965183E+03  0.00000000000E+00 0. -1.
         -1   -1    0    0    0  501 -0.00000000000E+00 -0.00000000000E+00 -0.66316972330E+02  0.66316972330E+02  0.00000000000E+00 0.  1.
          5    1    1    2  502    0  0.13845016636E+03 -0.54160213570E+01  0.10001487213E+03  0.17093340487E+03  0.41800000000E+01 0.  1.
         -5    1    1    2    0  502 -0.20640605389E+02 -0.27448879886E+02  0.11202222003E+02  0.36365337556E+02  0.41800000000E+01 0.  1.
        -11    1    1    2    0    0 -0.60043007038E+02 -0.22617514006E+02  0.19629901565E+03  0.20651880829E+03  0.00000000000E+00 0.  1.
         11    1    1    2    0    0 -0.57766553936E+02  0.55482415248E+02  0.10864656972E+03  0.13497907344E+03  0.00000000000E+00 0. -1.
</event>
<event>
 6    1  0.8989754E-006  0.8232947E+02  0.7561462E-02  0.1322568E+00
         -1   -1    0    0    0  501 -0.00000000000E+00  0.00000000000E+00  0.57121872969E+03  0.57121872969E+03  0.00000000000E+00 0.  1.
          1   -1    0    0  501    0  0.00000000000E+00 -0.00000000000E+00 -0.25983640041E+02  0.25983640041E+02  0.00000000000E+00 0. -1.
          5    1    1    2  502    0 -0.12100249025E+02 -0.33530479775E+02  0.37553172595E+02  0.51946340317E+02  0.41800000000E+01 0.  1.
         -5    1    1    2    0  502  0.51810567011E+02  0.47209997215E+02  0.36477641226E+03  0.37147331268E+03  0.41800000000E+01 0.  1.
        -11    1    1    2    0    0 -0.32789259339E+02 -0.27693737502E+02  0.15043201251E+03  0.15643487147E+03  0.00000000000E+00 0.  1.
         11    1    1    2    0    0 -0.69210586476E+01  0.14014220062E+02 -0.75265077183E+01  0.17347845261E+02  0.00000000000E+00 0. -1.
</event>
<event>
 6    1  0.8989754E-006  0.7004007E+02  0.7561462E-02  0.1359957E+00
         -1   -1    0    0    0  501 -0.00000000000E+00  0.00000000000E+00  0.13029966107E+03  0.13029966107E+03  0.00000000000E+00 0.  1.
          1   -1    0    0  501    0  0.00000000000E+00 -0.00000000000E+00 -0.10152349263E+03  0.10152349263E+03  0.00000000000E+00 0. -1.
          5    1    1    2  502    0 -0.10677185564E+01 -0.13756512883E+02 -0.40467218919E+02  0.42958699662E+02  0.41800000000E+01 0. -1.
         -5    1    1    2    0  502  0.26880557814E+02  0.30089457243E+02  0.83455625076E+02  0.92791452097E+02  0.41800000000E+01 0. -1.
        -11    1    1    2    0    0 -0.34500046693E+02 -0.44107688163E+02 -0.29400273965E+02  0.63246482005E+02  0.00000000000E+00 0.  1.
         11    1    1    2    0    0  0.86872074355E+01  0.27774743803E+02  0.15188036244E+02  0.32826519939E+02  0.00000000000E+00 0. -1.
</event>
<event>
 6    1  0.8989754E-006  0.1287480E+03  0.7561462E-02  0.1229325E+00
         -1   -1    0    0    0  501 -0.00000000000E+00  0.00000000000E+00  0.68479406820E+02  0.68479406820E+02  0.00000000000E+00 0.  1.
          1   -1    0    0  501    0  0.00000000000E+00 -0.00000000000E+00 -0.36728004220E+03  0.36728004220E+03  0.00000000000E+00 0. -1.
          5    1    1    2  502    0  0.39963366369E+02 -0.27789905063E+02  0.11366971781E+01  0.48868332849E+02  0.41800000000E+01 0.  1.
         -5    1    1    2    0  502  0.14048479532E+02  0.97058809417E+02 -0.59245178994E+02  0.11465267505E+03  0.41800000000E+01 0.  1.
        -11    1    1    2    0    0 -0.26748422218E+01 -0.57822053044E+02 -0.19209634571E+03  0.20062789097E+03  0.00000000000E+00 0.  1.
         11    1    1    2    0    0 -0.51337003680E+02 -0.11446851310E+02 -0.48595807853E+02  0.71610550149E+02  0.00000000000E+00 0. -1.
</event>
<event>
 6    1  0.8989754E-006  0.1029857E+03  0.7561462E-02  0.1274140E+00
         -4   -1    0    0    0  501 -0.00000000000E+00  0.00000000000E+00  0.17184042198E+03  0.17184042198E+03  0.00000000000E+00 0.  1.
          4   -1    0    0  501    0  0.00000000000E+00 -0.00000000000E+00 -0.83987004307E+02  0.83987004307E+02  0.00000000000E+00 0. -1.
          5    1    1    2  502    0 -0.58550161235E+02 -0.47128241266E+02  0.48601300201E+02  0.89603299530E+02  0.41800000000E+01 0.  1.
         -5    1    1    2    0  502  0.57270829394E+02  0.21878428823E+01  0.30103323768E+02  0.64872313492E+02  0.41800000000E+01 0.  1.
        -11    1    1    2    0    0 -0.27709701615E+02  0.29149514972E+02 -0.29976561367E+02  0.50160901288E+02  0.00000000000E+00 0. -1.
         11    1    1    2    0    0  0.28989033456E+02  0.15790883412E+02  0.39125355071E+02  0.51190911977E+02  0.00000000000E+00 0.  1.
</event>
<event>
 6    1  0.8989754E-006  0.1519172E+03  0.7561462E-02  0.1198137E+00
          2   -1    0    0  501    0  0.00000000000E+00  0.00000000000E+00  0.18400497907E+03  0.18400497907E+03  0.00000000000E+00 0. -1.
         -2   -1    0    0    0  501 -0.00000000000E+00 -0.00000000000E+00 -0.15112667811E+03  0.15112667811E+03  0.00000000000E+00 0.  1.
          5    1    1    2  502    0 -0.26467357938E+02  0.86460281954E+02  0.11521716689E+02  0.91247595844E+02  0.41800000000E+01 0.  1.
         -5    1    1    2    0  502 -0.81004521308E+02 -0.23178666763E+02 -0.13333543161E+02  0.85406316151E+02  0.41800000000E+01 0.  1.
        -11    1    1    2    0    0  0.24439351255E+02 -0.31917053437E+02 -0.28711961383E+02  0.49399968789E+02  0.00000000000E+00 0.  1.
         11    1    1    2    0    0  0.83032527991E+02 -0.31364561754E+02  0.63402088814E+02  0.10907777640E+03  0.00000000000E+00 0. -1.
</event>
<event>
 6    1  0.8989754E-006  0.1994573E+03  0.7561462E-02  0.1150198E+00
          3   -1    0    0  501    0  0.00000000000E+00  0.00000000000E+00  0.48227658156E+02  0.48227658156E+02  0.00000000000E+00 0. -1.
         -3   -1    0    0    0  501 -0.00000000000E+00 -0.00000000000E+00 -0.94959805277E+03  0.94959805277E+03  0.00000000000E+00 0.  1.
          5    1    1    2  502    0  0.49947509353E+02  0.75905455225E+02 -0.23445228937E+03  0.25147910492E+03  0.41800000000E+01 0. -1.
         -5    1    1    2    0  502  0.11298462628E+03 -0.31676417738E+02 -0.39862727836E+03  0.41555998444E+03  0.41800000000E+01 0. -1.
        -11    1    1    2    0    0 -0.62430267918E+02 -0.62556609950E+02 -0.96014692109E+02  0.13049785018E+03  0.00000000000E+00 0. -1.
         11    1    1    2    0    0 -0.10050186772E+03  0.18327572462E+02 -0.17227613478E+03  0.20028877138E+03  0.00000000000E+00 0.  1.
</event>
<event>
 6    1  0.8989754E-006  0.1012468E+03  0.7561462E-02  0.1277696E+00
         -1   -1    0    0    0  501 -0.00000000000E+00  0.00000000000E+00  0.16168398886E+03  0.16168398886E+03  0.00000000000E+00 0.  1.
          1   -1    0    0  501    0  0.00000000000E+00 -0.00000000000E+00 -0.10084305344E+03  0.10084305344E+03  0.00000000000E+00 0. -1.
          5    1    1    2  502    0  0.60523252771E+01 -0.89190094341E+02  0.17360626073E+02  0.91161216027E+02  0.41800000000E+01 0. -1.
         -5    1    1    2    0  502  0.74202206843E+01  0.31927086994E+02  0.56807676981E+02  0.65718970799E+02  0.41800000000E+01 0. -1.
        -11    1    1    2    0    0 -0.29682450307E+02  0.12243713127E+02  0.27861890261E+02  0.42511660710E+02  0.00000000000E+00 0.  1.
         11    1    1    2    0    0  0.16209904346E+02  0.45019294220E+02 -0.41189257899E+02  0.63135194758E+02  0.00000000000E+00 0. -1.
</event>
<event>
 6    1  0.8989754E-006  0.1124703E+03  0.7561462E-02  0.1256062E+00
         -2   -1    0    0    0  501 -0.00000000000E+00  0.00000000000E+00  0.12660435001E+04  0.12660435001E+04  0.00000000000E+00 0.  1.
          2   -1    0    0  501    0  0.00000000000E+00 -0.00000000000E+00 -0.29597446767E+02  0.29597446767E+02  0.00000000000E+00 0. -1.
          5    1    1    2  502    0  0.34683502637E+02  0.67557953534E+02  0.85959611182E+03  0.86295421101E+03  0.41800000000E+01 0. -1.
         -5    1    1    2    0  502 -0.39454441709E+02 -0.29429399794E+02  0.30552387821E+03  0.30949160747E+03  0.41800000000E+01 0. -1.
        -11    1    1    2    0    0  0.45871360279E+02 -0.36034707892E+02  0.50078565646E+02  0.76880066362E+02  0.00000000000E+00 0.  1.
         11    1    1    2    0    0 -0.41100421207E+02 -0.20938458482E+01  0.21247497672E+02  0.46315062033E+02  0.00000000000E+00 0. -1.
</event>
<event>
 6    1  0.8989754E-006  0.1105277E+03  0.7561462E-02  0.1259596E+00
          2   -1    0    0  501    0  0.00000000000E+00  0.00000000000E+00  0.31228863569E+03  0.31228863569E+03  0.00000000000E+00 0.  1.
         -2   -1    0    0    0  501 -0.00000000000E+00 -0.00000000000E+00 -0.45025668689E+02  0.45025668689E+02  0.00000000000E+00 0. -1.
          5    1    1    2  502    0  0.98460282961E+01 -0.48020064915E+02  0.34005753264E+02  0.59805807098E+02  0.41800000000E+01 0.  1.
         -5    1    1    2    0  502 -0.27375012264E+02  0.74881348140E+02  0.63216302856E+02  0.10183506735E+03  0.41800000000E+01 0.  1.
        -11    1    1    2    0    0 -0.32885245785E+02 -0.25456261050E+02  0.10793188362E+03  0.11566655575E+03  0.00000000000E+00 0.  1.
         11    1    1    2    0    0  0.50414229753E+02 -0.14050221749E+01  0.62109027265E+02  0.80006874184E+02  0.00000000000E+00 0. -1.
</event>
<event>
 6    1  0.8989754E-006  0.8878319E+02  0.7561462E-02  0.1305825E+00
          3   -1    0    0  501    0  0.00000000000E+00  0.00000000000E+00  0.22904164454E+02  0.22904164454E+02  0.00000000000E+00 0. -1.
         -3   -1    0    0    0  501 -0.00000000000E+00 -0.00000000000E+00 -0.72343975075E+03  0.72343975075E+03  0.00000000000E+00 0.  1.
          5    1    1    2  502    0 -0.40330551724E+02  0.82401387007E+00 -0.58278191740E+02  0.71000369251E+02  0.41800000000E+01 0. -1.
         -5    1    1    2    0  502  0.32010202687E+02  0.35727215681E+02 -0.50163165747E+03  0.50393737626E+03  0.41800000000E+01 0. -1.
        -11    1    1    2    0    0  0.19435345721E+02 -0.59914269360E+02 -0.12791045224E+03  0.14257817550E+03  0.00000000000E+00 0.  1.
         11    1    1    2    0    0 -0.11114996684E+02  0.23363039809E+02 -0.12715284843E+02  0.28827994191E+02  0.00000000000E+00 0. -1.
</event>
<event>
 6    1  0.8989754E-006  0.2565848E+03  0.7561462E-02  0.1109213E+00
         -1   -1    0    0    0  501 -0.00000000000E+00  0.00000000000E+00  0.19359107169E+03  0.19359107169E+03  0.00000000000E+00 0.  1.
          1   -1    0    0  501    0  0.00000000000E+00 -0.00000000000E+00 -0.55713456873E+03  0.55713456873E+03  0.00000000000E+00 0. -1.
          5    1    1    2  502    0  0.41561303646E+02 -0.19356628186E+02  0.50623913154E+02  0.68427143726E+02  0.41800000000E+01 0.  1.
         -5    1    1    2    0  502  0.21247051629E+03  0.10897849807E+02 -0.33343544441E+02  0.21538743644E+03  0.41800000000E+01 0.  1.
        -11    1    1    2    0    0 -0.13198694018E+03 -0.22888090191E+00 -0.27543726434E+03  0.30542804611E+03  0.00000000000E+00 0.  1.
         11    1    1    2    0    0 -0.12204487976E+03  0.86876592804E+01 -0.10538660142E+03  0.16148301414E+03  0.00000000000E+00 0. -1.
</event>
<event>
 6    1  0.8989754E-006  0.2512606E+03  0.7561462E-02  0.1112511E+00
         -1   -1    0    0    0  501 -0.00000000000E+00  0.00000000000E+00  0.81901181365E+02  0.81901181365E+02  0.00000000000E+00 0.  1.
          1   -1    0    0  501    0  0.00000000000E+00 -0.00000000000E+00 -0.80707728719E+03  0.80707728719E+03  0.00000000000E+00 0. -1.
          5    1    1    2  502    0 -0.50276616472E+02  0.15287267731E+03 -0.21815030817E+03  0.27111772901E+03  0.41800000000E+01 0. -1.
         -5    1    1    2    0  502  0.65366885961E+02  0.78713876379E+02 -0.12452055801E+03  0.16121893773E+03  0.41800000000E+01 0. -1.
        -11    1    1    2    0    0  0.22079883660E+02 -0.99471544621E+02 -0.22949845254E+03  0.25110087449E+03  0.00000000000E+00 0. -1.
         11    1    1    2    0    0 -0.37170153149E+02 -0.13211500906E+03 -0.15300678711E+03  0.20554092733E+03  0.00000000000E+00 0.  1.
</event>
<event>
 6    1  0.8989754E-006  0.1447144E+03  0.7561462E-02  0.1207123E+00
         -2   -1    0    0    0  501 -0.00000000000E+00  0.00000000000E+00  0.67859022305E+02  0.67859022305E+02  0.00000000000E+00 0.  1.
          2   -1    0    0  501    0  0.00000000000E+00 -0.00000000000E+00 -0.41429095390E+03  0.41429095390E+03  0.00000000000E+00 0. -1.
          5    1    1    2  502    0 -0.64190835526E+00  0.15434956742E+02  0.88602429216E+01  0.18292792040E+02  0.41800000000E+01 0. -1.
         -5    1    1    2    0  502 -0.86012961584E+02 -0.11185923616E+03 -0.19515278279E+03  0.24085846322E+03  0.41800000000E+01 0. -1.
        -11    1    1    2    0    0  0.51135342207E+02  0.37335268112E+02 -0.19300999800E+02  0.66191193227E+02  0.00000000000E+00 0.  1.
         11    1    1    2    0    0  0.35519527732E+02  0.59089011310E+02 -0.14083839192E+03  0.15680752771E+03  0.00000000000E+00 0. -1.
</event>
<event>
 6    1  0.8989754E-006  0.1529361E+03  0.7561462E-02  0.1196911E+00
          1   -1    0    0  501    0  0.00000000000E+00  0.00000000000E+00  0.87069530907E+02  0.87069530907E+02  0.00000000000E+00 0. -1.
         -1   -1    0    0    0  501 -0.00000000000E+00 -0.00000000000E+00 -0.40963724555E+03  0.40963724555E+03  0.00000000000E+00 0.  1.
          5    1    1    2  502    0 -0.36625755525E+02  0.25755806598E+02 -0.12279296168E+02  0.46616102965E+02  0.41800000000E+01 0.  1.
         -5    1    1    2    0  502  0.26155234660E+02  0.11146636995E+03 -0.24894687866E+03  0.27404537712E+03  0.41800000000E+01 0.  1.
        -11    1    1    2    0    0  0.30509769796E+02 -0.75210408690E+02  0.71822586776E+01  0.81480282695E+02  0.00000000000E+00 0. -1.
         11    1    1    2    0    0 -0.20039248931E+02 -0.62011767859E+02 -0.68523798497E+02  0.94565013674E+02  0.00000000000E+00 0.  1.
</event>
<event>
 6    1  0.8989754E-006  0.1758396E+03  0.7561462E-02  0.1171891E+00
         -2   -1    0    0    0  501 -0.00000000000E+00  0.00000000000E+00  0.13541344202E+03  0.13541344202E+03  0.00000000000E+00 0.  1.
          2   -1    0    0  501    0  0.00000000000E+00 -0.00000000000E+00 -0.74616824355E+03  0.74616824355E+03  0.00000000000E+00 0. -1.
          5    1    1    2  502    0 -0.10768254797E+03  0.95939065293E+02 -0.56291593356E+03  0.58111242978E+03  0.41800000000E+01 0. -1.
         -5    1    1    2    0  502  0.98887002037E+02 -0.10781920204E+03  0.59957306809E+02  0.15816437823E+03  0.41800000000E+01 0.  1.
        -11    1    1    2    0    0  0.25493771350E+02  0.27972737733E+02 -0.11245323289E+03  0.11865132120E+03  0.00000000000E+00 0.  1.
         11    1    1    2    0    0 -0.16698225420E+02 -0.16092600985E+02  0.46570581057E+01  0.23653556368E+02  0.00000000000E+00 0. -1.
</event>
<event>
 6    1  0.8989754E-006  0.1184689E+03  0.7561462E-02  0.1245645E+00
         -2   -1    0    0    0  501 -0.00000000000E+00  0.00000000000E+00  0.23649769177E+04  0.23649769177E+04  0.00000000000E+00 0.  1.
          2   -1    0    0  501    0  0.00000000000E+00 -0.00000000000E+00 -0.11716876787E+02  0.11716876787E+02  0.00000000000E+00 0. -1.
          5    1    1    2  502    0  0.17163986995E+02 -0.88683591065E+02  0.13481249656E+04  0.13511542388E+04  0.41800000000E+01 0.  1.
         -5    1    1    2    0  502  0.16283755540E+02  0.43545420430E+02  0.72224913988E+03  0.72375593731E+03  0.41800000000E+01 0.  1.
        -11    1    1    2    0    0 -0.56059700907E+02  0.51730280540E+02  0.24968087524E+03  0.26107326836E+03  0.00000000000E+00 0.  1.
         11    1    1    2    0    0  0.22611958371E+02 -0.65921099049E+01  0.33205060115E+02  0.40710349932E+02  0.00000000000E+00 0. -1.
</event>
<event>
 6    1  0.8989754E-006  0.1426753E+03  0.7561462E-02  0.1209774E+00
         -1   -1    0    0    0  501 -0.00000000000E+00  0.00000000000E+00  0.21981255409E+03  0.21981255409E+03  0.00000000000E+00 0.  1.
          1   -1    0    0  501    0  0.00000000000E+00 -0.00000000000E+00 -0.12909164955E+03  0.12909164955E+03  0.00000000000E+00 0. -1.
          5    1    1    2  502    0 -0.69030083536E+02 -0.49835876552E+02  0.95739902801E+02  0.12818879987E+03  0.41800000000E+01 0.  1.
         -5    1    1    2    0  502 -0.32446654763E+02 -0.29973207945E+02 -0.40289412253E+02  0.59932359702E+02  0.41800000000E+01 0.  1.
        -11    1    1    2    0    0 -0.14293303215E+02  0.22260314628E+02 -0.11089352779E+01  0.26477346196E+02  0.00000000000E+00 0. -1.
         11    1    1    2    0    0  0.11577004151E+03  0.57548769869E+02  0.36379349275E+02  0.13430569787E+03  0.00000000000E+00 0.  1.
</event>
<event>
 6    1  0.8989754E-006  0.1890918E+03  0.7561462E-02  0.1159283E+00
          2   -1    0    0  501    0  0.00000000000E+00  0.00000000000E+00  0.32103643740E+03  0.32103643740E+03  0.00000000000E+00 0. -1.
         -2   -1    0    0    0  501 -0.00000000000E+00 -0.00000000000E+00 -0.12985726482E+03  0.12985726482E+03  0.00000000000E+00 0.  1.
          5    1    1    2  502    0 -0.17808576023E+03  0.10615533864E+02  0.18199511077E+02  0.17937648162E+03  0.41800000000E+01 0. -1.
         -5    1    1    2    0  502  0.17997302574E+02 -0.15029403964E+02  0.98116133101E+01  0.25758999188E+02  0.41800000000E+01 0. -1.
        -11    1    1    2    0    0  0.45392907489E+02 -0.32045482279E+02  0.20784398161E+02  0.59324701362E+02  0.00000000000E+00 0.  1.
         11    1    1    2    0    0  0.11469555017E+03  0.36459352379E+02  0.14238365003E+03  0.18643352005E+03  0.00000000000E+00 0. -1.
</event>
<event>
 6    1  0.8989754E-006  0.9473523E+02  0.7561462E-02  0.1291774E+00
          1   -1    0    0  501    0  0.00000000000E+00  0.00000000000E+00  0.40252641844E+02  0.40252641844E+02  0.00000000000E+00 0. -1.
         -1   -1    0    0    0  501 -0.00000000000E+00 -0.00000000000E+00 -0.35285719416E+03  0.35285719416E+03  0.00000000000E+00 0.  1.
          5    1    1    2  502    0 -0.30497413727E+01 -0.58345622784E+02 -0.41434159795E+02  0.71747993829E+02  0.41800000000E+01 0.  1.
         -5    1    1    2    0  502  0.18393093865E+02  0.29154882316E+02 -0.19219029921E+03  0.19530206495E+03  0.41800000000E+01 0.  1.
        -11    1    1    2    0    0  0.34975384016E+02 -0.50067742325E+01 -0.16998331408E+02  0.39208271397E+02  0.00000000000E+00 0.  1.
         11    1    1    2    0    0 -0.50318736509E+02  0.34197514701E+02 -0.61981761910E+02  0.86851505830E+02  0.00000000000E+00 0. -1.
</event>
<event>
 6    1  0.8989754E-006  0.1192392E+03  0.7561462E-02  0.1244357E+00
          2   -1    0    0  501    0  0.00000000000E+00  0.00000000000E+00  0.10337811823E+03  0.10337811823E+03  0.00000000000E+00 0. -1.
         -2   -1    0    0    0  501 -0.00000000000E+00 -0.00000000000E+00 -0.16521296192E+03  0.16521296192E+03  0.00000000000E+00 0.  1.
          5    1    1    2  502    0  0.56474210692E+02 -0.43576906335E+02 -0.10941020795E+01  0.71462946331E+02  0.41800000000E+01 0. -1.
         -5    1    1    2    0  502 -0.24095089952E+02  0.66124834560E+02 -0.67266709972E+02  0.97444085382E+02  0.41800000000E+01 0.  1.
        -11    1    1    2    0    0 -0.54246227441E+02 -0.40929627730E+02  0.15577485851E+02  0.69717613866E+02  0.00000000000E+00 0. -1.
         11    1    1    2    0    0  0.21867106701E+02  0.18381699505E+02 -0.90515174941E+01  0.29966434574E+02  0.00000000000E+00 0.  1.
</event>
<event>
 6    1  0.8989754E-006  0.1029615E+03  0.7561462E-02  0.1274189E+00
          2   -1    0    0  501    0  0.00000000000E+00  0.00000000000E+00  0.38207700390E+03  0.38207700390E+03  0.00000000000E+00 0. -1.
         -2   -1    0    0    0  501 -0.00000000000E+00 -0.00000000000E+00 -0.66353522912E+02  0.66353522912E+02  0.00000000000E+00 0.  1.
          5    1    1    2  502    0  0.21634236784E+02  0.38951364932E+02 -0.29639751164E+02  0.53677148586E+02  0.41800000000E+01 0.  1.
         -5    1    1    2    0  502  0.61562404402E+02 -0.13872519777E+02  0.90346355815E+02  0.11028287650E+03  0.41800000000E+01 0.  1.
        -11    1    1    2    0    0 -0.45499793972E+02  0.98295451014E+01  0.34218272011E+02  0.57773188832E+02  0.00000000000E+00 0.  1.
         11    1    1    2    0    0 -0.37696847215E+02 -0.34908390256E+02  0.22079860432E+03  0.22669731289E+03  0.00000000000E+00 0. -1.
</event>
<event>
 6    1  0.8989754E-006  0.1475518E+03  0.7561462E-02  0.1203514E+00
         -3   -1    0    0    0  501 -0.00000000000E+00  0.00000000000E+00  0.15349458907E+03  0.15349458907E+03  0.00000000000E+00 0.  1.
          3   -1    0    0  501    0  0.00000000000E+00 -0.00000000000E+00 -0.19768616260E+03  0.19768616260E+03  0.00000000000E+00 0. -1.
          5    1    1    2  502    0 -0.37587393141E+02  0.33176905931E+01 -0.11545721908E+02  0.39681170451E+02  0.41800000000E+01 0.  1.
         -5    1    1    2    0  502  0.33803966469E+02 -0.11490020752E+03  0.64767634715E+02  0.13622439115E+03  0.41800000000E+01 0.  1.
        -11    1    1    2    0    0 -0.37977752416E+02  0.58678111243E+02 -0.20145294219E+02  0.72741070221E+02  0.00000000000E+00 0.  1.
         11    1    1    2    0    0  0.41761179088E+02  0.52904405683E+02 -0.77268192115E+02  0.10253411984E+03  0.00000000000E+00 0. -1.
</event>
<event>
 6    1  0.8989754E-006  0.1114887E+03  0.7561462E-02  0.1257838E+00
          1   -1    0    0  501    0  0.00000000000E+00  0.00000000000E+00  0.14133032587E+03  0.14133032587E+03  0.00000000000E+00 0. -1.
         -1   -1    0    0    0  501 -0.00000000000E+00 -0.00000000000E+00 -0.19327360853E+03  0.19327360853E+03  0.00000000000E+00 0.  1.
          5    1    1    2  502    0  0.55797211006E+02  0.55245104148E+02 -0.45478067053E+02  0.90835440613E+02  0.41800000000E+01 0. -1.
         -5    1    1    2    0  502  0.12138569191E+02 -0.54158689752E+02 -0.89131117238E+02  0.10508252470E+03  0.41800000000E+01 0. -1.
        -11    1    1    2    0    0 -0.22097781913E+02 -0.27893387754E+02 -0.52568766057E+01  0.35972041887E+02  0.00000000000E+00 0.  1.
         11    1    1    2    0    0 -0.45837998285E+02  0.26806973357E+02  0.87922778241E+02  0.10271392720E+03  0.00000000000E+00 0. -1.
</event>
<event>
 6    1  0.8989754E-006  0.2115081E+03  0.7561462E-02  0.1140377E+00
          2   -1    0    0  501    0  0.00000000000E+00  0.00000000000E+00  0.11067608466E+04  0.11067608466E+04  0.00000000000E+00 0. -1.
         -2   -1    0    0    0  501 -0.00000000000E+00 -0.00000000000E+00 -0.44295504206E+02  0.44295504206E+02  0.00000000000E+00 0.  1.
          5    1    1    2  502    0  0.17499633151E+02 -0.81837125590E+01  0.30131004310E+02  0.36035539852E+02  0.41800000000E+01 0.  1.
         -5    1    1    2    0  502 -0.16558400641E+03  0.11261305558E+03  0.35130414959E+03  0.40439070388E+03  0.41800000000E+01 0.  1.
        -11    1    1    2    0    0 -0.12565411513E+02 -0.13143216772E+02  0.62147689784E+02  0.64753139377E+02  0.00000000000E+00 0.  1.
         11    1    1    2    0    0  0.16064978477E+03 -0.91286126252E+02  0.61888249873E+03  0.64587696772E+03  0.00000000000E+00 0. -1.
</event>
<event>
 6    1  0.8989754E-006  0.1044703E+03  0.7561462E-02  0.1271167E+00
          2   -1    0    0  501    0  0.00000000000E+00  0.00000000000E+00  0.66164639940E+03  0.66164639940E+03  0.00000000000E+00 0. -1.
         -2   -1    0    0    0  501 -0.00000000000E+00 -0.00000000000E+00 -0.21680418501E+02  0.21680418501E+02  0.00000000000E+00 0.  1.
          5    1    1    2  502    0  0.44848715784E+02 -0.53807360283E+02  0.13108535190E+03  0.14868584738E+03  0.41800000000E+01 0. -1.
         -5    1    1    2    0  502 -0.19426748851E+02  0.38624739286E+02  0.51982164438E+02  0.67741323249E+02  0.41800000000E+01 0.  1.
        -11    1    1    2    0    0 -0.17180286741E+02  0.53472759000E+02  0.29787996534E+03  0.30312863929E+03  0.00000000000E+00 0.  1.
         11    1    1    2    0    0 -0.82416801913E+01 -0.38290138003E+02  0.15901849922E+03  0.16377100798E+03  0.00000000000E+00 0. -1.
</event>
<event>
 6    1  0.8989754E-006  0.1123567E+03  0.7561462E-02  0.1256267E+00
          1   -1    0    0  501    0  0.00000000000E+00  0.00000000000E+00  0.67010959122E+02  0.67010959122E+02  0.00000000000E+00 0. -1.
         -1   -1    0    0    0  501 -0.00000000000E+00 -0.00000000000E+00 -0.26989201130E+03  0.26989201130E+03  0.00000000000E+00 0.  1.
          5    1    1    2  502    0 -0.39928746147E+02  0.22961807341E+02 -0.46810815531E+02  0.65804819093E+02  0.41800000000E+01 0. -1.
         -5    1    1    2    0  502  0.44221619958E+02 -0.85668516843E+02 -0.12330417296E+03  0.15657598129E+03  0.41800000000E+01 0.  1.
        -11    1    1    2    0    0 -0.15769919122E+02  0.67653240622E+02  0.98041620832E+01  0.70155348405E+02  0.00000000000E+00 0. -1.
         11    1    1    2    0    0  0.11477045310E+02 -0.49465311198E+01 -0.42570225770E+02  0.44366821627E+02  0.00000000000E+00 0.  1.
</event>
<event>
 6    1  0.8989754E-006  0.8219474E+02  0.7561462E-02  0.1322936E+00
          2   -1    0    0  501    0  0.00000000000E+00  0.00000000000E+00  0.17443395228E+03  0.17443395228E+03  0.00000000000E+00 0. -1.
         -2   -1    0    0    0  501 -0.00000000000E+00 -0.00000000000E+00 -0.81468278427E+02  0.81468278427E+02  0.00000000000E+00 0.  1.
          5    1    1    2  502    0  0.43957353988E+01 -0.29745161842E+02 -0.44561879329E+02  0.53919668323E+02  0.41800000000E+01 0. -1.
         -5    1    1    2    0  502  0.31790446989E+02  0.41776967412E+01  0.75807506884E+02  0.82415630616E+02  0.41800000000E+01 0. -1.
        -11    1    1    2    0    0  0.26728130965E+02  0.28034925774E+02  0.30430082015E+02  0.49257892154E+02  0.00000000000E+00 0. -1.
         11    1    1    2    0    0 -0.62914313353E+02 -0.24674606732E+01  0.31289964287E+02  0.70309039617E+02  0.00000000000E+00 0.  1.
</event>
<event>
 6    1  0.8989754E-006  0.1161819E+03  0.7561462E-02  0.1249532E+00
          2   -1    0    0  501    0  0.00000000000E+00  0.00000000000E+00  0.64182922212E+03  0.64182922212E+03  0.00000000000E+00 0. -1.
         -2   -1    0    0    0  501 -0.00000000000E+00 -0.00000000000E+00 -0.42859303930E+02  0.42859303930E+02  0.00000000000E+00 0.  1.
          5    1    1    2  502    0  0.26248272893E+02 -0.66357614944E+01 -0.17054038205E+02  0.32269455830E+02  0.41800000000E+01 0.  1.
         -5    1    1    2    0  502  0.13992153986E+02 -0.77687418284E+02  0.16438457874E+03  0.18240306319E+03  0.41800000000E+01 0.  1.
        -11    1    1    2    0    0  0.25961083229E+02  0.33925445962E+02  0.21427399604E+03  0.21849086733E+03  0.00000000000E+00 0.  1.
         11    1    1    2    0    0 -0.66201510108E+02  0.50397733817E+02  0.23736538162E+03  0.25152513971E+03  0.00000000000E+00 0. -1.
</event>
<event>
 6    1  0.8989754E-006  0.1708081E+03  0.7561462E-02  0.1177008E+00
         -2   -1    0    0    0  501 -0.00000000000E+00  0.00000000000E+00  0.11296477194E+04  0.11296477194E+04  0.00000000000E+00 0.  1.
          2   -1    0    0  501    0  0.00000000000E+00 -0.00000000000E+00 -0.40053171308E+02  0.40053171308E+02  0.00000000000E+00 0. -1.
          5    1    1    2  502    0  0.49103377211E+01 -0.83765446944E+01  0.35332484652E+01  0.11146037963E+02  0.41800000000E+01 0.  1.
         -5    1    1    2    0  502 -0.69386270492E+02  0.15536653645E+03  0.78292459706E+03  0.80121258869E+03  0.41800000000E+01 0.  1.
        -11    1    1    2    0    0  0.19517881258E+02 -0.33565418468E+02  0.17945797864E+03  0.18361032406E+03  0.00000000000E+00 0.  1.
         11    1    1    2    0    0  0.44958051514E+02 -0.11342457328E+03  0.12367872390E+03  0.17373193997E+03  0.00000000000E+00 0. -1.
</event>
<event>
 6    1  0.8989754E-006  0.1528475E+03  0.7561462E-02  0.1197017E+00
         -1   -1    0    0    0  501 -0.00000000000E+00  0.00000000000E+00  0.69295418386E+03  0.69295418386E+03  0.00000000000E+00 0.  1.
          1   -1    0    0  501    0  0.00000000000E+00 -0.00000000000E+00 -0.63019090371E+02  0.63019090371E+02  0.00000000000E+00 0. -1.
          5    1    1    2  502    0  0.10372263438E+02 -0.45379020179E+02  0.45047404754E+02  0.64912097457E+02  0.41800000000E+01 0.  1.
         -5    1    1    2    0  502 -0.75530834552E+02 -0.75071868301E+02  0.48739107277E+03  0.49890702801E+03  0.41800000000E+01 0.  1.
        -11    1    1    2    0    0  0.12796265953E+02 -0.70070203921E+01 -0.97461080824E+01  0.17545067109E+02  0.00000000000E+00 0. -1.
         11    1    1    2    0    0  0.52362305161E+02  0.12745790887E+03  0.10724272404E+03  0.17460908165E+03  0.00000000000E+00 0.  1.
</event>
<event>
 6    1  0.8989754E-006  0.1450453E+03  0.7561462E-02  0.1206697E+00
         -1   -1    0    0    0  501 -0.00000000000E+00  0.00000000000E+00  0.48957086967E+02  0.48957086967E+02  0.00000000000E+00 0.  1.
          1   -1    0    0  501    0  0.00000000000E+00 -0.00000000000E+00 -0.47058214656E+03  0.47058214656E+03  0.00000000000E+00 0. -1.
          5    1    1    2  502    0  0.68758564769E+02  0.52817754351E+01 -0.13878048814E+03  0.15502623542E+03  0.41800000000E+01 0. -1.
         -5    1    1    2    0  502 -0.51791914622E+01 -0.91556400100E+02 -0.10892480845E+03  0.14244818258E+03  0.41800000000E+01 0. -1.
        -11    1    1    2    0    0 -0.78749196138E+02  0.81431509169E+02 -0.11657152386E+03  0.16254675252E+03  0.00000000000E+00 0.  1.
         11    1    1    2    0    0  0.15169822831E+02  0.48431154956E+01 -0.57348239135E+02  0.59518063008E+02  0.00000000000E+00 0. -1.
</event>
<event>
 6    1  0.8989754E-006  0.1484076E+03  0.7561462E-02  0.1202443E+00
         -1   -1    0    0    0  501 -0.00000000000E+00  0.00000000000E+00  0.24383953000E+03  0.24383953000E+03  0.00000000000E+00 0.  1.
          1   -1    0    0  501    0  0.00000000000E+00 -0.00000000000E+00 -0.19289664943E+03  0.19289664943E+03  0.00000000000E+00 0. -1.
          5    1    1    2  502    0 -0.45333287359E+02 -0.13093517468E+02  0.25052180592E+02  0.53587603929E+02  0.41800000000E+01 0. -1.
         -5    1    1    2    0  502  0.58960442524E+02 -0.10586602110E+03  0.14645956846E+03  0.19013633477E+03  0.41800000000E+01 0. -1.
        -11    1    1    2    0    0  0.12748242331E+02  0.80846238764E+02 -0.12168547307E+03  0.14664919489E+03  0.00000000000E+00 0.  1.
         11    1    1    2    0    0 -0.26375397496E+02  0.38113299802E+02  0.11166045937E+01  0.46363045852E+02  0.00000000000E+00 0. -1.
</event>
<event>
 6    1  0.8989754E-006  0.1082797E+03  0.7561462E-02  0.1263789E+00
          2   -1    0    0  501    0  0.00000000000E+00  0.00000000000E+00  0.28276286442E+02  0.28276286442E+02  0.00000000000E+00 0. -1.
         -2   -1    0    0    0  501 -0.00000000000E+00 -0.00000000000E+00 -0.43680379194E+03  0.43680379194E+03  0.00000000000E+00 0.  1.
          5    1    1    2  502    0  0.69338401984E+02 -0.57074733978E+01 -0.16507058862E+03  0.17918192116E+03  0.41800000000E+01 0. -1.
         -5    1    1    2    0  502 -0.55418996493E+02 -0.76476886470E+01 -0.10379837552E+03  0.11798867520E+03  0.41800000000E+01 0. -1.
        -11    1    1    2    0    0 -0.26006476343E+02  0.47712284761E+02 -0.64117362779E+02  0.84046624790E+02  0.00000000000E+00 0. -1.
         11    1    1    2    0    0  0.12087070853E+02 -0.34357122716E+02 -0.75541178576E+02  0.83862857236E+02  0.00000000000E+00 0.  1.
</event>
<event>
 6    1  0.8989754E-006  0.1323184E+03  0.7561462E-02  0.1224056E+00
          3   -1    0    0  501    0  0.00000000000E+00  0.00000000000E+00  0.41756940672E+02  0.41756940672E+02  0.00000000000E+00 0. -1.
         -3   -1    0    0    0  501 -0.00000000000E+00 -0.00000000000E+00 -0.47300729375E+03  0.47300729375E+03  0.00000000000E+00 0.  1.
          5    1    1    2  502    0 -0.52479674839E+02  0.34517279150E+02 -0.17220516723E+03  0.18335116812E+03  0.41800000000E+01 0.  1.
         -5    1    1    2    0  502  0.68257283646E+02  0.45868668366E+02 -0.13119679507E+03  0.15489694298E+03  0.41800000000E+01 0.  1.
        -11    1    1    2    0    0 -0.45775518686E+02 -0.16317269794E+02 -0.69550833202E+02  0.84846743035E+02  0.00000000000E+00 0.  1.
         11    1    1    2    0    0  0.29997909879E+02 -0.64068677722E+02 -0.58297557576E+02  0.91669380283E+02  0.00000000000E+00 0. -1.
</event>
<event>
 6    1  0.8989754E-006  0.2321871E+03  0.7561462E-02  0.1125110E+00
          4   -1    0    0  501    0  0.00000000000E+00  0.00000000000E+00  0.34230213260E+03  0.34230213260E+03  0.00000000000E+00 0. -1.
         -4   -1    0    0    0  501 -0.00000000000E+00 -0.00000000000E+00 -0.20293367510E+03  0.20293367510E+03  0.00000000000E+00 0.  1.
          5    1    1    2  502    0 -0.11024617924E+02  0.16022334070E+02  0.19780659328E+02  0.28053596433E+02  0.41800000000E+01 0. -1.
         -5    1    1    2    0  502 -0.16622811577E+03 -0.14347960876E+03 -0.51223700210E+02  0.22552056329E+03  0.41800000000E+01 0. -1.
        -11    1    1    2    0    0  0.28481892405E+02  0.48968385608E+02  0.73687247300E+01  0.57126343206E+02  0.00000000000E+00 0.  1.
         11    1    1    2    0    0  0.14877084129E+03  0.78488889080E+02  0.16344277365E+03  0.23453530477E+03  0.00000000000E+00 0. -1.
</event>
<event>
 6    1  0.8989754E-006  0.2524899E+03  0.7561462E-02  0.1111741E+00
         -2   -1    0    0    0  501 -0.00000000000E+00  0.00000000000E+00  0.35603149498E+03  0.35603149498E+03  0.00000000000E+00 0.  1.
          2   -1    0    0  501    0  0.00000000000E+00 -0.00000000000E+00 -0.18878955693E+03  0.18878955693E+03  0.00000000000E+00 0. -1.
          5    1    1    2  502    0  0.11172745398E+03 -0.11667566614E+03  0.29686590957E+02  0.16430155545E+03  0.41800000000E+01 0. -1.
         -5    1    1    2    0  502 -0.11870875323E+02 -0.95737985186E+02  0.71935421103E+02  0.12041119839E+03  0.41800000000E+01 0. -1.
        -11    1    1    2    0    0 -0.33290524622E+02  0.15615824298E+03  0.66470404598E+02  0.17295077498E+03  0.00000000000E+00 0.  1.
         11    1    1    2    0    0 -0.66566054031E+02  0.56255408346E+02 -0.85047860629E+00  0.87157523091E+02  0.00000000000E+00 0. -1.
</event>
<event>
 6    1  0.8989754E-006  0.1387229E+03  0.7561462E-02  0.1215058E+00
          2   -1    0    0  501    0  0.00000000000E+00  0.00000000000E+00  0.15248976574E+03  0.15248976574E+03  0.00000000000E+00 0. -1.
         -2   -1    0    0    0  501 -0.00000000000E+00 -0.00000000000E+00 -0.13815517931E+03  0.13815517931E+03  0.00000000000E+00 0.  1.
          5    1    1    2  502    0  0.19115045742E+01 -0.31565894703E+02 -0.14725495650E+02  0.35133633178E+02  0.41800000000E+01 0. -1.
         -5    1    1    2    0  502  0.39920764520E+02  0.10735293394E+03  0.25195406920E+02  0.11734820321E+03  0.41800000000E+01 0. -1.
        -11    1    1    2    0    0 -0.74021445427E+02 -0.58834420571E+02  0.22633947685E+02  0.97226328815E+02  0.00000000000E+00 0. -1.
         11    1    1    2    0    0  0.32189176333E+02 -0.16952618670E+02 -0.18769272525E+02  0.40936779842E+02  0.00000000000E+00 0.  1.
</event>
<event>
 6    1  0.8989754E-006  0.1690448E+03  0.7561462E-02  0.1178848E+00
         -1   -1    0    0    0  501 -0.00000000000E+00  0.00000000000E+00  0.89536020094E+02  0.89536020094E+02  0.00000000000E+00 0.  1.
          1   -1    0    0  501    0  0.00000000000E+00 -0.00000000000E+00 -0.56129704747E+03  0.56129704747E+03  0.00000000000E+00 0. -1.
          5    1    1    2  502    0 -0.19428313697E+02  0.43854255731E+01  0.17986039308E+02  0.27159921586E+02  0.41800000000E+01 0.  1.
         -5    1    1    2    0  502  0.12298208358E+03  0.94189971251E+02 -0.68373374141E+02  0.16937749041E+03  0.41800000000E+01 0.  1.
        -11    1    1    2    0    0 -0.67412323415E+02 -0.10624641401E+03 -0.37147850415E+03  0.39221040385E+03  0.00000000000E+00 0. -1.
         11    1    1    2    0    0 -0.36141446465E+02  0.76710171851E+01 -0.49895188391E+02  0.62085251725E+02  0.00000000000E+00 0.  1.
</event>
<event>
 6    1  0.8989754E-006  0.1373090E+03  0.7561462E-02  0.1216996E+00
          1   -1    0    0  501    0  0.00000000000E+00  0.00000000000E+00  0.24874226780E+03  0.24874226780E+03  0.00000000000E+00 0. -1.
         -1   -1    0    0    0  501 -0.00000000000E+00 -0.00000000000E+00 -0.20514649898E+03  0.20514649898E+03  0.00000000000E+00 0.  1.
          5    1    1    2  502    0  0.23397500616E+02  0.11193229461E+01 -0.79279042299E+02  0.82772790619E+02  0.41800000000E+01 0. -1.
         -5    1    1    2    0  502 -0.24982062018E+02 -0.12379514916E+03 -0.54220610685E+02  0.13750159781E+03  0.41800000000E+01 0. -1.
        -11    1    1    2    0    0  0.11297238429E+02  0.68005837257E+02  0.27807933211E+02  0.74335070099E+02  0.00000000000E+00 0.  1.
         11    1    1    2    0    0 -0.97126770264E+01  0.54669988954E+02  0.14928748859E+03  0.15927930825E+03  0.00000000000E+00 0. -1.
</event>
<event>
 6    1  0.8989754E-006  0.2713840E+03  0.7561462E-02  0.1100490E+00
          1   -1    0    0  501    0  0.00000000000E+00  0.00000000000E+00  0.68406414139E+02  0.68406414139E+02  0.00000000000E+00 0. -1.
         -1   -1    0    0    0  501 -0.00000000000E+00 -0.00000000000E+00 -0.11657142318E+04  0.11657142318E+04  0.00000000000E+00 0.  1.
          5    1    1    2  502    0 -0.18761519788E+03 -0.99580804798E+02 -0.41691341877E+03  0.46792100862E+03  0.41800000000E+01 0.  1.
         -5    1    1    2    0  502 -0.12831813709E+02 -0.61251583412E+02 -0.53118060434E+02  0.82191317412E+02  0.41800000000E+01 0.  1.
        -11    1    1    2    0    0  0.89318888586E+02  0.11915440879E+03 -0.41346301182E+03  0.43946251164E+03  0.00000000000E+00 0. -1.
         11    1    1    2    0    0  0.11112812300E+03  0.41677979415E+02 -0.21381332659E+03  0.24454580822E+03  0.00000000000E+00 0.  1.
</event>
<event>
 6    1  0.8989754E-006  0.1999772E+03  0.7561462E-02  0.1149758E+00
          2   -1    0    0  501    0  0.00000000000E+00  0.00000000000E+00  0.36883506614E+03  0.36883506614E+03  0.00000000000E+00 0.  1.
         -2   -1    0    0    0  501 -0.00000000000E+00 -0.00000000000E+00 -0.12790193004E+03  0.12790193004E+03  0.00000000000E+00 0. -1.
          5    1    1    2  502    0  0.27848252124E+02  0.60670906248E+02 -0.12499293663E+02  0.68045490324E+02  0.41800000000E+01 0. -1.
         -5    1    1    2    0  502 -0.52254458015E+02  0.12535074408E+03  0.12209968639E+03  0.18267222897E+03  0.41800000000E+01 0. -1.
        -11    1    1    2    0    0  0.39224125739E+02 -0.70070090897E+02  0.93288154392E+02  0.12308951795E+03  0.00000000000E+00 0.  1.
         11    1    1    2    0    0 -0.14817919848E+02 -0.11595155943E+03  0.38044588989E+02  0.12292975894E+03  0.00000000000E+00 0. -1.
</event>
<event>
 6    1  0.8989754E-006  0.1283700E+03  0.7561462E-02  0.1229895E+00
          1   -1    0    0  501    0  0.00000000000E+00  0.00000000000E+00  0.74996265320E+03  0.74996265320E+03  0.00000000000E+00 0. -1.
         -1   -1    0    0    0  501 -0.00000000000E+00 -0.00000000000E+00 -0.48509683124E+02  0.48509683124E+02  0.00000000000E+00 0.  1.
          5    1    1    2  502    0 -0.27376329710E+02 -0.76208899825E+02  0.15332946149E+03  0.17344928943E+03  0.41800000000E+01 0.  1.
         -5    1    1    2    0  502 -0.34100090475E+02 -0.15563989831E+02 -0.17635689456E+02  0.41635848646E+02  0.41800000000E+01 0.  1.
        -11    1    1    2    0    0  0.14481946137E+02  0.89739378677E+02  0.29898864647E+03  0.31250134971E+03  0.00000000000E+00 0.  1.
         11    1    1    2    0    0  0.46994474048E+02  0.20335109794E+01  0.26677055157E+03  0.27088584854E+03  0.00000000000E+00 0. -1.
</event>
<event>
 6    1  0.8989754E-006  0.1924240E+03  0.7561462E-02  0.1156293E+00
          2   -1    0    0  501    0  0.00000000000E+00  0.00000000000E+00  0.32529303045E+03  0.32529303045E+03  0.00000000000E+00 0. -1.
         -2   -1    0    0    0  501 -0.00000000000E+00 -0.00000000000E+00 -0.17430597914E+03  0.17430597914E+03  0.00000000000E+00 0.  1.
          5    1    1    2  502    0 -0.12059148687E+03 -0.91148626026E+01 -0.54606434181E+02  0.13275813527E+03  0.41800000000E+01 0. -1.
         -5    1    1    2    0  502 -0.12640741735E+02 -0.78932583336E+02 -0.13154763781E+02  0.81121275100E+02  0.41800000000E+01 0. -1.
        -11    1    1    2    0    0  0.76416457707E+02 -0.29965913133E+01  0.89286442921E+02  0.11756072243E+03  0.00000000000E+00 0.  1.
         11    1    1    2    0    0  0.56815770901E+02  0.91044037252E+02  0.12946180634E+03  0.16815887679E+03  0.00000000000E+00 0. -1.
</event>
<event>
 6    1  0.8989754E-006  0.1489766E+03  0.7561462E-02  0.1201736E+00
          2   -1    0    0  501    0  0.00000000000E+00  0.00000000000E+00  0.10206374718E+04  0.10206374718E+04  0.00000000000E+00 0. -1.
         -2   -1    0    0    0  501 -0.00000000000E+00 -0.00000000000E+00 -0.22023068525E+02  0.22023068525E+02  0.00000000000E+00 0.  1.
          5    1    1    2  502    0 -0.18278267168E+02  0.21250889626E+02  0.67441882724E+02  0.73154461968E+02  0.41800000000E+01 0. -1.
         -5    1    1    2    0  502  0.11664634884E+03 -0.71884706938E+02  0.48027391721E+03  0.49945399161E+03  0.41800000000E+01 0. -1.
        -11    1    1    2    0    0 -0.78389696597E+02  0.31324389868E+00  0.28156605832E+03  0.29227467877E+03  0.00000000000E+00 0.  1.
         11    1    1    2    0    0 -0.19978385079E+02  0.50320573412E+02  0.16933254498E+03  0.17777740793E+03  0.00000000000E+00 0. -1.
</event>
<event>
 6    1  0.8989754E-006  0.8948445E+02  0.7561462E-02  0.1304105E+00
          2   -1    0    0  501    0  0.00000000000E+00  0.00000000000E+00  0.38224985008E+03  0.38224985008E+03  0.00000000000E+00 0. -1.
         -2   -1    0    0    0  501 -0.00000000000E+00 -0.00000000000E+00 -0.41260156668E+02  0.41260156668E+02  0.00000000000E+00 0.  1.
          5    1    1    2  502    0  0.47008480668E+02 -0.11412816162E+02  0.19195117058E+03  0.19799690380E+03  0.41800000000E+01 0.  1.
         -5    1    1    2    0  502 -0.77459974906E+01 -0.48370111082E+02  0.10131877892E+02  0.50197564411E+02  0.41800000000E+01 0.  1.
        -11    1    1    2    0    0 -0.22877946983E+02  0.41456855417E+01 -0.16032241362E+01  0.23305739516E+02  0.00000000000E+00 0.  1.
         11    1    1    2    0    0 -0.16384536195E+02  0.55637241702E+02  0.14050986908E+03  0.15200979902E+03  0.00000000000E+00 0. -1.
</event>
<event>
 6    1  0.8989754E-006  0.1137971E+03  0.7561462E-02  0.1253695E+00
          2   -1    0    0  501    0  0.00000000000E+00  0.00000000000E+00  0.58756970037E+03  0.58756970037E+03  0.00000000000E+00 0. -1.
         -2   -1    0    0    0  501 -0.00000000000E+00 -0.00000000000E+00 -0.27011071436E+02  0.27011071436E+02  0.00000000000E+00 0.  1.
          5    1    1    2  502    0 -0.37657276663E+02 -0.18483770387E+02  0.13931363322E+03  0.14555233099E+03  0.41800000000E+01 0.  1.
         -5    1    1    2    0  502  0.41904198561E+02  0.83195041285E+02  0.15809189723E+03  0.18354263025E+03  0.41800000000E+01 0.  1.
        -11    1    1    2    0    0  0.28476991134E+02 -0.47073418044E+02  0.71269461364E+02  0.90034336969E+02  0.00000000000E+00 0.  1.
         11    1    1    2    0    0 -0.32723913033E+02 -0.17637852855E+02  0.19188363712E+03  0.19545147359E+03  0.00000000000E+00 0. -1.
</event>
<event>
 6    1  0.8989754E-006  0.1082766E+03  0.7561462E-02  0.1263795E+00
          2   -1    0    0  501    0  0.00000000000E+00  0.00000000000E+00  0.26271564460E+03  0.26271564460E+03  0.00000000000E+00 0. -1.
         -2   -1    0    0    0  501 -0.00000000000E+00 -0.00000000000E+00 -0.12551534380E+03  0.12551534380E+03  0.00000000000E+00 0.  1.
          5    1    1    2  502    0 -0.21680495785E+02 -0.54822085532E+02 -0.18862505758E+02  0.62038467768E+02  0.41800000000E+01 0.  1.
         -5    1    1    2    0  502 -0.20204275431E+01  0.63763887683E+02 -0.61903297763E+02  0.88991045470E+02  0.41800000000E+01 0.  1.
        -11    1    1    2    0    0 -0.32759535666E+02 -0.16283513787E+02  0.89102395197E+02  0.96320178718E+02  0.00000000000E+00 0. -1.
         11    1    1    2    0    0  0.56460458994E+02  0.73417116366E+01  0.12886370913E+03  0.14088129645E+03  0.00000000000E+00 0.  1.
</event>
<event>
 6    1  0.8989754E-006  0.1142286E+03  0.7561462E-02  0.1252934E+00
          2   -1    0    0  501    0  0.00000000000E+00  0.00000000000E+00  0.30149133731E+03  0.30149133731E+03  0.00000000000E+00 0.  1.
         -2   -1    0    0    0  501 -0.00000000000E+00 -0.00000000000E+00 -0.57420053216E+02  0.57420053216E+02  0.00000000000E+00 0. -1.
          5    1    1    2  502    0 -0.28571040866E+02 -0.73633909270E+02  0.36542734247E+02  0.87126923489E+02  0.41800000000E+01 0. -1.
         -5    1    1    2    0  502 -0.11273081136E+02  0.63366850410E+02  0.39056683892E+02  0.75401174034E+02  0.41800000000E+01 0.  1.
        -11    1    1    2    0    0 -0.20510715941E+02 -0.76777033735E+01  0.68780556895E+01  0.22955266228E+02  0.00000000000E+00 0.  1.
         11    1    1    2    0    0  0.60354837943E+02  0.17944762233E+02  0.16159381027E+03  0.17342802677E+03  0.00000000000E+00 0. -1.
</event>
<event>
 6    1  0.8989754E-006  0.2503791E+03  0.7561462E-02  0.1113065E+00
         -2   -1    0    0    0  501 -0.00000000000E+00  0.00000000000E+00  0.11365663826E+03  0.11365663826E+03  0.00000000000E+00 0.  1.
          2   -1    0    0  501    0  0.00000000000E+00 -0.00000000000E+00 -0.60221040014E+03  0.60221040014E+03  0.00000000000E+00 0. -1.
          5    1    1    2  502    0  0.13544252342E+03 -0.35577348795E+02 -0.68285941716E+02  0.15585527625E+03  0.41800000000E+01 0.  1.
         -5    1    1    2    0  502  0.39211852213E+02 -0.11132572426E+03 -0.92993600244E+02  0.15032055190E+03  0.41800000000E+01 0.  1.
        -11    1    1    2    0    0 -0.49198069868E+02  0.94608419348E+02 -0.10847515157E+03  0.15211200347E+03  0.00000000000E+00 0. -1.
         11    1    1    2    0    0 -0.12545630577E+03  0.52294653707E+02 -0.21879906835E+03  0.25757920679E+03  0.00000000000E+00 0.  1.
</event>
<event>
 6    1  0.8989754E-006  0.1739919E+03  0.7561462E-02  0.1173748E+00
          1   -1    0    0  501    0  0.00000000000E+00  0.00000000000E+00  0.65200246244E+03  0.65200246244E+03  0.00000000000E+00 0. -1.
         -1   -1    0    0    0  501 -0.00000000000E+00 -0.00000000000E+00 -0.86134325828E+02  0.86134325828E+02  0.00000000000E+00 0.  1.
          5    1    1    2  502    0 -0.16424796163E+02 -0.56385930586E+02  0.14883601037E+02  0.60730067321E+02  0.41800000000E+01 0. -1.
         -5    1    1    2    0  502  0.12611572398E+03 -0.14717033353E+02  0.28827278209E+02  0.13026991700E+03  0.41800000000E+01 0.  1.
        -11    1    1    2    0    0 -0.11078362884E+02  0.62057842085E+02  0.16961657189E+03  0.18095216867E+03  0.00000000000E+00 0.  1.
         11    1    1    2    0    0 -0.98612564935E+02  0.90451218540E+01  0.35254068548E+03  0.36618463528E+03  0.00000000000E+00 0. -1.
</event>
<event>
 6    1  0.8989754E-006  0.1260767E+03  0.7561462E-02  0.1233396E+00
          2   -1    0    0  501    0  0.00000000000E+00  0.00000000000E+00  0.14153076765E+03  0.14153076765E+03  0.00000000000E+00 0. -1.
         -2   -1    0    0    0  501 -0.00000000000E+00 -0.00000000000E+00 -0.17028588123E+03  0.17028588123E+03  0.00000000000E+00 0.  1.
          5    1    1    2  502    0  0.59727883060E+02 -0.80364773915E+02 -0.57609808737E+02  0.11559532587E+03  0.41800000000E+01 0.  1.
         -5    1    1    2    0  502  0.20033207494E+00  0.41614250534E+02 -0.43670237509E+02  0.60467743670E+02  0.41800000000E+01 0.  1.
        -11    1    1    2    0    0  0.21446161262E+02  0.11243204331E+02  0.14408504268E+01  0.24257442702E+02  0.00000000000E+00 0.  1.
         11    1    1    2    0    0 -0.81374376397E+02  0.27507319050E+02  0.71084082237E+02  0.11149613663E+03  0.00000000000E+00 0. -1.
</event>
<event>
 6    1  0.8989754E-006  0.2067602E+03  0.7561462E-02  0.1144158E+00
          2   -1    0    0  501    0  0.00000000000E+00  0.00000000000E+00  0.48752492645E+03  0.48752492645E+03  0.00000000000E+00 0. -1.
         -2   -1    0    0    0  501 -0.00000000000E+00 -0.00000000000E+00 -0.10647796505E+03  0.10647796505E+03  0.00000000000E+00 0.  1.
          5    1    1    2  502    0 -0.18885543520E+03  0.53170148519E+02  0.11063159531E+03  0.22527818887E+03  0.41800000000E+01 0. -1.
         -5    1    1    2    0  502  0.79380978109E+01 -0.10344717741E+02 -0.13245230557E+02  0.19050856004E+02  0.41800000000E+01 0. -1.
        -11    1    1    2    0    0  0.43299496700E+02  0.25172592133E+02  0.84430714932E+02  0.98168484928E+02  0.00000000000E+00 0. -1.
         11    1    1    2    0    0  0.13761784069E+03 -0.67998022911E+02  0.19922988171E+03  0.25150536170E+03  0.00000000000E+00 0.  1.
</event>
<event>
 6    1  0.8989754E-006  0.1335177E+03  0.7561462E-02  0.1222328E+00
         -4   -1    0    0    0  501 -0.00000000000E+00  0.00000000000E+00  0.40501841470E+03  0.40501841470E+03  0.00000000000E+00 0.  1.
          4   -1    0    0  501    0  0.00000000000E+00 -0.00000000000E+00 -0.68172577100E+02  0.68172577100E+02  0.00000000000E+00 0. -1.
          5    1    1    2  502    0 -0.21657517050E+02  0.82579340954E+02  0.42070290536E+02  0.95266874321E+02  0.41800000000E+01 0. -1.
         -5    1    1    2    0  502 -0.76364318915E+00 -0.87949691312E+02  0.26579383448E+03  0.27999922536E+03  0.41800000000E+01 0.  1.
        -11    1    1    2    0    0 -0.17392120316E+02  0.38156448672E+02  0.11780514647E+02  0.43556640707E+02  0.00000000000E+00 0. -1.
         11    1    1    2    0    0  0.39813280555E+02 -0.32786098314E+02  0.17201197934E+02  0.54368251412E+02  0.00000000000E+00 0.  1.
</event>
<event>
 6    1  0.8989754E-006  0.1891437E+03  0.7561462E-02  0.1159236E+00
         -2   -1    0    0    0  501 -0.00000000000E+00  0.00000000000E+00  0.63791324476E+02  0.63791324476E+02  0.00000000000E+00 0. -1.
          2   -1    0    0  501    0  0.00000000000E+00 -0.00000000000E+00 -0.56479129215E+03  0.56479129215E+03  0.00000000000E+00 0.  1.
          5    1    1    2  502    0 -0.29139232635E+02  0.22022944292E+02 -0.42384233739E+02  0.56107046113E+02  0.41800000000E+01 0.  1.
         -5    1    1    2    0  502 -0.53346211981E+02 -0.15319756552E+03 -0.20856423177E+03  0.26425711644E+03  0.41800000000E+01 0.  1.
        -11    1    1    2    0    0  0.28683899656E+02  0.12117909429E+03 -0.15861315468E+03  0.20165632108E+03  0.00000000000E+00 0. -1.
         11    1    1    2    0    0  0.53801544960E+02  0.99955269461E+01 -0.91438347485E+02  0.10656213300E+03  0.00000000000E+00 0.  1.
</event>
<event>
 6    1  0.8989754E-006  0.1708764E+03  0.7561462E-02  0.1176937E+00
          2   -1    0    0  501    0  0.00000000000E+00  0.00000000000E+00  0.22969213643E+04  0.22969213643E+04  0.00000000000E+00 0.  1.
         -2   -1    0    0    0  501 -0.00000000000E+00 -0.00000000000E+00 -0.13830514946E+02  0.13830514946E+02  0.00000000000E+00 0. -1.
          5    1    1    2  502    0 -0.27786852915E+02 -0.11154855797E+03  0.11064996144E+04  0.11124630596E+04  0.41800000000E+01 0.  1.
         -5    1    1    2    0  502 -0.29657637547E+02  0.11540394206E+03  0.60224532079E+03  0.61393366427E+03  0.41800000000E+01 0. -1.
        -11    1    1    2    0    0 -0.17177689892E+02 -0.24633512016E+02  0.17692708997E+03  0.17945773349E+03  0.00000000000E+00 0. -1.
         11    1    1    2    0    0  0.74622180354E+02  0.20778127926E+02  0.39741882422E+03  0.40489742188E+03  0.00000000000E+00 0.  1.
</event>
<event>
 6    1  0.8989754E-006  0.1443242E+03  0.7561462E-02  0.1207626E+00
          1   -1    0    0  501    0  0.00000000000E+00  0.00000000000E+00  0.99121550377E+03  0.99121550377E+03  0.00000000000E+00 0. -1.
         -1   -1    0    0    0  501 -0.00000000000E+00 -0.00000000000E+00 -0.22961926542E+02  0.22961926542E+02  0.00000000000E+00 0.  1.
          5    1    1    2  502    0 -0.30303039431E+02 -0.72116398913E+02  0.17114527862E+03  0.18822122087E+03  0.41800000000E+01 0. -1.
         -5    1    1    2    0  502  0.75905038881E+02 -0.14327268240E+02  0.25782145475E+03  0.26917693154E+03  0.41800000000E+01 0. -1.
        -11    1    1    2    0    0 -0.66642821312E+02  0.30704775155E+02  0.21806535205E+03  0.23007943544E+03  0.00000000000E+00 0.  1.
         11    1    1    2    0    0  0.21040821862E+02  0.55738891999E+02  0.32122149181E+03  0.32669984246E+03  0.00000000000E+00 0. -1.
</event>
<event>
 6    1  0.8989754E-006  0.1059404E+03  0.7561462E-02  0.1268278E+00
         -1   -1    0    0    0  501 -0.00000000000E+00  0.00000000000E+00  0.13886132864E+03  0.13886132864E+03  0.00000000000E+00 0.  1.
          1   -1    0    0  501    0  0.00000000000E+00 -0.00000000000E+00 -0.13127492895E+03  0.13127492895E+03  0.00000000000E+00 0. -1.
          5    1    1    2  502    0  0.92799514312E+02 -0.30052763281E+02  0.36443580495E+02  0.10421384455E+03  0.41800000000E+01 0. -1.
         -5    1    1    2    0  502 -0.27498043287E+02 -0.15019657213E+02 -0.30652840816E+02  0.44031824145E+02  0.41800000000E+01 0. -1.
        -11    1    1    2    0    0 -0.23119287785E+02  0.34479122950E+01  0.43529467703E+02  0.49408543041E+02  0.00000000000E+00 0.  1.
         11    1    1    2    0    0 -0.42182183240E+02  0.41624508199E+02 -0.41733807697E+02  0.72482045850E+02  0.00000000000E+00 0. -1.
</event>
<event>
 6    1  0.8989754E-006  0.1110876E+03  0.7561462E-02  0.1258569E+00
          2   -1    0    0  501    0  0.00000000000E+00  0.00000000000E+00  0.40516986775E+03  0.40516986775E+03  0.00000000000E+00 0. -1.
         -2   -1    0    0    0  501 -0.00000000000E+00 -0.00000000000E+00 -0.48864236485E+02  0.48864236485E+02  0.00000000000E+00 0.  1.
          5    1    1    2  502    0 -0.21276058871E+02 -0.79932094357E+02  0.15352307205E+03  0.17443800171E+03  0.41800000000E+01 0. -1.
         -5    1    1    2    0  502 -0.35030775450E+02 -0.45341057561E+01 -0.14428946173E+02  0.38384635355E+02  0.41800000000E+01 0. -1.
        -11    1    1    2    0    0  0.15743489170E+02  0.90686757282E+01  0.52883600580E+02  0.55917560220E+02  0.00000000000E+00 0. -1.
         11    1    1    2    0    0  0.40563345151E+02  0.75397524385E+02  0.16432790480E+03  0.18529390694E+03  0.00000000000E+00 0.  1.
</event>
<event>
 6    1  0.8989754E-006  0.1070006E+03  0.7561462E-02  0.1266227E+00
         -2   -1    0    0    0  501 -0.00000000000E+00  0.00000000000E+00  0.11347513512E+03  0.11347513512E+03  0.00000000000E+00 0.  1.
          2   -1    0    0  501    0  0.00000000000E+00 -0.00000000000E+00 -0.20140848707E+03  0.20140848707E+03  0.00000000000E+00 0. -1.
          5    1    1    2  502    0  0.62728787653E+02 -0.45204684767E+02  0.65381105134E+02  0.10134360184E+03  0.41800000000E+01 0. -1.
         -5    1    1    2    0  502 -0.31796725968E+02  0.21887425818E+02 -0.11142238609E+02  0.40394468340E+02  0.41800000000E+01 0. -1.
        -11    1    1    2    0    0 -0.61919183077E+02  0.24841369876E+02 -0.84551839679E+02  0.10770372549E+03  0.00000000000E+00 0.  1.
         11    1    1    2    0    0  0.30987121393E+02 -0.15241109279E+01 -0.57620378795E+02  0.65441826524E+02  0.00000000000E+00 0. -1.
</event>
<event>
 6    1  0.8989754E-006  0.1250786E+03  0.7561462E-02  0.1234946E+00
          1   -1    0    0  501    0  0.00000000000E+00  0.00000000000E+00  0.65851029725E+02  0.65851029725E+02  0.00000000000E+00 0. -1.
         -1   -1    0    0    0  501 -0.00000000000E+00 -0.00000000000E+00 -0.27181544558E+03  0.27181544558E+03  0.00000000000E+00 0.  1.
          5    1    1    2  502    0 -0.20813797873E+02 -0.99935235766E+02 -0.58680450351E+02  0.11781822093E+03  0.41800000000E+01 0.  1.
         -5    1    1    2    0  502  0.33487857929E+01  0.27763386257E+02 -0.73447267286E+02  0.78701927896E+02  0.41800000000E+01 0.  1.
        -11    1    1    2    0    0  0.43484529953E+02  0.52093545142E+00 -0.20278236212E+02  0.47983148947E+02  0.00000000000E+00 0.  1.
         11    1    1    2    0    0 -0.26019517873E+02  0.71650914057E+02 -0.53558462008E+02  0.93163177534E+02  0.00000000000E+00 0. -1.
</event>
<event>
 6    1  0.8989754E-006  0.1156050E+03  0.7561462E-02  0.1250529E+00
         -2   -1    0    0    0  501 -0.00000000000E+00  0.00000000000E+00  0.23681805937E+03  0.23681805937E+03  0.00000000000E+00 0.  1.
          2   -1    0    0  501    0  0.00000000000E+00 -0.00000000000E+00 -0.10761804927E+03  0.10761804927E+03  0.00000000000E+00 0. -1.
          5    1    1    2  502    0 -0.10439157698E+03 -0.41869963477E+02  0.10930031998E+03  0.15689081405E+03  0.41800000000E+01 0.  1.
         -5    1    1    2    0  502  0.35450690581E+02 -0.14830497601E+01  0.49539199054E+02  0.61078273897E+02  0.41800000000E+01 0.  1.
        -11    1    1    2    0    0  0.23125791865E+02  0.23588106703E+02  0.32792107634E+02  0.46545927322E+02  0.00000000000E+00 0.  1.
         11    1    1    2    0    0  0.45815094532E+02  0.19764906534E+02 -0.62431616575E+02  0.79921093370E+02  0.00000000000E+00 0. -1.
</event>
<event>
 6    1  0.8989754E-006  0.8159927E+02  0.7561462E-02  0.1324573E+00
         -3   -1    0    0    0  501 -0.00000000000E+00  0.00000000000E+00  0.17551638751E+03  0.17551638751E+03  0.00000000000E+00 0.  1.
          3   -1    0    0  501    0  0.00000000000E+00 -0.00000000000E+00 -0.71007991742E+02  0.71007991742E+02  0.00000000000E+00 0. -1.
          5    1    1    2  502    0  0.34373484357E+01  0.51185104319E+02 -0.38033528742E+01  0.51610736882E+02  0.41800000000E+01 0. -1.
         -5    1    1    2    0  502 -0.17298713354E+02 -0.40391422908E+02  0.93268497215E+02  0.10318525816E+03  0.41800000000E+01 0. -1.
        -11    1    1    2    0    0  0.16797475425E+02  0.25850306801E+02  0.37581232203E+02  0.48608050323E+02  0.00000000000E+00 0.  1.
         11    1    1    2    0    0 -0.29361105069E+01 -0.36643988212E+02 -0.22537980778E+02  0.43120333887E+02  0.00000000000E+00 0. -1.
</event>
<event>
 6    1  0.8989754E-006  0.1151710E+03  0.7561462E-02  0.1251283E+00
         -2   -1    0    0    0  501 -0.00000000000E+00  0.00000000000E+00  0.58221930503E+03  0.58221930503E+03  0.00000000000E+00 0.  1.
          2   -1    0    0  501    0  0.00000000000E+00 -0.00000000000E+00 -0.33654760408E+02  0.33654760408E+02  0.00000000000E+00 0. -1.
          5    1    1    2  502    0  0.19400918467E+02  0.70397798007E+02  0.10255705507E+03  0.12596693037E+03  0.41800000000E+01 0. -1.
         -5    1    1    2    0  502  0.30955222380E+02 -0.57897443542E+02  0.31790595090E+03  0.32464134946E+03  0.41800000000E+01 0.  1.
        -11    1    1    2    0    0 -0.33342515600E+02  0.30488818609E+02  0.23554240798E+02  0.50951875984E+02  0.00000000000E+00 0. -1.
         11    1    1    2    0    0 -0.17013625246E+02 -0.42989173075E+02  0.10454729786E+03  0.11431390963E+03  0.00000000000E+00 0.  1.
</event>
<event>
 6    1  0.8989754E-006  0.2042622E+03  0.7561462E-02  0.1146192E+00
          2   -1    0    0  501    0  0.00000000000E+00  0.00000000000E+00  0.59347609534E+03  0.59347609534E+03  0.00000000000E+00 0. -1.
         -2   -1    0    0    0  501 -0.00000000000E+00 -0.00000000000E+00 -0.78335409986E+02  0.78335409986E+02  0.00000000000E+00 0.  1.
          5    1    1    2  502    0  0.84760594047E+02 -0.13589305114E+02  0.36652344975E+02  0.93433903423E+02  0.41800000000E+01 0. -1.
         -5    1    1    2    0  502  0.41887119541E+02 -0.11474231669E+03  0.15919057964E+03  0.20069739178E+03  0.41800000000E+01 0. -1.
        -11    1    1    2    0    0 -0.23118901667E+02  0.85069373052E+02  0.16249057063E+03  0.18486337493E+03  0.00000000000E+00 0.  1.
         11    1    1    2    0    0 -0.10352881192E+03  0.43262248747E+02  0.15680719011E+03  0.19281683519E+03  0.00000000000E+00 0. -1.
</event>
<event>
 6    1  0.8989754E-006  0.1140641E+03  0.7561462E-02  0.1253224E+00
         -2   -1    0    0    0  501 -0.00000000000E+00  0.00000000000E+00  0.89015768014E+02  0.89015768014E+02  0.00000000000E+00 0.  1.
          2   -1    0    0  501    0  0.00000000000E+00 -0.00000000000E+00 -0.19999432977E+03  0.19999432977E+03  0.00000000000E+00 0. -1.
          5    1    1    2  502    0  0.66608053158E+01  0.35910963177E+02  0.87050653549E+01  0.37778488146E+02  0.41800000000E+01 0.  1.
         -5    1    1    2    0  502 -0.25910176295E+02 -0.97479515148E+02 -0.24224535319E+02  0.10381663460E+03  0.41800000000E+01 0.  1.
        -11    1    1    2    0    0  0.38853852384E+02  0.58998662591E+02 -0.26128986510E+02  0.75320568032E+02  0.00000000000E+00 0.  1.
         11    1    1    2    0    0 -0.19604481405E+02  0.25698893795E+01 -0.69330105276E+02  0.72094406997E+02  0.00000000000E+00 0. -1.
</event>
<event>
 6    1  0.8989754E-006  0.2147725E+03  0.7561462E-02  0.1137841E+00
          2   -1    0    0  501    0  0.00000000000E+00  0.00000000000E+00  0.65687405423E+03  0.65687405423E+03  0.00000000000E+00 0. -1.
         -2   -1    0    0    0  501 -0.00000000000E+00 -0.00000000000E+00 -0.72532106366E+02  0.72532106366E+02  0.00000000000E+00 0.  1.
          5    1    1    2  502    0 -0.49340094138E+02  0.21277760532E+01  0.55795109379E+02  0.74629343767E+02  0.41800000000E+01 0. -1.
         -5    1    1    2    0  502 -0.11070652250E+02  0.17562881324E+03  0.19713911716E+03  0.26429026334E+03  0.41800000000E+01 0. -1.
        -11    1    1    2    0    0  0.39350552465E+02 -0.18801793215E+02  0.98482792243E+02  0.10770716678E+03  0.00000000000E+00 0. -1.
         11    1    1    2    0    0  0.21060193924E+02 -0.15895479607E+03  0.23292492908E+03  0.28277938671E+03  0.00000000000E+00 0.  1.
</event>
<event>
 6    1  0.8989754E-006  0.1265848E+03  0.7561462E-02  0.1232613E+00
         -2   -1    0    0    0  501 -0.00000000000E+00  0.00000000000E+00  0.28103487094E+03  0.28103487094E+03  0.00000000000E+00 0.  1.
          2   -1    0    0  501    0  0.00000000000E+00 -0.00000000000E+00 -0.11834536241E+03  0.11834536241E+03  0.00000000000E+00 0. -1.
          5    1    1    2  502    0  0.20054448279E+02 -0.17391308797E+02 -0.13886547139E+02  0.30248092649E+02  0.41800000000E+01 0. -1.
         -5    1    1    2    0  502  0.91013468465E+02  0.34125068387E+02  0.20032578733E+03  0.22270129143E+03  0.41800000000E+01 0.  1.
        -11    1    1    2    0    0 -0.36946309086E+02 -0.36873036883E+02  0.22424649598E+02  0.56811227004E+02  0.00000000000E+00 0. -1.
         11    1    1    2    0    0 -0.74121607658E+02  0.20139277293E+02 -0.46174381253E+02  0.89619622270E+02  0.00000000000E+00 0.  1.
</event>
<event>
 6    1  0.8989754E-006  0.1252539E+03  0.7561462E-02  0.1234673E+00
         -1   -1    0    0    0  501 -0.00000000000E+00  0.00000000000E+00  0.94101888011E+02  0.94101888011E+02  0.00000000000E+00 0.  1.
          1   -1    0    0  501    0  0.00000000000E+00 -0.00000000000E+00 -0.24371767621E+03  0.24371767621E+03  0.00000000000E+00 0. -1.
          5    1    1    2  502    0 -0.20335081915E+02 -0.23413981915E+02 -0.34817167575E+02  0.46812793802E+02  0.41800000000E+01 0.  1.
         -5    1    1    2    0  502 -0.13382470293E+02  0.11448839197E+03 -0.46402686003E-01  0.11534364725E+03  0.41800000000E+01 0.  1.
        -11    1    1    2    0    0  0.41832286661E+02 -0.76006495494E+02 -0.34105927188E+02  0.93220930235E+02  0.00000000000E+00 0.  1.
         11    1    1    2    0    0 -0.81147344522E+01 -0.15067914562E+02 -0.80646290748E+02  0.82442192935E+02  0.00000000000E+00 0. -1.
</event>
<event>
 6    1  0.8989754E-006  0.8676633E+02  0.7561462E-02  0.1310877E+00
         -2   -1    0    0    0  501 -0.00000000000E+00  0.00000000000E+00  0.38870190507E+02  0.38870190507E+02  0.00000000000E+00 0.  1.
          2   -1    0    0  501    0  0.00000000000E+00 -0.00000000000E+00 -0.31574601368E+03  0.31574601368E+03  0.00000000000E+00 0. -1.
          5    1    1    2  502    0 -0.57004971045E+01  0.54575794594E+02 -0.29997171362E+02  0.62676277112E+02  0.41800000000E+01 0.  1.
         -5    1    1    2    0  502  0.39827203467E+01 -0.62712975476E+02 -0.97974029136E+02  0.11646957603E+03  0.41800000000E+01 0.  1.
        -11    1    1    2    0    0 -0.11724999563E+02  0.28673401454E+02 -0.73958120459E+01  0.31848667186E+02  0.00000000000E+00 0.  1.
         11    1    1    2    0    0  0.13442776321E+02 -0.20536220572E+02 -0.14150881063E+03  0.14362168387E+03  0.00000000000E+00 0. -1.
</event>
<event>
 6    1  0.8989754E-006  0.1115556E+03  0.7561462E-02  0.1257716E+00
          1   -1    0    0  501    0  0.00000000000E+00  0.00000000000E+00  0.30314238034E+03  0.30314238034E+03  0.00000000000E+00 0. -1.
         -1   -1    0    0    0  501 -0.00000000000E+00 -0.00000000000E+00 -0.46070097609E+02  0.46070097609E+02  0.00000000000E+00 0.  1.
          5    1    1    2  502    0 -0.74276956652E+02 -0.35210583333E+02  0.51670696359E+02  0.97181195354E+02  0.41800000000E+01 0.  1.
         -5    1    1    2    0  502  0.39398844813E+02  0.28159466117E+01  0.86484515621E+02  0.95169545392E+02  0.41800000000E+01 0.  1.
        -11    1    1    2    0    0 -0.29277071879E+02  0.13850176051E+00  0.45970349585E+02  0.54501735399E+02  0.00000000000E+00 0. -1.
         11    1    1    2    0    0  0.64155183718E+02  0.32256134961E+02  0.72946721165E+02  0.10236000180E+03  0.00000000000E+00 0.  1.
</event>
<event>
 6    1  0.8989754E-006  0.1642102E+03  0.7561462E-02  0.1184024E+00
          2   -1    0    0  501    0  0.00000000000E+00  0.00000000000E+00  0.64857991433E+03  0.64857991433E+03  0.00000000000E+00 0.  1.
         -2   -1    0    0    0  501 -0.00000000000E+00 -0.00000000000E+00 -0.53421948787E+02  0.53421948787E+02  0.00000000000E+00 0. -1.
          5    1    1    2  502    0  0.31300191627E+02  0.15504922108E+03  0.17799450974E+03  0.23815852043E+03  0.41800000000E+01 0.  1.
         -5    1    1    2    0  502  0.11729600289E+02 -0.11833009062E+02  0.99534522767E+02  0.10100592680E+03  0.41800000000E+01 0.  1.
        -11    1    1    2    0    0 -0.18351461336E+02 -0.11058893820E+03  0.13400325424E+03  0.17470993541E+03  0.00000000000E+00 0. -1.
         11    1    1    2    0    0 -0.24678330579E+02 -0.32627273817E+02  0.18362567880E+03  0.18812748048E+03  0.00000000000E+00 0.  1.
</event>
<event>
 6    1  0.8989754E-006  0.1217344E+03  0.7561462E-02  0.1240263E+00
          3   -1    0    0  501    0  0.00000000000E+00  0.00000000000E+00  0.10831595553E+03  0.10831595553E+03  0.00000000000E+00 0. -1.
         -3   -1    0    0    0  501 -0.00000000000E+00 -0.00000000000E+00 -0.14872161291E+03  0.14872161291E+03  0.00000000000E+00 0.  1.
          5    1    1    2  502    0 -0.43769716238E+02  0.14127694448E+02 -0.12106946911E+02  0.47743380415E+02  0.41800000000E+01 0.  1.
         -5    1    1    2    0  502  0.88625348994E+02  0.31860804862E+02 -0.14627185676E+02  0.95399110748E+02  0.41800000000E+01 0.  1.
        -11    1    1    2    0    0 -0.69326505236E+01 -0.61611274542E+02 -0.31061649261E+02  0.69345777440E+02  0.00000000000E+00 0.  1.
         11    1    1    2    0    0 -0.37922982233E+02  0.15622775232E+02  0.17390124466E+02  0.44549299841E+02  0.00000000000E+00 0. -1.
</event>
<event>
 6    1  0.8989754E-006  0.1116000E+03  0.7561462E-02  0.1257635E+00
          1   -1    0    0  501    0  0.00000000000E+00  0.00000000000E+00  0.77111403346E+03  0.77111403346E+03  0.00000000000E+00 0. -1.
         -1   -1    0    0    0  501 -0.00000000000E+00 -0.00000000000E+00 -0.18926725888E+02  0.18926725888E+02  0.00000000000E+00 0.  1.
          5    1    1    2  502    0 -0.83389949519E+01 -0.72166239277E+02  0.26085092603E+03  0.27081023419E+03  0.41800000000E+01 0. -1.
         -5    1    1    2    0  502  0.17825701702E+02  0.58356636987E+02  0.10035188162E+03  0.11752116944E+03  0.41800000000E+01 0.  1.
        -11    1    1    2    0    0 -0.19218881610E+02 -0.34769470028E+02  0.22530173803E+03  0.22877752210E+03  0.00000000000E+00 0. -1.
         11    1    1    2    0    0  0.97321748598E+01  0.48579072318E+02  0.16568276189E+03  0.17293183362E+03  0.00000000000E+00 0.  1.
</event>
<event>
 6    1  0.8989754E-006  0.1032173E+03  0.7561462E-02  0.1273672E+00
         -2   -1    0    0    0  501 -0.00000000000E+00  0.00000000000E+00  0.48956798267E+03  0.48956798267E+03  0.00000000000E+00 0.  1.
          2   -1    0    0  501    0  0.00000000000E+00 -0.00000000000E+00 -0.44721568320E+02  0.44721568320E+02  0.00000000000E+00 0. -1.
          5    1    1    2  502    0 -0.67268298059E+02  0.63586292366E+01  0.64571914152E+02  0.93554586134E+02  0.41800000000E+01 0.  1.
         -5    1    1    2    0  502 -0.10445611264E+02 -0.14167745799E+02  0.28871253850E+03  0.28927882415E+03  0.41800000000E+01 0.  1.
        -11    1    1    2    0    0  0.99044310681E+02  0.72193017669E+01  0.75339182676E+02  0.12465105793E+03  0.00000000000E+00 0.  1.
         11    1    1    2    0    0 -0.21330401358E+02  0.58981479520E+00  0.16222779030E+02  0.26805082784E+02  0.00000000000E+00 0. -1.
</event>
<event>
 6    1  0.8989754E-006  0.1642715E+03  0.7561462E-02  0.1183957E+00
         -4   -1    0    0    0  501 -0.00000000000E+00  0.00000000000E+00  0.89191672608E+02  0.89191672608E+02  0.00000000000E+00 0. -1.
          4   -1    0    0  501    0  0.00000000000E+00 -0.00000000000E+00 -0.42502636744E+03  0.42502636744E+03  0.00000000000E+00 0.  1.
          5    1    1    2  502    0 -0.30362018185E+02 -0.19297599170E+02 -0.12137238913E+03  0.12666088080E+03  0.41800000000E+01 0. -1.
         -5    1    1    2    0  502 -0.10759377685E+03 -0.63074620541E+02 -0.33603123526E+02  0.12923417073E+03  0.41800000000E+01 0. -1.
        -11    1    1    2    0    0  0.94605115625E+02  0.29361101718E+02 -0.15732499954E+03  0.18591223111E+03  0.00000000000E+00 0.  1.
         11    1    1    2    0    0  0.43350679408E+02  0.53011117993E+02 -0.23534182633E+02  0.72410757407E+02  0.00000000000E+00 0. -1.
</event>
<event>
 6    1  0.8989754E-006  0.2308154E+03  0.7561462E-02  0.1126067E+00
         -2   -1    0    0    0  501 -0.00000000000E+00  0.00000000000E+00  0.45661734785E+02  0.45661734785E+02  0.00000000000E+00 0.  1.
          2   -1    0    0  501    0  0.00000000000E+00 -0.00000000000E+00 -0.13457926016E+04  0.13457926016E+04  0.00000000000E+00 0. -1.
          5    1    1    2  502    0  0.54845078171E+02  0.18491349715E+03 -0.41121174614E+03  0.45421752122E+03  0.41800000000E+01 0. -1.
         -5    1    1    2    0  502 -0.22640748634E+02  0.35663414792E+02 -0.27108625952E+03  0.27438971401E+03  0.41800000000E+01 0. -1.
        -11    1    1    2    0    0  0.22983300587E+01 -0.11826938577E+03 -0.21063356749E+03  0.24157696431E+03  0.00000000000E+00 0.  1.
         11    1    1    2    0    0 -0.34502659596E+02 -0.10230752618E+03 -0.40719929369E+03  0.42127013686E+03  0.00000000000E+00 0. -1.
</event>
<event>
 6    1  0.8989754E-006  0.6080540E+02  0.7561462E-02  0.1394483E+00
          2   -1    0    0  501    0  0.00000000000E+00  0.00000000000E+00  0.16185979290E+03  0.16185979290E+03  0.00000000000E+00 0. -1.
         -2   -1    0    0    0  501 -0.00000000000E+00 -0.00000000000E+00 -0.87102568417E+02  0.87102568417E+02  0.00000000000E+00 0.  1.
          5    1    1    2  502    0 -0.43682035975E+02 -0.15863005313E+02  0.59456148498E+02  0.75579502503E+02  0.41800000000E+01 0. -1.
         -5    1    1    2    0  502  0.42270811981E+02  0.21895385938E+02 -0.68859861521E+02  0.83817554246E+02  0.41800000000E+01 0.  1.
        -11    1    1    2    0    0 -0.10346729652E+02  0.45873536287E+01  0.57069716578E+02  0.58181192649E+02  0.00000000000E+00 0. -1.
         11    1    1    2    0    0  0.11757953645E+02 -0.10619734255E+02  0.27091220932E+02  0.31384111922E+02  0.00000000000E+00 0.  1.
</event>
<event>
 6    1  0.8989754E-006  0.1097465E+03  0.7561462E-02  0.1261040E+00
         -2   -1    0    0    0  501 -0.00000000000E+00  0.00000000000E+00  0.30300635001E+02  0.30300635001E+02  0.00000000000E+00 0.  1.
          2   -1    0    0  501    0  0.00000000000E+00 -0.00000000000E+00 -0.62921266682E+03  0.62921266682E+03  0.00000000000E+00 0. -1.
          5    1    1    2  502    0  0.10380447439E+02 -0.44788227861E+02 -0.23346828084E+02  0.51732831215E+02  0.41800000000E+01 0.  1.
         -5    1    1    2    0  502  0.75344951968E+02  0.41143970684E+02 -0.20631581658E+03  0.22350252053E+03  0.41800000000E+01 0.  1.
        -11    1    1    2    0    0 -0.24313440905E+02  0.85472912355E+01 -0.30312694927E+02  0.39787674849E+02  0.00000000000E+00 0.  1.
         11    1    1    2    0    0 -0.61411958502E+02 -0.49030340591E+01 -0.33893669222E+03  0.34449027522E+03  0.00000000000E+00 0. -1.
</event>
<event>
 6    1  0.8989754E-006  0.1335916E+03  0.7561462E-02  0.1222222E+00
          2   -1    0    0  501    0  0.00000000000E+00  0.00000000000E+00  0.55338308122E+03  0.55338308122E+03  0.00000000000E+00 0. -1.
         -2   -1    0    0    0  501 -0.00000000000E+00 -0.00000000000E+00 -0.38141363170E+02  0.38141363170E+02  0.00000000000E+00 0.  1.
          5    1    1    2  502    0 -0.45075147662E+02  0.10436202534E+03  0.23084359936E+03  0.25735081317E+03  0.41800000000E+01 0. -1.
         -5    1    1    2    0  502  0.92201932366E+00 -0.22229365041E+02  0.17233336775E+01  0.22703239168E+02  0.41800000000E+01 0. -1.
        -11    1    1    2    0    0  0.20149719145E+02 -0.99270546072E+02  0.21714872121E+03  0.23961264495E+03  0.00000000000E+00 0.  1.
         11    1    1    2    0    0  0.24003409193E+02  0.17137885774E+02  0.65526063802E+02  0.71857747105E+02  0.00000000000E+00 0. -1.
</event>
<event>
 6    1  0.8989754E-006  0.1488265E+03  0.7561462E-02  0.1201922E+00
          2   -1    0    0  501    0  0.00000000000E+00  0.00000000000E+00  0.15401369318E+03  0.15401369318E+03  0.00000000000E+00 0. -1.
         -2   -1    0    0    0  501 -0.00000000000E+00 -0.00000000000E+00 -0.18440814559E+03  0.18440814559E+03  0.00000000000E+00 0.  1.
          5    1    1    2  502    0  0.90242748613E+02 -0.96173994263E+02 -0.36774788552E+02  0.13697827683E+03  0.41800000000E+01 0.  1.
         -5    1    1    2    0  502  0.15373800687E+02  0.36922951146E+02 -0.27026970020E+02  0.48451909945E+02  0.41800000000E+01 0.  1.
        -11    1    1    2    0    0 -0.75056203395E+02  0.58085863372E+02 -0.14647152701E+02  0.96030933943E+02  0.00000000000E+00 0.  1.
         11    1    1    2    0    0 -0.30560345904E+02  0.11651797457E+01  0.48054458860E+02  0.56960718060E+02  0.00000000000E+00 0. -1.
</event>
<event>
 6    1  0.8989754E-006  0.3348380E+03  0.7561462E-02  0.1069016E+00
          1   -1    0    0  501    0  0.00000000000E+00  0.00000000000E+00  0.16483763716E+04  0.16483763716E+04  0.00000000000E+00 0. -1.
         -1   -1    0    0    0  501 -0.00000000000E+00 -0.00000000000E+00 -0.79678055551E+02  0.79678055551E+02  0.00000000000E+00 0.  1.
          5    1    1    2  502    0 -0.28687172878E+03 -0.15080951531E+03  0.43264396465E+03  0.54058965143E+03  0.41800000000E+01 0.  1.
         -5    1    1    2    0  502 -0.10419234195E+01  0.13211727125E+02  0.46418349677E+02  0.48453801964E+02  0.41800000000E+01 0. -1.
        -11    1    1    2    0    0  0.12506329953E+03  0.10985323632E+03  0.53552115992E+03  0.56079539508E+03  0.00000000000E+00 0. -1.
         11    1    1    2    0    0  0.16285035267E+03  0.27744551865E+02  0.55411484180E+03  0.57821557868E+03  0.00000000000E+00 0.  1.
</event>
<event>
 6    1  0.8989754E-006  0.1030578E+03  0.7561462E-02  0.1273994E+00
          1   -1    0    0  501    0  0.00000000000E+00  0.00000000000E+00  0.42768849985E+02  0.42768849985E+02  0.00000000000E+00 0. -1.
         -1   -1    0    0    0  501 -0.00000000000E+00 -0.00000000000E+00 -0.31338752048E+03  0.31338752048E+03  0.00000000000E+00 0.  1.
          5    1    1    2  502    0 -0.50764149528E+02  0.36774860556E+02 -0.60062253105E+02  0.86915682672E+02  0.41800000000E+01 0. -1.
         -5    1    1    2    0  502  0.20550970727E+02 -0.64872743411E+02 -0.86501991290E+02  0.11014028388E+03  0.41800000000E+01 0. -1.
        -11    1    1    2    0    0  0.25712993774E+02  0.48137498526E+02 -0.12711483855E+03  0.13833495218E+03  0.00000000000E+00 0.  1.
         11    1    1    2    0    0  0.45001850269E+01 -0.20039615671E+02  0.30604124534E+01  0.20765451739E+02  0.00000000000E+00 0. -1.
</event>
<event>
 6    1  0.8989754E-006  0.1066684E+03  0.7561462E-02  0.1266867E+00
         -2   -1    0    0    0  501 -0.00000000000E+00  0.00000000000E+00  0.15219866081E+02  0.15219866081E+02  0.00000000000E+00 0.  1.
          2   -1    0    0  501    0  0.00000000000E+00 -0.00000000000E+00 -0.81689613763E+03  0.81689613763E+03  0.00000000000E+00 0. -1.
          5    1    1    2  502    0  0.77628963055E+02 -0.25316548183E+02 -0.33311523082E+03  0.34300205965E+03  0.41800000000E+01 0.  1.
         -5    1    1    2    0  502 -0.46203536447E+02  0.11860765770E+02 -0.20444675949E+03  0.20997950950E+03  0.41800000000E+01 0.  1.
        -11    1    1    2    0    0 -0.36735444557E+02  0.41342149641E+02 -0.11838828436E+03  0.13066924695E+03  0.00000000000E+00 0. -1.
         11    1    1    2    0    0  0.53100179495E+01 -0.27886367227E+02 -0.14572599688E+03  0.14846518762E+03  0.00000000000E+00 0.  1.
</event>
<event>
 6    1  0.8989754E-006  0.1082282E+03  0.7561462E-02  0.1263887E+00
         -1   -1    0    0    0  501 -0.00000000000E+00  0.00000000000E+00  0.20358105272E+02  0.20358105272E+02  0.00000000000E+00 0.  1.
          1   -1    0    0  501    0  0.00000000000E+00 -0.00000000000E+00 -0.76691532922E+03  0.76691532922E+03  0.00000000000E+00 0. -1.
          5    1    1    2  502    0 -0.53025044779E+02 -0.22835529392E+02 -0.90350038500E+02  0.10730199734E+03  0.41800000000E+01 0.  1.
         -5    1    1    2    0  502  0.59434817669E+02  0.30326068256E+02 -0.13414453917E+03  0.14988127887E+03  0.41800000000E+01 0.  1.
        -11    1    1    2    0    0 -0.28538815834E+02  0.34184179749E+02 -0.23664437602E+03  0.24079780493E+03  0.00000000000E+00 0.  1.
         11    1    1    2    0    0  0.22129042944E+02 -0.41674718612E+02 -0.28541827025E+03  0.28929235335E+03  0.00000000000E+00 0. -1.
</event>
<event>
 6    1  0.8989754E-006  0.1570352E+03  0.7561462E-02  0.1192085E+00
          1   -1    0    0  501    0  0.00000000000E+00  0.00000000000E+00  0.51002694605E+03  0.51002694605E+03  0.00000000000E+00 0. -1.
         -1   -1    0    0    0  501 -0.00000000000E+00 -0.00000000000E+00 -0.62890946503E+02  0.62890946503E+02  0.00000000000E+00 0.  1.
          5    1    1    2  502    0 -0.39119623045E+02 -0.13239021556E+03  0.20060182678E+03  0.24354892607E+03  0.41800000000E+01 0.  1.
         -5    1    1    2    0  502 -0.30087616469E+02  0.10364797117E+02  0.10537894552E+01  0.32113494925E+02  0.41800000000E+01 0.  1.
        -11    1    1    2    0    0  0.30910172690E+02  0.85594986504E+02  0.22100163585E+03  0.23900557219E+03  0.00000000000E+00 0. -1.
         11    1    1    2    0    0  0.38297066824E+02  0.36430431942E+02  0.24478747468E+02  0.58249899369E+02  0.00000000000E+00 0.  1.
</event>
<event>
 6    1  0.8989754E-006  0.1021341E+03  0.7561462E-02  0.1275871E+00
          1   -1    0    0  501    0  0.00000000000E+00  0.00000000000E+00  0.39660586471E+03  0.39660586471E+03  0.00000000000E+00 0. -1.
         -1   -1    0    0    0  501 -0.00000000000E+00 -0.00000000000E+00 -0.41089229953E+02  0.41089229953E+02  0.00000000000E+00 0.  1.
          5    1    1    2  502    0 -0.69435729409E+02 -0.24602499651E+02  0.18291948155E+03  0.19723998743E+03  0.41800000000E+01 0.  1.
         -5    1    1    2    0  502  0.14756624130E+02 -0.96149510236E+01 -0.13813317440E+02  0.22770273990E+02  0.41800000000E+01 0.  1.
        -11    1    1    2    0    0 -0.14715501715E+01 -0.28307127635E+02  0.44663267809E+02  0.52898642953E+02  0.00000000000E+00 0.  1.
         11    1    1    2    0    0  0.56150655451E+02  0.62524578309E+02  0.14174720284E+03  0.16478619030E+03  0.00000000000E+00 0. -1.
</event>
<event>
 6    1  0.8989754E-006  0.1078769E+03  0.7561462E-02  0.1264553E+00
          1   -1    0    0  501    0  0.00000000000E+00  0.00000000000E+00  0.29040106471E+02  0.29040106471E+02  0.00000000000E+00 0. -1.
         -1   -1    0    0    0  501 -0.00000000000E+00 -0.00000000000E+00 -0.47617504394E+03  0.47617504394E+03  0.00000000000E+00 0.  1.
          5    1    1    2  502    0  0.31390463613E+02 -0.59011565398E+02 -0.81658947851E+02  0.10560957447E+03  0.41800000000E+01 0.  1.
         -5    1    1    2    0  502  0.11126589440E+02  0.47357780335E+02 -0.19769305912E+03  0.20363344120E+03  0.41800000000E+01 0.  1.
        -11    1    1    2    0    0 -0.69069627924E+02 -0.39058286562E+01 -0.12981331470E+03  0.14709645024E+03  0.00000000000E+00 0.  1.
         11    1    1    2    0    0  0.26552574870E+02  0.15559613720E+02 -0.37969615795E+02  0.48875684496E+02  0.00000000000E+00 0. -1.
</event>
<event>
 6    1  0.8989754E-006  0.1117695E+03  0.7561462E-02  0.1257328E+00
          2   -1    0    0  501    0  0.00000000000E+00  0.00000000000E+00  0.94088393443E+02  0.94088393443E+02  0.00000000000E+00 0. -1.
         -2   -1    0    0    0  501 -0.00000000000E+00 -0.00000000000E+00 -0.20890965366E+03  0.20890965366E+03  0.00000000000E+00 0.  1.
          5    1    1    2  502    0 -0.23208508236E+02  0.93142166766E+02 -0.95484262589E+02  0.13545779744E+03  0.41800000000E+01 0. -1.
         -5    1    1    2    0  502 -0.31405376121E+02 -0.35312790303E+02 -0.16153225887E+02  0.50116762813E+02  0.41800000000E+01 0. -1.
        -11    1    1    2    0    0  0.29959291892E+02 -0.25392342131E+02 -0.44531428478E+02  0.59374896479E+02  0.00000000000E+00 0.  1.
         11    1    1    2    0    0  0.24654592465E+02 -0.32437034332E+02  0.41347656742E+02  0.58048590370E+02  0.00000000000E+00 0. -1.
</event>
<event>
 6    1  0.8989754E-006  0.9998514E+02  0.7561462E-02  0.1280327E+00
          2   -1    0    0  501    0  0.00000000000E+00  0.00000000000E+00  0.40917086493E+03  0.40917086493E+03  0.00000000000E+00 0. -1.
         -2   -1    0    0    0  501 -0.00000000000E+00 -0.00000000000E+00 -0.35589323789E+02  0.35589323789E+02  0.00000000000E+00 0.  1.
          5    1    1    2  502    0 -0.22303071663E+02  0.44036007203E+02  0.11042247526E+03  0.12102558563E+03  0.41800000000E+01 0.  1.
         -5    1    1    2    0  502 -0.16411598814E+00 -0.59082827076E+02  0.22141608975E+02  0.63233935805E+02  0.41800000000E+01 0.  1.
        -11    1    1    2    0    0 -0.22636766581E+02  0.35159080434E+02  0.61906045846E+02  0.74705706948E+02  0.00000000000E+00 0.  1.
         11    1    1    2    0    0  0.45103954232E+02 -0.20112260561E+02  0.17911141106E+03  0.18579496033E+03  0.00000000000E+00 0. -1.
</event>
<event>
 6    1  0.8989754E-006  0.1203057E+03  0.7561462E-02  0.1242594E+00
         -2   -1    0    0    0  501 -0.00000000000E+00  0.00000000000E+00  0.36921557153E+03  0.36921557153E+03  0.00000000000E+00 0.  1.
          2   -1    0    0  501    0  0.00000000000E+00 -0.00000000000E+00 -0.54524977950E+02  0.54524977950E+02  0.00000000000E+00 0. -1.
          5    1    1    2  502    0  0.88192068835E+02  0.14226573884E+02  0.16162220578E+03  0.18471449919E+03  0.41800000000E+01 0.  1.
         -5    1    1    2    0  502 -0.35094136383E+02 -0.28839028568E+02  0.11911546197E+03  0.12755098454E+03  0.41800000000E+01 0.  1.
        -11    1    1    2    0    0  0.16967711959E+02  0.29411125279E+02  0.54007432138E+01  0.34381471269E+02  0.00000000000E+00 0. -1.
         11    1    1    2    0    0 -0.70065644411E+02 -0.14798670596E+02  0.28552182622E+02  0.77093594485E+02  0.00000000000E+00 0.  1.
</event>
<event>
 6    1  0.8989754E-006  0.1457943E+03  0.7561462E-02  0.1205738E+00
         -3   -1    0    0    0  501 -0.00000000000E+00  0.00000000000E+00  0.63207258222E+02  0.63207258222E+02  0.00000000000E+00 0.  1.
          3   -1    0    0  501    0  0.00000000000E+00 -0.00000000000E+00 -0.45814224624E+03  0.45814224624E+03  0.00000000000E+00 0. -1.
          5    1    1    2  502    0 -0.55396783114E+02 -0.10306618848E+03 -0.82898908405E+02  0.14346129862E+03  0.41800000000E+01 0.  1.
         -5    1    1    2    0  502 -0.42395200212E+02  0.35251155768E+02 -0.47540006705E+02  0.72921338588E+02  0.41800000000E+01 0.  1.
        -11    1    1    2    0    0  0.27448663352E+02  0.22924424024E+02 -0.99926852696E+01  0.37132359143E+02  0.00000000000E+00 0.  1.
         11    1    1    2    0    0  0.70343319975E+02  0.44890608693E+02 -0.25450338764E+03  0.26783450811E+03  0.00000000000E+00 0. -1.
</event>
<event>
 6    1  0.8989754E-006  0.1393590E+03  0.7561462E-02  0.1214194E+00
         -2   -1    0    0    0  501 -0.00000000000E+00  0.00000000000E+00  0.39551230092E+02  0.39551230092E+02  0.00000000000E+00 0.  1.
          2   -1    0    0  501    0  0.00000000000E+00 -0.00000000000E+00 -0.75566593280E+03  0.75566593280E+03  0.00000000000E+00 0. -1.
          5    1    1    2  502    0 -0.50033014312E+02  0.24718058621E+01 -0.18235037564E+03  0.18915217219E+03  0.41800000000E+01 0. -1.
         -5    1    1    2    0  502 -0.49690553263E+02  0.81716838878E+02 -0.59211349697E+02  0.11256220135E+03  0.41800000000E+01 0. -1.
        -11    1    1    2    0    0  0.85047029135E+02 -0.58801230725E+02 -0.32322230299E+03  0.33935709666E+03  0.00000000000E+00 0.  1.
         11    1    1    2    0    0  0.14676538440E+02 -0.25387414016E+02 -0.15133067437E+03  0.15414569270E+03  0.00000000000E+00 0. -1.
</event>
<event>
 6    1  0.8989754E-006  0.7681473E+02  0.7561462E-02  0.1338342E+00
         -2   -1    0    0    0  501 -0.00000000000E+00  0.00000000000E+00  0.13809933172E+03  0.13809933172E+03  0.00000000000E+00 0.  1.
          2   -1    0    0  501    0  0.00000000000E+00 -0.00000000000E+00 -0.10028981397E+03  0.10028981397E+03  0.00000000000E+00 0. -1.
          5    1    1    2  502    0  0.32011940217E+02  0.93483874350E+01 -0.26153623335E+02  0.42586865084E+02  0.41800000000E+01 0.  1.
         -5    1    1    2    0  502 -0.61464570499E+02 -0.39640702285E+02  0.57476829843E+02  0.93114644783E+02  0.41800000000E+01 0.  1.
        -11    1    1    2    0    0  0.61435604339E+01  0.20636371458E+02 -0.42467914099E+02  0.47614355920E+02  0.00000000000E+00 0. -1.
         11    1    1    2    0    0  0.23309069848E+02  0.96559433919E+01  0.48954225346E+02  0.55073279902E+02  0.00000000000E+00 0.  1.
</event>
<event>
 6    1  0.8989754E-006  0.1046786E+03  0.7561462E-02  0.1270754E+00
          2   -1    0    0  501    0  0.00000000000E+00  0.00000000000E+00  0.48336894320E+02  0.48336894320E+02  0.00000000000E+00 0. -1.
         -2   -1    0    0    0  501 -0.00000000000E+00 -0.00000000000E+00 -0.33985534793E+03  0.33985534793E+03  0.00000000000E+00 0.  1.
          5    1    1    2  502    0  0.30360418482E+02  0.73716566894E+02 -0.17503321493E+03  0.19237979617E+03  0.41800000000E+01 0.  1.
         -5    1    1    2    0  502 -0.45981136473E+02 -0.17428272769E+02 -0.41740315304E+02  0.64635407671E+02  0.41800000000E+01 0.  1.
        -11    1    1    2    0    0 -0.31215545810E+01 -0.60812586628E+02 -0.88548116467E+02  0.10746480226E+03  0.00000000000E+00 0.  1.
         11    1    1    2    0    0  0.18742272572E+02  0.45242925030E+01  0.13803193089E+02  0.23712236151E+02  0.00000000000E+00 0. -1.
</event>
<event>
 6    1  0.8989754E-006  0.2439256E+03  0.7561462E-02  0.1117205E+00
          2   -1    0    0  501    0  0.00000000000E+00  0.00000000000E+00  0.19172319096E+04  0.19172319096E+04  0.00000000000E+00 0.  1.
         -2   -1    0    0    0  501 -0.00000000000E+00 -0.00000000000E+00 -0.36007016956E+02  0.36007016956E+02  0.00000000000E+00 0. -1.
          5    1    1    2  502    0 -0.10036412057E+03 -0.14046573534E+02  0.73039449530E+03  0.73740345408E+03  0.41800000000E+01 0.  1.
         -5    1    1    2    0  502 -0.13106990553E+03 -0.40943085451E+02  0.35198371932E+03  0.37784344304E+03  0.41800000000E+01 0.  1.
        -11    1    1    2    0    0  0.15753126144E+03  0.10248873549E+01  0.42953802504E+03  0.45751509667E+03  0.00000000000E+00 0.  1.
         11    1    1    2    0    0  0.73902764655E+02  0.53964771630E+02  0.36930865303E+03  0.38047693281E+03  0.00000000000E+00 0. -1.
</event>
<event>
 6    1  0.8989754E-006  0.1448652E+03  0.7561462E-02  0.1206928E+00
         -1   -1    0    0    0  501 -0.00000000000E+00  0.00000000000E+00  0.17785050535E+03  0.17785050535E+03  0.00000000000E+00 0.  1.
          1   -1    0    0  501    0  0.00000000000E+00 -0.00000000000E+00 -0.14616094596E+03  0.14616094596E+03  0.00000000000E+00 0. -1.
          5    1    1    2  502    0  0.11077732993E+02 -0.94785889779E+01 -0.35374038030E+02  0.38488372059E+02  0.41800000000E+01 0.  1.
         -5    1    1    2    0  502 -0.12437033020E+03 -0.26223418423E+02  0.42783120112E+02  0.13417717568E+03  0.41800000000E+01 0.  1.
        -11    1    1    2    0    0  0.95722994679E+02  0.63238584964E+02  0.84192975697E+01  0.11503432058E+03  0.00000000000E+00 0. -1.
         11    1    1    2    0    0  0.17569602528E+02 -0.27536577563E+02  0.15861179737E+02  0.36311582994E+02  0.00000000000E+00 0.  1.
</event>
<event>
 6    1  0.8989754E-006  0.1389758E+03  0.7561462E-02  0.1214714E+00
          2   -1    0    0  501    0  0.00000000000E+00  0.00000000000E+00  0.41203970555E+03  0.41203970555E+03  0.00000000000E+00 0. -1.
         -2   -1    0    0    0  501 -0.00000000000E+00 -0.00000000000E+00 -0.59185224754E+02  0.59185224754E+02  0.00000000000E+00 0.  1.
          5    1    1    2  502    0  0.88275452367E+01 -0.92758658560E+02  0.39122678297E+02  0.10114420720E+03  0.41800000000E+01 0.  1.
         -5    1    1    2    0  502  0.41850610930E+02 -0.66673947972E+01  0.13076740361E+03  0.13752641213E+03  0.41800000000E+01 0.  1.
        -11    1    1    2    0    0 -0.59918224001E+02  0.21552940651E+02  0.98580837185E+02  0.11735801753E+03  0.00000000000E+00 0. -1.
         11    1    1    2    0    0  0.92400678347E+01  0.77873112707E+02  0.84383561706E+02  0.11519629344E+03  0.00000000000E+00 0.  1.
</event>
<event>
 6    1  0.8989754E-006  0.1159149E+03  0.7561462E-02  0.1249992E+00
          1   -1    0    0  501    0  0.00000000000E+00  0.00000000000E+00  0.14474118059E+03  0.14474118059E+03  0.00000000000E+00 0. -1.
         -1   -1    0    0    0  501 -0.00000000000E+00 -0.00000000000E+00 -0.12033008005E+03  0.12033008005E+03  0.00000000000E+00 0.  1.
          5    1    1    2  502    0  0.68220840830E+02 -0.39090772400E+02  0.17725726883E+02  0.80708397357E+02  0.41800000000E+01 0.  1.
         -5    1    1    2    0  502 -0.61047419400E+01  0.42659125721E+02 -0.43476225974E+02  0.61357342726E+02  0.41800000000E+01 0.  1.
        -11    1    1    2    0    0 -0.85844682341E+02 -0.31381073009E+00  0.27789116904E+02  0.90231053311E+02  0.00000000000E+00 0.  1.
         11    1    1    2    0    0  0.23728583451E+02 -0.32545425914E+01  0.22372482720E+02  0.32774467244E+02  0.00000000000E+00 0. -1.
</event>
<event>
 6    1  0.8989754E-006  0.1051373E+03  0.7561462E-02  0.1269849E+00
         -4   -1    0    0    0  501 -0.00000000000E+00  0.00000000000E+00  0.36744996695E+03  0.36744996695E+03  0.00000000000E+00 0.  1.
          4   -1    0    0  501    0  0.00000000000E+00 -0.00000000000E+00 -0.38416992717E+02  0.38416992717E+02  0.00000000000E+00 0. -1.
          5    1    1    2  502    0 -0.11761178484E+02 -0.82211635302E+02  0.10356875979E+03  0.13281957199E+03  0.41800000000E+01 0. -1.
         -5    1    1    2    0  502  0.40816189239E+01  0.40482597976E+02  0.12087107745E+03  0.12760403644E+03  0.41800000000E+01 0. -1.
        -11    1    1    2    0    0  0.14394576498E+02 -0.19713981120E+02  0.71035168434E+02  0.75112183024E+02  0.00000000000E+00 0.  1.
         11    1    1    2    0    0 -0.67150169377E+01  0.61443018446E+02  0.33557968549E+02  0.70331168207E+02  0.00000000000E+00 0. -1.
</event>
<event>
 6    1  0.8989754E-006  0.1094366E+03  0.7561462E-02  0.1261617E+00
          1   -1    0    0  501    0  0.00000000000E+00  0.00000000000E+00  0.26307265154E+03  0.26307265154E+03  0.00000000000E+00 0. -1.
         -1   -1    0    0    0  501 -0.00000000000E+00 -0.00000000000E+00 -0.61883837903E+02  0.61883837903E+02  0.00000000000E+00 0.  1.
          5    1    1    2  502    0  0.38213972044E+02  0.71764335149E+02  0.94765453234E+01  0.81961605463E+02  0.41800000000E+01 0. -1.
         -5    1    1    2    0  502  0.11687874931E+02 -0.34209485459E+02  0.69920437023E+02  0.78824077725E+02  0.41800000000E+01 0. -1.
        -11    1    1    2    0    0  0.14759581201E+02  0.12465216927E+02  0.23925899718E+01  0.19466672983E+02  0.00000000000E+00 0.  1.
         11    1    1    2    0    0 -0.64661428177E+02 -0.50020066617E+02  0.11939924131E+03  0.14470413327E+03  0.00000000000E+00 0. -1.
</event>
<event>
 6    1  0.8989754E-006  0.2035148E+03  0.7561462E-02  0.1146807E+00
          2   -1    0    0  501    0  0.00000000000E+00  0.00000000000E+00  0.88254329016E+03  0.88254329016E+03  0.00000000000E+00 0. -1.
         -2   -1    0    0    0  501 -0.00000000000E+00 -0.00000000000E+00 -0.66653100273E+02  0.66653100273E+02  0.00000000000E+00 0.  1.
          5    1    1    2  502    0 -0.87165989803E+02 -0.12468102592E+03  0.10483876940E+03  0.18480234839E+03  0.41800000000E+01 0.  1.
         -5    1    1    2    0  502 -0.63134681923E+02  0.13141753111E+02  0.10296674331E+03  0.12156609874E+03  0.41800000000E+01 0.  1.
        -11    1    1    2    0    0  0.80247633525E+02  0.80275546565E+02  0.22354842992E+03  0.25071447222E+03  0.00000000000E+00 0.  1.
         11    1    1    2    0    0  0.70053038201E+02  0.31263726243E+02  0.38453624726E+03  0.39211347107E+03  0.00000000000E+00 0. -1.
</event>
<event>
 6    1  0.8989754E-006  0.9095425E+02  0.7561462E-02  0.1300557E+00
         -2   -1    0    0    0  501 -0.00000000000E+00  0.00000000000E+00  0.15304139927E+03  0.15304139927E+03  0.00000000000E+00 0.  1.
          2   -1    0    0  501    0  0.00000000000E+00 -0.00000000000E+00 -0.98062056963E+02  0.98062056963E+02  0.00000000000E+00 0. -1.
          5    1    1    2  502    0  0.21397293538E+02  0.22450699154E+02 -0.16957921026E+02  0.35593841445E+02  0.41800000000E+01 0.  1.
         -5    1    1    2    0  502 -0.64347467819E+02 -0.39545364949E+02  0.86177250657E+02  0.11466657505E+03  0.41800000000E+01 0.  1.
        -11    1    1    2    0    0  0.45780217751E+02  0.34507818498E+02  0.21305876179E+02  0.61160103291E+02  0.00000000000E+00 0.  1.
         11    1    1    2    0    0 -0.28300434699E+01 -0.17413152704E+02 -0.35545863500E+02  0.39682936447E+02  0.00000000000E+00 0. -1.
</event>
<event>
 6    1  0.8989754E-006  0.1671315E+03  0.7561462E-02  0.1180873E+00
         -2   -1    0    0    0  501 -0.00000000000E+00  0.00000000000E+00  0.43882380680E+03  0.43882380680E+03  0.00000000000E+00 0.  1.
          2   -1    0    0  501    0  0.00000000000E+00 -0.00000000000E+00 -0.83109810625E+02  0.83109810625E+02  0.00000000000E+00 0. -1.
          5    1    1    2  502    0  0.66875046419E+01 -0.13427969726E+03  0.22397032475E+03  0.26125837514E+03  0.41800000000E+01 0.  1.
         -5    1    1    2    0  502 -0.45546255496E+02  0.91506333851E+01  0.80930189441E+02  0.93409653912E+02  0.41800000000E+01 0.  1.
        -11    1    1    2    0    0  0.52533859459E+02  0.37812968191E+02  0.44723778012E+02  0.78675557022E+02  0.00000000000E+00 0.  1.
         11    1    1    2    0    0 -0.13675108606E+02  0.87316095680E+02  0.60897039739E+01  0.88590031351E+02  0.00000000000E+00 0. -1.
</event>
<event>
 6    1  0.8989754E-006  0.1042972E+03  0.7561462E-02  0.1271511E+00
          1   -1    0    0  501    0  0.00000000000E+00  0.00000000000E+00  0.61120331056E+02  0.61120331056E+02  0.00000000000E+00 0. -1.
         -1   -1    0    0    0  501 -0.00000000000E+00 -0.00000000000E+00 -0.32228396133E+03  0.32228396133E+03  0.00000000000E+00 0.  1.
          5    1    1    2  502    0 -0.25781985145E+02  0.15038939966E+02  0.12815350965E+02  0.32750360207E+02  0.41800000000E+01 0.  1.
         -5    1    1    2    0  502 -0.56239959306E+02 -0.37928949727E+02 -0.18182841033E+03  0.19411486665E+03  0.41800000000E+01 0.  1.
        -11    1    1    2    0    0  0.11476902386E+02 -0.23436513723E+02 -0.61399393134E+02  0.66714877959E+02  0.00000000000E+00 0.  1.
         11    1    1    2    0    0  0.70545042065E+02  0.46326523484E+02 -0.30751177773E+02  0.89824187570E+02  0.00000000000E+00 0. -1.
</event>
<event>
 6    1  0.8989754E-006  0.1860154E+03  0.7561462E-02  0.1162105E+00
         -1   -1    0    0    0  501 -0.00000000000E+00  0.00000000000E+00  0.12133619351E+04  0.12133619351E+04  0.00000000000E+00 0.  1.
          1   -1    0    0  501    0  0.00000000000E+00 -0.00000000000E+00 -0.36776045193E+02  0.36776045193E+02  0.00000000000E+00 0. -1.
          5    1    1    2  502    0  0.46470635012E+02 -0.11688762827E+02  0.31356698251E+03  0.31723472700E+03  0.41800000000E+01 0. -1.
         -5    1    1    2    0  502 -0.37696201679E+02 -0.13804277641E+03  0.57659021029E+03  0.59409641873E+03  0.41800000000E+01 0. -1.
        -11    1    1    2    0    0  0.43441932896E+02  0.39139734790E+02  0.85428861497E+02  0.10352396220E+03  0.00000000000E+00 0.  1.
         11    1    1    2    0    0 -0.52216366229E+02  0.11059180445E+03  0.20099983562E+03  0.23528287238E+03  0.00000000000E+00 0. -1.
</event>
<event>
 6    1  0.8989754E-006  0.1537888E+03  0.7561462E-02  0.1195893E+00
         -2   -1    0    0    0  501 -0.00000000000E+00  0.00000000000E+00  0.38537837845E+03  0.38537837845E+03  0.00000000000E+00 0.  1.
          2   -1    0    0  501    0  0.00000000000E+00 -0.00000000000E+00 -0.69270159913E+02  0.69270159913E+02  0.00000000000E+00 0. -1.
          5    1    1    2  502    0  0.13021416879E+03  0.19910521797E+02  0.10699184719E+03  0.16975537222E+03  0.41800000000E+01 0.  1.
         -5    1    1    2    0  502 -0.98318837950E+01 -0.35340316128E+02  0.67103439991E+02  0.76589476703E+02  0.41800000000E+01 0.  1.
        -11    1    1    2    0    0 -0.78604517820E+02  0.42228492093E+02  0.12924303665E+03  0.15705310659E+03  0.00000000000E+00 0.  1.
         11    1    1    2    0    0 -0.41777767175E+02 -0.26798697762E+02  0.12769894704E+02  0.51250582852E+02  0.00000000000E+00 0. -1.
</event>
<event>
 6    1  0.8989754E-006  0.4866602E+02  0.7561462E-02  0.1452672E+00
          1   -1    0    0  501    0  0.00000000000E+00  0.00000000000E+00  0.10356783346E+03  0.10356783346E+03  0.00000000000E+00 0. -1.
         -1   -1    0    0    0  501 -0.00000000000E+00 -0.00000000000E+00 -0.12259469482E+03  0.12259469482E+03  0.00000000000E+00 0.  1.
          5    1    1    2  502    0  0.12919188603E+02 -0.10172852547E+02  0.40647872054E+02  0.44046728205E+02  0.41800000000E+01 0.  1.
         -5    1    1    2    0  502 -0.56359875779E+01  0.25730898622E+02 -0.86122571749E+02  0.90157713283E+02  0.41800000000E+01 0.  1.
        -11    1    1    2    0    0  0.22025517194E+02 -0.79330744628E+01 -0.23739799915E+02  0.33341193411E+02  0.00000000000E+00 0.  1.
         11    1    1    2    0    0 -0.29308718219E+02 -0.76249716116E+01  0.50187638257E+02  0.58616893379E+02  0.00000000000E+00 0. -1.
</event>
<event>
 6    1  0.8989754E-006  0.1003394E+03  0.7561462E-02  0.1279584E+00
         -2   -1    0    0    0  501 -0.00000000000E+00  0.00000000000E+00  0.19405159671E+02  0.19405159671E+02  0.00000000000E+00 0.  1.
          2   -1    0    0  501    0  0.00000000000E+00 -0.00000000000E+00 -0.75672595675E+03  0.75672595675E+03  0.00000000000E+00 0. -1.
          5    1    1    2  502    0  0.10453305833E+02 -0.37905834660E+02 -0.30614035914E+03  0.30868352046E+03  0.41800000000E+01 0.  1.
         -5    1    1    2    0  502  0.40228586738E+02  0.38006133535E+02 -0.60957735475E+02  0.82438603163E+02  0.41800000000E+01 0.  1.
        -11    1    1    2    0    0  0.19782935707E+02 -0.24115312876E+02 -0.11408970297E+03  0.11827668065E+03  0.00000000000E+00 0.  1.
         11    1    1    2    0    0 -0.70464828277E+02  0.24015014002E+02 -0.25613299949E+03  0.26673231216E+03  0.00000000000E+00 0. -1.
</event>
<event>
 6    1  0.8989754E-006  0.1783504E+03  0.7561462E-02  0.1169409E+00
         -2   -1    0    0    0  501 -0.00000000000E+00  0.00000000000E+00  0.39925296219E+02  0.39925296219E+02  0.00000000000E+00 0. -1.
          2   -1    0    0  501    0  0.00000000000E+00 -0.00000000000E+00 -0.93032640230E+03  0.93032640230E+03  0.00000000000E+00 0.  1.
          5    1    1    2  502    0 -0.23239371693E+02 -0.21852276362E+02 -0.54339739453E+02  0.63149584818E+02  0.41800000000E+01 0. -1.
         -5    1    1    2    0  502 -0.47096302246E+02  0.16026306940E+03 -0.31382625646E+03  0.35553720585E+03  0.41800000000E+01 0. -1.
        -11    1    1    2    0    0  0.24498539877E+02 -0.77011960164E+02 -0.39383301151E+03  0.40203912921E+03  0.00000000000E+00 0.  1.
         11    1    1    2    0    0  0.45837134062E+02 -0.61398832875E+02 -0.12840209866E+03  0.14952577864E+03  0.00000000000E+00 0. -1.
</event>
<event>
 6    1  0.8989754E-006  0.1901060E+03  0.7561462E-02  0.1158366E+00
          2   -1    0    0  501    0  0.00000000000E+00  0.00000000000E+00  0.13220895939E+04  0.13220895939E+04  0.00000000000E+00 0. -1.
         -2   -1    0    0    0  501 -0.00000000000E+00 -0.00000000000E+00 -0.33711036485E+02  0.33711036485E+02  0.00000000000E+00 0.  1.
          5    1    1    2  502    0 -0.16844325374E+02  0.12926126514E+02  0.24003584935E+03  0.24100933056E+03  0.41800000000E+01 0.  1.
         -5    1    1    2    0  502  0.77251862862E+02  0.15783589174E+03  0.44202297670E+03  0.47569086955E+03  0.41800000000E+01 0.  1.
        -11    1    1    2    0    0 -0.11501539874E+02 -0.68279735292E+02  0.11017250038E+03  0.13012450772E+03  0.00000000000E+00 0.  1.
         11    1    1    2    0    0 -0.48905997614E+02 -0.10248228297E+03  0.49614723103E+03  0.50897592260E+03  0.00000000000E+00 0. -1.
</event>
<event>
 6    1  0.8989754E-006  0.1164160E+03  0.7561462E-02  0.1249129E+00
          1   -1    0    0  501    0  0.00000000000E+00  0.00000000000E+00  0.26487357758E+03  0.26487357758E+03  0.00000000000E+00 0. -1.
         -1   -1    0    0    0  501 -0.00000000000E+00 -0.00000000000E+00 -0.69914062021E+02  0.69914062021E+02  0.00000000000E+00 0.  1.
          5    1    1    2  502    0  0.43829846125E+02  0.48486532588E+02  0.31491669272E-01  0.65494065727E+02  0.41800000000E+01 0. -1.
         -5    1    1    2    0  502  0.32051946234E+02 -0.58116146738E+02  0.71503676570E+02  0.97647641713E+02  0.41800000000E+01 0. -1.
        -11    1    1    2    0    0  0.95755426156E+01  0.11994059978E+02 -0.60474189874E+01  0.16496053090E+02  0.00000000000E+00 0.  1.
         11    1    1    2    0    0 -0.85457334975E+02 -0.23644458281E+01  0.12947176630E+03  0.15514987907E+03  0.00000000000E+00 0. -1.
</event>
<event>
 6    1  0.8989754E-006  0.3395715E+03  0.7561462E-02  0.1066979E+00
          2   -1    0    0  501    0  0.00000000000E+00  0.00000000000E+00  0.37247387150E+03  0.37247387150E+03  0.00000000000E+00 0.  1.
         -2   -1    0    0    0  501 -0.00000000000E+00 -0.00000000000E+00 -0.34740960880E+03  0.34740960880E+03  0.00000000000E+00 0. -1.
          5    1    1    2  502    0  0.36829183678E+02  0.37529180918E+02 -0.15356153994E+02  0.54937346644E+02  0.41800000000E+01 0.  1.
         -5    1    1    2    0  502 -0.79180380974E+02  0.28360275246E+03 -0.83729523033E+02  0.30615055016E+03  0.41800000000E+01 0. -1.
        -11    1    1    2    0    0  0.86599162111E+01 -0.27315380942E+03  0.12415235427E+03  0.30016962675E+03  0.00000000000E+00 0.  1.
         11    1    1    2    0    0  0.33691281085E+02 -0.47978123951E+02 -0.24145356526E-02  0.58625956750E+02  0.00000000000E+00 0. -1.
</event>
<event>
 6    1  0.8989754E-006  0.1216244E+03  0.7561462E-02  0.1240441E+00
          3   -1    0    0  501    0  0.00000000000E+00  0.00000000000E+00  0.51619224550E+02  0.51619224550E+02  0.00000000000E+00 0. -1.
         -3   -1    0    0    0  501 -0.00000000000E+00 -0.00000000000E+00 -0.37551114840E+03  0.37551114840E+03  0.00000000000E+00 0.  1.
          5    1    1    2  502    0 -0.94323574229E+02  0.92555830828E+01 -0.17170692407E+03  0.19617171724E+03  0.41800000000E+01 0. -1.
         -5    1    1    2    0  502  0.17017279276E+02 -0.44675385817E+02 -0.32501419246E+02  0.57959404283E+02  0.41800000000E+01 0. -1.
        -11    1    1    2    0    0  0.72400653181E+02  0.83503283291E+01 -0.12526932066E+03  0.14492751727E+03  0.00000000000E+00 0.  1.
         11    1    1    2    0    0  0.49056417721E+01  0.27069474405E+02  0.55857401196E+01  0.28071734154E+02  0.00000000000E+00 0. -1.
</event>
<event>
 6    1  0.8989754E-006  0.1962716E+03  0.7561462E-02  0.1152923E+00
          2   -1    0    0  501    0  0.00000000000E+00  0.00000000000E+00  0.33275805692E+03  0.33275805692E+03  0.00000000000E+00 0. -1.
         -2   -1    0    0    0  501 -0.00000000000E+00 -0.00000000000E+00 -0.13867384117E+03  0.13867384117E+03  0.00000000000E+00 0.  1.
          5    1    1    2  502    0 -0.12304881562E+03 -0.11686691642E+02 -0.13156495247E+02  0.12437103985E+03  0.41800000000E+01 0. -1.
         -5    1    1    2    0  502 -0.60804800401E+02  0.19373726298E+02  0.91268708406E+02  0.11144511903E+03  0.41800000000E+01 0. -1.
        -11    1    1    2    0    0  0.36589300807E+01  0.21991866942E+02  0.96068385830E+01  0.24275941352E+02  0.00000000000E+00 0.  1.
         11    1    1    2    0    0  0.18019468594E+03 -0.29678901598E+02  0.10636516402E+03  0.21133979785E+03  0.00000000000E+00 0. -1.
</event>
<event>
 6    1  0.8989754E-006  0.1134241E+03  0.7561462E-02  0.1254357E+00
         -1   -1    0    0    0  501 -0.00000000000E+00  0.00000000000E+00  0.12725299118E+03  0.12725299118E+03  0.00000000000E+00 0.  1.
          1   -1    0    0  501    0  0.00000000000E+00 -0.00000000000E+00 -0.11464244369E+03  0.11464244369E+03  0.00000000000E+00 0. -1.
          5    1    1    2  502    0 -0.58758917251E+02 -0.15057582196E+01 -0.24116013721E+02  0.63670496951E+02  0.41800000000E+01 0. -1.
         -5    1    1    2    0  502  0.41969933284E+02  0.53125389414E+02  0.17257329369E+02  0.69993357665E+02  0.41800000000E+01 0.  1.
        -11    1    1    2    0    0 -0.32211103661E+02 -0.52676188440E+01  0.24175904549E+02  0.40617451521E+02  0.00000000000E+00 0. -1.
         11    1    1    2    0    0  0.49000087627E+02 -0.46352012350E+02 -0.47066727065E+01  0.67614128733E+02  0.00000000000E+00 0.  1.
</event>
<event>
 6    1  0.8989754E-006  0.6987139E+02  0.7561462E-02  0.1360531E+00
         -2   -1    0    0    0  501 -0.00000000000E+00  0.00000000000E+00  0.58579703362E+03  0.58579703362E+03  0.00000000000E+00 0.  1.
          2   -1    0    0  501    0  0.00000000000E+00 -0.00000000000E+00 -0.19564249187E+02  0.19564249187E+02  0.00000000000E+00 0. -1.
          5    1    1    2  502    0  0.23677421425E+02  0.66128441121E+01  0.12916877209E+02  0.28083235380E+02  0.41800000000E+01 0. -1.
         -5    1    1    2    0  502 -0.29276581261E+02  0.78006804008E+01  0.38697128314E+03  0.38817807151E+03  0.41800000000E+01 0.  1.
        -11    1    1    2    0    0  0.44280859126E+02 -0.85269887901E+01  0.55250806934E+02  0.71317288855E+02  0.00000000000E+00 0.  1.
         11    1    1    2    0    0 -0.38681699290E+02 -0.58865357229E+01  0.11109381715E+03  0.11778268706E+03  0.00000000000E+00 0. -1.
</event>
<event>
 6    1  0.1926503E-005  0.2984377E+03  0.7561462E-02  0.1086024E+00
         -1   -1    0    0    0  501 -0.00000000000E+00  0.00000000000E+00  0.48642439512E+02  0.48642439512E+02  0.00000000000E+00 0.  1.
          1   -1    0    0  501    0  0.00000000000E+00 -0.00000000000E+00 -0.19942917438E+04  0.19942917438E+04  0.00000000000E+00 0. -1.
          5    1    1    2  502    0 -0.34857263765E+02  0.12901780068E+03 -0.63964795430E+03  0.65347348804E+03  0.41800000000E+01 0.  1.
         -5    1    1    2    0  502 -0.33508622242E+02  0.15457760230E+03 -0.31402336277E+03  0.35163220510E+03  0.41800000000E+01 0.  1.
        -11    1    1    2    0    0 -0.21209288836E+02 -0.74704811341E+02 -0.26584398628E+03  0.27695427026E+03  0.00000000000E+00 0. -1.
         11    1    1    2    0    0  0.89575174843E+02 -0.20889059164E+03 -0.72613400098E+03  0.76087421996E+03  0.00000000000E+00 0.  1.
</event>
<event>
 6    1  0.8989754E-006  0.8187849E+02  0.7561462E-02  0.1323804E+00
          2   -1    0    0  501    0  0.00000000000E+00  0.00000000000E+00  0.10066191380E+04  0.10066191380E+04  0.00000000000E+00 0. -1.
         -2   -1    0    0    0  501 -0.00000000000E+00 -0.00000000000E+00 -0.13281083139E+02  0.13281083139E+02  0.00000000000E+00 0.  1.
          5    1    1    2  502    0  0.31132794921E+02  0.23123457252E+02  0.56252671929E+03  0.56387740468E+03  0.41800000000E+01 0.  1.
         -5    1    1    2    0  502  0.10489735615E+02 -0.25920341322E+02  0.23386795587E+02  0.36692141602E+02  0.41800000000E+01 0.  1.
        -11    1    1    2    0    0 -0.67242404856E+02  0.13718958064E+02  0.24055305179E+03  0.25015099750E+03  0.00000000000E+00 0.  1.
         11    1    1    2    0    0  0.25619874319E+02 -0.10922073995E+02  0.16687148816E+03  0.16917967733E+03  0.00000000000E+00 0. -1.
</event>
<event>
 6    1  0.8989754E-006  0.7393232E+02  0.7561462E-02  0.1347210E+00
         -2   -1    0    0    0  501 -0.00000000000E+00  0.00000000000E+00  0.22196385567E+03  0.22196385567E+03  0.00000000000E+00 0.  1.
          2   -1    0    0  501    0  0.00000000000E+00 -0.00000000000E+00 -0.10579111526E+03  0.10579111526E+03  0.00000000000E+00 0. -1.
          5    1    1    2  502    0 -0.25941745022E+02 -0.48231710890E+01 -0.32303704720E+01  0.26909938824E+02  0.41800000000E+01 0. -1.
         -5    1    1    2    0  502  0.14560668003E+02  0.21881948710E+02  0.18427806519E+03  0.18618998481E+03  0.41800000000E+01 0.  1.
        -11    1    1    2    0    0  0.41010436537E+02 -0.39828144222E+02 -0.39417065669E+02  0.69439484756E+02  0.00000000000E+00 0.  1.
         11    1    1    2    0    0 -0.29629359519E+02  0.22769366601E+02 -0.25457888646E+02  0.45215562533E+02  0.00000000000E+00 0. -1.
</event>
<event>
 6    1  0.8989754E-006  0.4025224E+03  0.7561462E-02  0.1042910E+00
          4   -1    0    0  501    0  0.00000000000E+00  0.00000000000E+00  0.65468022638E+03  0.65468022638E+03  0.00000000000E+00 0. -1.
         -4   -1    0    0    0  501 -0.00000000000E+00 -0.00000000000E+00 -0.27557341189E+03  0.27557341189E+03  0.00000000000E+00 0.  1.
          5    1    1    2  502    0 -0.23408525495E+02 -0.48206168477E+02 -0.21818319033E+02  0.58011250551E+02  0.41800000000E+01 0. -1.
         -5    1    1    2    0  502  0.52017185798E+02 -0.34802496975E+03  0.98928814324E+02  0.36555649344E+03  0.41800000000E+01 0. -1.
        -11    1    1    2    0    0  0.50295932668E+01  0.21450918260E+03  0.21005079654E+03  0.30026791929E+03  0.00000000000E+00 0.  1.
         11    1    1    2    0    0 -0.33638253570E+02  0.18172195563E+03  0.91945522663E+02  0.20641797499E+03  0.00000000000E+00 0. -1.
</event>
<event>
 6    1  0.8989754E-006  0.1981090E+03  0.7561462E-02  0.1151344E+00
         -2   -1    0    0    0  501 -0.00000000000E+00  0.00000000000E+00  0.21849620602E+02  0.21849620602E+02  0.00000000000E+00 0. -1.
          2   -1    0    0  501    0  0.00000000000E+00 -0.00000000000E+00 -0.20206917414E+04  0.20206917414E+04  0.00000000000E+00 0.  1.
          5    1    1    2  502    0 -0.63447797838E+02 -0.17331070369E+02 -0.62246149853E+03  0.62594071492E+03  0.41800000000E+01 0.  1.
         -5    1    1    2    0  502 -0.11184483205E+03  0.69462520330E+02 -0.43607584800E+03  0.45553696424E+03  0.41800000000E+01 0.  1.
        -11    1    1    2    0    0  0.36647477755E+02 -0.47328752925E+02 -0.29645317863E+03  0.30243600248E+03  0.00000000000E+00 0.  1.
         11    1    1    2    0    0  0.13864515213E+03 -0.48026970368E+01 -0.64385159567E+03  0.65862768037E+03  0.00000000000E+00 0. -1.
</event>
<event>
 6    1  0.8989754E-006  0.9016538E+02  0.7561462E-02  0.1302452E+00
          1   -1    0    0  501    0  0.00000000000E+00  0.00000000000E+00  0.38981518706E+03  0.38981518706E+03  0.00000000000E+00 0.  1.
         -1   -1    0    0    0  501 -0.00000000000E+00 -0.00000000000E+00 -0.33698106296E+02  0.33698106296E+02  0.00000000000E+00 0. -1.
          5    1    1    2  502    0 -0.42463749304E+02 -0.79244298359E+00  0.15143582519E+03  0.15733429226E+03  0.41800000000E+01 0. -1.
         -5    1    1    2    0  502  0.36103926925E+02  0.28838996159E+02  0.75669364288E+01  0.47009702890E+02  0.41800000000E+01 0. -1.
        -11    1    1    2    0    0 -0.18526639637E+02  0.25902013099E+02  0.39559400222E+02  0.50784808799E+02  0.00000000000E+00 0. -1.
         11    1    1    2    0    0  0.24886462017E+02 -0.53948566275E+02  0.15755491893E+03  0.16838448941E+03  0.00000000000E+00 0.  1.
</event>
<event>
 6    1  0.8989754E-006  0.2109461E+03  0.7561462E-02  0.1140819E+00
          2   -1    0    0  501    0  0.00000000000E+00  0.00000000000E+00  0.17119572714E+04  0.17119572714E+04  0.00000000000E+00 0. -1.
         -2   -1    0    0    0  501 -0.00000000000E+00 -0.00000000000E+00 -0.31614976649E+02  0.31614976649E+02  0.00000000000E+00 0.  1.
          5    1    1    2  502    0 -0.50934594322E+02 -0.89878426260E+01  0.39556738471E+03  0.39895631648E+03  0.41800000000E+01 0. -1.
         -5    1    1    2    0  502 -0.14864307001E+03  0.20979017693E+02  0.29963929903E+03  0.33516572522E+03  0.41800000000E+01 0. -1.
        -11    1    1    2    0    0  0.17825801651E+03 -0.41882680429E+02  0.84196704731E+03  0.86164876146E+03  0.00000000000E+00 0. -1.
         11    1    1    2    0    0  0.21319647817E+02  0.29891505361E+02  0.14316856370E+03  0.14780144488E+03  0.00000000000E+00 0.  1.
</event>
<event>
 6    1  0.8989754E-006  0.1596361E+03  0.7561462E-02  0.1189108E+00
         -1   -1    0    0    0  501 -0.00000000000E+00  0.00000000000E+00  0.75115748908E+03  0.75115748908E+03  0.00000000000E+00 0.  1.
          1   -1    0    0  501    0  0.00000000000E+00 -0.00000000000E+00 -0.43900049101E+02  0.43900049101E+02  0.00000000000E+00 0. -1.
          5    1    1    2  502    0 -0.16379517918E+02  0.80845761918E+02  0.19681629602E+03  0.21344426112E+03  0.41800000000E+01 0. -1.
         -5    1    1    2    0  502 -0.82181509069E+02 -0.15946053922E+02  0.34348940951E+03  0.35356827334E+03  0.41800000000E+01 0. -1.
        -11    1    1    2    0    0 -0.61026918019E+01 -0.46122794081E+02  0.70594293561E+02  0.84546491734E+02  0.00000000000E+00 0. -1.
         11    1    1    2    0    0  0.10466371879E+03 -0.18776913914E+02  0.96357440894E+02  0.14349851199E+03  0.00000000000E+00 0.  1.
</event>
<event>
 6    1  0.8989754E-006  0.9586835E+02  0.7561462E-02  0.1289232E+00
         -2   -1    0    0    0  501 -0.00000000000E+00  0.00000000000E+00  0.32823435793E+03  0.32823435793E+03  0.00000000000E+00 0.  1.
          2   -1    0    0  501    0  0.00000000000E+00 -0.00000000000E+00 -0.38986374867E+02  0.38986374867E+02  0.00000000000E+00 0. -1.
          5    1    1    2  502    0  0.37847233217E+02  0.41215881323E+02  0.10203058151E+03  0.11644257768E+03  0.41800000000E+01 0. -1.
         -5    1    1    2    0  502 -0.67352901462E+02 -0.23508010894E+02  0.82841104382E+02  0.10940366030E+03  0.41800000000E+01 0. -1.
        -11    1    1    2    0    0  0.12801190324E+02 -0.36701496502E+02  0.54312695316E+01  0.39247535056E+02  0.00000000000E+00 0. -1.
         11    1    1    2    0    0  0.16704477921E+02  0.18993626074E+02  0.98945027640E+02  0.10212695975E+03  0.00000000000E+00 0.  1.
</event>
<event>
 6    1  0.8989754E-006  0.2960401E+03  0.7561462E-02  0.1087237E+00
         -2   -1    0    0    0  501 -0.00000000000E+00  0.00000000000E+00  0.20186934577E+03  0.20186934577E+03  0.00000000000E+00 0.  1.
          2   -1    0    0  501    0  0.00000000000E+00 -0.00000000000E+00 -0.45107712809E+03  0.45107712809E+03  0.00000000000E+00 0. -1.
          5    1    1    2  502    0 -0.85287598646E+02  0.22725812302E+02 -0.25925682455E+02  0.92087189328E+02  0.41800000000E+01 0.  1.
         -5    1    1    2    0  502 -0.83036033284E+02  0.20273665564E+03 -0.91476226122E+02  0.23745000886E+03  0.41800000000E+01 0.  1.
        -11    1    1    2    0    0  0.61252344602E+02 -0.11769901617E+03 -0.18655637796E+02  0.13398858514E+03  0.00000000000E+00 0.  1.
         11    1    1    2    0    0  0.10707128733E+03 -0.10776345177E+03 -0.11315023595E+03  0.18942069053E+03  0.00000000000E+00 0. -1.
</event>
<event>
 6    1  0.8989754E-006  0.2827120E+03  0.7561462E-02  0.1094217E+00
          2   -1    0    0  501    0  0.00000000000E+00  0.00000000000E+00  0.49963958178E+03  0.49963958178E+03  0.00000000000E+00 0.  1.
         -2   -1    0    0    0  501 -0.00000000000E+00 -0.00000000000E+00 -0.19246919843E+03  0.19246919843E+03  0.00000000000E+00 0. -1.
          5    1    1    2  502    0 -0.70076783553E+02  0.67119111373E+02 -0.90504153197E+01  0.97545441319E+02  0.41800000000E+01 0. -1.
         -5    1    1    2    0  502  0.20833426277E+02  0.19058313701E+03  0.27162403412E+02  0.19367816687E+03  0.41800000000E+01 0. -1.
        -11    1    1    2    0    0  0.59003815443E+02 -0.84518404451E+02  0.12630473436E+03  0.16302667527E+03  0.00000000000E+00 0.  1.
         11    1    1    2    0    0 -0.97604581672E+01 -0.17318384393E+03  0.16275366089E+03  0.23785849675E+03  0.00000000000E+00 0. -1.
</event>
<event>
 6    1  0.8989754E-006  0.1223494E+03  0.7561462E-02  0.1239271E+00
         -2   -1    0    0    0  501 -0.00000000000E+00  0.00000000000E+00  0.19885352823E+03  0.19885352823E+03  0.00000000000E+00 0.  1.
          2   -1    0    0  501    0  0.00000000000E+00 -0.00000000000E+00 -0.11207925893E+03  0.11207925893E+03  0.00000000000E+00 0. -1.
          5    1    1    2  502    0 -0.11225887934E+03 -0.20736835236E+02 -0.36452854549E+01  0.11429275057E+03  0.41800000000E+01 0. -1.
         -5    1    1    2    0  502  0.12475236786E+02  0.38744983019E+00  0.52663476552E+02  0.54283476425E+02  0.41800000000E+01 0. -1.
        -11    1    1    2    0    0  0.71351109829E+02  0.40879176469E+02  0.59132546380E+02  0.10128546778E+03  0.00000000000E+00 0.  1.
         11    1    1    2    0    0  0.28432532724E+02 -0.20529791063E+02 -0.21376468170E+02  0.41071092384E+02  0.00000000000E+00 0. -1.
</event>
<event>
 6    1  0.8989754E-006  0.1135283E+03  0.7561462E-02  0.1254172E+00
         -1   -1    0    0    0  501 -0.00000000000E+00  0.00000000000E+00  0.11557254691E+03  0.11557254691E+03  0.00000000000E+00 0.  1.
          1   -1    0    0  501    0  0.00000000000E+00 -0.00000000000E+00 -0.11700797589E+03  0.11700797589E+03  0.00000000000E+00 0. -1.
          5    1    1    2  502    0  0.36653427720E+02 -0.51995013703E+02  0.21561298213E+02  0.67300202037E+02  0.41800000000E+01 0. -1.
         -5    1    1    2    0  502  0.25426178003E+00  0.64623969674E+02 -0.41055754958E+01  0.64889523466E+02  0.41800000000E+01 0. -1.
        -11    1    1    2    0    0 -0.53102978296E+02  0.24165749750E+02 -0.95636647756E+01  0.59121683407E+02  0.00000000000E+00 0. -1.
         11    1    1    2    0    0  0.16195288796E+02 -0.36794705721E+02 -0.93274869214E+01  0.41269113881E+02  0.00000000000E+00 0.  1.
</event>
<event>
 6    1  0.8989754E-006  0.9795547E+02  0.7561462E-02  0.1284655E+00
         -2   -1    0    0    0  501 -0.00000000000E+00  0.00000000000E+00  0.75357951418E+02  0.75357951418E+02  0.00000000000E+00 0.  1.
          2   -1    0    0  501    0  0.00000000000E+00 -0.00000000000E+00 -0.16576593266E+03  0.16576593266E+03  0.00000000000E+00 0. -1.
          5    1    1    2  502    0  0.63618081594E+01 -0.58350453133E+02 -0.12123462672E+02  0.60080768396E+02  0.41800000000E+01 0.  1.
         -5    1    1    2    0  502  0.17314028306E+02  0.66056556506E+02 -0.23652997093E+02  0.72389093827E+02  0.41800000000E+01 0.  1.
        -11    1    1    2    0    0 -0.10401222276E+02  0.28366181225E+02 -0.62500054945E+02  0.69419612001E+02  0.00000000000E+00 0. -1.
         11    1    1    2    0    0 -0.13274614189E+02 -0.36072284599E+02  0.78685334653E+01  0.39234409859E+02  0.00000000000E+00 0.  1.
</event>
<event>
 6    1  0.8989754E-006  0.1360883E+03  0.7561462E-02  0.1218692E+00
          3   -1    0    0  501    0  0.00000000000E+00  0.00000000000E+00  0.70388517904E+03  0.70388517904E+03  0.00000000000E+00 0. -1.
         -3   -1    0    0    0  501 -0.00000000000E+00 -0.00000000000E+00 -0.31603943628E+02  0.31603943628E+02  0.00000000000E+00 0.  1.
          5    1    1    2  502    0 -0.57302172336E+02  0.94326595922E+02  0.14070138408E+03  0.17887257346E+03  0.41800000000E+01 0. -1.
         -5    1    1    2    0  502  0.29146280853E+02 -0.28308088879E+01  0.13921857549E+03  0.14232639715E+03  0.41800000000E+01 0. -1.
        -11    1    1    2    0    0  0.61156288308E+02 -0.69051161502E+02  0.29437755676E+03  0.30849035710E+03  0.00000000000E+00 0. -1.
         11    1    1    2    0    0 -0.33000396825E+02 -0.22444625532E+02  0.97983719085E+02  0.10579979495E+03  0.00000000000E+00 0.  1.
</event>
<event>
 6    1  0.8989754E-006  0.3641871E+03  0.7561462E-02  0.1056938E+00
         -2   -1    0    0    0  501 -0.00000000000E+00  0.00000000000E+00  0.17491093744E+03  0.17491093744E+03  0.00000000000E+00 0.  1.
          2   -1    0    0  501    0  0.00000000000E+00 -0.00000000000E+00 -0.82960752017E+03  0.82960752017E+03  0.00000000000E+00 0. -1.
          5    1    1    2  502    0 -0.45661822793E+02 -0.84078508293E+02 -0.12745358661E+03  0.15942423516E+03  0.41800000000E+01 0. -1.
         -5    1    1    2    0  502 -0.51085033384E+02 -0.25954215862E+03 -0.10548299035E+03  0.28480861361E+03  0.41800000000E+01 0. -1.
        -11    1    1    2    0    0 -0.48153691085E+01  0.14398557049E+03 -0.18309877674E+03  0.23298110295E+03  0.00000000000E+00 0.  1.
         11    1    1    2    0    0  0.10156222528E+03  0.19963509642E+03 -0.23866122903E+03  0.32730450588E+03  0.00000000000E+00 0. -1.
</event>
<event>
 6    1  0.8989754E-006  0.1042656E+03  0.7561462E-02  0.1271573E+00
          2   -1    0    0  501    0  0.00000000000E+00  0.00000000000E+00  0.61820411256E+03  0.61820411256E+03  0.00000000000E+00 0. -1.
         -2   -1    0    0    0  501 -0.00000000000E+00 -0.00000000000E+00 -0.26121626739E+02  0.26121626739E+02  0.00000000000E+00 0.  1.
          5    1    1    2  502    0 -0.28179502516E+02 -0.17129017473E+02  0.19054641419E+03  0.19342413490E+03  0.41800000000E+01 0. -1.
         -5    1    1    2    0  502  0.15260102853E+02  0.77839267019E+02  0.90610739391E+02  0.12049730587E+03  0.41800000000E+01 0. -1.
        -11    1    1    2    0    0  0.41332594245E+02 -0.19245506240E+02  0.23476746203E+03  0.23915378752E+03  0.00000000000E+00 0. -1.
         11    1    1    2    0    0 -0.28413194582E+02 -0.41464743306E+02  0.76157870206E+02  0.91250511002E+02  0.00000000000E+00 0.  1.
</event>
<event>
 6    1  0.8989754E-006  0.9528959E+02  0.7561462E-02  0.1290525E+00
          3   -1    0    0  501    0  0.00000000000E+00  0.00000000000E+00  0.21020869475E+03  0.21020869475E+03  0.00000000000E+00 0. -1.
         -3   -1    0    0    0  501 -0.00000000000E+00 -0.00000000000E+00 -0.71037898928E+02  0.71037898928E+02  0.00000000000E+00 0.  1.
          5    1    1    2  502    0 -0.30582817726E+02  0.25407448958E+02  0.31330372239E+02  0.50792832440E+02  0.41800000000E+01 0. -1.
         -5    1    1    2    0  502  0.79299580533E+02 -0.49894621449E+02  0.26855921742E+02  0.97553111969E+02  0.41800000000E+01 0. -1.
        -11    1    1    2    0    0 -0.65291721572E+01  0.10511662656E+02 -0.19461319004E+02  0.23062265245E+02  0.00000000000E+00 0.  1.
         11    1    1    2    0    0 -0.42187590649E+02  0.13975509835E+02  0.10044582085E+03  0.10983838403E+03  0.00000000000E+00 0. -1.
</event>
<event>
 6    1  0.8989754E-006  0.7830915E+02  0.7561462E-02  0.1333919E+00
          1   -1    0    0  501    0  0.00000000000E+00  0.00000000000E+00  0.85460459710E+02  0.85460459710E+02  0.00000000000E+00 0. -1.
         -1   -1    0    0    0  501 -0.00000000000E+00 -0.00000000000E+00 -0.14634109651E+03  0.14634109651E+03  0.00000000000E+00 0.  1.
          5    1    1    2  502    0  0.38809893448E+02 -0.26997869915E+01  0.23255595071E+02  0.45516939499E+02  0.41800000000E+01 0. -1.
         -5    1    1    2    0  502 -0.56721484762E+02  0.12158757455E+02 -0.66569174906E+02  0.88397339689E+02  0.41800000000E+01 0. -1.
        -11    1    1    2    0    0 -0.13221898135E+02 -0.22079845084E+02 -0.46764252844E+02  0.53378211784E+02  0.00000000000E+00 0.  1.
         11    1    1    2    0    0  0.31133489449E+02  0.12620874620E+02  0.29197195883E+02  0.44509065244E+02  0.00000000000E+00 0. -1.
</event>
<event>
 6    1  0.8989754E-006  0.1805721E+03  0.7561462E-02  0.1167251E+00
          2   -1    0    0  501    0  0.00000000000E+00  0.00000000000E+00  0.54917183789E+03  0.54917183789E+03  0.00000000000E+00 0. -1.
         -2   -1    0    0    0  501 -0.00000000000E+00 -0.00000000000E+00 -0.14915812679E+03  0.14915812679E+03  0.00000000000E+00 0.  1.
          5    1    1    2  502    0 -0.22927847932E+02  0.42966813078E+02 -0.62269562804E+02  0.79163148552E+02  0.41800000000E+01 0.  1.
         -5    1    1    2    0  502  0.41922364234E+02  0.12999981276E+03  0.23369984230E+02  0.13864005375E+03  0.41800000000E+01 0.  1.
        -11    1    1    2    0    0 -0.53641787338E+00 -0.10974842198E+03  0.36679611548E+03  0.38286341455E+03  0.00000000000E+00 0. -1.
         11    1    1    2    0    0 -0.18458098429E+02 -0.63218203854E+02  0.72117174201E+02  0.97663347837E+02  0.00000000000E+00 0.  1.
</event>
<event>
 6    1  0.8989754E-006  0.3161299E+03  0.7561462E-02  0.1077444E+00
         -1   -1    0    0    0  501 -0.00000000000E+00  0.00000000000E+00  0.11709798313E+03  0.11709798313E+03  0.00000000000E+00 0.  1.
          1   -1    0    0  501    0  0.00000000000E+00 -0.00000000000E+00 -0.86347270112E+03  0.86347270112E+03  0.00000000000E+00 0. -1.
          5    1    1    2  502    0 -0.17376354704E+03 -0.11697430994E+03 -0.27348920253E+03  0.34451498628E+03  0.41800000000E+01 0.  1.
         -5    1    1    2    0  502 -0.15965568330E+02 -0.11110217262E+03 -0.15821281058E+03  0.19402927090E+03  0.41800000000E+01 0.  1.
        -11    1    1    2    0    0  0.16525535336E+03  0.13263423693E+03 -0.21380596659E+03  0.30102186626E+03  0.00000000000E+00 0.  1.
         11    1    1    2    0    0  0.24473762010E+02  0.95442245635E+02 -0.10086673829E+03  0.14100456082E+03  0.00000000000E+00 0. -1.
</event>
<event>
 6    1  0.8989754E-006  0.1179050E+03  0.7561462E-02  0.1246594E+00
         -2   -1    0    0    0  501 -0.00000000000E+00  0.00000000000E+00  0.12994983367E+03  0.12994983367E+03  0.00000000000E+00 0.  1.
          2   -1    0    0  501    0  0.00000000000E+00 -0.00000000000E+00 -0.16564235053E+03  0.16564235053E+03  0.00000000000E+00 0. -1.
          5    1    1    2  502    0 -0.10183465521E+02  0.89594882841E+02 -0.13414896195E+02  0.91259946534E+02  0.41800000000E+01 0. -1.
         -5    1    1    2    0  502  0.21982099927E+02 -0.13484547553E+02  0.55820632534E+02  0.61631657096E+02  0.41800000000E+01 0. -1.
        -11    1    1    2    0    0 -0.51438442357E+02 -0.34439209802E+02 -0.41655032303E+02  0.74613096975E+02  0.00000000000E+00 0.  1.
         11    1    1    2    0    0  0.39639807951E+02 -0.41671125486E+02 -0.36443220890E+02  0.68087483597E+02  0.00000000000E+00 0. -1.
</event>
<event>
 6    1  0.8989754E-006  0.6768065E+02  0.7561462E-02  0.1368163E+00
         -2   -1    0    0    0  501 -0.00000000000E+00  0.00000000000E+00  0.76308734379E+02  0.76308734379E+02  0.00000000000E+00 0.  1.
          2   -1    0    0  501    0  0.00000000000E+00 -0.00000000000E+00 -0.16734003043E+03  0.16734003043E+03  0.00000000000E+00 0. -1.
          5    1    1    2  502    0  0.18996679984E+02  0.12719433630E+02 -0.93837135865E+02  0.96672324424E+02  0.41800000000E+01 0. -1.
         -5    1    1    2    0  502  0.13454682194E+02  0.13259493936E+02  0.41001113130E+02  0.45336589310E+02  0.41800000000E+01 0. -1.
        -11    1    1    2    0    0 -0.12152951960E+02  0.30460176965E+02 -0.52614217105E+01  0.33214442348E+02  0.00000000000E+00 0.  1.
         11    1    1    2    0    0 -0.20298410218E+02 -0.56439104530E+02 -0.32933851603E+02  0.68425408724E+02  0.00000000000E+00 0. -1.
</event>
<event>
 6    1  0.8989754E-006  0.1134914E+03  0.7561462E-02  0.1254238E+00
         -1   -1    0    0    0  501 -0.00000000000E+00  0.00000000000E+00  0.28880673418E+02  0.28880673418E+02  0.00000000000E+00 0.  1.
          1   -1    0    0  501    0  0.00000000000E+00 -0.00000000000E+00 -0.52364376690E+03  0.52364376690E+03  0.00000000000E+00 0. -1.
          5    1    1    2  502    0  0.91788817170E+02  0.27104305177E+02 -0.19962874833E+03  0.22142479508E+03  0.41800000000E+01 0.  1.
         -5    1    1    2    0  502 -0.38620165927E+02 -0.10667787029E+02 -0.63759106973E+02  0.75418930106E+02  0.41800000000E+01 0.  1.
        -11    1    1    2    0    0  0.11957110441E+01  0.23445585617E+02 -0.12378522037E+02  0.26539649916E+02  0.00000000000E+00 0.  1.
         11    1    1    2    0    0 -0.54364362287E+02 -0.39882103765E+02 -0.21899671614E+03  0.22914106521E+03  0.00000000000E+00 0. -1.
</event>
<event>
 6    1  0.8989754E-006  0.2274483E+03  0.7561462E-02  0.1128449E+00
         -2   -1    0    0    0  501 -0.00000000000E+00  0.00000000000E+00  0.61813676607E+02  0.61813676607E+02  0.00000000000E+00 0.  1.
          2   -1    0    0  501    0  0.00000000000E+00 -0.00000000000E+00 -0.86451956148E+03  0.86451956148E+03  0.00000000000E+00 0. -1.
          5    1    1    2  502    0 -0.34678403045E+02 -0.14790833770E+03 -0.23608445476E+03  0.28077181158E+03  0.41800000000E+01 0.  1.
         -5    1    1    2    0  502  0.66054782842E+02 -0.53422560840E+02 -0.18082332617E+03  0.19982930724E+03  0.41800000000E+01 0.  1.
        -11    1    1    2    0    0 -0.45731963582E+02  0.58219580730E+02 -0.87851818125E+02  0.11488635263E+03  0.00000000000E+00 0.  1.
         11    1    1    2    0    0  0.14355583785E+02  0.14311131781E+03 -0.29794628581E+03  0.33084576664E+03  0.00000000000E+00 0. -1.
</event>
<event>
 6    1  0.8989754E-006  0.1638356E+03  0.7561462E-02  0.1184433E+00
         -2   -1    0    0    0  501 -0.00000000000E+00  0.00000000000E+00  0.40257476482E+02  0.40257476482E+02  0.00000000000E+00 0.  1.
          2   -1    0    0  501    0  0.00000000000E+00 -0.00000000000E+00 -0.87185027029E+03  0.87185027029E+03  0.00000000000E+00 0. -1.
          5    1    1    2  502    0  0.29179987828E+02 -0.18967192018E+02 -0.22301826332E+02  0.41545997646E+02  0.41800000000E+01 0. -1.
         -5    1    1    2    0  502  0.10854031228E+03  0.86816697009E+02 -0.43815750879E+03  0.45969295533E+03  0.41800000000E+01 0. -1.
        -11    1    1    2    0    0 -0.90371332072E+02 -0.46353332652E+02 -0.13422726157E+03  0.16832280552E+03  0.00000000000E+00 0.  1.
         11    1    1    2    0    0 -0.47348968039E+02 -0.21496172340E+02 -0.23690619711E+03  0.24254598828E+03  0.00000000000E+00 0. -1.
</event>
<event>
 6    1  0.8989754E-006  0.1792961E+03  0.7561462E-02  0.1168486E+00
         -1   -1    0    0    0  501 -0.00000000000E+00  0.00000000000E+00  0.92270517858E+02  0.92270517858E+02  0.00000000000E+00 0.  1.
          1   -1    0    0  501    0  0.00000000000E+00 -0.00000000000E+00 -0.44410192048E+03  0.44410192048E+03  0.00000000000E+00 0. -1.
          5    1    1    2  502    0  0.77226971764E+02  0.30438162894E+02 -0.18812517543E+03  0.20566730649E+03  0.41800000000E+01 0. -1.
         -5    1    1    2    0  502 -0.15501142100E+03 -0.42556981495E+02 -0.66135902665E+02  0.17387083521E+03  0.41800000000E+01 0.  1.
        -11    1    1    2    0    0 -0.17877079105E+02 -0.19615197591E+01 -0.41093414976E+02  0.44856507571E+02  0.00000000000E+00 0.  1.
         11    1    1    2    0    0  0.95661528340E+02  0.14080338361E+02 -0.56476909551E+02  0.11197778907E+03  0.00000000000E+00 0. -1.
</event>
<event>
 6    1  0.8989754E-006  0.2010014E+03  0.7561462E-02  0.1148897E+00
         -1   -1    0    0    0  501 -0.00000000000E+00  0.00000000000E+00  0.32413209225E+02  0.32413209225E+02  0.00000000000E+00 0.  1.
          1   -1    0    0  501    0  0.00000000000E+00 -0.00000000000E+00 -0.13926985942E+04  0.13926985942E+04  0.00000000000E+00 0. -1.
          5    1    1    2  502    0  0.19143782587E+02 -0.17235579805E+02 -0.29046357798E+02  0.39047572578E+02  0.41800000000E+01 0.  1.
         -5    1    1    2    0  502 -0.15790423648E+03 -0.90381073389E+02 -0.51135154654E+03  0.54277100408E+03  0.41800000000E+01 0.  1.
        -11    1    1    2    0    0  0.39199177258E+02 -0.93665713514E+01 -0.11489037748E+03  0.12175428943E+03  0.00000000000E+00 0.  1.
         11    1    1    2    0    0  0.99561276633E+02  0.11698322455E+03 -0.70499710314E+03  0.72153893731E+03  0.00000000000E+00 0. -1.
</event>
<event>
 6    1  0.8989754E-006  0.1089291E+03  0.7561462E-02  0.1262566E+00
          2   -1    0    0  501    0  0.00000000000E+00  0.00000000000E+00  0.10144127966E+04  0.10144127966E+04  0.00000000000E+00 0. -1.
         -2   -1    0    0    0  501 -0.00000000000E+00 -0.00000000000E+00 -0.27901663686E+02  0.27901663686E+02  0.00000000000E+00 0.  1.
          5    1    1    2  502    0 -0.61067305935E+02  0.10202373922E+02  0.68039825841E+03  0.68322219427E+03  0.41800000000E+01 0. -1.
         -5    1    1    2    0  502  0.27289841399E+02 -0.46385825728E+02  0.24289854269E+02  0.59193324729E+02  0.41800000000E+01 0.  1.
        -11    1    1    2    0    0  0.49836586242E+02  0.56881927296E+02  0.19281456075E+03  0.20711517042E+03  0.00000000000E+00 0.  1.
         11    1    1    2    0    0 -0.16059121706E+02 -0.20698475490E+02  0.89008459516E+02  0.92783770903E+02  0.00000000000E+00 0. -1.
</event>
<event>
 6    1  0.8989754E-006  0.1296814E+03  0.7561462E-02  0.1227929E+00
          2   -1    0    0  501    0  0.00000000000E+00  0.00000000000E+00  0.13282846054E+03  0.13282846054E+03  0.00000000000E+00 0. -1.
         -2   -1    0    0    0  501 -0.00000000000E+00 -0.00000000000E+00 -0.14238357265E+03  0.14238357265E+03  0.00000000000E+00 0.  1.
          5    1    1    2  502    0  0.20828652720E+02  0.79004193353E+02 -0.13156241762E+02  0.82861658436E+02  0.41800000000E+01 0. -1.
         -5    1    1    2    0  502 -0.63090242082E+02 -0.87127212293E+01  0.19964591574E+02  0.66875611952E+02  0.41800000000E+01 0. -1.
        -11    1    1    2    0    0 -0.23524207244E+02 -0.20825961740E+02  0.18081669524E+02  0.36249907333E+02  0.00000000000E+00 0.  1.
         11    1    1    2    0    0  0.65785796607E+02 -0.49465510384E+02 -0.34445131441E+02  0.89224855465E+02  0.00000000000E+00 0. -1.
</event>
<event>
 6    1  0.8989754E-006  0.1581604E+03  0.7561462E-02  0.1190789E+00
         -2   -1    0    0    0  501 -0.00000000000E+00  0.00000000000E+00  0.97670087966E+02  0.97670087966E+02  0.00000000000E+00 0.  1.
          2   -1    0    0  501    0  0.00000000000E+00 -0.00000000000E+00 -0.48891866930E+03  0.48891866930E+03  0.00000000000E+00 0. -1.
          5    1    1    2  502    0  0.28161255074E+02  0.72419767932E+02 -0.95393670504E+01  0.78397391528E+02  0.41800000000E+01 0. -1.
         -5    1    1    2    0  502 -0.90436804591E+02  0.31366604256E+02  0.20359547633E+01  0.95834737955E+02  0.41800000000E+01 0. -1.
        -11    1    1    2    0    0 -0.27666085934E+01 -0.68766594758E+02 -0.25292084024E+03  0.26211724496E+03  0.00000000000E+00 0. -1.
         11    1    1    2    0    0  0.65042158110E+02 -0.35019777430E+02 -0.13082432881E+03  0.15023938282E+03  0.00000000000E+00 0.  1.
</event>
<event>
 6    1  0.8989754E-006  0.9758306E+02  0.7561462E-02  0.1285462E+00
          1   -1    0    0  501    0  0.00000000000E+00  0.00000000000E+00  0.11949826012E+03  0.11949826012E+03  0.00000000000E+00 0. -1.
         -1   -1    0    0    0  501 -0.00000000000E+00 -0.00000000000E+00 -0.12230778399E+03  0.12230778399E+03  0.00000000000E+00 0.  1.
          5    1    1    2  502    0 -0.42879693300E+02 -0.14440260004E+02  0.22303939768E+02  0.50617460779E+02  0.41800000000E+01 0. -1.
         -5    1    1    2    0  502  0.51538594716E+02  0.66640735998E+02 -0.13810251479E+02  0.85471690550E+02  0.41800000000E+01 0. -1.
        -11    1    1    2    0    0  0.13346031882E+02 -0.34971646790E+02  0.35251435929E+02  0.51417860528E+02  0.00000000000E+00 0. -1.
         11    1    1    2    0    0 -0.22004933298E+02 -0.17228829203E+02 -0.46554648087E+02  0.54299032254E+02  0.00000000000E+00 0.  1.
</event>
<event>
 6    1  0.8989754E-006  0.7682858E+02  0.7561462E-02  0.1338300E+00
         -4   -1    0    0    0  501 -0.00000000000E+00  0.00000000000E+00  0.11073248877E+03  0.11073248877E+03  0.00000000000E+00 0.  1.
          4   -1    0    0  501    0  0.00000000000E+00 -0.00000000000E+00 -0.16945044343E+03  0.16945044343E+03  0.00000000000E+00 0. -1.
          5    1    1    2  502    0 -0.60362148660E+01 -0.36113566573E+02 -0.84742057983E+02  0.92408410720E+02  0.41800000000E+01 0. -1.
         -5    1    1    2    0  502 -0.50921371595E+01 -0.13884812500E+02  0.73883223545E+02  0.75464700360E+02  0.41800000000E+01 0.  1.
        -11    1    1    2    0    0 -0.35470746523E+02  0.35603084921E+01 -0.13779755829E+02  0.38219514991E+02  0.00000000000E+00 0.  1.
         11    1    1    2    0    0  0.46599098548E+02  0.46438070581E+02 -0.34079364399E+02  0.74090306131E+02  0.00000000000E+00 0. -1.
</event>
<event>
 6    1  0.8989754E-006  0.1260866E+03  0.7561462E-02  0.1233381E+00
         -1   -1    0    0    0  501 -0.00000000000E+00  0.00000000000E+00  0.63362675073E+02  0.63362675073E+02  0.00000000000E+00 0.  1.
          1   -1    0    0  501    0  0.00000000000E+00 -0.00000000000E+00 -0.35863883239E+03  0.35863883239E+03  0.00000000000E+00 0. -1.
          5    1    1    2  502    0 -0.84583902119E+01  0.16940941445E+02  0.16602126857E+02  0.25527296727E+02  0.41800000000E+01 0.  1.
         -5    1    1    2    0  502 -0.31995449541E+02 -0.10531737722E+03 -0.12399689454E+03  0.16585584401E+03  0.41800000000E+01 0.  1.
        -11    1    1    2    0    0  0.21054095633E+02  0.98517481832E+02 -0.10757386322E+03  0.14738081699E+03  0.00000000000E+00 0.  1.
         11    1    1    2    0    0  0.19399744120E+02 -0.10141046054E+02 -0.80307526415E+02  0.83237549735E+02  0.00000000000E+00 0. -1.
</event>
<event>
 6    1  0.8989754E-006  0.1282982E+03  0.7561462E-02  0.1230003E+00
         -2   -1    0    0    0  501 -0.00000000000E+00  0.00000000000E+00  0.27457798584E+03  0.27457798584E+03  0.00000000000E+00 0.  1.
          2   -1    0    0  501    0  0.00000000000E+00 -0.00000000000E+00 -0.70011912010E+02  0.70011912010E+02  0.00000000000E+00 0. -1.
          5    1    1    2  502    0  0.42934597638E+02  0.41244711610E+02  0.32372828643E+02  0.67896821313E+02  0.41800000000E+01 0.  1.
         -5    1    1    2    0  502  0.31094605220E+02 -0.82105196017E+02  0.97426468728E+02  0.13121557413E+03  0.41800000000E+01 0.  1.
        -11    1    1    2    0    0 -0.52956034017E+02 -0.10066154715E+02  0.72464694670E+02  0.90315009733E+02  0.00000000000E+00 0.  1.
         11    1    1    2    0    0 -0.21073168841E+02  0.50926639123E+02  0.23020817929E+01  0.55162492673E+02  0.00000000000E+00 0. -1.
</event>
<event>
 6    1  0.8989754E-006  0.1176115E+03  0.7561462E-02  0.1247090E+00
         -2   -1    0    0    0  501 -0.00000000000E+00  0.00000000000E+00  0.31280101496E+02  0.31280101496E+02  0.00000000000E+00 0.  1.
          2   -1    0    0  501    0  0.00000000000E+00 -0.00000000000E+00 -0.52124881029E+03  0.52124881029E+03  0.00000000000E+00 0. -1.
          5    1    1    2  502    0 -0.35275906953E+01  0.60535261404E+02 -0.12606107188E+03  0.13994937661E+03  0.41800000000E+01 0.  1.
         -5    1    1    2    0  502 -0.60909983019E+02 -0.45674074178E+02 -0.86485316955E+02  0.11529670217E+03  0.41800000000E+01 0.  1.
        -11    1    1    2    0    0 -0.12468300154E+02  0.11433852454E+02 -0.15163331669E+02  0.22718233161E+02  0.00000000000E+00 0.  1.
         11    1    1    2    0    0  0.76905873869E+02 -0.26295039680E+02 -0.26225898829E+03  0.27456459984E+03  0.00000000000E+00 0. -1.
</event>
<event>
 6    1  0.8989754E-006  0.2684683E+03  0.7561462E-02  0.1102159E+00
          1   -1    0    0  501    0  0.00000000000E+00  0.00000000000E+00  0.62524316214E+03  0.62524316214E+03  0.00000000000E+00 0. -1.
         -1   -1    0    0    0  501 -0.00000000000E+00 -0.00000000000E+00 -0.12682311557E+03  0.12682311557E+03  0.00000000000E+00 0.  1.
          5    1    1    2  502    0 -0.97880770061E+02 -0.11971852938E+03  0.11126356911E+03  0.19055242228E+03  0.41800000000E+01 0. -1.
         -5    1    1    2    0  502  0.26353762019E+02 -0.12340357965E+03  0.58669444197E+02  0.13922119208E+03  0.41800000000E+01 0. -1.
        -11    1    1    2    0    0  0.74832510218E+02  0.21460643270E+03  0.31973135110E+03  0.39228046397E+03  0.00000000000E+00 0. -1.
         11    1    1    2    0    0 -0.33055021753E+01  0.28515676331E+02  0.87556821677E+01  0.30012199377E+02  0.00000000000E+00 0.  1.
</event>
<event>
 6    1  0.8989754E-006  0.2104298E+03  0.7561462E-02  0.1141226E+00
         -2   -1    0    0    0  501 -0.00000000000E+00  0.00000000000E+00  0.47994573382E+03  0.47994573382E+03  0.00000000000E+00 0.  1.
          2   -1    0    0  501    0  0.00000000000E+00 -0.00000000000E+00 -0.10929641580E+03  0.10929641580E+03  0.00000000000E+00 0. -1.
          5    1    1    2  502    0  0.12718536210E+03 -0.49642696821E+02  0.10404097425E+03  0.17170471864E+03  0.41800000000E+01 0.  1.
         -5    1    1    2    0  502  0.68985476321E+02  0.54526715529E+02  0.14104256607E+03  0.16626074850E+03  0.41800000000E+01 0.  1.
        -11    1    1    2    0    0 -0.91168669595E+02 -0.26908676771E+01  0.11343145399E+03  0.14555295201E+03  0.00000000000E+00 0.  1.
         11    1    1    2    0    0 -0.10500216883E+03 -0.21931510308E+01  0.12134323710E+02  0.10572373046E+03  0.00000000000E+00 0. -1.
</event>
<event>
 6    1  0.8989754E-006  0.1029954E+03  0.7561462E-02  0.1274120E+00
         -2   -1    0    0    0  501 -0.00000000000E+00  0.00000000000E+00  0.33514693916E+02  0.33514693916E+02  0.00000000000E+00 0.  1.
          2   -1    0    0  501    0  0.00000000000E+00 -0.00000000000E+00 -0.61354086477E+03  0.61354086477E+03  0.00000000000E+00 0. -1.
          5    1    1    2  502    0 -0.49461577931E+02  0.26195870233E+02 -0.21753095107E+03  0.22465497631E+03  0.41800000000E+01 0. -1.
         -5    1    1    2    0  502  0.77215564047E+01 -0.46169096668E+02 -0.16643787078E+01  0.47026061678E+02  0.41800000000E+01 0.  1.
        -11    1    1    2    0    0 -0.12905429102E+02 -0.27566388213E+02 -0.89071122678E+02  0.94128214445E+02  0.00000000000E+00 0.  1.
         11    1    1    2    0    0  0.54645450629E+02  0.47539614648E+02 -0.27175971840E+03  0.28124630625E+03  0.00000000000E+00 0. -1.
</event>
<event>
 6    1  0.8989754E-006  0.7660048E+02  0.7561462E-02  0.1338985E+00
          4   -1    0    0  501    0  0.00000000000E+00  0.00000000000E+00  0.97683555627E+02  0.97683555627E+02  0.00000000000E+00 0.  1.
         -4   -1    0    0    0  501 -0.00000000000E+00 -0.00000000000E+00 -0.15729054446E+03  0.15729054446E+03  0.00000000000E+00 0. -1.
          5    1    1    2  502    0  0.36877350645E+02  0.52501580049E+02 -0.14525040439E+02  0.65915127990E+02  0.41800000000E+01 0.  1.
         -5    1    1    2    0  502 -0.26197076931E+02 -0.36202918726E+02 -0.81229600011E+02  0.92804409819E+02  0.41800000000E+01 0.  1.
        -11    1    1    2    0    0  0.90988172420E+01  0.83987786688E+01  0.57019992074E+02  0.58349014169E+02  0.00000000000E+00 0.  1.
         11    1    1    2    0    0 -0.19779090955E+02 -0.24697439991E+02 -0.20872340454E+02  0.37905548105E+02  0.00000000000E+00 0. -1.
</event>
<event>
 6    1  0.8989754E-006  0.7672450E+02  0.7561462E-02  0.1338612E+00
         -1   -1    0    0    0  501 -0.00000000000E+00  0.00000000000E+00  0.53770388888E+02  0.53770388888E+02  0.00000000000E+00 0.  1.
          1   -1    0    0  501    0  0.00000000000E+00 -0.00000000000E+00 -0.30359551670E+03  0.30359551670E+03  0.00000000000E+00 0. -1.
          5    1    1    2  502    0  0.22554408455E+02 -0.53222282942E+02 -0.16352962844E+03  0.17349560375E+03  0.41800000000E+01 0.  1.
         -5    1    1    2    0  502 -0.31106288840E+01 -0.80282975214E+01  0.23247763198E+02  0.25140812773E+02  0.41800000000E+01 0.  1.
        -11    1    1    2    0    0 -0.21928489500E+02  0.71805719736E+02 -0.12135043677E+03  0.14269845319E+03  0.00000000000E+00 0. -1.
         11    1    1    2    0    0  0.24847099288E+01 -0.10555139273E+02  0.11807174204E+02  0.16031035873E+02  0.00000000000E+00 0.  1.
</event>
<event>
 6    1  0.8989754E-006  0.1233954E+03  0.7561462E-02  0.1237599E+00
          2   -1    0    0  501    0  0.00000000000E+00  0.00000000000E+00  0.28883077084E+03  0.28883077084E+03  0.00000000000E+00 0. -1.
         -2   -1    0    0    0  501 -0.00000000000E+00 -0.00000000000E+00 -0.61578901547E+02  0.61578901547E+02  0.00000000000E+00 0.  1.
          5    1    1    2  502    0  0.94977106437E+02  0.41585947390E+02  0.61347156561E+02  0.12054454689E+03  0.41800000000E+01 0. -1.
         -5    1    1    2    0  502 -0.28044438647E+02 -0.26483272439E+02  0.19012055467E+02  0.43206306382E+02  0.41800000000E+01 0. -1.
        -11    1    1    2    0    0 -0.56911403291E+02  0.25530008328E+02  0.12436473070E+03  0.13913042583E+03  0.00000000000E+00 0. -1.
         11    1    1    2    0    0 -0.10021264499E+02 -0.40632683279E+02  0.22527926563E+02  0.47528393280E+02  0.00000000000E+00 0.  1.
</event>
<event>
 6    1  0.8989754E-006  0.1205994E+03  0.7561462E-02  0.1242111E+00
         -2   -1    0    0    0  501 -0.00000000000E+00  0.00000000000E+00  0.17124472580E+03  0.17124472580E+03  0.00000000000E+00 0.  1.
          2   -1    0    0  501    0  0.00000000000E+00 -0.00000000000E+00 -0.10160130237E+03  0.10160130237E+03  0.00000000000E+00 0. -1.
          5    1    1    2  502    0 -0.10358845049E+03 -0.10626880056E+02  0.60265171680E+01  0.10439008077E+03  0.41800000000E+01 0.  1.
         -5    1    1    2    0  502  0.32705293599E+02 -0.14295746982E+02  0.27711247240E+02  0.45380505008E+02  0.41800000000E+01 0.  1.
        -11    1    1    2    0    0  0.57768592033E+02  0.47597557085E+02  0.53072110806E+02  0.91757215582E+02  0.00000000000E+00 0.  1.
         11    1    1    2    0    0  0.13114564856E+02 -0.22674930047E+02 -0.17166451777E+02  0.31318226812E+02  0.00000000000E+00 0. -1.
</event>
<event>
 6    1  0.8989754E-006  0.1080979E+03  0.7561462E-02  0.1264133E+00
          2   -1    0    0  501    0  0.00000000000E+00  0.00000000000E+00  0.13617782667E+03  0.13617782667E+03  0.00000000000E+00 0. -1.
         -2   -1    0    0    0  501 -0.00000000000E+00 -0.00000000000E+00 -0.13709148795E+03  0.13709148795E+03  0.00000000000E+00 0.  1.
          5    1    1    2  502    0 -0.88866818776E+01 -0.61004036649E+02 -0.70461878811E+02  0.93716670704E+02  0.41800000000E+01 0. -1.
         -5    1    1    2    0  502 -0.41110983687E+02  0.97990198724E+01  0.34628924567E+02  0.54797523546E+02  0.41800000000E+01 0. -1.
        -11    1    1    2    0    0  0.15448732724E+02  0.70631608959E+02  0.43254271869E+02  0.84252119035E+02  0.00000000000E+00 0. -1.
         11    1    1    2    0    0  0.34548932840E+02 -0.19426592183E+02 -0.83349789031E+01  0.40503001340E+02  0.00000000000E+00 0.  1.
</event>
<event>
 6    1  0.8989754E-006  0.1113719E+03  0.7561462E-02  0.1258050E+00
          1   -1    0    0  501    0  0.00000000000E+00  0.00000000000E+00  0.25777269246E+02  0.25777269246E+02  0.00000000000E+00 0. -1.
         -1   -1    0    0    0  501 -0.00000000000E+00 -0.00000000000E+00 -0.59458889116E+03  0.59458889116E+03  0.00000000000E+00 0.  1.
          5    1    1    2  502    0  0.24971824306E+02  0.49492878036E+02 -0.99069459800E+02  0.11360179246E+03  0.41800000000E+01 0.  1.
         -5    1    1    2    0  502 -0.66838402897E+02 -0.19852832947E+02 -0.28981696342E+03  0.29811550071E+03  0.41800000000E+01 0.  1.
        -11    1    1    2    0    0 -0.23797625316E+02  0.29750336532E+01 -0.15333289228E+02  0.28465550311E+02  0.00000000000E+00 0. -1.
         11    1    1    2    0    0  0.65664203907E+02 -0.32615078742E+02 -0.16459190947E+03  0.18018331693E+03  0.00000000000E+00 0.  1.
</event>
<event>
 6    1  0.8989754E-006  0.1156047E+03  0.7561462E-02  0.1250529E+00
         -2   -1    0    0    0  501 -0.00000000000E+00  0.00000000000E+00  0.32903155353E+03  0.32903155353E+03  0.00000000000E+00 0.  1.
          2   -1    0    0  501    0  0.00000000000E+00 -0.00000000000E+00 -0.46136264717E+02  0.46136264717E+02  0.00000000000E+00 0. -1.
          5    1    1    2  502    0 -0.59695848680E+02 -0.21095952974E+02  0.13181647076E+03  0.14629315755E+03  0.41800000000E+01 0.  1.
         -5    1    1    2    0  502  0.61163020537E+02 -0.25352647211E+02  0.78416954272E+02  0.10271495957E+03  0.41800000000E+01 0.  1.
        -11    1    1    2    0    0 -0.28009501653E+02  0.63819329739E+02  0.60142347089E+02  0.92057269916E+02  0.00000000000E+00 0.  1.
         11    1    1    2    0    0  0.26542329797E+02 -0.17370729554E+02  0.12519516685E+02  0.34102431208E+02  0.00000000000E+00 0. -1.
</event>
<event>
 6    1  0.8989754E-006  0.1070740E+03  0.7561462E-02  0.1266086E+00
         -2   -1    0    0    0  501 -0.00000000000E+00  0.00000000000E+00  0.14939344217E+02  0.14939344217E+02  0.00000000000E+00 0.  1.
          2   -1    0    0  501    0  0.00000000000E+00 -0.00000000000E+00 -0.87793828326E+03  0.87793828326E+03  0.00000000000E+00 0. -1.
          5    1    1    2  502    0  0.57804998776E+02 -0.51658046552E+02 -0.43615885589E+03  0.44301466300E+03  0.41800000000E+01 0. -1.
         -5    1    1    2    0  502 -0.23442330552E+02  0.34204274302E+02 -0.90011616971E+02  0.99191929268E+02  0.41800000000E+01 0. -1.
        -11    1    1    2    0    0  0.21389731116E+02  0.30807927850E+02 -0.94893767126E+02  0.10203664075E+03  0.00000000000E+00 0. -1.
         11    1    1    2    0    0 -0.55752399340E+02 -0.13354155600E+02 -0.24193469906E+03  0.24863439447E+03  0.00000000000E+00 0.  1.
</event>
<event>
 6    1  0.8989754E-006  0.8755011E+02  0.7561462E-02  0.1308895E+00
          1   -1    0    0  501    0  0.00000000000E+00  0.00000000000E+00  0.58053338349E+02  0.58053338349E+02  0.00000000000E+00 0. -1.
         -1   -1    0    0    0  501 -0.00000000000E+00 -0.00000000000E+00 -0.30581358509E+03  0.30581358509E+03  0.00000000000E+00 0.  1.
          5    1    1    2  502    0 -0.47236388957E+02  0.14297989949E+02 -0.16171971771E+03  0.16913440943E+03  0.41800000000E+01 0. -1.
         -5    1    1    2    0  502  0.59102951578E+02  0.31959009706E+02 -0.61633186166E+02  0.91272445040E+02  0.41800000000E+01 0. -1.
        -11    1    1    2    0    0 -0.14936807085E+01 -0.47747628621E+02 -0.53981715766E+02  0.72083928569E+02  0.00000000000E+00 0.  1.
         11    1    1    2    0    0 -0.10372881912E+02  0.14906289665E+01  0.29574372899E+02  0.31376140397E+02  0.00000000000E+00 0. -1.
</event>
<event>
 6    1  0.8989754E-006  0.1375074E+03  0.7561462E-02  0.1216723E+00
         -1   -1    0    0    0  501 -0.00000000000E+00  0.00000000000E+00  0.16304027377E+03  0.16304027377E+03  0.00000000000E+00 0.  1.
          1   -1    0    0  501    0  0.00000000000E+00 -0.00000000000E+00 -0.12675319407E+03  0.12675319407E+03  0.00000000000E+00 0. -1.
          5    1    1    2  502    0 -0.20101603377E+02  0.10933276180E+03  0.15135260314E+01  0.11125417036E+03  0.41800000000E+01 0. -1.
         -5    1    1    2    0  502 -0.19888551209E+02 -0.26994087155E+02  0.33716024588E+02  0.47733404703E+02  0.41800000000E+01 0. -1.
        -11    1    1    2    0    0  0.20319442141E+02  0.18356542402E+02  0.62080230994E+01  0.28078139694E+02  0.00000000000E+00 0.  1.
         11    1    1    2    0    0  0.19670712445E+02 -0.10069521705E+03 -0.51504940125E+01  0.10272775308E+03  0.00000000000E+00 0. -1.
</event>
<event>
 6    1  0.8989754E-006  0.7337639E+02  0.7561462E-02  0.1348974E+00
         -4   -1    0    0    0  501 -0.00000000000E+00  0.00000000000E+00  0.54415015950E+03  0.54415015950E+03  0.00000000000E+00 0.  1.
          4   -1    0    0  501    0  0.00000000000E+00 -0.00000000000E+00 -0.14181857285E+03  0.14181857285E+03  0.00000000000E+00 0. -1.
          5    1    1    2  502    0  0.31955093919E+02 -0.70679860710E+01  0.41866869482E+01  0.33257859253E+02  0.41800000000E+01 0. -1.
         -5    1    1    2    0  502  0.31516846051E+02 -0.18323870323E+01  0.49989866083E+03  0.50091198102E+03  0.41800000000E+01 0.  1.
        -11    1    1    2    0    0 -0.63341205689E+02 -0.90312535951E+01 -0.11354962041E+03  0.13033490774E+03  0.00000000000E+00 0. -1.
         11    1    1    2    0    0 -0.13073428076E+00  0.17931626698E+02  0.11795859275E+02  0.21463984335E+02  0.00000000000E+00 0.  1.
</event>
<event>
 6    1  0.8989754E-006  0.1274294E+03  0.7561462E-02  0.1231321E+00
         -2   -1    0    0    0  501 -0.00000000000E+00  0.00000000000E+00  0.75719624852E+03  0.75719624852E+03  0.00000000000E+00 0.  1.
          2   -1    0    0  501    0  0.00000000000E+00 -0.00000000000E+00 -0.73112412319E+02  0.73112412319E+02  0.00000000000E+00 0. -1.
          5    1    1    2  502    0  0.68403543043E+02 -0.33830673704E+02  0.34145802805E+03  0.34990658254E+03  0.41800000000E+01 0. -1.
         -5    1    1    2    0  502 -0.79891809714E+02  0.43552651335E+02  0.37205043619E+03  0.38303855441E+03  0.41800000000E+01 0.  1.
        -11    1    1    2    0    0  0.40005918062E+02  0.21203118654E+02 -0.31642109200E+02  0.55238291024E+02  0.00000000000E+00 0.  1.
         11    1    1    2    0    0 -0.28517651391E+02 -0.30925096284E+02  0.22174811593E+01  0.42125232863E+02  0.00000000000E+00 0. -1.
</event>
<event>
 6    1  0.8989754E-006  0.1785161E+03  0.7561462E-02  0.1169247E+00
         -1   -1    0    0    0  501 -0.00000000000E+00  0.00000000000E+00  0.33743890016E+02  0.33743890016E+02  0.00000000000E+00 0.  1.
          1   -1    0    0  501    0  0.00000000000E+00 -0.00000000000E+00 -0.98043626894E+03  0.98043626894E+03  0.00000000000E+00 0. -1.
          5    1    1    2  502    0  0.15181603932E+03  0.17983317488E+02 -0.42278516123E+03  0.44959567887E+03  0.41800000000E+01 0.  1.
         -5    1    1    2    0  502 -0.77878651975E+01 -0.37351605847E+02 -0.88661265839E+02  0.96613072428E+02  0.41800000000E+01 0.  1.
        -11    1    1    2    0    0 -0.34061823380E+02  0.41350021793E+02 -0.87570294963E+02  0.10265762843E+03  0.00000000000E+00 0. -1.
         11    1    1    2    0    0 -0.10996635074E+03 -0.21981733434E+02 -0.34767565689E+03  0.36531377923E+03  0.00000000000E+00 0.  1.
</event>
<event>
 6    1  0.8989754E-006  0.1307617E+03  0.7561462E-02  0.1226330E+00
          2   -1    0    0  501    0  0.00000000000E+00  0.00000000000E+00  0.22896822417E+03  0.22896822417E+03  0.00000000000E+00 0. -1.
         -2   -1    0    0    0  501 -0.00000000000E+00 -0.00000000000E+00 -0.76813351690E+02  0.76813351690E+02  0.00000000000E+00 0.  1.
          5    1    1    2  502    0  0.23784195423E+02  0.28537978146E+02  0.13924436547E+02  0.39893188413E+02  0.41800000000E+01 0.  1.
         -5    1    1    2    0  502 -0.93618911405E+02 -0.53775171532E+02  0.45331317651E+02  0.11716940900E+03  0.41800000000E+01 0.  1.
        -11    1    1    2    0    0 -0.10765076138E+02 -0.20693284181E+02  0.20245174990E+02  0.30886339777E+02  0.00000000000E+00 0. -1.
         11    1    1    2    0    0  0.80599792120E+02  0.45930477566E+02  0.72653943288E+02  0.11783263866E+03  0.00000000000E+00 0.  1.
</event>
<event>
 6    1  0.8989754E-006  0.1313840E+03  0.7561462E-02  0.1225416E+00
         -1   -1    0    0    0  501 -0.00000000000E+00  0.00000000000E+00  0.21662806890E+03  0.21662806890E+03  0.00000000000E+00 0.  1.
          1   -1    0    0  501    0  0.00000000000E+00 -0.00000000000E+00 -0.10017033386E+03  0.10017033386E+03  0.00000000000E+00 0. -1.
          5    1    1    2  502    0  0.44302617370E+02 -0.77073354586E+01  0.37138159802E+01  0.45314343809E+02  0.41800000000E+01 0. -1.
         -5    1    1    2    0  502  0.11247092990E+02  0.86929527288E+02  0.10772915423E+03  0.13894705065E+03  0.41800000000E+01 0.  1.
        -11    1    1    2    0    0 -0.79159862467E+02 -0.63566288172E+02 -0.70022365867E+01  0.10176437557E+03  0.00000000000E+00 0.  1.
         11    1    1    2    0    0  0.23610152106E+02 -0.15655903657E+02  0.12017001423E+02  0.30772632728E+02  0.00000000000E+00 0. -1.
</event>
<event>
 6    1  0.8989754E-006  0.9770328E+02  0.7561462E-02  0.1285201E+00
          1   -1    0    0  501    0  0.00000000000E+00  0.00000000000E+00  0.68494312708E+02  0.68494312708E+02  0.00000000000E+00 0. -1.
         -1   -1    0    0    0  501 -0.00000000000E+00 -0.00000000000E+00 -0.24477813743E+03  0.24477813743E+03  0.00000000000E+00 0.  1.
          5    1    1    2  502    0  0.20130960606E+02 -0.53265607427E+02 -0.17219249050E+02  0.59636024744E+02  0.41800000000E+01 0.  1.
         -5    1    1    2    0  502 -0.39936644358E+02  0.95860063203E+01 -0.14495204995E+03  0.15071627737E+03  0.41800000000E+01 0.  1.
        -11    1    1    2    0    0  0.36630346417E+02 -0.12248113842E+02  0.97408835361E+01  0.39833194492E+02  0.00000000000E+00 0. -1.
         11    1    1    2    0    0 -0.16824662665E+02  0.55927714949E+02 -0.23853409267E+02  0.63086953539E+02  0.00000000000E+00 0.  1.
</event>
<event>
 6    1  0.8989754E-006  0.1330717E+03  0.7561462E-02  0.1222968E+00
         -2   -1    0    0    0  501 -0.00000000000E+00  0.00000000000E+00  0.15641780400E+03  0.15641780400E+03  0.00000000000E+00 0.  1.
          2   -1    0    0  501    0  0.00000000000E+00 -0.00000000000E+00 -0.19292693751E+03  0.19292693751E+03  0.00000000000E+00 0. -1.
          5    1    1    2  502    0  0.27216628366E+01 -0.26444784499E+02 -0.14027021424E+02  0.30347385485E+02  0.41800000000E+01 0. -1.
         -5    1    1    2    0  502 -0.10040802014E+03  0.77720820668E+02  0.73240076828E+02  0.14664200533E+03  0.41800000000E+01 0. -1.
        -11    1    1    2    0    0  0.38712560421E+02 -0.93321062765E+01  0.12877699355E+02  0.41851949567E+02  0.00000000000E+00 0.  1.
         11    1    1    2    0    0  0.58973796882E+02 -0.41943929893E+02 -0.10859988827E+03  0.13050340113E+03  0.00000000000E+00 0. -1.
</event>
<event>
 6    1  0.8989754E-006  0.1505133E+03  0.7561462E-02  0.1199844E+00
          2   -1    0    0  501    0  0.00000000000E+00  0.00000000000E+00  0.41703474983E+03  0.41703474983E+03  0.00000000000E+00 0.  1.
         -2   -1    0    0    0  501 -0.00000000000E+00 -0.00000000000E+00 -0.84584944132E+02  0.84584944132E+02  0.00000000000E+00 0. -1.
          5    1    1    2  502    0 -0.38957843040E+02  0.33133653901E+01 -0.24500369518E+02  0.46329606421E+02  0.41800000000E+01 0.  1.
         -5    1    1    2    0  502 -0.97022452431E+01 -0.11053530965E+03  0.70442286870E+02  0.13149819931E+03  0.41800000000E+01 0.  1.
        -11    1    1    2    0    0 -0.27264373822E+01  0.98508461706E+02  0.19480215274E+03  0.21830993840E+03  0.00000000000E+00 0.  1.
         11    1    1    2    0    0  0.51386525666E+02  0.87134825568E+01  0.91705735602E+02  0.10548194983E+03  0.00000000000E+00 0. -1.
</event>
<event>
 6    1  0.8989754E-006  0.9583045E+02  0.7561462E-02  0.1289317E+00
          2   -1    0    0  501    0  0.00000000000E+00  0.00000000000E+00  0.39137328586E+03  0.39137328586E+03  0.00000000000E+00 0. -1.
         -2   -1    0    0    0  501 -0.00000000000E+00 -0.00000000000E+00 -0.43660041704E+02  0.43660041704E+02  0.00000000000E+00 0.  1.
          5    1    1    2  502    0 -0.25370135914E+01 -0.35256463784E+02  0.84358188477E+02  0.91559986018E+02  0.41800000000E+01 0.  1.
         -5    1    1    2    0  502  0.20372121318E+02  0.56192054970E+02 -0.33014618639E+01  0.60007852979E+02  0.41800000000E+01 0.  1.
        -11    1    1    2    0    0 -0.38323216636E+02  0.25065641745E+02  0.12483541891E+03  0.13296930903E+03  0.00000000000E+00 0. -1.
         11    1    1    2    0    0  0.20488108909E+02 -0.46001232931E+02  0.14182109863E+03  0.15049617954E+03  0.00000000000E+00 0.  1.
</event>
<event>
 6    1  0.8989754E-006  0.1234749E+03  0.7561462E-02  0.1237472E+00
          3   -1    0    0  501    0  0.00000000000E+00  0.00000000000E+00  0.31459397949E+02  0.31459397949E+02  0.00000000000E+00 0. -1.
         -3   -1    0    0    0  501 -0.00000000000E+00 -0.00000000000E+00 -0.80676733065E+03  0.80676733065E+03  0.00000000000E+00 0.  1.
          5    1    1    2  502    0 -0.60553440037E+02  0.10087923298E+03 -0.53507287300E+03  0.54787205675E+03  0.41800000000E+01 0. -1.
         -5    1    1    2    0  502 -0.32517482876E+01 -0.29052593058E+02 -0.72253618592E+02  0.78055652133E+02  0.41800000000E+01 0.  1.
        -11    1    1    2    0    0  0.80581525795E+01 -0.26925754743E+02  0.16796593654E+01  0.28155840372E+02  0.00000000000E+00 0. -1.
         11    1    1    2    0    0  0.55747035746E+02 -0.44900885178E+02 -0.16966110047E+03  0.18414317934E+03  0.00000000000E+00 0.  1.
</event>
<event>
 6    1  0.8989754E-006  0.1668430E+03  0.7561462E-02  0.1181181E+00
          2   -1    0    0  501    0  0.00000000000E+00  0.00000000000E+00  0.58349496743E+03  0.58349496743E+03  0.00000000000E+00 0. -1.
         -2   -1    0    0    0  501 -0.00000000000E+00 -0.00000000000E+00 -0.57974541850E+02  0.57974541850E+02  0.00000000000E+00 0.  1.
          5    1    1    2  502    0  0.21735051387E+02 -0.27086242001E+01  0.44001579589E+02  0.49329104089E+02  0.41800000000E+01 0.  1.
         -5    1    1    2    0  502 -0.15319048022E+03  0.32925103760E+02  0.12501525251E+03  0.20049356959E+03  0.41800000000E+01 0.  1.
        -11    1    1    2    0    0  0.39986001931E+02  0.25608795322E+02  0.17044544954E+03  0.17693598282E+03  0.00000000000E+00 0. -1.
         11    1    1    2    0    0  0.91469426901E+02 -0.55825274882E+02  0.18605814394E+03  0.21471085278E+03  0.00000000000E+00 0.  1.
</event>
<event>
 6    1  0.8989754E-006  0.9668402E+02  0.7561462E-02  0.1287428E+00
         -1   -1    0    0    0  501 -0.00000000000E+00  0.00000000000E+00  0.33026761545E+02  0.33026761545E+02  0.00000000000E+00 0.  1.
          1   -1    0    0  501    0  0.00000000000E+00 -0.00000000000E+00 -0.49463332493E+03  0.49463332493E+03  0.00000000000E+00 0. -1.
          5    1    1    2  502    0 -0.87618262814E+02  0.26083444587E+02 -0.18810327470E+03  0.20918322211E+03  0.41800000000E+01 0. -1.
         -5    1    1    2    0  502  0.30789884567E+02 -0.85342951586E+01 -0.11330649229E+02  0.34157095858E+02  0.41800000000E+01 0. -1.
        -11    1    1    2    0    0  0.10042152180E+02  0.10942718445E+02  0.15824268780E+01  0.14936263997E+02  0.00000000000E+00 0.  1.
         11    1    1    2    0    0  0.46786226068E+02 -0.28491867874E+02 -0.26375506633E+03  0.26938350451E+03  0.00000000000E+00 0. -1.
</event>
<event>
 6    1  0.8989754E-006  0.1096212E+03  0.7561462E-02  0.1261273E+00
          1   -1    0    0  501    0  0.00000000000E+00  0.00000000000E+00  0.70357625779E+02  0.70357625779E+02  0.00000000000E+00 0. -1.
         -1   -1    0    0    0  501 -0.00000000000E+00 -0.00000000000E+00 -0.21808007724E+03  0.21808007724E+03  0.00000000000E+00 0.  1.
          5    1    1    2  502    0 -0.71997226355E+01 -0.94783834936E+02 -0.58647070435E+02  0.11177102774E+03  0.41800000000E+01 0.  1.
         -5    1    1    2    0  502 -0.82029079266E+01  0.39931882680E+02 -0.41289205189E+02  0.58173136566E+02  0.41800000000E+01 0.  1.
        -11    1    1    2    0    0  0.34135579814E+02  0.54584390614E+02 -0.66116710340E+02  0.92282787637E+02  0.00000000000E+00 0.  1.
         11    1    1    2    0    0 -0.18732949252E+02  0.26756164192E+00  0.18330534502E+02  0.26210751077E+02  0.00000000000E+00 0. -1.
</event>
<event>
 6    1  0.8989754E-006  0.1099314E+03  0.7561462E-02  0.1260697E+00
          1   -1    0    0  501    0  0.00000000000E+00  0.00000000000E+00  0.58276170062E+02  0.58276170062E+02  0.00000000000E+00 0. -1.
         -1   -1    0    0    0  501 -0.00000000000E+00 -0.00000000000E+00 -0.27862905324E+03  0.27862905324E+03  0.00000000000E+00 0.  1.
          5    1    1    2  502    0 -0.46304555079E+02 -0.11152385995E+02 -0.60758518801E+02  0.77314665758E+02  0.41800000000E+01 0.  1.
         -5    1    1    2    0  502  0.82790826709E+02 -0.91198647906E+01 -0.13651170457E+03  0.15997003096E+03  0.41800000000E+01 0.  1.
        -11    1    1    2    0    0 -0.37779486388E+02 -0.23742678246E+02  0.85109571851E+01  0.45425111494E+02  0.00000000000E+00 0. -1.
         11    1    1    2    0    0  0.12932147582E+01  0.44014929032E+02 -0.31593616992E+02  0.54195415090E+02  0.00000000000E+00 0.  1.
</event>
<event>
 6    1  0.8989754E-006  0.1032985E+03  0.7561462E-02  0.1273509E+00
         -2   -1    0    0    0  501 -0.00000000000E+00  0.00000000000E+00  0.57525041312E+02  0.57525041312E+02  0.00000000000E+00 0.  1.
          2   -1    0    0  501    0  0.00000000000E+00 -0.00000000000E+00 -0.32494682091E+03  0.32494682091E+03  0.00000000000E+00 0. -1.
          5    1    1    2  502    0 -0.46376938835E+02  0.60034495055E+02 -0.14018340735E+03  0.15944849058E+03  0.41800000000E+01 0. -1.
         -5    1    1    2    0  502 -0.16119367988E+02 -0.10624831722E+02  0.22454680138E+02  0.29906623573E+02  0.41800000000E+01 0. -1.
        -11    1    1    2    0    0  0.96666034329E+01 -0.56716620696E+02 -0.36901029243E+02  0.68351329499E+02  0.00000000000E+00 0.  1.
         11    1    1    2    0    0  0.52829703390E+02  0.73069573628E+01 -0.11279202315E+03  0.12476541857E+03  0.00000000000E+00 0. -1.
</event>
<event>
 6    1  0.1043851E-005  0.1380577E+03  0.7561462E-02  0.1215967E+00
          2   -1    0    0  501    0  0.00000000000E+00  0.00000000000E+00  0.28625425627E+03  0.28625425627E+03  0.00000000000E+00 0. -1.
         -2   -1    0    0    0  501 -0.00000000000E+00 -0.00000000000E+00 -0.80415335992E+02  0.80415335992E+02  0.00000000000E+00 0.  1.
          5    1    1    2  502    0  0.26521659776E+02  0.54882763318E+02 -0.23122076164E+01  0.61141923839E+02  0.41800000000E+01 0.  1.
         -5    1    1    2    0  502  0.73590656383E+02 -0.47717501176E+02  0.72726499902E+02  0.11401386237E+03  0.41800000000E+01 0.  1.
        -11    1    1    2    0    0 -0.65494256765E+02 -0.42236190246E+02  0.49087288596E+02  0.92102960525E+02  0.00000000000E+00 0.  1.
         11    1    1    2    0    0 -0.34618059394E+02  0.35070928104E+02  0.86337339400E+02  0.99410845530E+02  0.00000000000E+00 0. -1.
</event>
<event>
 6    1  0.8989754E-006  0.9862304E+02  0.7561462E-02  0.1283218E+00
         -2   -1    0    0    0  501 -0.00000000000E+00  0.00000000000E+00  0.20638045315E+02  0.20638045315E+02  0.00000000000E+00 0.  1.
          2   -1    0    0  501    0  0.00000000000E+00 -0.00000000000E+00 -0.67344545099E+03  0.67344545099E+03  0.00000000000E+00 0. -1.
          5    1    1    2  502    0  0.44794551605E+02  0.14949714292E+02 -0.24391562281E+03  0.24848007820E+03  0.41800000000E+01 0.  1.
         -5    1    1    2    0  502 -0.48021762480E+02  0.23749327875E+02 -0.50438331205E+02  0.73699510860E+02  0.41800000000E+01 0.  1.
        -11    1    1    2    0    0  0.21846543274E+02  0.22959988192E+02 -0.78917336302E+02  0.85043391747E+02  0.00000000000E+00 0. -1.
         11    1    1    2    0    0 -0.18619332400E+02 -0.61659030358E+02 -0.27953611536E+03  0.28686051550E+03  0.00000000000E+00 0.  1.
</event>
<event>
 6    1  0.8989754E-006  0.2039967E+03  0.7561462E-02  0.1146410E+00
         -1   -1    0    0    0  501 -0.00000000000E+00  0.00000000000E+00  0.10810471577E+04  0.10810471577E+04  0.00000000000E+00 0.  1.
          1   -1    0    0  501    0  0.00000000000E+00 -0.00000000000E+00 -0.42740607796E+02  0.42740607796E+02  0.00000000000E+00 0. -1.
          5    1    1    2  502    0 -0.86761580376E+01 -0.47663982847E+02  0.11860955679E+03  0.12819060161E+03  0.41800000000E+01 0.  1.
         -5    1    1    2    0  502 -0.16505606695E+03  0.16039079068E+02  0.56577727534E+03  0.58959490753E+03  0.41800000000E+01 0.  1.
        -11    1    1    2    0    0  0.98559602238E+02  0.57346020919E+02  0.25340192674E+03  0.27787604752E+03  0.00000000000E+00 0.  1.
         11    1    1    2    0    0  0.75172622748E+02 -0.25721117139E+02  0.10051779105E+03  0.12812620885E+03  0.00000000000E+00 0. -1.
</event>
<event>
 6    1  0.8989754E-006  0.6116743E+02  0.7561462E-02  0.1392997E+00
          4   -1    0    0  501    0  0.00000000000E+00  0.00000000000E+00  0.95529053483E+02  0.95529053483E+02  0.00000000000E+00 0.  1.
         -4   -1    0    0    0  501 -0.00000000000E+00 -0.00000000000E+00 -0.18355809369E+03  0.18355809369E+03  0.00000000000E+00 0. -1.
          5    1    1    2  502    0  0.23024528277E+02  0.40345832427E+01 -0.13914572821E+03  0.14115740450E+03  0.41800000000E+01 0.  1.
         -5    1    1    2    0  502  0.15861584537E+02  0.95722839818E+01  0.26173184130E+02  0.32337693983E+02  0.41800000000E+01 0.  1.
        -11    1    1    2    0    0 -0.58359062725E+02 -0.59084685646E+01  0.47010835171E+02  0.75171196787E+02  0.00000000000E+00 0.  1.
         11    1    1    2    0    0  0.19472949911E+02 -0.76983986598E+01 -0.22067331297E+02  0.30420851907E+02  0.00000000000E+00 0. -1.
</event>
<event>
 6    1  0.8989754E-006  0.1143499E+03  0.7561462E-02  0.1252720E+00
          1   -1    0    0  501    0  0.00000000000E+00  0.00000000000E+00  0.36957533055E+03  0.36957533055E+03  0.00000000000E+00 0. -1.
         -1   -1    0    0    0  501 -0.00000000000E+00 -0.00000000000E+00 -0.37790799366E+02  0.37790799366E+02  0.00000000000E+00 0.  1.
          5    1    1    2  502    0  0.60945435084E+02 -0.32155854208E+02  0.90537109765E+02  0.11385422988E+03  0.41800000000E+01 0. -1.
         -5    1    1    2    0  502 -0.70277603994E+02  0.81370569715E+01  0.86137798918E+02  0.11154526490E+03  0.41800000000E+01 0.  1.
        -11    1    1    2    0    0 -0.37792051420E+02  0.56288095550E+01  0.10054899714E+03  0.10756404359E+03  0.00000000000E+00 0. -1.
         11    1    1    2    0    0  0.47124220330E+02  0.18389987681E+02  0.54560625360E+02  0.74402591543E+02  0.00000000000E+00 0.  1.
</event>
<event>
 6    1  0.8989754E-006  0.1359231E+03  0.7561462E-02  0.1218922E+00
         -1   -1    0    0    0  501 -0.00000000000E+00  0.00000000000E+00  0.10007943373E+03  0.10007943373E+03  0.00000000000E+00 0.  1.
          1   -1    0    0  501    0  0.00000000000E+00 -0.00000000000E+00 -0.24265909408E+03  0.24265909408E+03  0.00000000000E+00 0. -1.
          5    1    1    2  502    0 -0.46352770623E+02  0.10697923468E+02 -0.31784462048E-01  0.47754563354E+02  0.41800000000E+01 0.  1.
         -5    1    1    2    0  502  0.37286986532E+02 -0.98110293501E+02 -0.74397042410E+01  0.10530323193E+03  0.41800000000E+01 0.  1.
        -11    1    1    2    0    0 -0.24842916672E+02  0.80762405571E+02 -0.50863318096E+02  0.98624610469E+02  0.00000000000E+00 0.  1.
         11    1    1    2    0    0  0.33908700762E+02  0.66499644619E+01 -0.84244853547E+02  0.91056122056E+02  0.00000000000E+00 0. -1.
</event>
<event>
 6    1  0.8989754E-006  0.1375188E+03  0.7561462E-02  0.1216707E+00
         -2   -1    0    0    0  501 -0.00000000000E+00  0.00000000000E+00  0.19063700357E+02  0.19063700357E+02  0.00000000000E+00 0.  1.
          2   -1    0    0  501    0  0.00000000000E+00 -0.00000000000E+00 -0.11817174905E+04  0.11817174905E+04  0.00000000000E+00 0. -1.
          5    1    1    2  502    0 -0.93721900797E+02 -0.42075150197E+02 -0.23137133884E+03  0.25318823391E+03  0.41800000000E+01 0. -1.
         -5    1    1    2    0  502  0.25123721190E+02 -0.28848710920E+02 -0.27433894513E+03  0.27702487018E+03  0.41800000000E+01 0. -1.
        -11    1    1    2    0    0  0.24564506570E+01  0.67459429907E+02 -0.29618817144E+03  0.30378321503E+03  0.00000000000E+00 0. -1.
         11    1    1    2    0    0  0.66141728950E+02  0.34644312095E+01 -0.36075533477E+03  0.36678487176E+03  0.00000000000E+00 0.  1.
</event>
<event>
 6    1  0.8989754E-006  0.1054421E+03  0.7561462E-02  0.1269251E+00
          1   -1    0    0  501    0  0.00000000000E+00  0.00000000000E+00  0.73525495023E+03  0.73525495023E+03  0.00000000000E+00 0. -1.
         -1   -1    0    0    0  501 -0.00000000000E+00 -0.00000000000E+00 -0.16123621883E+02  0.16123621883E+02  0.00000000000E+00 0.  1.
          5    1    1    2  502    0 -0.19170541076E+02  0.43360600127E+02  0.23049597999E+03  0.23535828109E+03  0.41800000000E+01 0. -1.
         -5    1    1    2    0  502  0.43170548386E+01 -0.75618385525E+02  0.18291631590E+03  0.19802178722E+03  0.41800000000E+01 0. -1.
        -11    1    1    2    0    0  0.30495423036E+02  0.53184798074E+02  0.20798535891E+03  0.21683289210E+03  0.00000000000E+00 0.  1.
         11    1    1    2    0    0 -0.15641936798E+02 -0.20927012675E+02  0.97733673544E+02  0.10116561170E+03  0.00000000000E+00 0. -1.
</event>
<event>
 6    1  0.8989754E-006  0.2034593E+03  0.7561462E-02  0.1146853E+00
          1   -1    0    0  501    0  0.00000000000E+00  0.00000000000E+00  0.16273197296E+03  0.16273197296E+03  0.00000000000E+00 0. -1.
         -1   -1    0    0    0  501 -0.00000000000E+00 -0.00000000000E+00 -0.32426637432E+03  0.32426637432E+03  0.00000000000E+00 0.  1.
          5    1    1    2  502    0  0.94048271911E+02 -0.81734845735E+02 -0.11293146867E+03  0.16821608565E+03  0.41800000000E+01 0.  1.
         -5    1    1    2    0  502  0.46279348779E+02 -0.63210830184E+02  0.28886220199E+02  0.83601873743E+02  0.41800000000E+01 0.  1.
        -11    1    1    2    0    0 -0.42591139853E+02  0.64066934222E+02 -0.76243835985E+02  0.10831297143E+03  0.00000000000E+00 0.  1.
         11    1    1    2    0    0 -0.97736480836E+02  0.80878741696E+02 -0.12453169042E+01  0.12686741646E+03  0.00000000000E+00 0. -1.
</event>
<event>
 6    1  0.8989754E-006  0.1292210E+03  0.7561462E-02  0.1228616E+00
         -2   -1    0    0    0  501 -0.00000000000E+00  0.00000000000E+00  0.20023521665E+03  0.20023521665E+03  0.00000000000E+00 0.  1.
          2   -1    0    0  501    0  0.00000000000E+00 -0.00000000000E+00 -0.12628878250E+03  0.12628878250E+03  0.00000000000E+00 0. -1.
          5    1    1    2  502    0  0.21888258102E+02  0.48243375729E+02  0.55976789664E+02  0.77184146854E+02  0.41800000000E+01 0.  1.
         -5    1    1    2    0  502  0.41067592631E+02 -0.80110377148E+02  0.76735293173E+02  0.11836383447E+03  0.41800000000E+01 0.  1.
        -11    1    1    2    0    0  0.11416353648E+02 -0.21020607439E+02 -0.32072534691E+01  0.24134737259E+02  0.00000000000E+00 0.  1.
         11    1    1    2    0    0 -0.74372204381E+02  0.52887608858E+02 -0.55558395211E+02  0.10684128057E+03  0.00000000000E+00 0. -1.
</event>
<event>
 6    1  0.8989754E-006  0.2307971E+03  0.7561462E-02  0.1126080E+00
          3   -1    0    0  501    0  0.00000000000E+00  0.00000000000E+00  0.97231073738E+03  0.97231073738E+03  0.00000000000E+00 0. -1.
         -3   -1    0    0    0  501 -0.00000000000E+00 -0.00000000000E+00 -0.81233647398E+02  0.81233647398E+02  0.00000000000E+00 0.  1.
          5    1    1    2  502    0  0.16680456200E+02  0.17700295998E+02  0.44538940811E+02  0.50918834885E+02  0.41800000000E+01 0.  1.
         -5    1    1    2    0  502 -0.17656884227E+03  0.11924082711E+03  0.12720551386E+03  0.24818067223E+03  0.41800000000E+01 0.  1.
        -11    1    1    2    0    0  0.38753545693E+02  0.28288454403E+01  0.80686794674E+02  0.89555560995E+02  0.00000000000E+00 0.  1.
         11    1    1    2    0    0  0.12113484038E+03 -0.13976996855E+03  0.63864584064E+03  0.66488931667E+03  0.00000000000E+00 0. -1.
</event>
<event>
 6    1  0.1255067E-005  0.2875901E+03  0.7561462E-02  0.1091614E+00
          2   -1    0    0  501    0  0.00000000000E+00  0.00000000000E+00  0.41145926087E+03  0.41145926087E+03  0.00000000000E+00 0. -1.
         -2   -1    0    0    0  501 -0.00000000000E+00 -0.00000000000E+00 -0.21191515783E+03  0.21191515783E+03  0.00000000000E+00 0.  1.
          5    1    1    2  502    0  0.86950139195E+02 -0.41100732170E+02  0.81008729472E+02  0.12581527547E+03  0.41800000000E+01 0. -1.
         -5    1    1    2    0  502  0.18716956964E+03  0.47296109097E+02  0.30310477653E+02  0.19546244445E+03  0.41800000000E+01 0. -1.
        -11    1    1    2    0    0 -0.18098195248E+03  0.34389871373E+02  0.35410604602E+02  0.18759275384E+03  0.00000000000E+00 0.  1.
         11    1    1    2    0    0 -0.93137756359E+02 -0.40585248301E+02  0.52814291310E+02  0.11450394494E+03  0.00000000000E+00 0. -1.
</event>
<event>
 6    1  0.8989754E-006  0.1676523E+03  0.7561462E-02  0.1180319E+00
         -1   -1    0    0    0  501 -0.00000000000E+00  0.00000000000E+00  0.42146807547E+02  0.42146807547E+02  0.00000000000E+00 0.  1.
          1   -1    0    0  501    0  0.00000000000E+00 -0.00000000000E+00 -0.86046239135E+03  0.86046239135E+03  0.00000000000E+00 0. -1.
          5    1    1    2  502    0  0.68863114603E+01 -0.17430961397E+02 -0.23738122924E+01  0.19348568049E+02  0.41800000000E+01 0. -1.
         -5    1    1    2    0  502 -0.12617216933E+03  0.91910103854E+02 -0.26588318733E+03  0.30834757209E+03  0.41800000000E+01 0. -1.
        -11    1    1    2    0    0  0.11323263867E+03 -0.32879786530E+02 -0.46909483656E+03  0.48368654778E+03  0.00000000000E+00 0. -1.
         11    1    1    2    0    0  0.60532192004E+01 -0.41599355927E+02 -0.80963747617E+02  0.91226510974E+02  0.00000000000E+00 0.  1.
</event>
<event>
 6    1  0.8989754E-006  0.1252928E+03  0.7561462E-02  0.1234612E+00
         -2   -1    0    0    0  501 -0.00000000000E+00  0.00000000000E+00  0.15502682972E+03  0.15502682972E+03  0.00000000000E+00 0.  1.
          2   -1    0    0  501    0  0.00000000000E+00 -0.00000000000E+00 -0.34070734330E+03  0.34070734330E+03  0.00000000000E+00 0. -1.
          5    1    1    2  502    0  0.64935151974E+02  0.81397939113E+01  0.21764665581E+02  0.69094162377E+02  0.41800000000E+01 0. -1.
         -5    1    1    2    0  502 -0.14076175278E+02 -0.65749554320E+02  0.86293299477E+02  0.10947670318E+03  0.41800000000E+01 0.  1.
        -11    1    1    2    0    0 -0.61417858628E+02  0.24375275215E+01 -0.12451267301E+03  0.13885784328E+03  0.00000000000E+00 0.  1.
         11    1    1    2    0    0  0.10558881932E+02  0.55172232888E+02 -0.16922580563E+03  0.17830546419E+03  0.00000000000E+00 0. -1.
</event>
<event>
 6    1  0.8989754E-006  0.7799429E+02  0.7561462E-02  0.1334842E+00
          1   -1    0    0  501    0  0.00000000000E+00  0.00000000000E+00  0.26883819679E+03  0.26883819679E+03  0.00000000000E+00 0. -1.
         -1   -1    0    0    0  501 -0.00000000000E+00 -0.00000000000E+00 -0.63894867118E+02  0.63894867118E+02  0.00000000000E+00 0.  1.
          5    1    1    2  502    0  0.50480390435E+02 -0.44091971776E+02 -0.17487466640E+02  0.69394925485E+02  0.41800000000E+01 0. -1.
         -5    1    1    2    0  502 -0.24870097479E+01  0.16211981601E+01  0.87462288827E+02  0.87612429871E+02  0.41800000000E+01 0. -1.
        -11    1    1    2    0    0 -0.41139072778E+02  0.46171165593E+00  0.12556703580E+03  0.13213522228E+03  0.00000000000E+00 0. -1.
         11    1    1    2    0    0 -0.68543079098E+01  0.42009061960E+02  0.94014716824E+01  0.43590486273E+02  0.00000000000E+00 0.  1.
</event>
<event>
 6    1  0.8989754E-006  0.1484349E+03  0.7561462E-02  0.1202409E+00
          1   -1    0    0  501    0  0.00000000000E+00  0.00000000000E+00  0.98791618336E+02  0.98791618336E+02  0.00000000000E+00 0. -1.
         -1   -1    0    0    0  501 -0.00000000000E+00 -0.00000000000E+00 -0.28044201803E+03  0.28044201803E+03  0.00000000000E+00 0.  1.
          5    1    1    2  502    0 -0.51680725643E+02 -0.67352328581E+01 -0.99016067410E+02  0.11197283050E+03  0.41800000000E+01 0. -1.
         -5    1    1    2    0  502 -0.43366583901E+02 -0.89532971587E+02 -0.51860325553E+01  0.99705470934E+02  0.41800000000E+01 0. -1.
        -11    1    1    2    0    0  0.35506000701E+02  0.47361664865E+01 -0.41923804346E+01  0.36064988735E+02  0.00000000000E+00 0. -1.
         11    1    1    2    0    0  0.59541308844E+02  0.91532037959E+02 -0.73255919297E+02  0.13149034620E+03  0.00000000000E+00 0.  1.
</event>
<event>
 6    1  0.1070904E-005  0.1395804E+03  0.7561462E-02  0.1213895E+00
          3   -1    0    0  501    0  0.00000000000E+00  0.00000000000E+00  0.14750609531E+03  0.14750609531E+03  0.00000000000E+00 0. -1.
         -3   -1    0    0    0  501 -0.00000000000E+00 -0.00000000000E+00 -0.14946690329E+03  0.14946690329E+03  0.00000000000E+00 0.  1.
          5    1    1    2  502    0  0.63416904282E+02  0.32728799140E+02 -0.37822117186E+02  0.80875601947E+02  0.41800000000E+01 0. -1.
         -5    1    1    2    0  502 -0.43961057406E+02  0.64397194588E+02  0.17364457786E+02  0.79991062208E+02  0.41800000000E+01 0. -1.
        -11    1    1    2    0    0  0.79135375219E+01 -0.10155694218E+03 -0.15763008770E+01  0.10187699105E+03  0.00000000000E+00 0.  1.
         11    1    1    2    0    0 -0.27369384398E+02  0.44309484511E+01  0.20073152291E+02  0.34229343397E+02  0.00000000000E+00 0. -1.
</event>
<event>
 6    1  0.8989754E-006  0.1122951E+03  0.7561462E-02  0.1256378E+00
         -2   -1    0    0    0  501 -0.00000000000E+00  0.00000000000E+00  0.56684233123E+02  0.56684233123E+02  0.00000000000E+00 0.  1.
          2   -1    0    0  501    0  0.00000000000E+00 -0.00000000000E+00 -0.25359552007E+03  0.25359552007E+03  0.00000000000E+00 0. -1.
          5    1    1    2  502    0  0.71231799572E+02  0.39965278957E+01 -0.67370484637E+02  0.98215050301E+02  0.41800000000E+01 0. -1.
         -5    1    1    2    0  502 -0.44984137996E+02  0.28979889549E+02 -0.94105659890E+01  0.54492548314E+02  0.41800000000E+01 0. -1.
        -11    1    1    2    0    0 -0.20644910224E+01  0.30993274794E+02 -0.54817073952E+02  0.63006006081E+02  0.00000000000E+00 0. -1.
         11    1    1    2    0    0 -0.24183170553E+02 -0.63969692239E+02 -0.65313162373E+02  0.94566148501E+02  0.00000000000E+00 0.  1.
</event>
<event>
 6    1  0.8989754E-006  0.8760770E+02  0.7561462E-02  0.1308751E+00
         -2   -1    0    0    0  501 -0.00000000000E+00  0.00000000000E+00  0.49608734088E+02  0.49608734088E+02  0.00000000000E+00 0.  1.
          2   -1    0    0  501    0  0.00000000000E+00 -0.00000000000E+00 -0.25887132490E+03  0.25887132490E+03  0.00000000000E+00 0. -1.
          5    1    1    2  502    0  0.28001949496E+00  0.45027973997E+02 -0.85711678584E+02  0.96910067067E+02  0.41800000000E+01 0.  1.
         -5    1    1    2    0  502 -0.29403371040E+02 -0.47510323105E+02  0.25977916538E+01  0.56089303362E+02  0.41800000000E+01 0.  1.
        -11    1    1    2    0    0  0.13203905320E+02  0.35191166819E+02 -0.18581433828E+02  0.41928880511E+02  0.00000000000E+00 0.  1.
         11    1    1    2    0    0  0.15919446225E+02 -0.32708817711E+02 -0.10756727005E+03  0.11355180805E+03  0.00000000000E+00 0. -1.
</event>
<event>
 6    1  0.8989754E-006  0.9318626E+02  0.7561462E-02  0.1295314E+00
          2   -1    0    0  501    0  0.00000000000E+00  0.00000000000E+00  0.75903420884E+02  0.75903420884E+02  0.00000000000E+00 0. -1.
         -2   -1    0    0    0  501 -0.00000000000E+00 -0.00000000000E+00 -0.20931632005E+03  0.20931632005E+03  0.00000000000E+00 0.  1.
          5    1    1    2  502    0 -0.40806624742E+02 -0.51666487162E+02 -0.10373716080E+02  0.66780932187E+02  0.41800000000E+01 0. -1.
         -5    1    1    2    0  502 -0.86689255601E+01  0.33466139660E+02 -0.10749665832E+03  0.11299618013E+03  0.41800000000E+01 0. -1.
        -11    1    1    2    0    0  0.66044613544E+02  0.19760455212E+02  0.15100574098E+02  0.70571905929E+02  0.00000000000E+00 0. -1.
         11    1    1    2    0    0 -0.16569063242E+02 -0.15601077100E+01 -0.30643098856E+02  0.34870722681E+02  0.00000000000E+00 0.  1.
</event>
<event>
 6    1  0.8989754E-006  0.1136839E+03  0.7561462E-02  0.1253896E+00
          2   -1    0    0  501    0  0.00000000000E+00  0.00000000000E+00  0.43650631348E+03  0.43650631348E+03  0.00000000000E+00 0. -1.
         -2   -1    0    0    0  501 -0.00000000000E+00 -0.00000000000E+00 -0.80743756683E+02  0.80743756683E+02  0.00000000000E+00 0.  1.
          5    1    1    2  502    0  0.85039772712E+02  0.22047501539E+02  0.93005348581E+02  0.12800516603E+03  0.41800000000E+01 0. -1.
         -5    1    1    2    0  502 -0.44356551626E+02 -0.32781789155E+02 -0.41676645455E+02  0.69257234632E+02  0.41800000000E+01 0.  1.
        -11    1    1    2    0    0 -0.50233402363E+02 -0.18358491195E+02  0.26347463928E+03  0.26884812526E+03  0.00000000000E+00 0.  1.
         11    1    1    2    0    0  0.95501812780E+01  0.29092778811E+02  0.40959214399E+02  0.51139544244E+02  0.00000000000E+00 0. -1.
</event>
<event>
 6    1  0.8989754E-006  0.1271093E+03  0.7561462E-02  0.1231809E+00
          2   -1    0    0  501    0  0.00000000000E+00  0.00000000000E+00  0.67772632119E+03  0.67772632119E+03  0.00000000000E+00 0. -1.
         -2   -1    0    0    0  501 -0.00000000000E+00 -0.00000000000E+00 -0.24588202730E+02  0.24588202730E+02  0.00000000000E+00 0.  1.
          5    1    1    2  502    0 -0.19951533773E+02  0.87421971525E+02  0.19684896816E+03  0.21635076489E+03  0.41800000000E+01 0.  1.
         -5    1    1    2    0  502 -0.30436304775E+02 -0.41813759343E+02  0.14233520908E+03  0.15149766752E+03  0.41800000000E+01 0.  1.
        -11    1    1    2    0    0  0.22596712723E+02 -0.71252445018E+02  0.24051626562E+03  0.25186424196E+03  0.00000000000E+00 0. -1.
         11    1    1    2    0    0  0.27791125826E+02  0.25644232836E+02  0.73437675601E+02  0.82601849556E+02  0.00000000000E+00 0.  1.
</event>
<event>
 6    1  0.8989754E-006  0.1100498E+03  0.7561462E-02  0.1260478E+00
         -2   -1    0    0    0  501 -0.00000000000E+00  0.00000000000E+00  0.74289716097E+03  0.74289716097E+03  0.00000000000E+00 0.  1.
          2   -1    0    0  501    0  0.00000000000E+00 -0.00000000000E+00 -0.19474521599E+02  0.19474521599E+02  0.00000000000E+00 0. -1.
          5    1    1    2  502    0  0.45027127733E+02  0.38026557554E+02  0.11104936387E+03  0.12578908906E+03  0.41800000000E+01 0. -1.
         -5    1    1    2    0  502 -0.62810445742E+02  0.11227837771E+02  0.31121721438E+03  0.31771818230E+03  0.41800000000E+01 0. -1.
        -11    1    1    2    0    0 -0.27283242518E+02 -0.43902294608E+02  0.99054339232E+02  0.11172980316E+03  0.00000000000E+00 0. -1.
         11    1    1    2    0    0  0.45066560528E+02 -0.53521007175E+01  0.20210172189E+03  0.20713460804E+03  0.00000000000E+00 0.  1.
</event>
<event>
 6    1  0.8989754E-006  0.2468142E+03  0.7561462E-02  0.1115335E+00
          3   -1    0    0  501    0  0.00000000000E+00  0.00000000000E+00  0.12482917030E+03  0.12482917030E+03  0.00000000000E+00 0. -1.
         -3   -1    0    0    0  501 -0.00000000000E+00 -0.00000000000E+00 -0.68702511703E+03  0.68702511703E+03  0.00000000000E+00 0.  1.
          5    1    1    2  502    0 -0.19170503021E+02  0.95739144163E+02 -0.25837346258E+03  0.27623868389E+03  0.41800000000E+01 0.  1.
         -5    1    1    2    0  502  0.10333130032E+03  0.11114084432E+03 -0.23887712470E+03  0.28303603659E+03  0.41800000000E+01 0.  1.
        -11    1    1    2    0    0 -0.12452107254E+02 -0.15519241385E+03 -0.41153727478E+02  0.16103841025E+03  0.00000000000E+00 0.  1.
         11    1    1    2    0    0 -0.71708690050E+02 -0.51687574634E+02 -0.23791631963E+02  0.91541156600E+02  0.00000000000E+00 0. -1.
</event>
<event>
 6    1  0.8989754E-006  0.1216593E+03  0.7561462E-02  0.1240384E+00
         -3   -1    0    0    0  501 -0.00000000000E+00  0.00000000000E+00  0.86680018265E+02  0.86680018265E+02  0.00000000000E+00 0.  1.
          3   -1    0    0  501    0  0.00000000000E+00 -0.00000000000E+00 -0.18333859366E+03  0.18333859366E+03  0.00000000000E+00 0. -1.
          5    1    1    2  502    0 -0.21826445534E+02 -0.38753939862E+02 -0.19160545089E+02  0.48609263187E+02  0.41800000000E+01 0. -1.
         -5    1    1    2    0  502  0.79233133010E+02  0.56409127715E+02 -0.23094694690E+02  0.10005356755E+03  0.41800000000E+01 0.  1.
        -11    1    1    2    0    0 -0.62859727889E+00 -0.40198665723E+02 -0.10020874217E+01  0.40216066935E+02  0.00000000000E+00 0.  1.
         11    1    1    2    0    0 -0.56778090197E+02  0.22543477870E+02 -0.53401248199E+02  0.81139714260E+02  0.00000000000E+00 0. -1.
</event>
<event>
 6    1  0.8989754E-006  0.9544728E+02  0.7561462E-02  0.1290172E+00
         -1   -1    0    0    0  501 -0.00000000000E+00  0.00000000000E+00  0.60023489561E+02  0.60023489561E+02  0.00000000000E+00 0.  1.
          1   -1    0    0  501    0  0.00000000000E+00 -0.00000000000E+00 -0.29074659141E+03  0.29074659141E+03  0.00000000000E+00 0. -1.
          5    1    1    2  502    0 -0.40674615929E+02  0.75414142076E+02 -0.43705690262E+01  0.85896981784E+02  0.41800000000E+01 0.  1.
         -5    1    1    2    0  502 -0.21025112078E+01 -0.23384730522E+02 -0.71072675966E+02  0.74967085071E+02  0.41800000000E+01 0.  1.
        -11    1    1    2    0    0 -0.24656459274E+01 -0.31468485859E+02 -0.54273818455E+01  0.32028135847E+02  0.00000000000E+00 0.  1.
         11    1    1    2    0    0  0.45242773065E+02 -0.20560925695E+02 -0.14985247501E+03  0.15787787827E+03  0.00000000000E+00 0. -1.
</event>
<event>
 6    1  0.8989754E-006  0.1831935E+03  0.7561462E-02  0.1164748E+00
          2   -1    0    0  501    0  0.00000000000E+00  0.00000000000E+00  0.14511403624E+04  0.14511403624E+04  0.00000000000E+00 0.  1.
         -2   -1    0    0    0  501 -0.00000000000E+00 -0.00000000000E+00 -0.27482611110E+02  0.27482611110E+02  0.00000000000E+00 0. -1.
          5    1    1    2  502    0  0.53238752359E+02 -0.72748385502E+02  0.18086035819E+03  0.20212529261E+03  0.41800000000E+01 0.  1.
         -5    1    1    2    0  502  0.96096546949E+02  0.39277563413E+02  0.31489453287E+03  0.33159208759E+03  0.41800000000E+01 0.  1.
        -11    1    1    2    0    0 -0.13794001887E+03  0.11194853439E+01  0.82456807871E+03  0.83602704410E+03  0.00000000000E+00 0.  1.
         11    1    1    2    0    0 -0.11395280442E+02  0.32351336745E+02  0.10333478156E+03  0.10887854925E+03  0.00000000000E+00 0. -1.
</event>
<event>
 6    1  0.8989754E-006  0.8156999E+02  0.7561462E-02  0.1324654E+00
         -1   -1    0    0    0  501 -0.00000000000E+00  0.00000000000E+00  0.97121697622E+02  0.97121697622E+02  0.00000000000E+00 0.  1.
          1   -1    0    0  501    0  0.00000000000E+00 -0.00000000000E+00 -0.19662938789E+03  0.19662938789E+03  0.00000000000E+00 0. -1.
          5    1    1    2  502    0  0.78559420691E+01  0.38007584092E+02 -0.19317546673E+02  0.43553786101E+02  0.41800000000E+01 0.  1.
         -5    1    1    2    0  502 -0.11294709306E+02 -0.75963783556E+02  0.46927713432E+02  0.90098554697E+02  0.41800000000E+01 0.  1.
        -11    1    1    2    0    0  0.15436156994E+02  0.16398780313E+02 -0.13287076129E+03  0.13476584932E+03  0.00000000000E+00 0. -1.
         11    1    1    2    0    0 -0.11997389757E+02  0.21557419152E+02  0.57529042603E+01  0.25332895391E+02  0.00000000000E+00 0.  1.
</event>
<event>
 6    1  0.8989754E-006  0.2390494E+03  0.7561462E-02  0.1120428E+00
         -2   -1    0    0    0  501 -0.00000000000E+00  0.00000000000E+00  0.78939162473E+02  0.78939162473E+02  0.00000000000E+00 0.  1.
          2   -1    0    0  501    0  0.00000000000E+00 -0.00000000000E+00 -0.88916007804E+03  0.88916007804E+03  0.00000000000E+00 0. -1.
          5    1    1    2  502    0  0.15932223431E+02  0.16898046033E+02 -0.12039427313E+03  0.12268509733E+03  0.41800000000E+01 0. -1.
         -5    1    1    2    0  502  0.17783341281E+03  0.11043766609E+03 -0.17270628824E+03  0.27141506075E+03  0.41800000000E+01 0. -1.
        -11    1    1    2    0    0 -0.16761187868E+03 -0.69121913117E+02 -0.42369514724E+03  0.46085698274E+03  0.00000000000E+00 0. -1.
         11    1    1    2    0    0 -0.26153757555E+02 -0.58213799006E+02 -0.93425206953E+02  0.11314209969E+03  0.00000000000E+00 0.  1.
</event>
<event>
 6    1  0.8989754E-006  0.2823555E+03  0.7561462E-02  0.1094409E+00
         -2   -1    0    0    0  501 -0.00000000000E+00  0.00000000000E+00  0.25567357924E+04  0.25567357924E+04  0.00000000000E+00 0.  1.
          2   -1    0    0  501    0  0.00000000000E+00 -0.00000000000E+00 -0.33509050585E+02  0.33509050585E+02  0.00000000000E+00 0. -1.
          5    1    1    2  502    0  0.97526817250E+02  0.20048842888E+02  0.47810086572E+03  0.48837623446E+03  0.41800000000E+01 0. -1.
         -5    1    1    2    0  502  0.15303700488E+03 -0.12073418074E+03  0.68680435075E+03  0.71394310409E+03  0.41800000000E+01 0. -1.
        -11    1    1    2    0    0 -0.16817561181E+03  0.70132120746E+02  0.11019468906E+04  0.11169102473E+04  0.00000000000E+00 0.  1.
         11    1    1    2    0    0 -0.82388210320E+02  0.30553217102E+02  0.25637463477E+03  0.27101525718E+03  0.00000000000E+00 0. -1.
</event>
<event>
 6    1  0.8989754E-006  0.1239255E+03  0.7561462E-02  0.1236758E+00
          2   -1    0    0  501    0  0.00000000000E+00  0.00000000000E+00  0.14916951720E+03  0.14916951720E+03  0.00000000000E+00 0. -1.
         -2   -1    0    0    0  501 -0.00000000000E+00 -0.00000000000E+00 -0.21238987351E+03  0.21238987351E+03  0.00000000000E+00 0.  1.
          5    1    1    2  502    0 -0.84315232841E+02  0.42469036622E+02 -0.14049209046E+03  0.16931679610E+03  0.41800000000E+01 0.  1.
         -5    1    1    2    0  502  0.38385234523E+02  0.11437567979E+02 -0.16433341981E+02  0.43494497576E+02  0.41800000000E+01 0.  1.
        -11    1    1    2    0    0  0.42080875313E+02  0.14543183675E+02  0.22434840205E+02  0.49856055936E+02  0.00000000000E+00 0. -1.
         11    1    1    2    0    0  0.38491230046E+01 -0.68449788277E+02  0.71270235927E+02  0.98892041096E+02  0.00000000000E+00 0.  1.
</event>
<event>
 6    1  0.8989754E-006  0.8412567E+02  0.7561462E-02  0.1317735E+00
         -1   -1    0    0    0  501 -0.00000000000E+00  0.00000000000E+00  0.14262025778E+03  0.14262025778E+03  0.00000000000E+00 0.  1.
          1   -1    0    0  501    0  0.00000000000E+00 -0.00000000000E+00 -0.12828590713E+03  0.12828590713E+03  0.00000000000E+00 0. -1.
          5    1    1    2  502    0 -0.28443368286E+02 -0.19598945266E+02  0.67512280758E+02  0.75950801892E+02  0.41800000000E+01 0. -1.
         -5    1    1    2    0  502  0.75892511867E+02  0.45386924008E+01  0.34090412718E+01  0.76219203936E+02  0.41800000000E+01 0. -1.
        -11    1    1    2    0    0 -0.36384109531E+02 -0.25970343823E+01  0.18437500819E+02  0.40871621578E+02  0.00000000000E+00 0.  1.
         11    1    1    2    0    0 -0.11065034050E+02  0.17657287247E+02 -0.75024472199E+02  0.77864537500E+02  0.00000000000E+00 0. -1.
</event>
<event>
 6    1  0.8989754E-006  0.1122335E+03  0.7561462E-02  0.1256489E+00
         -1   -1    0    0    0  501 -0.00000000000E+00  0.00000000000E+00  0.27276998323E+03  0.27276998323E+03  0.00000000000E+00 0.  1.
          1   -1    0    0  501    0  0.00000000000E+00 -0.00000000000E+00 -0.19730516705E+03  0.19730516705E+03  0.00000000000E+00 0. -1.
          5    1    1    2  502    0  0.20028291457E+02 -0.63509857211E+02  0.48264268758E+02  0.82350145479E+02  0.41800000000E+01 0. -1.
         -5    1    1    2    0  502 -0.54159984848E+02 -0.15527402528E+02  0.18146878136E+03  0.19005997789E+03  0.41800000000E+01 0.  1.
        -11    1    1    2    0    0  0.35181205564E+02  0.16776440225E+02 -0.95658797249E+01  0.40133181116E+02  0.00000000000E+00 0.  1.
         11    1    1    2    0    0 -0.10495121737E+01  0.62260819515E+02 -0.14470235422E+03  0.15753184579E+03  0.00000000000E+00 0. -1.
</event>
<event>
 6    1  0.8989754E-006  0.1307380E+03  0.7561462E-02  0.1226365E+00
          1   -1    0    0  501    0  0.00000000000E+00  0.00000000000E+00  0.13387917060E+03  0.13387917060E+03  0.00000000000E+00 0. -1.
         -1   -1    0    0    0  501 -0.00000000000E+00 -0.00000000000E+00 -0.49685347621E+03  0.49685347621E+03  0.00000000000E+00 0.  1.
          5    1    1    2  502    0 -0.64707932860E+01 -0.13952925635E+02 -0.30698667910E+03  0.30740014451E+03  0.41800000000E+01 0. -1.
         -5    1    1    2    0  502  0.41984860443E+02 -0.93950619744E+02 -0.12491808195E+03  0.16189949677E+03  0.41800000000E+01 0.  1.
        -11    1    1    2    0    0  0.20421928201E+02 -0.64772770434E+00 -0.14569448559E+01  0.20484076521E+02  0.00000000000E+00 0.  1.
         11    1    1    2    0    0 -0.55935995358E+02  0.10855127308E+03  0.70387400299E+02  0.14094892900E+03  0.00000000000E+00 0. -1.
</event>
<event>
 6    1  0.8989754E-006  0.1802860E+03  0.7561462E-02  0.1167526E+00
          2   -1    0    0  501    0  0.00000000000E+00  0.00000000000E+00  0.25015956541E+03  0.25015956541E+03  0.00000000000E+00 0. -1.
         -2   -1    0    0    0  501 -0.00000000000E+00 -0.00000000000E+00 -0.13662327003E+03  0.13662327003E+03  0.00000000000E+00 0.  1.
          5    1    1    2  502    0 -0.19407285662E+02 -0.42504435082E+01  0.25690795469E+02  0.32744440423E+02  0.41800000000E+01 0.  1.
         -5    1    1    2    0  502  0.15904295772E+03 -0.44201062279E+02  0.21096928000E+02  0.16646605983E+03  0.41800000000E+01 0.  1.
        -11    1    1    2    0    0 -0.31221624944E+02 -0.28439929250E+02  0.12826504103E+02  0.44137723632E+02  0.00000000000E+00 0.  1.
         11    1    1    2    0    0 -0.10841404711E+03  0.76891435037E+02  0.53922067810E+02  0.14343461155E+03  0.00000000000E+00 0. -1.
</event>
<event>
 6    1  0.8989754E-006  0.1144315E+03  0.7561462E-02  0.1252577E+00
         -2   -1    0    0    0  501 -0.00000000000E+00  0.00000000000E+00  0.10336676464E+03  0.10336676464E+03  0.00000000000E+00 0.  1.
          2   -1    0    0  501    0  0.00000000000E+00 -0.00000000000E+00 -0.16067292658E+03  0.16067292658E+03  0.00000000000E+00 0. -1.
          5    1    1    2  502    0  0.78653256066E+02 -0.60228226151E+01  0.77679264992E+01  0.79375198672E+02  0.41800000000E+01 0. -1.
         -5    1    1    2    0  502 -0.38456731473E+02  0.36174612750E+02  0.14344603072E+02  0.54870418629E+02  0.41800000000E+01 0.  1.
        -11    1    1    2    0    0 -0.59733144543E+02  0.14532636688E+01 -0.68855171487E+02  0.91165756580E+02  0.00000000000E+00 0.  1.
         11    1    1    2    0    0  0.19536619950E+02 -0.31605053804E+02 -0.10563520030E+02  0.38628317339E+02  0.00000000000E+00 0. -1.
</event>
